                         Program Version 4.2.0 -  RELEASE  -
|  1> # ORCA input file
|  2> # SCF done        -20.684385501961          0.000947438307
|  3> ! B3LYP/G D3BJ Opt RIJCOSX def2-SVP def2/J
|  4> * xyz 0 1
|  5>    N        1.02857         0.00823        -0.11020
|  6>    C        2.41659         0.09901        -0.00640
|  7>    C        3.14885         1.24345        -0.02882
|  8>    S        4.84537         0.93868         0.03785
|  9>    C        4.56724        -0.76278         0.09443
| 10>    C        3.24443        -1.07188         0.06059
| 11>    N        2.69583        -2.35107         0.15409
| 12>    H        0.56275         0.89173         0.04230
| 13>    H        0.64032        -0.72203         0.47178
| 14>    H        2.79545         2.25302        -0.08694
| 15>    H        5.40107        -1.43261         0.15596
| 16>    H        3.37488        -3.08341         0.00318
| 17>    H        1.88209        -2.47013        -0.43361
| 18> *
| 19>
| 20>                          ****END OF INPUT****
 Total Charge           Charge          ....    0
 Multiplicity           Mult            ....    1
 Number of Electrons    NEL             ....   60
Dispersion correction           -0.023532894
FINAL SINGLE POINT ENERGY      -663.434800855737
Dispersion correction            ... done
Dispersion correction           -0.023474524
FINAL SINGLE POINT ENERGY      -663.436746311012
Dispersion correction            ... done
Dispersion correction           -0.023475496
FINAL SINGLE POINT ENERGY      -663.437097804776
Dispersion correction            ... done
FINAL SINGLE POINT ENERGY      -663.437224636138
FINAL SINGLE POINT ENERGY      -663.437239742430
Dispersion correction            ... done
Dispersion correction           -0.023492039
FINAL SINGLE POINT ENERGY      -663.437240001689
Dispersion correction            ... done
Dispersion correction           -0.023491108
FINAL SINGLE POINT ENERGY      -663.437241813027
Dispersion correction            ... done
                    ***********************HURRAY********************

CARTESIAN COORDINATES (ANGSTROEM)
---------------------------------
  N      1.026730   -0.029380   -0.096069
  C      2.418465    0.109535   -0.008461
  C      3.157948    1.266933   -0.033733
  S      4.865297    0.950295    0.037351
  C      4.590119   -0.763246    0.096551
  C      3.251698   -1.070803    0.059516
  N      2.653779   -2.335304    0.143597
  H      0.521510    0.846793   -0.007729
  H      0.668736   -0.711179    0.571931
  H      2.787204    2.289287   -0.080360
  H      5.428501   -1.455832    0.146908
  H      3.316029   -3.102607    0.076766
  H      1.917424   -2.454282   -0.552059

 Multiplicity           Mult            ....    1
 Number of Electrons    NEL             ....   60
 Basis Dimension        Dim             ....  132

ORBITAL ENERGIES
----------------

  NO   OCC          E(Eh)            E(eV)
   0   2.0000     -88.851659     -2417.7765
   1   2.0000     -14.331223      -389.9724
   2   2.0000     -14.330590      -389.9552
   3   2.0000     -10.213555      -277.9250
   4   2.0000     -10.213308      -277.9182
   5   2.0000     -10.188687      -277.2483
   6   2.0000     -10.188248      -277.2363
   7   2.0000      -7.946388      -216.2322
   8   2.0000      -5.914837      -160.9509
   9   2.0000      -5.910896      -160.8437
  10   2.0000      -5.907053      -160.7391
  11   2.0000      -0.922002       -25.0890
  12   2.0000      -0.879373       -23.9290
  13   2.0000      -0.835552       -22.7365
  14   2.0000      -0.692989       -18.8572
  15   2.0000      -0.691208       -18.8087
  16   2.0000      -0.580935       -15.8080
  17   2.0000      -0.541426       -14.7330
  18   2.0000      -0.514010       -13.9869
  19   2.0000      -0.495376       -13.4799
  20   2.0000      -0.485261       -13.2046
  21   2.0000      -0.438518       -11.9327
  22   2.0000      -0.391850       -10.6628
  23   2.0000      -0.380069       -10.3422
  24   2.0000      -0.377681       -10.2772
  25   2.0000      -0.341816        -9.3013
  26   2.0000      -0.307703        -8.3730
  27   2.0000      -0.301388        -8.2012
  28   2.0000      -0.203932        -5.5493
  29   2.0000      -0.192150        -5.2287
  30   0.0000       0.008246         0.2244
  31   0.0000       0.043122         1.1734
  32   0.0000       0.057319         1.5597
  33   0.0000       0.081149         2.2082
  34   0.0000       0.088135         2.3983

MULLIKEN ATOMIC CHARGES
-----------------------
   0 N :   -0.098616
   1 C :    0.052622
   2 C :   -0.193596
   3 S :    0.066323
   4 C :   -0.190604
   5 C :    0.049066
   6 N :   -0.098213
   7 H :    0.101215
   8 H :    0.112584
   9 H :   -0.006519
  10 H :   -0.006884
  11 H :    0.100564
  12 H :    0.112057
Sum of atomic charges:    0.0000000

LOEWDIN ATOMIC CHARGES
----------------------
   0 N :   -0.058144
   1 C :   -0.039154
   2 C :   -0.250280
   3 S :    0.390106
   4 C :   -0.250106
   5 C :   -0.040719
   6 N :   -0.058501
   7 H :    0.069717
   8 H :    0.067424
   9 H :    0.016095
  10 H :    0.016291
  11 H :    0.069647
  12 H :    0.067624

  Mayer bond orders larger than 0.100000
B(  0-N ,  1-C ) :   1.1810 B(  0-N ,  7-H ) :   0.9492 B(  0-N ,  8-H ) :   0.9364
B(  1-C ,  2-C ) :   1.5151 B(  1-C ,  5-C ) :   1.2514 B(  2-C ,  3-S ) :   1.1188
B(  2-C ,  9-H ) :   0.9758 B(  3-S ,  4-C ) :   1.1194 B(  4-C ,  5-C ) :   1.5218
B(  4-C , 10-H ) :   0.9722 B(  5-C ,  6-N ) :   1.1744 B(  6-N , 11-H ) :   0.9496
B(  6-N , 12-H ) :   0.9373

Dispersion correction           -0.023490879
FINAL SINGLE POINT ENERGY      -663.437241199329

DIPOLE MOMENT
-------------
                                X             Y             Z
Electronic contribution:      4.58197       3.24498       0.01875
Nuclear contribution   :     -5.23270      -3.71678      -0.02147
                        -----------------------------------------
Total Dipole Moment    :     -0.65073      -0.47180      -0.00272
                        -----------------------------------------
Magnitude (a.u.)       :      0.80377
Magnitude (Debye)      :      2.04303

Rotational constants in cm-1:     0.128405     0.068302     0.044785
Rotational constants in MHz :  3849.475379  2047.652915  1342.633086

                             ****ORCA TERMINATED NORMALLY****
TOTAL RUN TIME: 0 days 0 hours 3 minutes 14 seconds 12 msec
