                         Program Version 4.2.0 -  RELEASE  -
|  1> # ORCA input file
|  2> # SCF done        -49.057070353827          0.000911241276
|  3> ! B3LYP/G D3BJ Opt RIJCOSX def2-SVP def2/J
|  4> * xyz 0 1
|  5>    C       -1.44439         1.34358         0.12441
|  6>    S       -2.62464         0.11607         0.14813
|  7>    C       -1.44693        -1.14759         0.08467
|  8>    C       -0.16038        -0.60744         0.04626
|  9>    C       -0.16775         0.83224         0.06911
| 10>    C        1.05296         1.54664         0.03374
| 11>    C        2.22656         0.85814        -0.02345
| 12>    C        3.54314         1.58122        -0.06392
| 13>    F        3.39766         2.91532        -0.04150
| 14>    F        4.32970         1.27287         0.98109
| 15>    F        4.24835         1.30030        -1.17279
| 16>    C        2.24363        -0.57227        -0.04697
| 17>    C        3.47216        -1.27059        -0.10848
| 18>    N        4.44892        -1.86781        -0.15105
| 19>    C        1.07052        -1.28670        -0.01202
| 20>    C       -1.81549        -2.53245         0.07484
| 21>    C       -3.06780        -2.98720         0.09845
| 22>    H       -1.73958         2.37323         0.15135
| 23>    H        1.03979         2.62524         0.05155
| 24>    H        1.10382        -2.36507        -0.03055
| 25>    H       -0.98928        -3.22927         0.04559
| 26>    H       -3.91146        -2.31792         0.12778
| 27>    H       -3.28408        -4.03999         0.09045
| 28> *
| 29>
| 30>                          ****END OF INPUT****
 Total Charge           Charge          ....    0
 Multiplicity           Mult            ....    1
 Number of Electrons    NEL             ....  128
Dispersion correction           -0.055047201
FINAL SINGLE POINT ENERGY     -1212.663651180420
Dispersion correction            ... done
Dispersion correction           -0.054619936
FINAL SINGLE POINT ENERGY     -1212.667763505837
Dispersion correction            ... done
Dispersion correction           -0.054536610
FINAL SINGLE POINT ENERGY     -1212.667799377697
Dispersion correction            ... done
FINAL SINGLE POINT ENERGY     -1212.667713719676
FINAL SINGLE POINT ENERGY     -1212.667725433558
FINAL SINGLE POINT ENERGY     -1212.667769981299
Dispersion correction            ... done
Dispersion correction           -0.054562887
FINAL SINGLE POINT ENERGY     -1212.667800387146
Dispersion correction            ... done
Dispersion correction           -0.054553409
FINAL SINGLE POINT ENERGY     -1212.667800188734
Dispersion correction            ... done
                    ***********************HURRAY********************

CARTESIAN COORDINATES (ANGSTROEM)
---------------------------------
  C     -1.457053    1.386299    0.136453
  S     -2.640163    0.146622    0.167657
  C     -1.471268   -1.131170    0.106732
  C     -0.175253   -0.586932    0.069270
  C     -0.171545    0.863451    0.083083
  C      1.072079    1.566443    0.037948
  C      2.251664    0.873333   -0.016200
  C      3.570806    1.606918   -0.094175
  F      3.416122    2.936153    0.010759
  F      4.405830    1.220128    0.884690
  F      4.189301    1.368176   -1.263759
  C      2.252448   -0.575565   -0.024525
  C      3.481271   -1.312767   -0.073540
  N      4.460969   -1.933863   -0.106591
  C      1.064135   -1.278599    0.017285
  C     -1.840551   -2.532816    0.086061
  C     -3.084189   -3.042958    0.060824
  H     -1.756544    2.432530    0.157266
  H      1.079674    2.657248    0.044485
  H      1.093166   -2.369179    0.010546
  H     -0.991794   -3.224255    0.086624
  H     -3.973819   -2.406642    0.050048
  H     -3.249857   -4.122004    0.045747

 Multiplicity           Mult            ....    1
 Number of Electrons    NEL             ....  128
 Basis Dimension        Dim             ....  272

ORBITAL ENERGIES
----------------

  NO   OCC          E(Eh)            E(eV)
   0   2.0000     -88.913913     -2419.4706
   1   2.0000     -24.727826      -672.8784
   2   2.0000     -24.720589      -672.6814
   3   2.0000     -24.719993      -672.6652
   4   2.0000     -14.331537      -389.9809
   5   2.0000     -10.442718      -284.1608
   6   2.0000     -10.255420      -279.0642
   7   2.0000     -10.250725      -278.9364
   8   2.0000     -10.245440      -278.7926
   9   2.0000     -10.240441      -278.6566
  10   2.0000     -10.239346      -278.6268
  11   2.0000     -10.235355      -278.5182
  12   2.0000     -10.234133      -278.4849
  13   2.0000     -10.233446      -278.4662
  14   2.0000     -10.231635      -278.4170
  15   2.0000     -10.228426      -278.3296
  16   2.0000     -10.213968      -277.9362
  17   2.0000      -8.008505      -217.9225
  18   2.0000      -5.976142      -162.6191
  19   2.0000      -5.972083      -162.5086
  20   2.0000      -5.970858      -162.4753
  21   2.0000      -1.303583       -35.4723
  22   2.0000      -1.213010       -33.0077
  23   2.0000      -1.207528       -32.8585
  24   2.0000      -0.927899       -25.2494
  25   2.0000      -0.904078       -24.6012
  26   2.0000      -0.873350       -23.7651
  27   2.0000      -0.818717       -22.2784
  28   2.0000      -0.797663       -21.7055
  29   2.0000      -0.782113       -21.2824
  30   2.0000      -0.738992       -20.1090
  31   2.0000      -0.700481       -19.0611
  32   2.0000      -0.669743       -18.2246
  33   2.0000      -0.641428       -17.4541
  34   2.0000      -0.633202       -17.2303
  35   2.0000      -0.601823       -16.3764
  36   2.0000      -0.595553       -16.2058
  37   2.0000      -0.590098       -16.0574
  38   2.0000      -0.559249       -15.2179
  39   2.0000      -0.542383       -14.7590
  40   2.0000      -0.530683       -14.4406
  41   2.0000      -0.493543       -13.4300
  42   2.0000      -0.480516       -13.0755
  43   2.0000      -0.475436       -12.9373
  44   2.0000      -0.472918       -12.8688
  45   2.0000      -0.466410       -12.6917
  46   2.0000      -0.453800       -12.3485
  47   2.0000      -0.447894       -12.1878
  48   2.0000      -0.435170       -11.8416
  49   2.0000      -0.433548       -11.7974
  50   2.0000      -0.427586       -11.6352
  51   2.0000      -0.413184       -11.2433
  52   2.0000      -0.407446       -11.0872
  53   2.0000      -0.395655       -10.7663
  54   2.0000      -0.394028       -10.7220
  55   2.0000      -0.387795       -10.5524
  56   2.0000      -0.369296       -10.0491
  57   2.0000      -0.361575        -9.8390
  58   2.0000      -0.355045        -9.6613
  59   2.0000      -0.339752        -9.2451
  60   2.0000      -0.333318        -9.0700
  61   2.0000      -0.300604        -8.1798
  62   2.0000      -0.280687        -7.6379
  63   2.0000      -0.228428        -6.2158
  64   0.0000      -0.105998        -2.8844
  65   0.0000      -0.049347        -1.3428
  66   0.0000      -0.038796        -1.0557
  67   0.0000       0.012633         0.3437
  68   0.0000       0.028042         0.7631

MULLIKEN ATOMIC CHARGES
-----------------------
   0 C :   -0.117968
   1 S :    0.166114
   2 C :   -0.137331
   3 C :    0.137721
   4 C :    0.105400
   5 C :   -0.055276
   6 C :   -0.061970
   7 C :    0.556189
   8 F :   -0.161408
   9 F :   -0.163389
  10 F :   -0.165048
  11 C :   -0.066806
  12 C :   -0.142514
  13 N :    0.082091
  14 C :   -0.043019
  15 C :    0.006477
  16 C :   -0.031043
  17 H :    0.031887
  18 H :   -0.003638
  19 H :   -0.002086
  20 H :    0.003646
  21 H :    0.024471
  22 H :    0.037500
Sum of atomic charges:    0.0000000

LOEWDIN ATOMIC CHARGES
----------------------
   0 C :   -0.186361
   1 S :    0.505921
   2 C :   -0.177276
   3 C :   -0.044517
   4 C :   -0.048016
   5 C :    0.011330
   6 C :   -0.068740
   7 C :    0.173954
   8 F :   -0.055628
   9 F :   -0.053952
  10 F :   -0.058282
  11 C :   -0.058439
  12 C :   -0.036416
  13 N :   -0.054077
  14 C :    0.027497
  15 C :   -0.041462
  16 C :   -0.039481
  17 H :    0.032073
  18 H :    0.038842
  19 H :    0.041127
  20 H :    0.037584
  21 H :    0.021211
  22 H :    0.033105

  Mayer bond orders larger than 0.100000
B(  0-C ,  1-S ) :   1.1992 B(  0-C ,  2-C ) :   0.1008 B(  0-C ,  4-C ) :   1.4119
B(  0-C , 17-H ) :   0.9654 B(  1-S ,  2-C ) :   1.1629 B(  2-C ,  3-C ) :   1.3237
B(  2-C , 15-C ) :   1.1585 B(  3-C ,  4-C ) :   1.1864 B(  3-C , 14-C ) :   1.1885
B(  4-C ,  5-C ) :   1.1476 B(  5-C ,  6-C ) :   1.5603 B(  5-C , 18-H ) :   0.9995
B(  6-C ,  7-C ) :   0.9449 B(  6-C , 11-C ) :   1.1865 B(  7-C ,  8-F ) :   1.1501
B(  7-C ,  9-F ) :   1.1379 B(  7-C , 10-F ) :   1.1487 B( 11-C , 12-C ) :   1.0782
B( 11-C , 14-C ) :   1.5474 B( 12-C , 13-N ) :   3.0004 B( 14-C , 19-H ) :   0.9883
B( 15-C , 16-C ) :   1.8904 B( 15-C , 20-H ) :   0.9473 B( 16-C , 21-H ) :   0.9564
B( 16-C , 22-H ) :   0.9452

Dispersion correction           -0.054553519
FINAL SINGLE POINT ENERGY     -1212.667799685909

DIPOLE MOMENT
-------------
                                X             Y             Z
Electronic contribution:     18.63296      12.35086      -0.57697
Nuclear contribution   :    -21.29248     -12.01515       0.68428
                        -----------------------------------------
Total Dipole Moment    :     -2.65953       0.33571       0.10731
                        -----------------------------------------
Magnitude (a.u.)       :      2.68278
Magnitude (Debye)      :      6.81908

Rotational constants in cm-1:     0.029475     0.008252     0.006675
Rotational constants in MHz :   883.645031   247.399087   200.126328

                             ****ORCA TERMINATED NORMALLY****
TOTAL RUN TIME: 0 days 0 hours 23 minutes 47 seconds 112 msec
