                         Program Version 4.2.0 -  RELEASE  -
|  1> # ORCA input file
|  2> # SCF done        -26.629360056625          0.000914542407
|  3> ! B3LYP/G D3BJ Opt RIJCOSX def2-SVP def2/J
|  4> * xyz 0 1
|  5>    C       -1.32036        -1.34238         0.13189
|  6>    S       -2.50390        -0.09852         0.07923
|  7>    C       -1.30997         1.16731        -0.06440
|  8>    C       -0.04078         0.61841        -0.06342
|  9>    C       -0.07336        -0.80901         0.04856
| 10>    S        1.52242        -1.50298         0.05503
| 11>    C        2.20725         0.09364        -0.08156
| 12>    C        1.30373         1.09241        -0.13291
| 13>    C       -1.78232         2.51954        -0.15328
| 14>    C       -1.04438         3.61032        -0.35278
| 15>    H       -1.61519        -2.36770         0.21968
| 16>    H        3.27653         0.17824        -0.11643
| 17>    H        1.58089         2.12683        -0.21279
| 18>    H       -2.85611         2.61796        -0.04792
| 19>    H        0.02106         3.57386        -0.48114
| 20>    H       -1.49975         4.58367        -0.40136
| 21> *
| 22>
| 23>                          ****END OF INPUT****
 Total Charge           Charge          ....    0
 Multiplicity           Mult            ....    1
 Number of Electrons    NEL             ....   86
Dispersion correction           -0.038553663
FINAL SINGLE POINT ENERGY     -1104.398400727862
Dispersion correction            ... done
Dispersion correction           -0.038404091
FINAL SINGLE POINT ENERGY     -1104.401169128749
Dispersion correction            ... done
Dispersion correction           -0.038381497
FINAL SINGLE POINT ENERGY     -1104.401278019443
Dispersion correction            ... done
FINAL SINGLE POINT ENERGY     -1104.401300084675
FINAL SINGLE POINT ENERGY     -1104.401300417800
FINAL SINGLE POINT ENERGY     -1104.401296981541
Dispersion correction            ... done
Dispersion correction           -0.038370554
FINAL SINGLE POINT ENERGY     -1104.401301315016
Dispersion correction            ... done
Dispersion correction           -0.038370527
FINAL SINGLE POINT ENERGY     -1104.401305269479
Dispersion correction            ... done
                    ***********************HURRAY********************

CARTESIAN COORDINATES (ANGSTROEM)
---------------------------------
  C     -1.338036   -1.367300    0.160388
  S     -2.513554   -0.106448    0.089638
  C     -1.319821    1.159306   -0.069004
  C     -0.039761    0.601039   -0.062147
  C     -0.072718   -0.835319    0.069097
  S      1.541490   -1.524915    0.067942
  C      2.231455    0.082667   -0.106148
  C      1.315257    1.087557   -0.159338
  C     -1.789434    2.526557   -0.192363
  C     -1.048464    3.642997   -0.305793
  H     -1.644512   -2.405124    0.271216
  H      3.315396    0.184861   -0.160937
  H      1.598966    2.132190   -0.269609
  H     -2.880178    2.636815   -0.192588
  H      0.042769    3.629540   -0.315084
  H     -1.533093    4.617178   -0.398870

 Multiplicity           Mult            ....    1
 Number of Electrons    NEL             ....   86
 Basis Dimension        Dim             ....  178

ORBITAL ENERGIES
----------------

  NO   OCC          E(Eh)            E(eV)
   0   2.0000     -88.882062     -2418.6039
   1   2.0000     -88.871916     -2418.3278
   2   2.0000     -10.223260      -278.1891
   3   2.0000     -10.222769      -278.1757
   4   2.0000     -10.222333      -278.1638
   5   2.0000     -10.220777      -278.1215
   6   2.0000     -10.206691      -277.7382
   7   2.0000     -10.204968      -277.6913
   8   2.0000     -10.202148      -277.6146
   9   2.0000     -10.190558      -277.2992
  10   2.0000      -7.976726      -217.0578
  11   2.0000      -7.966935      -216.7913
  12   2.0000      -5.944766      -161.7653
  13   2.0000      -5.940725      -161.6554
  14   2.0000      -5.938262      -161.5883
  15   2.0000      -5.935650      -161.5173
  16   2.0000      -5.931626      -161.4077
  17   2.0000      -5.926947      -161.2804
  18   2.0000      -0.903612       -24.5885
  19   2.0000      -0.845259       -23.0007
  20   2.0000      -0.787647       -21.4330
  21   2.0000      -0.742993       -20.2179
  22   2.0000      -0.719748       -19.5853
  23   2.0000      -0.689467       -18.7614
  24   2.0000      -0.606041       -16.4912
  25   2.0000      -0.585105       -15.9215
  26   2.0000      -0.560384       -15.2488
  27   2.0000      -0.526558       -14.3284
  28   2.0000      -0.484562       -13.1856
  29   2.0000      -0.462147       -12.5757
  30   2.0000      -0.441523       -12.0144
  31   2.0000      -0.435284       -11.8447
  32   2.0000      -0.416145       -11.3239
  33   2.0000      -0.404149       -10.9974
  34   2.0000      -0.390045       -10.6137
  35   2.0000      -0.363685        -9.8964
  36   2.0000      -0.354020        -9.6334
  37   2.0000      -0.349050        -9.4981
  38   2.0000      -0.340628        -9.2690
  39   2.0000      -0.312914        -8.5148
  40   2.0000      -0.265598        -7.2273
  41   2.0000      -0.245878        -6.6907
  42   2.0000      -0.201831        -5.4921
  43   0.0000      -0.061002        -1.6599
  44   0.0000       0.008674         0.2360
  45   0.0000       0.020597         0.5605
  46   0.0000       0.026606         0.7240
  47   0.0000       0.031457         0.8560

MULLIKEN ATOMIC CHARGES
-----------------------
   0 C :   -0.149088
   1 S :    0.119086
   2 C :   -0.160581
   3 C :    0.103727
   4 C :   -0.024672
   5 S :    0.092705
   6 C :   -0.079655
   7 C :    0.029328
   8 C :    0.047899
   9 C :   -0.044219
  10 H :    0.023952
  11 H :    0.032193
  12 H :   -0.013469
  13 H :   -0.011900
  14 H :    0.012807
  15 H :    0.021886
Sum of atomic charges:    0.0000000

LOEWDIN ATOMIC CHARGES
----------------------
   0 C :   -0.218923
   1 S :    0.454324
   2 C :   -0.186529
   3 C :   -0.070970
   4 C :   -0.188870
   5 S :    0.371040
   6 C :   -0.157555
   7 C :   -0.062361
   8 C :   -0.042803
   9 C :   -0.057412
  10 H :    0.027564
  11 H :    0.027118
  12 H :    0.030304
  13 H :    0.028651
  14 H :    0.019831
  15 H :    0.026590

  Mayer bond orders larger than 0.100000
B(  0-C ,  1-S ) :   1.1644 B(  0-C ,  2-C ) :   0.1011 B(  0-C ,  4-C ) :   1.5120
B(  0-C , 10-H ) :   0.9746 B(  1-S ,  2-C ) :   1.1372 B(  2-C ,  3-C ) :   1.4074
B(  2-C ,  8-C ) :   1.1346 B(  3-C ,  4-C ) :   1.2295 B(  3-C ,  7-C ) :   1.1616
B(  4-C ,  5-S ) :   1.0368 B(  5-S ,  6-C ) :   1.1005 B(  6-C ,  7-C ) :   1.6383
B(  6-C , 11-H ) :   0.9594 B(  7-C , 12-H ) :   0.9915 B(  8-C ,  9-C ) :   1.9004
B(  8-C , 13-H ) :   0.9447 B(  9-C , 14-H ) :   0.9550 B(  9-C , 15-H ) :   0.9417

Dispersion correction           -0.038369895
FINAL SINGLE POINT ENERGY     -1104.401304608429

DIPOLE MOMENT
-------------
                                X             Y             Z
Electronic contribution:     -0.79046      -8.69562       0.84750
Nuclear contribution   :      0.90674       8.78710      -0.87005
                        -----------------------------------------
Total Dipole Moment    :      0.11628       0.09148      -0.02255
                        -----------------------------------------
Magnitude (a.u.)       :      0.14966
Magnitude (Debye)      :      0.38041

Rotational constants in cm-1:     0.055295     0.029169     0.019096
Rotational constants in MHz :  1657.709208   874.455106   572.479654

                             ****ORCA TERMINATED NORMALLY****
TOTAL RUN TIME: 0 days 0 hours 7 minutes 36 seconds 47 msec
