                         Program Version 4.2.0 -  RELEASE  -
|  1> # ORCA input file
|  2> # SCF done        -39.164505607133          0.000949344846
|  3> ! B3LYP/G D3BJ Opt RIJCOSX def2-SVP def2/J
|  4> * xyz 0 1
|  5>    C       -1.64115        -1.57159         0.21359
|  6>    S       -2.77056        -0.28150         0.08718
|  7>    C       -1.52820         0.92844        -0.06359
|  8>    C       -0.27850         0.32997        -0.00657
|  9>    C       -0.37119        -1.09336         0.14908
| 10>    S        1.19002        -1.85180         0.22379
| 11>    C        1.96256        -0.27756         0.06284
| 12>    C        3.42157        -0.12859         0.05268
| 13>    O        3.93518         0.96476        -0.04610
| 14>    C        4.20754        -1.41456         0.17039
| 15>    C        5.70946        -1.17147         0.15909
| 16>    C        1.07345         0.75071        -0.04558
| 17>    C       -1.93623         2.29549        -0.21629
| 18>    C       -1.14317         3.33606        -0.46927
| 19>    H       -1.98134        -2.58040         0.32517
| 20>    H        3.91579        -2.06644        -0.65790
| 21>    H        3.90432        -1.91395         1.09484
| 22>    H        6.00334        -0.68416        -0.76712
| 23>    H        6.24832        -2.11105         0.25074
| 24>    H        5.98965        -0.52120         0.98396
| 25>    H        1.40953         1.76637        -0.13967
| 26>    H       -3.00335         2.45073        -0.11761
| 27>    H       -0.08108         3.23886        -0.59829
| 28>    H       -1.55010         4.32711        -0.56709
| 29> *
| 30>
| 31>                          ****END OF INPUT****
 Total Charge           Charge          ....    0
 Multiplicity           Mult            ....    1
 Number of Electrons    NEL             ....  116
Dispersion correction           -0.055317825
FINAL SINGLE POINT ENERGY     -1296.236347564246
Dispersion correction            ... done
Dispersion correction           -0.054927026
FINAL SINGLE POINT ENERGY     -1296.239786047697
Dispersion correction            ... done
Dispersion correction           -0.054850875
FINAL SINGLE POINT ENERGY     -1296.239851419396
Dispersion correction            ... done
FINAL SINGLE POINT ENERGY     -1296.239777004220
FINAL SINGLE POINT ENERGY     -1296.239903755524
FINAL SINGLE POINT ENERGY     -1296.239934734994
FINAL SINGLE POINT ENERGY     -1296.239951077333
Dispersion correction            ... done
Dispersion correction           -0.054866204
FINAL SINGLE POINT ENERGY     -1296.239974052937
Dispersion correction            ... done
Dispersion correction           -0.054858911
FINAL SINGLE POINT ENERGY     -1296.239990311799
Dispersion correction            ... done
                    ***********************HURRAY********************

CARTESIAN COORDINATES (ANGSTROEM)
---------------------------------
  C     -1.716129   -1.587496    0.222732
  S     -2.816730   -0.258969    0.130244
  C     -1.558279    0.930621   -0.060575
  C     -0.310084    0.297687   -0.050302
  C     -0.422996   -1.132544    0.115071
  S      1.145834   -1.912203    0.144725
  C      1.939696   -0.337812   -0.057674
  C      3.415633   -0.182852   -0.080190
  O      3.908443    0.912485   -0.278137
  C      4.260339   -1.418617    0.182268
  C      5.754394   -1.126434    0.219354
  C      1.058606    0.707351   -0.148167
  C     -1.941189    2.322749   -0.199471
  C     -1.121959    3.376872   -0.357514
  H     -2.080807   -2.602419    0.363197
  H      4.010709   -2.168425   -0.591452
  H      3.911334   -1.865861    1.131150
  H      6.104109   -0.729906   -0.745506
  H      6.327474   -2.035228    0.456232
  H      5.983764   -0.364355    0.977980
  H      1.425310    1.723900   -0.270948
  H     -3.020329    2.510604   -0.167409
  H     -0.036157    3.278535   -0.403847
  H     -1.535125    4.383187   -0.453492

 Multiplicity           Mult            ....    1
 Number of Electrons    NEL             ....  116
 Basis Dimension        Dim             ....  254

ORBITAL ENERGIES
----------------

  NO   OCC          E(Eh)            E(eV)
   0   2.0000     -88.892786     -2418.8957
   1   2.0000     -88.880268     -2418.5551
   2   2.0000     -19.125761      -520.4384
   3   2.0000     -10.279827      -279.7283
   4   2.0000     -10.234901      -278.5058
   5   2.0000     -10.232238      -278.4334
   6   2.0000     -10.228711      -278.3374
   7   2.0000     -10.225696      -278.2553
   8   2.0000     -10.213977      -277.9365
   9   2.0000     -10.213624      -277.9268
  10   2.0000     -10.213125      -277.9133
  11   2.0000     -10.200566      -277.5715
  12   2.0000     -10.198247      -277.5084
  13   2.0000     -10.182947      -277.0921
  14   2.0000      -7.987406      -217.3484
  15   2.0000      -7.974854      -217.0068
  16   2.0000      -5.955367      -162.0538
  17   2.0000      -5.951358      -161.9447
  18   2.0000      -5.949041      -161.8816
  19   2.0000      -5.943472      -161.7301
  20   2.0000      -5.939636      -161.6257
  21   2.0000      -5.934895      -161.4967
  22   2.0000      -1.033022       -28.1100
  23   2.0000      -0.913499       -24.8576
  24   2.0000      -0.856437       -23.3048
  25   2.0000      -0.796774       -21.6813
  26   2.0000      -0.779783       -21.2190
  27   2.0000      -0.751876       -20.4596
  28   2.0000      -0.736540       -20.0423
  29   2.0000      -0.699143       -19.0246
  30   2.0000      -0.665664       -18.1136
  31   2.0000      -0.616268       -16.7695
  32   2.0000      -0.598482       -16.2855
  33   2.0000      -0.569546       -15.4981
  34   2.0000      -0.535998       -14.5853
  35   2.0000      -0.513860       -13.9828
  36   2.0000      -0.492271       -13.3954
  37   2.0000      -0.473481       -12.8841
  38   2.0000      -0.469428       -12.7738
  39   2.0000      -0.468744       -12.7552
  40   2.0000      -0.453541       -12.3415
  41   2.0000      -0.429546       -11.6885
  42   2.0000      -0.426299       -11.6002
  43   2.0000      -0.413775       -11.2594
  44   2.0000      -0.397772       -10.8239
  45   2.0000      -0.391913       -10.6645
  46   2.0000      -0.381844       -10.3905
  47   2.0000      -0.375210       -10.2100
  48   2.0000      -0.367518       -10.0007
  49   2.0000      -0.361034        -9.8242
  50   2.0000      -0.350738        -9.5441
  51   2.0000      -0.348784        -9.4909
  52   2.0000      -0.347516        -9.4564
  53   2.0000      -0.320001        -8.7077
  54   2.0000      -0.274044        -7.4571
  55   2.0000      -0.260439        -7.0869
  56   2.0000      -0.254389        -6.9223
  57   2.0000      -0.210601        -5.7308
  58   0.0000      -0.086740        -2.3603
  59   0.0000      -0.032122        -0.8741
  60   0.0000       0.012457         0.3390
  61   0.0000       0.015697         0.4271
  62   0.0000       0.017428         0.4742

MULLIKEN ATOMIC CHARGES
-----------------------
   0 C :   -0.150571
   1 S :    0.132042
   2 C :   -0.154008
   3 C :    0.129679
   4 C :   -0.001434
   5 S :    0.100978
   6 C :   -0.091611
   7 C :    0.046131
   8 O :   -0.198845
   9 C :   -0.053131
  10 C :    0.059136
  11 C :   -0.003558
  12 C :    0.045802
  13 C :   -0.036605
  14 H :    0.026682
  15 H :    0.034019
  16 H :    0.029358
  17 H :    0.018190
  18 H :    0.005226
  19 H :    0.019637
  20 H :    0.002694
  21 H :   -0.010584
  22 H :    0.023375
  23 H :    0.027395
Sum of atomic charges:   -0.0000000

LOEWDIN ATOMIC CHARGES
----------------------
   0 C :   -0.218821
   1 S :    0.467753
   2 C :   -0.176701
   3 C :   -0.073926
   4 C :   -0.183366
   5 S :    0.376197
   6 C :   -0.194813
   7 C :    0.067534
   8 O :   -0.154751
   9 C :   -0.073529
  10 C :   -0.046785
  11 C :   -0.006356
  12 C :   -0.044409
  13 C :   -0.043222
  14 H :    0.029003
  15 H :    0.037658
  16 H :    0.035609
  17 H :    0.029025
  18 H :    0.023873
  19 H :    0.029077
  20 H :    0.037821
  21 H :    0.029761
  22 H :    0.024147
  23 H :    0.029220

  Mayer bond orders larger than 0.100000
B(  0-C ,  1-S ) :   1.1581 B(  0-C ,  4-C ) :   1.5125 B(  0-C , 14-H ) :   0.9732
B(  1-S ,  2-C ) :   1.1540 B(  2-C ,  3-C ) :   1.3751 B(  2-C , 12-C ) :   1.1356
B(  3-C ,  4-C ) :   1.2193 B(  3-C , 11-C ) :   1.1388 B(  4-C ,  5-S ) :   1.0329
B(  5-S ,  6-C ) :   1.0546 B(  6-C ,  7-C ) :   0.9956 B(  6-C , 11-C ) :   1.5789
B(  7-C ,  8-O ) :   2.1440 B(  7-C ,  9-C ) :   1.0001 B(  9-C , 10-C ) :   1.1149
B(  9-C , 15-H ) :   0.9160 B(  9-C , 16-H ) :   0.9216 B( 10-C , 17-H ) :   0.9669
B( 10-C , 18-H ) :   0.9601 B( 10-C , 19-H ) :   0.9674 B( 11-C , 20-H ) :   0.9993
B( 12-C , 13-C ) :   1.8962 B( 12-C , 21-H ) :   0.9461 B( 13-C , 22-H ) :   0.9544
B( 13-C , 23-H ) :   0.9418

Dispersion correction           -0.054859811
FINAL SINGLE POINT ENERGY     -1296.239988899431

DIPOLE MOMENT
-------------
                                X             Y             Z
Electronic contribution:    -14.59800      -3.96076      -0.01538
Nuclear contribution   :     13.90174       3.36204       0.17784
                        -----------------------------------------
Total Dipole Moment    :     -0.69627      -0.59871       0.16245
                        -----------------------------------------
Magnitude (a.u.)       :      0.93254
Magnitude (Debye)      :      2.37034

Rotational constants in cm-1:     0.037548     0.010434     0.008199
Rotational constants in MHz :  1125.658351   312.795912   245.793417

                             ****ORCA TERMINATED NORMALLY****
TOTAL RUN TIME: 0 days 0 hours 17 minutes 55 seconds 634 msec
