                         Program Version 4.2.0 -  RELEASE  -
|  1> # ORCA input file
|  2> # SCF done        -33.927989812150          0.000896460585
|  3> ! B3LYP/G D3BJ Opt RIJCOSX def2-SVP def2/J
|  4> * xyz 0 1
|  5>    C        1.56574         1.23318        -0.09426
|  6>    S        2.76398         0.00887         0.00216
|  7>    C        1.56126        -1.21101         0.09870
|  8>    C        0.30337        -0.69646         0.05706
|  9>    C        0.30641         0.72232        -0.06037
| 10>    C       -0.96120         1.51670        -0.14998
| 11>    F       -0.84729         2.68391         0.58465
| 12>    C       -2.14567         0.70223         0.36469
| 13>    C       -2.16449        -0.66441        -0.31050
| 14>    C       -0.96457        -1.49118         0.14701
| 15>    F       -0.86860        -2.63152        -0.63296
| 16>    H        1.85353         2.26295        -0.16342
| 17>    H        1.84580        -2.24152         0.17096
| 18>    H       -1.13467         1.84203        -1.18721
| 19>    H       -3.07198         1.24168         0.16562
| 20>    H       -2.04411         0.58631         1.44606
| 21>    H       -2.11047        -0.54738        -1.39539
| 22>    H       -3.08518        -1.19767        -0.07196
| 23>    H       -1.11117        -1.85556         1.17519
| 24> *
| 25>
| 26>                          ****END OF INPUT****
 Total Charge           Charge          ....    0
 Multiplicity           Mult            ....    1
 Number of Electrons    NEL             ....   90
Dispersion correction           -0.038280546
FINAL SINGLE POINT ENERGY      -907.083682539613
Dispersion correction            ... done
Dispersion correction           -0.038139430
FINAL SINGLE POINT ENERGY      -907.085696009903
Dispersion correction            ... done
Dispersion correction           -0.038102803
FINAL SINGLE POINT ENERGY      -907.085766312807
Dispersion correction            ... done
FINAL SINGLE POINT ENERGY      -907.085684220597
Dispersion correction            ... done
Dispersion correction           -0.038072399
FINAL SINGLE POINT ENERGY      -907.085674158264
Dispersion correction            ... done
Dispersion correction           -0.038072409
FINAL SINGLE POINT ENERGY      -907.085684790041
Dispersion correction            ... done
                    ***********************HURRAY********************

CARTESIAN COORDINATES (ANGSTROEM)
---------------------------------
  C      1.588165    1.250027   -0.052948
  S      2.785731    0.006453   -0.019269
  C      1.583364   -1.231724    0.034554
  C      0.314111   -0.705811    0.034223
  C      0.316787    0.729639   -0.031248
  C     -0.954877    1.528242   -0.130551
  F     -0.862139    2.692990    0.625381
  C     -2.165246    0.718925    0.325739
  C     -2.172296   -0.684276   -0.287055
  C     -0.959596   -1.498500    0.154173
  F     -0.883326   -2.665637   -0.599922
  H      1.877226    2.298476   -0.097599
  H      1.868830   -2.281310    0.075095
  H     -1.099685    1.852492   -1.178528
  H     -3.084343    1.262375    0.059074
  H     -2.130299    0.658051    1.427069
  H     -2.150879   -0.624154   -1.388761
  H     -3.090299   -1.223558   -0.008480
  H     -1.090539   -1.819230    1.205104

 Multiplicity           Mult            ....    1
 Number of Electrons    NEL             ....   90
 Basis Dimension        Dim             ....  198

ORBITAL ENERGIES
----------------

  NO   OCC          E(Eh)            E(eV)
   0   2.0000     -88.882322     -2418.6109
   1   2.0000     -24.667118      -671.2264
   2   2.0000     -24.667051      -671.2246
   3   2.0000     -10.273245      -279.5492
   4   2.0000     -10.273199      -279.5480
   5   2.0000     -10.217615      -278.0354
   6   2.0000     -10.217564      -278.0341
   7   2.0000     -10.203369      -277.6478
   8   2.0000     -10.203286      -277.6455
   9   2.0000     -10.202720      -277.6301
  10   2.0000     -10.202507      -277.6243
  11   2.0000      -7.977278      -217.0728
  12   2.0000      -5.945252      -161.7785
  13   2.0000      -5.941119      -161.6661
  14   2.0000      -5.939024      -161.6091
  15   2.0000      -1.169944       -31.8358
  16   2.0000      -1.169684       -31.8287
  17   2.0000      -0.892026       -24.2733
  18   2.0000      -0.827299       -22.5120
  19   2.0000      -0.759241       -20.6600
  20   2.0000      -0.743722       -20.2377
  21   2.0000      -0.703972       -19.1561
  22   2.0000      -0.636391       -17.3171
  23   2.0000      -0.608524       -16.5588
  24   2.0000      -0.577723       -15.7206
  25   2.0000      -0.543265       -14.7830
  26   2.0000      -0.529807       -14.4168
  27   2.0000      -0.507918       -13.8212
  28   2.0000      -0.502023       -13.6607
  29   2.0000      -0.473807       -12.8929
  30   2.0000      -0.461388       -12.5550
  31   2.0000      -0.446941       -12.1619
  32   2.0000      -0.427401       -11.6302
  33   2.0000      -0.417357       -11.3569
  34   2.0000      -0.407097       -11.0777
  35   2.0000      -0.403684       -10.9848
  36   2.0000      -0.388211       -10.5638
  37   2.0000      -0.374985       -10.2039
  38   2.0000      -0.365496        -9.9457
  39   2.0000      -0.343028        -9.3343
  40   2.0000      -0.339691        -9.2434
  41   2.0000      -0.329968        -8.9789
  42   2.0000      -0.329090        -8.9550
  43   2.0000      -0.257299        -7.0015
  44   2.0000      -0.245499        -6.6804
  45   0.0000      -0.032560        -0.8860
  46   0.0000       0.025264         0.6875
  47   0.0000       0.040349         1.0979
  48   0.0000       0.053880         1.4661
  49   0.0000       0.070118         1.9080

MULLIKEN ATOMIC CHARGES
-----------------------
   0 C :   -0.127429
   1 S :    0.113633
   2 C :   -0.127554
   3 C :   -0.050768
   4 C :   -0.051367
   5 C :    0.330499
   6 F :   -0.264852
   7 C :   -0.004401
   8 C :   -0.003472
   9 C :    0.329779
  10 F :   -0.264736
  11 H :    0.025886
  12 H :    0.025950
  13 H :    0.006874
  14 H :    0.008919
  15 H :    0.018601
  16 H :    0.018545
  17 H :    0.008734
  18 H :    0.007158
Sum of atomic charges:    0.0000000

LOEWDIN ATOMIC CHARGES
----------------------
   0 C :   -0.184462
   1 S :    0.447987
   2 C :   -0.184522
   3 C :   -0.088298
   4 C :   -0.088376
   5 C :    0.119512
   6 F :   -0.139861
   7 C :   -0.039023
   8 C :   -0.038964
   9 C :    0.119493
  10 F :   -0.139820
  11 H :    0.028586
  12 H :    0.028588
  13 H :    0.020496
  14 H :    0.029906
  15 H :    0.029187
  16 H :    0.029157
  17 H :    0.029880
  18 H :    0.020535

  Mayer bond orders larger than 0.100000
B(  0-C ,  1-S ) :   1.1768 B(  0-C ,  4-C ) :   1.5450 B(  0-C , 11-H ) :   0.9658
B(  1-S ,  2-C ) :   1.1768 B(  2-C ,  3-C ) :   1.5449 B(  2-C , 12-H ) :   0.9658
B(  3-C ,  4-C ) :   1.2973 B(  3-C ,  9-C ) :   0.9852 B(  4-C ,  5-C ) :   0.9853
B(  5-C ,  6-F ) :   1.0174 B(  5-C ,  7-C ) :   1.0694 B(  5-C , 13-H ) :   0.9228
B(  7-C ,  8-C ) :   1.0413 B(  7-C , 14-H ) :   0.9240 B(  7-C , 15-H ) :   0.9349
B(  8-C ,  9-C ) :   1.0694 B(  8-C , 16-H ) :   0.9349 B(  8-C , 17-H ) :   0.9239
B(  9-C , 10-F ) :   1.0175 B(  9-C , 18-H ) :   0.9229

Dispersion correction           -0.038069078
FINAL SINGLE POINT ENERGY      -907.085673423722

DIPOLE MOMENT
-------------
                                X             Y             Z
Electronic contribution:      7.18214      -0.02003      -0.04719
Nuclear contribution   :     -7.38636       0.02124       0.04732
                        -----------------------------------------
Total Dipole Moment    :     -0.20422       0.00121       0.00013
                        -----------------------------------------
Magnitude (a.u.)       :      0.20423
Magnitude (Debye)      :      0.51911

Rotational constants in cm-1:     0.038822     0.031972     0.018119
Rotational constants in MHz :  1163.840481   958.510910   543.194481

                             ****ORCA TERMINATED NORMALLY****
TOTAL RUN TIME: 0 days 0 hours 7 minutes 15 seconds 820 msec
