                         Program Version 4.2.0 -  RELEASE  -
|  1> # ORCA input file
|  2> # SCF done        -33.881780428924          0.000495919673
|  3> ! B3LYP/G D3BJ Opt RIJCOSX def2-SVP def2/J
|  4> * xyz 0 1
|  5>    C       -1.62088        -1.40421         0.00724
|  6>    S       -2.73591        -0.08872         0.03271
|  7>    C       -1.48379         1.08269         0.02434
|  8>    C       -0.24820         0.49294         0.00350
|  9>    C       -0.34542        -0.94021        -0.00637
| 10>    S        1.22158        -1.69149        -0.03393
| 11>    C        1.99153        -0.10246        -0.03202
| 12>    C        3.45224         0.04431        -0.05303
| 13>    O        3.96774         1.14039        -0.04271
| 14>    C        4.23572        -1.24806        -0.08857
| 15>    C        5.73785        -1.00599        -0.10217
| 16>    C        1.10296         0.92843        -0.01109
| 17>    H       -1.97876        -2.41274         0.00446
| 18>    H       -1.72616         2.12568         0.03537
| 19>    H        3.92655        -1.80629        -0.97678
| 20>    H        3.94786        -1.84413         0.78200
| 21>    H        6.01281        -0.40903        -0.96806
| 22>    H        6.27575        -1.94982        -0.13790
| 23>    H        6.03768        -0.46155         0.78965
| 24>    H        1.41408         1.95730        -0.00721
| 25> *
| 26>
| 27>                          ****END OF INPUT****
 Total Charge           Charge          ....    0
 Multiplicity           Mult            ....    1
 Number of Electrons    NEL             ....  102
Dispersion correction           -0.045449743
FINAL SINGLE POINT ENERGY     -1218.880689934720
Dispersion correction            ... done
Dispersion correction           -0.045165601
FINAL SINGLE POINT ENERGY     -1218.883692449018
Dispersion correction            ... done
Dispersion correction           -0.045112223
FINAL SINGLE POINT ENERGY     -1218.883810189885
Dispersion correction            ... done
FINAL SINGLE POINT ENERGY     -1218.883760336769
FINAL SINGLE POINT ENERGY     -1218.883779323545
FINAL SINGLE POINT ENERGY     -1218.883781005520
FINAL SINGLE POINT ENERGY     -1218.883735600058
FINAL SINGLE POINT ENERGY     -1218.883676821034
Dispersion correction            ... done
Dispersion correction           -0.045116228
FINAL SINGLE POINT ENERGY     -1218.883674110416
Dispersion correction            ... done
Dispersion correction           -0.045110506
FINAL SINGLE POINT ENERGY     -1218.883680678079
Dispersion correction            ... done
                    ***********************HURRAY********************

CARTESIAN COORDINATES (ANGSTROEM)
---------------------------------
  C     -1.702460   -1.392084   -0.013508
  S     -2.783637   -0.037305   -0.047932
  C     -1.505687    1.115832   -0.036526
  C     -0.272089    0.488363   -0.005912
  C     -0.400713   -0.953457    0.003568
  S      1.166944   -1.740330    0.031340
  C      1.971650   -0.154039    0.039316
  C      3.448678   -0.006673    0.053523
  O      3.945072    1.100651    0.136362
  C      4.294356   -1.264598   -0.048454
  C      5.782534   -0.966467   -0.177051
  C      1.101661    0.901118    0.020015
  H     -2.090980   -2.407731   -0.006494
  H     -1.727019    2.181490   -0.053885
  H      3.923183   -1.860554   -0.901866
  H      4.079814   -1.881769    0.844214
  H      5.980276   -0.347022   -1.064732
  H      6.363443   -1.896250   -0.263877
  H      6.148522   -0.401549    0.692681
  H      1.461683    1.929416    0.018647

 Multiplicity           Mult            ....    1
 Number of Electrons    NEL             ....  102
 Basis Dimension        Dim             ....  216

ORBITAL ENERGIES
----------------

  NO   OCC          E(Eh)            E(eV)
   0   2.0000     -88.893564     -2418.9169
   1   2.0000     -88.878232     -2418.4996
   2   2.0000     -19.124480      -520.4036
   3   2.0000     -10.278834      -279.7013
   4   2.0000     -10.230372      -278.3826
   5   2.0000     -10.228091      -278.3205
   6   2.0000     -10.226932      -278.2890
   7   2.0000     -10.224556      -278.2243
   8   2.0000     -10.214083      -277.9393
   9   2.0000     -10.211947      -277.8812
  10   2.0000     -10.199756      -277.5495
  11   2.0000     -10.182333      -277.0754
  12   2.0000      -7.988098      -217.3672
  13   2.0000      -7.972788      -216.9506
  14   2.0000      -5.956136      -162.0747
  15   2.0000      -5.951880      -161.9589
  16   2.0000      -5.949885      -161.9046
  17   2.0000      -5.941474      -161.6757
  18   2.0000      -5.937656      -161.5718
  19   2.0000      -5.932672      -161.4362
  20   2.0000      -1.032648       -28.0998
  21   2.0000      -0.910764       -24.7832
  22   2.0000      -0.852318       -23.1927
  23   2.0000      -0.778767       -21.1913
  24   2.0000      -0.764839       -20.8123
  25   2.0000      -0.734961       -19.9993
  26   2.0000      -0.701010       -19.0755
  27   2.0000      -0.664631       -18.0855
  28   2.0000      -0.605213       -16.4687
  29   2.0000      -0.578794       -15.7498
  30   2.0000      -0.544810       -14.8250
  31   2.0000      -0.512596       -13.9485
  32   2.0000      -0.507037       -13.7972
  33   2.0000      -0.472266       -12.8510
  34   2.0000      -0.468056       -12.7365
  35   2.0000      -0.449456       -12.2303
  36   2.0000      -0.429598       -11.6900
  37   2.0000      -0.422184       -11.4882
  38   2.0000      -0.415395       -11.3035
  39   2.0000      -0.393737       -10.7141
  40   2.0000      -0.389774       -10.6063
  41   2.0000      -0.379739       -10.3332
  42   2.0000      -0.373799       -10.1716
  43   2.0000      -0.361598        -9.8396
  44   2.0000      -0.348844        -9.4925
  45   2.0000      -0.348122        -9.4729
  46   2.0000      -0.341215        -9.2849
  47   2.0000      -0.294589        -8.0162
  48   2.0000      -0.259300        -7.0559
  49   2.0000      -0.253247        -6.8912
  50   2.0000      -0.219793        -5.9809
  51   0.0000      -0.077102        -2.0981
  52   0.0000      -0.018573        -0.5054
  53   0.0000       0.016437         0.4473
  54   0.0000       0.024738         0.6732
  55   0.0000       0.042984         1.1696

MULLIKEN ATOMIC CHARGES
-----------------------
   0 C :   -0.158790
   1 S :    0.123969
   2 C :   -0.131756
   3 C :    0.113853
   4 C :    0.008421
   5 S :    0.095636
   6 C :   -0.092241
   7 C :    0.047278
   8 O :   -0.199135
   9 C :   -0.054561
  10 C :    0.055580
  11 C :    0.023215
  12 H :    0.027028
  13 H :    0.029676
  14 H :    0.030474
  15 H :    0.034446
  16 H :    0.017767
  17 H :    0.005402
  18 H :    0.021603
  19 H :    0.002136
Sum of atomic charges:   -0.0000000

LOEWDIN ATOMIC CHARGES
----------------------
   0 C :   -0.220694
   1 S :    0.466492
   2 C :   -0.195906
   3 C :   -0.080030
   4 C :   -0.186046
   5 S :    0.368204
   6 C :   -0.195600
   7 C :    0.067616
   8 O :   -0.153746
   9 C :   -0.073654
  10 C :   -0.047336
  11 C :   -0.004682
  12 H :    0.028473
  13 H :    0.030063
  14 H :    0.034172
  15 H :    0.039525
  16 H :    0.028718
  17 H :    0.023656
  18 H :    0.029526
  19 H :    0.041249

  Mayer bond orders larger than 0.100000
B(  0-C ,  1-S ) :   1.1677 B(  0-C ,  2-C ) :   0.1023 B(  0-C ,  4-C ) :   1.5231
B(  0-C , 12-H ) :   0.9737 B(  1-S ,  2-C ) :   1.1941 B(  2-C ,  3-C ) :   1.4319
B(  2-C , 13-H ) :   0.9660 B(  3-C ,  4-C ) :   1.2236 B(  3-C , 11-C ) :   1.1121
B(  4-C ,  5-S ) :   1.0316 B(  5-S ,  6-C ) :   1.0464 B(  6-C ,  7-C ) :   0.9970
B(  6-C , 11-C ) :   1.5842 B(  7-C ,  8-O ) :   2.1532 B(  7-C ,  9-C ) :   1.0012
B(  9-C , 10-C ) :   1.1150 B(  9-C , 14-H ) :   0.9232 B(  9-C , 15-H ) :   0.9146
B( 10-C , 16-H ) :   0.9686 B( 10-C , 17-H ) :   0.9599 B( 10-C , 18-H ) :   0.9661
B( 11-C , 19-H ) :   1.0071

Dispersion correction           -0.045109112
FINAL SINGLE POINT ENERGY     -1218.883681994385

DIPOLE MOMENT
-------------
                                X             Y             Z
Electronic contribution:    -16.31295       1.07962       0.56873
Nuclear contribution   :     15.59009      -1.63071      -0.64654
                        -----------------------------------------
Total Dipole Moment    :     -0.72285      -0.55109      -0.07781
                        -----------------------------------------
Magnitude (a.u.)       :      0.91229
Magnitude (Debye)      :      2.31885

Rotational constants in cm-1:     0.080523     0.011898     0.010419
Rotational constants in MHz :  2414.031267   356.704752   312.339243

                             ****ORCA TERMINATED NORMALLY****
TOTAL RUN TIME: 0 days 0 hours 13 minutes 0 seconds 513 msec
