                         Program Version 4.2.0 -  RELEASE  -
|  1> # ORCA input file
|  2> # SCF done        -19.578079588078          0.000352426727
|  3> ! B3LYP/G D3BJ Opt RIJCOSX def2-SVP def2/J
|  4> * xyz 0 1
|  5>    C        0.96102        -0.72688         0.18600
|  6>    N        0.95644         0.63133         0.05821
|  7>    C       -0.33549         1.00231        -0.13093
|  8>    N       -1.13600        -0.01858        -0.13096
|  9>    C       -0.35169        -1.12446         0.06622
| 10>    C       -0.94113        -2.44272         0.11941
| 11>    C       -0.27647        -3.57239         0.32891
| 12>    H        1.86313        -1.27974         0.34400
| 13>    H        1.76235         1.23372         0.09775
| 14>    H       -0.63791         2.02208        -0.26206
| 15>    H       -2.01203        -2.44905        -0.02758
| 16>    H        0.78970        -3.58974         0.47987
| 17>    H       -0.77832        -4.52378         0.35703
| 18> *
| 19>
| 20>                          ****END OF INPUT****
 Total Charge           Charge          ....    0
 Multiplicity           Mult            ....    1
 Number of Electrons    NEL             ....   50
Dispersion correction           -0.019153827
FINAL SINGLE POINT ENERGY      -303.419014481979
Dispersion correction            ... done
Dispersion correction           -0.019158949
FINAL SINGLE POINT ENERGY      -303.421274322363
Dispersion correction            ... done
Dispersion correction           -0.019143579
FINAL SINGLE POINT ENERGY      -303.421319123074
Dispersion correction            ... done
FINAL SINGLE POINT ENERGY      -303.421315079251
Dispersion correction            ... done
Dispersion correction           -0.019123525
FINAL SINGLE POINT ENERGY      -303.421310787288
Dispersion correction            ... done
Dispersion correction           -0.019122464
FINAL SINGLE POINT ENERGY      -303.421310560532
Dispersion correction            ... done
                    ***********************HURRAY********************

CARTESIAN COORDINATES (ANGSTROEM)
---------------------------------
  C      0.983405   -0.708776    0.202169
  N      0.956584    0.658231    0.054917
  C     -0.347392    1.023150   -0.147270
  N     -1.140529   -0.019341   -0.139972
  C     -0.335879   -1.120866    0.078179
  C     -0.925023   -2.453932    0.139970
  C     -0.286940   -3.619528    0.315376
  H      1.904611   -1.254855    0.384281
  H      1.755684    1.278881    0.096893
  H     -0.649277    2.059886   -0.297480
  H     -2.012670   -2.441019    0.013936
  H      0.798634   -3.677417    0.443277
  H     -0.837609   -4.562314    0.341594

 Multiplicity           Mult            ....    1
 Number of Electrons    NEL             ....   50
 Basis Dimension        Dim             ....  128

ORBITAL ENERGIES
----------------

  NO   OCC          E(Eh)            E(eV)
   0   2.0000     -14.392498      -391.6398
   1   2.0000     -14.302980      -389.2039
   2   2.0000     -10.241354      -278.6814
   3   2.0000     -10.219407      -278.0842
   4   2.0000     -10.203216      -277.6436
   5   2.0000     -10.185381      -277.1583
   6   2.0000     -10.177554      -276.9453
   7   2.0000      -1.011053       -27.5121
   8   2.0000      -0.867878       -23.6162
   9   2.0000      -0.774289       -21.0695
  10   2.0000      -0.719640       -19.5824
  11   2.0000      -0.630362       -17.1530
  12   2.0000      -0.601656       -16.3719
  13   2.0000      -0.564977       -15.3738
  14   2.0000      -0.529908       -14.4195
  15   2.0000      -0.459428       -12.5017
  16   2.0000      -0.444413       -12.0931
  17   2.0000      -0.439745       -11.9661
  18   2.0000      -0.439498       -11.9593
  19   2.0000      -0.396766       -10.7966
  20   2.0000      -0.351170        -9.5558
  21   2.0000      -0.314734        -8.5643
  22   2.0000      -0.272469        -7.4143
  23   2.0000      -0.269754        -7.3404
  24   2.0000      -0.214201        -5.8287
  25   0.0000      -0.016631        -0.4526
  26   0.0000       0.028663         0.7800
  27   0.0000       0.041416         1.1270
  28   0.0000       0.080145         2.1809
  29   0.0000       0.097399         2.6504

MULLIKEN ATOMIC CHARGES
-----------------------
   0 C :   -0.004212
   1 N :   -0.068834
   2 C :    0.091493
   3 N :   -0.155487
   4 C :   -0.012739
   5 C :    0.041231
   6 C :   -0.038589
   7 H :   -0.005630
   8 H :    0.127132
   9 H :    0.009876
  10 H :   -0.006423
  11 H :    0.003890
  12 H :    0.018291
Sum of atomic charges:    0.0000000

LOEWDIN ATOMIC CHARGES
----------------------
   0 C :   -0.029525
   1 N :    0.078131
   2 C :    0.008324
   3 N :   -0.121778
   4 C :   -0.052182
   5 C :   -0.022552
   6 C :   -0.064199
   7 H :    0.021576
   8 H :    0.090319
   9 H :    0.017064
  10 H :    0.034530
  11 H :    0.016327
  12 H :    0.023964

  Mayer bond orders larger than 0.100000
B(  0-C ,  1-N ) :   1.2132 B(  0-C ,  4-C ) :   1.4654 B(  0-C ,  7-H ) :   0.9782
B(  1-N ,  2-C ) :   1.2149 B(  1-N ,  8-H ) :   0.9344 B(  2-C ,  3-N ) :   1.6395
B(  2-C ,  9-H ) :   0.9754 B(  3-N ,  4-C ) :   1.3784 B(  4-C ,  5-C ) :   1.1022
B(  5-C ,  6-C ) :   1.9253 B(  5-C , 10-H ) :   0.9514 B(  6-C , 11-H ) :   0.9491
B(  6-C , 12-H ) :   0.9468

Dispersion correction           -0.019123329
FINAL SINGLE POINT ENERGY      -303.421314873779

DIPOLE MOMENT
-------------
                                X             Y             Z
Electronic contribution:     -0.31752       3.83579      -0.40814
Nuclear contribution   :      1.65181      -3.12681       0.50980
                        -----------------------------------------
Total Dipole Moment    :      1.33429       0.70899       0.10167
                        -----------------------------------------
Magnitude (a.u.)       :      1.51437
Magnitude (Debye)      :      3.84922

Rotational constants in cm-1:     0.269422     0.066560     0.053376
Rotational constants in MHz :  8077.059597  1995.429259  1600.174809

                             ****ORCA TERMINATED NORMALLY****
TOTAL RUN TIME: 0 days 0 hours 2 minutes 47 seconds 760 msec
