                         Program Version 4.2.0 -  RELEASE  -
|  1> # ORCA input file
|  2> # SCF done        -39.892948500516          0.000474196021
|  3> ! B3LYP/G D3BJ Opt RIJCOSX def2-SVP def2/J
|  4> * xyz 0 1
|  5>    C        0.00362         1.19642        -0.99536
|  6>    S       -1.07773        -0.13667        -0.91728
|  7>    C        0.14229        -1.14207        -0.19711
|  8>    C        1.32582        -0.45273        -0.03916
|  9>    C        1.24163         0.89860        -0.50843
| 10>    O        2.31562         1.73677        -0.45681
| 11>    C        2.13790         3.04323        -0.96703
| 12>    C        3.46838         3.76956        -0.85618
| 13>    O        2.39496        -1.09432         0.49563
| 14>    C        3.52307        -0.34252         0.91060
| 15>    C        4.45534        -1.29600         1.64115
| 16>    C       -0.09283        -2.51121         0.16577
| 17>    C       -1.24018        -3.16000        -0.00973
| 18>    H       -0.34848         2.11949        -1.40798
| 19>    H        1.36327         3.56655        -0.38885
| 20>    H        1.81374         2.99289        -2.01572
| 21>    H        3.79397         3.79302         0.18037
| 22>    H        3.36400         4.78706        -1.22110
| 23>    H        4.22333         3.25560        -1.44510
| 24>    H        3.20915         0.47116         1.57537
| 25>    H        4.02628         0.09512         0.04103
| 26>    H        3.94983        -1.72578         2.50187
| 27>    H        5.33983        -0.76195         1.97603
| 28>    H        4.75459        -2.10301         0.97783
| 29>    H        0.76456        -2.99875         0.60936
| 30>    H       -2.09324        -2.67647        -0.45660
| 31>    H       -1.35949        -4.18755         0.28344
| 32> *
| 33>
| 34>                          ****END OF INPUT****
 Total Charge           Charge          ....    0
 Multiplicity           Mult            ....    1
 Number of Electrons    NEL             ....  106
Dispersion correction           -0.047899611
FINAL SINGLE POINT ENERGY      -937.624015444557
Dispersion correction            ... done
Dispersion correction           -0.047534463
FINAL SINGLE POINT ENERGY      -937.627034092418
Dispersion correction            ... done
Dispersion correction           -0.047560655
FINAL SINGLE POINT ENERGY      -937.627357914253
Dispersion correction            ... done
FINAL SINGLE POINT ENERGY      -937.627572759823
FINAL SINGLE POINT ENERGY      -937.627745901864
FINAL SINGLE POINT ENERGY      -937.627902209006
FINAL SINGLE POINT ENERGY      -937.628156505952
FINAL SINGLE POINT ENERGY      -937.628224738581
FINAL SINGLE POINT ENERGY      -937.628227229584
Dispersion correction            ... done
Dispersion correction           -0.047621164
FINAL SINGLE POINT ENERGY      -937.628247864273
Dispersion correction            ... done
Dispersion correction           -0.047624673
FINAL SINGLE POINT ENERGY      -937.628257406182
Dispersion correction            ... done
                    ***********************HURRAY********************

CARTESIAN COORDINATES (ANGSTROEM)
---------------------------------
  C     -0.059595    1.304518   -0.794851
  S     -1.119688   -0.062186   -0.640160
  C      0.199930   -1.111011   -0.179981
  C      1.397602   -0.415640   -0.156932
  C      1.247519    0.970897   -0.528413
  O      2.340514    1.766734   -0.598621
  C      2.145746    3.112967   -1.005080
  C      3.501194    3.780548   -1.103869
  O      2.570938   -1.025097    0.131979
  C      3.482538   -0.363969    1.017761
  C      4.292150   -1.416575    1.744802
  C      0.021819   -2.518836    0.114881
  C     -1.112787   -3.223814   -0.029339
  H     -0.458413    2.265126   -1.107162
  H      1.493810    3.630199   -0.275274
  H      1.624936    3.132357   -1.981245
  H      4.010683    3.779596   -0.128241
  H      3.388715    4.822306   -1.441508
  H      4.138562    3.247970   -1.825177
  H      2.916428    0.258178    1.732075
  H      4.132185    0.309131    0.436052
  H      3.641225   -2.062918    2.354748
  H      5.026515   -0.932308    2.408526
  H      4.837280   -2.052528    1.029776
  H      0.928132   -3.010546    0.482079
  H     -2.028539   -2.766539   -0.416036
  H     -1.160171   -4.282119    0.235220

 Multiplicity           Mult            ....    1
 Number of Electrons    NEL             ....  106
 Basis Dimension        Dim             ....  256

ORBITAL ENERGIES
----------------

  NO   OCC          E(Eh)            E(eV)
   0   2.0000     -88.863117     -2418.0884
   1   2.0000     -19.170138      -521.6460
   2   2.0000     -19.154266      -521.2141
   3   2.0000     -10.252434      -278.9829
   4   2.0000     -10.248047      -278.8635
   5   2.0000     -10.242068      -278.7008
   6   2.0000     -10.237612      -278.5796
   7   2.0000     -10.204901      -277.6895
   8   2.0000     -10.203812      -277.6598
   9   2.0000     -10.194630      -277.4100
  10   2.0000     -10.192375      -277.3486
  11   2.0000     -10.184539      -277.1354
  12   2.0000     -10.178360      -276.9672
  13   2.0000      -7.957962      -216.5472
  14   2.0000      -5.926242      -161.2612
  15   2.0000      -5.922576      -161.1615
  16   2.0000      -5.918549      -161.0519
  17   2.0000      -1.068531       -29.0762
  18   2.0000      -1.044586       -28.4246
  19   2.0000      -0.870862       -23.6974
  20   2.0000      -0.783626       -21.3235
  21   2.0000      -0.770285       -20.9605
  22   2.0000      -0.760399       -20.6915
  23   2.0000      -0.705074       -19.1860
  24   2.0000      -0.694071       -18.8866
  25   2.0000      -0.643806       -17.5188
  26   2.0000      -0.617566       -16.8048
  27   2.0000      -0.599290       -16.3075
  28   2.0000      -0.560153       -15.2425
  29   2.0000      -0.546070       -14.8593
  30   2.0000      -0.517385       -14.0788
  31   2.0000      -0.494316       -13.4510
  32   2.0000      -0.489573       -13.3220
  33   2.0000      -0.479423       -13.0458
  34   2.0000      -0.469351       -12.7717
  35   2.0000      -0.426974       -11.6185
  36   2.0000      -0.422543       -11.4980
  37   2.0000      -0.412609       -11.2277
  38   2.0000      -0.410536       -11.1712
  39   2.0000      -0.403928       -10.9914
  40   2.0000      -0.391891       -10.6639
  41   2.0000      -0.389648       -10.6029
  42   2.0000      -0.385019       -10.4769
  43   2.0000      -0.366006        -9.9595
  44   2.0000      -0.364628        -9.9220
  45   2.0000      -0.355159        -9.6644
  46   2.0000      -0.336899        -9.1675
  47   2.0000      -0.334541        -9.1033
  48   2.0000      -0.327934        -8.9235
  49   2.0000      -0.294491        -8.0135
  50   2.0000      -0.285053        -7.7567
  51   2.0000      -0.215019        -5.8510
  52   2.0000      -0.203926        -5.5491
  53   0.0000      -0.034821        -0.9475
  54   0.0000       0.040908         1.1132
  55   0.0000       0.051681         1.4063
  56   0.0000       0.053146         1.4462
  57   0.0000       0.062682         1.7057

MULLIKEN ATOMIC CHARGES
-----------------------
   0 C :   -0.209432
   1 S :    0.095373
   2 C :   -0.172992
   3 C :    0.177884
   4 C :    0.204926
   5 O :   -0.319786
   6 C :    0.153539
   7 C :    0.015345
   8 O :   -0.331756
   9 C :    0.196404
  10 C :   -0.003208
  11 C :    0.020771
  12 C :   -0.039688
  13 H :    0.015225
  14 H :    0.012151
  15 H :    0.009456
  16 H :    0.025295
  17 H :    0.015992
  18 H :    0.028590
  19 H :    0.002797
  20 H :    0.015902
  21 H :    0.020265
  22 H :    0.011767
  23 H :    0.025778
  24 H :   -0.005750
  25 H :    0.013933
  26 H :    0.021217
Sum of atomic charges:   -0.0000000

LOEWDIN ATOMIC CHARGES
----------------------
   0 C :   -0.249430
   1 S :    0.410986
   2 C :   -0.204600
   3 C :   -0.003119
   4 C :   -0.012042
   5 O :   -0.100337
   6 C :    0.086287
   7 C :   -0.059978
   8 O :   -0.113671
   9 C :    0.092096
  10 C :   -0.064247
  11 C :   -0.033465
  12 C :   -0.067013
  13 H :    0.020938
  14 H :    0.011431
  15 H :    0.011728
  16 H :    0.028735
  17 H :    0.032120
  18 H :    0.030600
  19 H :    0.011819
  20 H :    0.011905
  21 H :    0.026315
  22 H :    0.028937
  23 H :    0.029007
  24 H :    0.034150
  25 H :    0.016099
  26 H :    0.024749

  Mayer bond orders larger than 0.100000
B(  0-C ,  1-S ) :   1.0998 B(  0-C ,  4-C ) :   1.4766 B(  0-C , 13-H ) :   0.9698
B(  1-S ,  2-C ) :   1.1021 B(  2-C ,  3-C ) :   1.4848 B(  2-C , 11-C ) :   1.1590
B(  3-C ,  4-C ) :   1.1829 B(  3-C ,  8-O ) :   1.1761 B(  4-C ,  5-O ) :   1.1348
B(  5-O ,  6-C ) :   0.9441 B(  6-C ,  7-C ) :   1.1107 B(  6-C , 14-H ) :   0.9449
B(  6-C , 15-H ) :   0.9418 B(  7-C , 16-H ) :   0.9670 B(  7-C , 17-H ) :   0.9553
B(  7-C , 18-H ) :   0.9669 B(  8-O ,  9-C ) :   0.9113 B(  9-C , 10-C ) :   1.1108
B(  9-C , 19-H ) :   0.9436 B(  9-C , 20-H ) :   0.9512 B( 10-C , 21-H ) :   0.9663
B( 10-C , 22-H ) :   0.9602 B( 10-C , 23-H ) :   0.9672 B( 11-C , 12-C ) :   1.8900
B( 11-C , 24-H ) :   0.9532 B( 12-C , 25-H ) :   0.9491 B( 12-C , 26-H ) :   0.9463

Dispersion correction           -0.047625404
FINAL SINGLE POINT ENERGY      -937.628261223922

DIPOLE MOMENT
-------------
                                X             Y             Z
Electronic contribution:    -13.04634      -3.75417      -3.73988
Nuclear contribution   :     13.56317       4.78692       3.90906
                        -----------------------------------------
Total Dipole Moment    :      0.51683       1.03275       0.16918
                        -----------------------------------------
Magnitude (a.u.)       :      1.16718
Magnitude (Debye)      :      2.96674

Rotational constants in cm-1:     0.028751     0.017168     0.011016
Rotational constants in MHz :   861.932450   514.676632   330.240665

                             ****ORCA TERMINATED NORMALLY****
TOTAL RUN TIME: 0 days 0 hours 21 minutes 2 seconds 46 msec
