                         Program Version 4.2.0 -  RELEASE  -
|  1> # ORCA input file
|  2> # SCF done        -33.205523639815          0.000518595915
|  3> ! B3LYP/G D3BJ Opt RIJCOSX def2-SVP def2/J
|  4> * xyz 0 1
|  5>    C       -1.54402         1.25980        -0.04894
|  6>    S       -2.69294         0.00666        -0.08637
|  7>    C       -1.48241        -1.23177        -0.01741
|  8>    C       -0.21105        -0.66693        -0.00212
|  9>    C       -0.25436         0.77313        -0.00843
| 10>    C        0.94262         1.51969         0.02082
| 11>    C        2.14112         0.85327         0.02600
| 12>    C        3.35593         1.57352         0.06227
| 13>    N        4.34685         2.15010         0.09315
| 14>    C        2.19078        -0.57013        -0.02595
| 15>    C        1.05047        -1.30952        -0.04274
| 16>    C       -1.92193        -2.60130         0.03229
| 17>    C       -1.26103        -3.62477         0.56848
| 18>    H       -1.86096         2.28349        -0.05380
| 19>    H        0.90330         2.59885         0.03218
| 20>    H        3.15880        -1.04724        -0.05976
| 21>    H        1.09988        -2.38377        -0.11411
| 22>    H       -2.91220        -2.76742        -0.37450
| 23>    H       -0.30454        -3.51188         1.04746
| 24>    H       -1.68130        -4.61514         0.56529
| 25> *
| 26>
| 27>                          ****END OF INPUT****
 Total Charge           Charge          ....    0
 Multiplicity           Mult            ....    1
 Number of Electrons    NEL             ....   96
Dispersion correction           -0.047374396
FINAL SINGLE POINT ENERGY      -875.870701854674
Dispersion correction            ... done
Dispersion correction           -0.047064893
FINAL SINGLE POINT ENERGY      -875.874334263357
Dispersion correction            ... done
Dispersion correction           -0.047008095
FINAL SINGLE POINT ENERGY      -875.874415051260
Dispersion correction            ... done
FINAL SINGLE POINT ENERGY      -875.874434898642
Dispersion correction            ... done
Dispersion correction           -0.047001683
FINAL SINGLE POINT ENERGY      -875.874441611745
Dispersion correction            ... done
Dispersion correction           -0.047003194
FINAL SINGLE POINT ENERGY      -875.874441724751
Dispersion correction            ... done
                    ***********************HURRAY********************

CARTESIAN COORDINATES (ANGSTROEM)
---------------------------------
  C     -1.562905    1.283385   -0.042446
  S     -2.702766    0.014441   -0.081774
  C     -1.499555   -1.234333   -0.007830
  C     -0.217527   -0.661425    0.019929
  C     -0.260232    0.790907    0.006992
  C      0.951008    1.538574    0.021412
  C      2.159689    0.870331    0.022352
  C      3.390839    1.605506    0.022241
  N      4.394777    2.188994    0.022629
  C      2.205189   -0.568577    0.002086
  C      1.054549   -1.310985    0.002909
  C     -1.941491   -2.619194    0.030688
  C     -1.276980   -3.669112    0.543545
  H     -1.882760    2.323464   -0.057972
  H      0.921528    2.629834    0.021301
  H      3.179612   -1.058303   -0.026367
  H      1.110305   -2.398611   -0.035868
  H     -2.938154   -2.798842   -0.388720
  H     -0.307510   -3.567990    1.033838
  H     -1.714603   -4.669424    0.504864

 Multiplicity           Mult            ....    1
 Number of Electrons    NEL             ....   96
 Basis Dimension        Dim             ....  221

ORBITAL ENERGIES
----------------

  NO   OCC          E(Eh)            E(eV)
   0   2.0000     -88.904277     -2419.2084
   1   2.0000     -14.326158      -389.8346
   2   2.0000     -10.240310      -278.6530
   3   2.0000     -10.237992      -278.5899
   4   2.0000     -10.234582      -278.4971
   5   2.0000     -10.226722      -278.2833
   6   2.0000     -10.226402      -278.2746
   7   2.0000     -10.222836      -278.1775
   8   2.0000     -10.221133      -278.1312
   9   2.0000     -10.219855      -278.0964
  10   2.0000     -10.216895      -278.0159
  11   2.0000     -10.215383      -277.9747
  12   2.0000     -10.204418      -277.6763
  13   2.0000      -7.999011      -217.6642
  14   2.0000      -5.966594      -162.3593
  15   2.0000      -5.962574      -162.2499
  16   2.0000      -5.961450      -162.2193
  17   2.0000      -0.915211       -24.9041
  18   2.0000      -0.897043       -24.4098
  19   2.0000      -0.855078       -23.2679
  20   2.0000      -0.805818       -21.9274
  21   2.0000      -0.775579       -21.1046
  22   2.0000      -0.761224       -20.7139
  23   2.0000      -0.715144       -19.4601
  24   2.0000      -0.657064       -17.8796
  25   2.0000      -0.630347       -17.1526
  26   2.0000      -0.609022       -16.5723
  27   2.0000      -0.566737       -15.4217
  28   2.0000      -0.544495       -14.8165
  29   2.0000      -0.512892       -13.9565
  30   2.0000      -0.493901       -13.4397
  31   2.0000      -0.477712       -12.9992
  32   2.0000      -0.457349       -12.4451
  33   2.0000      -0.450388       -12.2557
  34   2.0000      -0.433986       -11.8094
  35   2.0000      -0.427598       -11.6355
  36   2.0000      -0.404659       -11.0113
  37   2.0000      -0.392136       -10.6706
  38   2.0000      -0.388889       -10.5822
  39   2.0000      -0.371518       -10.1095
  40   2.0000      -0.363328        -9.8867
  41   2.0000      -0.355910        -9.6848
  42   2.0000      -0.337291        -9.1782
  43   2.0000      -0.335288        -9.1236
  44   2.0000      -0.327038        -8.8992
  45   2.0000      -0.286111        -7.7855
  46   2.0000      -0.269079        -7.3220
  47   2.0000      -0.218053        -5.9335
  48   0.0000      -0.091176        -2.4810
  49   0.0000      -0.046534        -1.2662
  50   0.0000      -0.006873        -0.1870
  51   0.0000       0.017491         0.4760
  52   0.0000       0.028841         0.7848

MULLIKEN ATOMIC CHARGES
-----------------------
   0 C :   -0.118371
   1 S :    0.161987
   2 C :   -0.169643
   3 C :    0.132886
   4 C :    0.089083
   5 C :   -0.002129
   6 C :   -0.084808
   7 C :   -0.122444
   8 N :    0.056964
   9 C :    0.042666
  10 C :   -0.029296
  11 C :    0.026038
  12 C :   -0.037749
  13 H :    0.028672
  14 H :   -0.009999
  15 H :   -0.007876
  16 H :   -0.015226
  17 H :   -0.001359
  18 H :    0.029697
  19 H :    0.030908
Sum of atomic charges:    0.0000000

LOEWDIN ATOMIC CHARGES
----------------------
   0 C :   -0.196927
   1 S :    0.502390
   2 C :   -0.187306
   3 C :   -0.040311
   4 C :   -0.050341
   5 C :    0.021189
   6 C :   -0.071222
   7 C :   -0.026369
   8 N :   -0.069281
   9 C :   -0.006551
  10 C :   -0.010316
  11 C :   -0.043653
  12 C :   -0.045682
  13 H :    0.029844
  14 H :    0.039529
  15 H :    0.037667
  16 H :    0.032950
  17 H :    0.031013
  18 H :    0.023772
  19 H :    0.029603

  Mayer bond orders larger than 0.100000
B(  0-C ,  1-S ) :   1.2087 B(  0-C ,  2-C ) :   0.1099 B(  0-C ,  4-C ) :   1.3732
B(  0-C , 13-H ) :   0.9669 B(  1-S ,  2-C ) :   1.1707 B(  2-C ,  3-C ) :   1.3634
B(  2-C , 11-C ) :   1.1081 B(  3-C ,  4-C ) :   1.1920 B(  3-C , 10-C ) :   1.1938
B(  4-C ,  5-C ) :   1.1751 B(  5-C ,  6-C ) :   1.5066 B(  5-C , 14-H ) :   0.9989
B(  6-C ,  7-C ) :   1.0656 B(  6-C ,  9-C ) :   1.1946 B(  7-C ,  8-N ) :   3.0086
B(  9-C , 10-C ) :   1.5347 B(  9-C , 15-H ) :   0.9836 B( 10-C , 16-H ) :   0.9880
B( 11-C , 12-C ) :   1.9159 B( 11-C , 17-H ) :   0.9438 B( 12-C , 18-H ) :   0.9535
B( 12-C , 19-H ) :   0.9437

Dispersion correction           -0.047003496
FINAL SINGLE POINT ENERGY      -875.874443198324

DIPOLE MOMENT
-------------
                                X             Y             Z
Electronic contribution:      0.01203       7.18064      -0.78844
Nuclear contribution   :     -1.75772      -8.01170       0.76872
                        -----------------------------------------
Total Dipole Moment    :     -1.74570      -0.83106      -0.01972
                        -----------------------------------------
Magnitude (a.u.)       :      1.93352
Magnitude (Debye)      :      4.91462

Rotational constants in cm-1:     0.050425     0.015072     0.011652
Rotational constants in MHz :  1511.696294   451.856602   349.323827

                             ****ORCA TERMINATED NORMALLY****
TOTAL RUN TIME: 0 days 0 hours 9 minutes 20 seconds 432 msec
