                         Program Version 4.2.0 -  RELEASE  -
|  1> # ORCA input file
|  2> # SCF done        -31.637106402030          0.000451142378
|  3> ! B3LYP/G D3BJ Opt RIJCOSX def2-SVP def2/J
|  4> * xyz 0 1
|  5>    C       -1.96641        -1.12404         0.00633
|  6>    S       -2.00391         0.59545         0.18951
|  7>    C       -0.27637         0.64958         0.12063
|  8>    C        0.68592         1.66457         0.18523
|  9>    C        1.95583         1.14944         0.07523
| 10>    C        3.26395         1.81319         0.08289
| 11>    O        4.29508         1.20672        -0.02983
| 12>    O        3.25594         3.15299         0.22235
| 13>    S        1.98229        -0.58454        -0.10828
| 14>    C        0.26217        -0.62837        -0.03767
| 15>    C       -0.71624        -1.64190        -0.10253
| 16>    H       -2.89800        -1.65449        -0.00974
| 17>    H        0.43794         2.70521         0.30496
| 18>    H        2.36614         3.51550         0.31061
| 19>    H       -0.50129        -2.68700        -0.22248
| 20> *
| 21>
| 22>                          ****END OF INPUT****
 Total Charge           Charge          ....    0
 Multiplicity           Mult            ....    1
 Number of Electrons    NEL             ....   94
Dispersion correction           -0.037155332
FINAL SINGLE POINT ENERGY     -1215.486589594264
Dispersion correction            ... done
Dispersion correction           -0.037093108
FINAL SINGLE POINT ENERGY     -1215.488565537803
Dispersion correction            ... done
Dispersion correction           -0.037088037
FINAL SINGLE POINT ENERGY     -1215.488656494994
Dispersion correction            ... done
FINAL SINGLE POINT ENERGY     -1215.488616614012
FINAL SINGLE POINT ENERGY     -1215.488646801640
FINAL SINGLE POINT ENERGY     -1215.488688665738
FINAL SINGLE POINT ENERGY     -1215.488703565868
FINAL SINGLE POINT ENERGY     -1215.488718747632
Dispersion correction            ... done
Dispersion correction           -0.037101474
FINAL SINGLE POINT ENERGY     -1215.488735450708
Dispersion correction            ... done
Dispersion correction           -0.037102045
FINAL SINGLE POINT ENERGY     -1215.488740265634
Dispersion correction            ... done
                    ***********************HURRAY********************

CARTESIAN COORDINATES (ANGSTROEM)
---------------------------------
  C     -1.994391   -1.137167    0.014465
  S     -2.024051    0.602676    0.140540
  C     -0.284163    0.656039    0.082650
  C      0.696157    1.678465    0.125780
  C      1.973881    1.155002    0.051022
  C      3.286666    1.837787    0.050604
  O      4.325341    1.263232   -0.151549
  O      3.266298    3.167294    0.298499
  S      1.988467   -0.592257   -0.092401
  C      0.255792   -0.633274   -0.031586
  C     -0.729612   -1.662965   -0.068856
  H     -2.937954   -1.680977    0.006469
  H      0.462550    2.742951    0.193922
  H      2.374498    3.463879    0.523790
  H     -0.516436   -2.728375   -0.156138

 Multiplicity           Mult            ....    1
 Number of Electrons    NEL             ....   94
 Basis Dimension        Dim             ....  182

ORBITAL ENERGIES
----------------

  NO   OCC          E(Eh)            E(eV)
   0   2.0000     -88.894473     -2418.9416
   1   2.0000     -88.894014     -2418.9291
   2   2.0000     -19.185096      -522.0530
   3   2.0000     -19.121182      -520.3138
   4   2.0000     -10.327277      -281.0195
   5   2.0000     -10.240305      -278.6529
   6   2.0000     -10.238071      -278.5921
   7   2.0000     -10.236618      -278.5525
   8   2.0000     -10.236198      -278.5411
   9   2.0000     -10.235570      -278.5240
  10   2.0000     -10.221328      -278.1365
  11   2.0000      -7.989105      -217.3946
  12   2.0000      -7.988126      -217.3680
  13   2.0000      -5.957514      -162.1122
  14   2.0000      -5.956405      -162.0820
  15   2.0000      -5.953553      -162.0044
  16   2.0000      -5.952547      -161.9770
  17   2.0000      -5.949788      -161.9020
  18   2.0000      -5.948915      -161.8782
  19   2.0000      -1.096050       -29.8250
  20   2.0000      -1.013735       -27.5851
  21   2.0000      -0.923153       -25.1203
  22   2.0000      -0.860406       -23.4128
  23   2.0000      -0.781359       -21.2619
  24   2.0000      -0.737084       -20.0571
  25   2.0000      -0.725342       -19.7376
  26   2.0000      -0.651013       -17.7150
  27   2.0000      -0.615018       -16.7355
  28   2.0000      -0.585432       -15.9304
  29   2.0000      -0.554666       -15.0932
  30   2.0000      -0.527862       -14.3639
  31   2.0000      -0.508012       -13.8237
  32   2.0000      -0.461720       -12.5641
  33   2.0000      -0.456408       -12.4195
  34   2.0000      -0.433092       -11.7850
  35   2.0000      -0.431580       -11.7439
  36   2.0000      -0.426543       -11.6068
  37   2.0000      -0.408652       -11.1200
  38   2.0000      -0.390821       -10.6348
  39   2.0000      -0.381672       -10.3858
  40   2.0000      -0.357148        -9.7185
  41   2.0000      -0.356110        -9.6902
  42   2.0000      -0.323672        -8.8076
  43   2.0000      -0.306270        -8.3340
  44   2.0000      -0.285501        -7.7689
  45   2.0000      -0.251980        -6.8567
  46   2.0000      -0.242413        -6.5964
  47   0.0000      -0.075328        -2.0498
  48   0.0000      -0.010172        -0.2768
  49   0.0000       0.011565         0.3147
  50   0.0000       0.019584         0.5329
  51   0.0000       0.033400         0.9089

MULLIKEN ATOMIC CHARGES
-----------------------
   0 C :   -0.080010
   1 S :    0.127382
   2 C :   -0.063941
   3 C :   -0.013348
   4 C :   -0.201839
   5 C :    0.201924
   6 O :   -0.186666
   7 O :   -0.159881
   8 S :    0.193442
   9 C :   -0.042393
  10 C :    0.020036
  11 H :    0.040577
  12 H :   -0.011137
  13 H :    0.172340
  14 H :    0.003514
Sum of atomic charges:    0.0000000

LOEWDIN ATOMIC CHARGES
----------------------
   0 C :   -0.164362
   1 S :    0.415524
   2 C :   -0.208041
   3 C :   -0.064044
   4 C :   -0.229162
   5 C :    0.058424
   6 O :   -0.163117
   7 O :   -0.033729
   8 S :    0.469699
   9 C :   -0.194623
  10 C :   -0.072148
  11 H :    0.030168
  12 H :    0.029493
  13 H :    0.087796
  14 H :    0.038120

  Mayer bond orders larger than 0.100000
B(  0-C ,  1-S ) :   1.1468 B(  0-C , 10-C ) :   1.5777 B(  0-C , 11-H ) :   0.9633
B(  1-S ,  2-C ) :   1.0772 B(  2-C ,  3-C ) :   1.2928 B(  2-C ,  9-C ) :   1.4116
B(  3-C ,  4-C ) :   1.4946 B(  3-C , 12-H ) :   0.9777 B(  4-C ,  5-C ) :   0.9540
B(  4-C ,  8-S ) :   1.1192 B(  5-C ,  6-O ) :   2.1627 B(  5-C ,  7-O ) :   1.2240
B(  7-O , 13-H ) :   0.9570 B(  8-S ,  9-C ) :   1.0929 B(  9-C , 10-C ) :   1.2465
B( 10-C , 14-H ) :   0.9981

Dispersion correction           -0.037101570
FINAL SINGLE POINT ENERGY     -1215.488738040079

DIPOLE MOMENT
-------------
                                X             Y             Z
Electronic contribution:      1.65854       0.08981      -0.16585
Nuclear contribution   :     -3.66374      -0.18469       0.38899
                        -----------------------------------------
Total Dipole Moment    :     -2.00520      -0.09488       0.22314
                        -----------------------------------------
Magnitude (a.u.)       :      2.01980
Magnitude (Debye)      :      5.13393

Rotational constants in cm-1:     0.073016     0.017622     0.014209
Rotational constants in MHz :  2188.969046   528.303257   425.982518

                             ****ORCA TERMINATED NORMALLY****
TOTAL RUN TIME: 0 days 0 hours 9 minutes 14 seconds 900 msec
