                         Program Version 4.2.0 -  RELEASE  -
|  1> # ORCA input file
|  2> # SCF done        -26.333907776077          0.000246753773
|  3> ! B3LYP/G D3BJ Opt RIJCOSX def2-SVP def2/J
|  4> * xyz 0 1
|  5>    C        1.47376        -0.97692        -0.00215
|  6>    S        2.32693         0.52762         0.00162
|  7>    C        0.88485         1.48260         0.00380
|  8>    C       -0.18748         0.65790         0.00283
|  9>    C        0.14420        -0.72732        -0.00052
| 10>    O       -1.02240        -1.42825        -0.00138
| 11>    C       -2.02069        -0.51337         0.00195
| 12>    S       -3.58676        -0.88833         0.00131
| 13>    O       -1.54503         0.75444         0.00390
| 14>    H        2.00154        -1.90667        -0.00479
| 15>    H        0.93436         2.55056         0.00598
| 16> *
| 17>
| 18>                          ****END OF INPUT****
 Total Charge           Charge          ....    0
 Multiplicity           Mult            ....    1
 Number of Electrons    NEL             ....   80
Dispersion correction           -0.023762717
FINAL SINGLE POINT ENERGY     -1138.064692694340
Dispersion correction            ... done
Dispersion correction           -0.023816442
FINAL SINGLE POINT ENERGY     -1138.067149545476
Dispersion correction            ... done
Dispersion correction           -0.023827027
FINAL SINGLE POINT ENERGY     -1138.067364657917
Dispersion correction            ... done
FINAL SINGLE POINT ENERGY     -1138.067389837249
Dispersion correction            ... done
Dispersion correction           -0.023829746
FINAL SINGLE POINT ENERGY     -1138.067415418435
Dispersion correction            ... done
Dispersion correction           -0.023829766
FINAL SINGLE POINT ENERGY     -1138.067415610725
Dispersion correction            ... done
                    ***********************HURRAY********************

CARTESIAN COORDINATES (ANGSTROEM)
---------------------------------
  C      1.487378   -0.988229   -0.002065
  S      2.347005    0.535340    0.001093
  C      0.890424    1.498093    0.003923
  C     -0.177738    0.652452    0.002777
  C      0.151589   -0.719526   -0.000491
  O     -1.021354   -1.426398   -0.001110
  C     -2.056214   -0.522775    0.000771
  S     -3.626856   -0.893915    0.001853
  O     -1.542961    0.750195    0.003981
  H      2.017338   -1.937167   -0.004610
  H      0.934670    2.584189    0.006428

 Multiplicity           Mult            ....    1
 Number of Electrons    NEL             ....   80
 Basis Dimension        Dim             ....  144

ORBITAL ENERGIES
----------------

  NO   OCC          E(Eh)            E(eV)
   0   2.0000     -88.905689     -2419.2468
   1   2.0000     -88.820812     -2416.9372
   2   2.0000     -19.236415      -523.4495
   3   2.0000     -19.236221      -523.4442
   4   2.0000     -10.361899      -281.9616
   5   2.0000     -10.280397      -279.7438
   6   2.0000     -10.280055      -279.7345
   7   2.0000     -10.246108      -278.8108
   8   2.0000     -10.245962      -278.8068
   9   2.0000      -7.999887      -217.6880
  10   2.0000      -7.917963      -215.4587
  11   2.0000      -5.968392      -162.4082
  12   2.0000      -5.964179      -162.2936
  13   2.0000      -5.960593      -162.1960
  14   2.0000      -5.886715      -160.1857
  15   2.0000      -5.883147      -160.0886
  16   2.0000      -5.877112      -159.9244
  17   2.0000      -1.186464       -32.2853
  18   2.0000      -1.081728       -29.4353
  19   2.0000      -0.914941       -24.8968
  20   2.0000      -0.814511       -22.1640
  21   2.0000      -0.760233       -20.6870
  22   2.0000      -0.734250       -19.9800
  23   2.0000      -0.649259       -17.6672
  24   2.0000      -0.647373       -17.6159
  25   2.0000      -0.618912       -16.8415
  26   2.0000      -0.540648       -14.7118
  27   2.0000      -0.530608       -14.4386
  28   2.0000      -0.518915       -14.1204
  29   2.0000      -0.440550       -11.9880
  30   2.0000      -0.423282       -11.5181
  31   2.0000      -0.421413       -11.4672
  32   2.0000      -0.420206       -11.4344
  33   2.0000      -0.407595       -11.0912
  34   2.0000      -0.404702       -11.0125
  35   2.0000      -0.379713       -10.3325
  36   2.0000      -0.305645        -8.3170
  37   2.0000      -0.266947        -7.2640
  38   2.0000      -0.244928        -6.6648
  39   2.0000      -0.244110        -6.6426
  40   0.0000      -0.063415        -1.7256
  41   0.0000      -0.025394        -0.6910
  42   0.0000       0.004801         0.1306
  43   0.0000       0.051498         1.4013
  44   0.0000       0.057113         1.5541

MULLIKEN ATOMIC CHARGES
-----------------------
   0 C :   -0.167779
   1 S :    0.105943
   2 C :   -0.174823
   3 C :    0.218367
   4 C :    0.214480
   5 O :   -0.199060
   6 C :    0.247391
   7 S :   -0.141188
   8 O :   -0.199224
   9 H :    0.045781
  10 H :    0.050112
Sum of atomic charges:    0.0000000

LOEWDIN ATOMIC CHARGES
----------------------
   0 C :   -0.204537
   1 S :    0.450213
   2 C :   -0.206547
   3 C :   -0.011242
   4 C :   -0.010615
   5 O :   -0.029779
   6 C :   -0.056934
   7 S :    0.021196
   8 O :   -0.029203
   9 H :    0.038400
  10 H :    0.039049

  Mayer bond orders larger than 0.100000
B(  0-C ,  1-S ) :   1.1314 B(  0-C ,  2-C ) :   0.1012 B(  0-C ,  4-C ) :   1.5140
B(  0-C ,  9-H ) :   0.9870 B(  1-S ,  2-C ) :   1.1329 B(  2-C ,  3-C ) :   1.5149
B(  2-C , 10-H ) :   0.9849 B(  3-C ,  4-C ) :   1.2440 B(  3-C ,  8-O ) :   1.0510
B(  4-C ,  5-O ) :   1.0512 B(  5-O ,  6-C ) :   1.0766 B(  6-C ,  7-S ) :   1.8069
B(  6-C ,  8-O ) :   1.0757

Dispersion correction           -0.023830279
FINAL SINGLE POINT ENERGY     -1138.067415457391

DIPOLE MOMENT
-------------
                                X             Y             Z
Electronic contribution:     -2.18679      -0.52215       0.00037
Nuclear contribution   :      3.65106       0.87169      -0.00069
                        -----------------------------------------
Total Dipole Moment    :      1.46426       0.34954      -0.00032
                        -----------------------------------------
Magnitude (a.u.)       :      1.50540
Magnitude (Debye)      :      3.82643

Rotational constants in cm-1:     0.164963     0.022649     0.019915
Rotational constants in MHz :  4945.479978   679.000287   597.029812

                             ****ORCA TERMINATED NORMALLY****
TOTAL RUN TIME: 0 days 0 hours 3 minutes 21 seconds 35 msec
