                         Program Version 4.2.0 -  RELEASE  -
|  1> # ORCA input file
|  2> # SCF done        -35.936066599212          0.000952251555
|  3> ! B3LYP/G D3BJ Opt RIJCOSX def2-SVP def2/J
|  4> * xyz 0 1
|  5>    C        1.57795         1.20693         0.09145
|  6>    S        2.78163        -0.01969         0.03225
|  7>    C        1.58030        -1.24025         0.01270
|  8>    C        0.32143        -0.72158         0.05257
|  9>    C        0.31774         0.70068         0.09536
| 10>    C       -0.95094         1.48904         0.16707
| 11>    C       -2.11271         0.66092        -0.37757
| 12>    C       -2.16829        -0.68939         0.33064
| 13>    C       -0.93009        -1.53599         0.00190
| 14>    N       -1.12369        -2.07947        -1.37352
| 15>    O       -0.83007        -1.37369        -2.30633
| 16>    O       -1.59883        -3.18699        -1.45585
| 17>    H        1.87590         2.23585         0.11733
| 18>    H        1.86893        -2.27198        -0.03057
| 19>    H       -0.84585         2.41864        -0.39384
| 20>    H       -1.14750         1.75345         1.21167
| 21>    H       -1.97694         0.51032        -1.45048
| 22>    H       -3.05231         1.19372        -0.22634
| 23>    H       -3.06720        -1.24027         0.04511
| 24>    H       -2.19727        -0.53581         1.41154
| 25>    H       -0.87942        -2.41021         0.65920
| 26> *
| 27>
| 28>                          ****END OF INPUT****
 Total Charge           Charge          ....    0
 Multiplicity           Mult            ....    1
 Number of Electrons    NEL             ....   96
Dispersion correction           -0.045679197
FINAL SINGLE POINT ENERGY      -913.118810812364
Dispersion correction            ... done
Dispersion correction           -0.045117976
FINAL SINGLE POINT ENERGY      -913.122366455612
Dispersion correction            ... done
Dispersion correction           -0.045027583
FINAL SINGLE POINT ENERGY      -913.122058158123
Dispersion correction            ... done
FINAL SINGLE POINT ENERGY      -913.122633236693
FINAL SINGLE POINT ENERGY      -913.122622262520
FINAL SINGLE POINT ENERGY      -913.122753084171
FINAL SINGLE POINT ENERGY      -913.122727355674
FINAL SINGLE POINT ENERGY      -913.122637273953
FINAL SINGLE POINT ENERGY      -913.122553832015
FINAL SINGLE POINT ENERGY      -913.122448699416
FINAL SINGLE POINT ENERGY      -913.122517758328
FINAL SINGLE POINT ENERGY      -913.122640941732
FINAL SINGLE POINT ENERGY      -913.122634183606
FINAL SINGLE POINT ENERGY      -913.122626149881
Dispersion correction            ... done
Dispersion correction           -0.044938184
FINAL SINGLE POINT ENERGY      -913.122634345299
Dispersion correction            ... done
Dispersion correction           -0.044930215
FINAL SINGLE POINT ENERGY      -913.122645556763
Dispersion correction            ... done
                    ***********************HURRAY********************

CARTESIAN COORDINATES (ANGSTROEM)
---------------------------------
  C      1.616653    1.208815    0.094908
  S      2.810989   -0.042665    0.131104
  C      1.601918   -1.268413    0.098351
  C      0.335373   -0.731657    0.051405
  C      0.338435    0.705719    0.058960
  C     -0.935301    1.511571    0.109874
  C     -2.161504    0.695434   -0.321906
  C     -2.175204   -0.695300    0.319155
  C     -0.930862   -1.530330   -0.025225
  N     -1.119745   -2.103582   -1.438499
  O     -1.004619   -1.342692   -2.380953
  O     -1.410201   -3.283626   -1.512235
  H      1.922848    2.253868    0.113855
  H      1.883541   -2.320599    0.096585
  H     -0.838579    2.415661   -0.510654
  H     -1.082120    1.869044    1.145570
  H     -2.168508    0.585967   -1.416361
  H     -3.079265    1.234673   -0.038716
  H     -3.073909   -1.261053    0.026700
  H     -2.202187   -0.603703    1.418435
  H     -0.884982   -2.432899    0.593935

 Multiplicity           Mult            ....    1
 Number of Electrons    NEL             ....   96
 Basis Dimension        Dim             ....  217

ORBITAL ENERGIES
----------------

  NO   OCC          E(Eh)            E(eV)
   0   2.0000     -88.883381     -2418.6398
   1   2.0000     -19.164226      -521.4851
   2   2.0000     -19.164116      -521.4821
   3   2.0000     -14.550301      -395.9338
   4   2.0000     -10.254904      -279.0501
   5   2.0000     -10.222723      -278.1744
   6   2.0000     -10.215437      -277.9762
   7   2.0000     -10.213790      -277.9314
   8   2.0000     -10.208641      -277.7912
   9   2.0000     -10.205449      -277.7044
  10   2.0000     -10.203192      -277.6430
  11   2.0000     -10.197783      -277.4958
  12   2.0000      -7.978387      -217.1030
  13   2.0000      -5.946390      -161.8095
  14   2.0000      -5.942236      -161.6965
  15   2.0000      -5.940090      -161.6381
  16   2.0000      -1.221069       -33.2270
  17   2.0000      -1.049424       -28.5563
  18   2.0000      -0.896819       -24.4037
  19   2.0000      -0.844350       -22.9759
  20   2.0000      -0.792212       -21.5572
  21   2.0000      -0.744527       -20.2596
  22   2.0000      -0.718899       -19.5622
  23   2.0000      -0.681702       -18.5501
  24   2.0000      -0.615344       -16.7444
  25   2.0000      -0.596216       -16.2239
  26   2.0000      -0.580081       -15.7848
  27   2.0000      -0.553614       -15.0646
  28   2.0000      -0.530915       -14.4469
  29   2.0000      -0.520738       -14.1700
  30   2.0000      -0.509811       -13.8727
  31   2.0000      -0.489607       -13.3229
  32   2.0000      -0.468007       -12.7351
  33   2.0000      -0.443015       -12.0551
  34   2.0000      -0.428500       -11.6601
  35   2.0000      -0.423770       -11.5314
  36   2.0000      -0.414197       -11.2709
  37   2.0000      -0.411255       -11.1908
  38   2.0000      -0.385739       -10.4965
  39   2.0000      -0.357844        -9.7374
  40   2.0000      -0.354092        -9.6353
  41   2.0000      -0.348661        -9.4876
  42   2.0000      -0.345182        -9.3929
  43   2.0000      -0.313705        -8.5364
  44   2.0000      -0.301163        -8.1951
  45   2.0000      -0.293238        -7.9794
  46   2.0000      -0.257169        -6.9979
  47   2.0000      -0.244918        -6.6646
  48   0.0000      -0.063419        -1.7257
  49   0.0000      -0.034369        -0.9352
  50   0.0000       0.027764         0.7555
  51   0.0000       0.040643         1.1059
  52   0.0000       0.046431         1.2635

MULLIKEN ATOMIC CHARGES
-----------------------
   0 C :   -0.142163
   1 S :    0.115448
   2 C :   -0.125601
   3 C :   -0.020953
   4 C :   -0.020117
   5 C :    0.134280
   6 C :    0.011503
   7 C :    0.037947
   8 C :    0.166484
   9 N :    0.185371
  10 O :   -0.226997
  11 O :   -0.239994
  12 H :    0.015099
  13 H :    0.025334
  14 H :    0.007143
  15 H :    0.010008
  16 H :    0.031409
  17 H :    0.000126
  18 H :    0.015077
  19 H :    0.022198
  20 H :   -0.001602
Sum of atomic charges:   -0.0000000

LOEWDIN ATOMIC CHARGES
----------------------
   0 C :   -0.198453
   1 S :    0.447940
   2 C :   -0.184798
   3 C :   -0.088736
   4 C :   -0.054477
   5 C :   -0.020704
   6 C :   -0.031849
   7 C :   -0.021931
   8 C :    0.028395
   9 N :    0.263318
  10 O :   -0.200334
  11 O :   -0.207198
  12 H :    0.023991
  13 H :    0.027518
  14 H :    0.033910
  15 H :    0.031420
  16 H :    0.026844
  17 H :    0.026101
  18 H :    0.031152
  19 H :    0.033721
  20 H :    0.034171

  Mayer bond orders larger than 0.100000
B(  0-C ,  1-S ) :   1.1612 B(  0-C ,  4-C ) :   1.5542 B(  0-C , 12-H ) :   0.9652
B(  1-S ,  2-C ) :   1.1876 B(  2-C ,  3-C ) :   1.5304 B(  2-C , 13-H ) :   0.9660
B(  3-C ,  4-C ) :   1.2887 B(  3-C ,  8-C ) :   0.9911 B(  4-C ,  5-C ) :   1.0463
B(  5-C ,  6-C ) :   1.0946 B(  5-C , 14-H ) :   0.9164 B(  5-C , 15-H ) :   0.9168
B(  6-C ,  7-C ) :   1.0688 B(  6-C , 16-H ) :   0.9352 B(  6-C , 17-H ) :   0.9293
B(  7-C ,  8-C ) :   1.0624 B(  7-C , 18-H ) :   0.9277 B(  7-C , 19-H ) :   0.9363
B(  8-C ,  9-N ) :   0.8057 B(  8-C , 20-H ) :   0.8993 B(  9-N , 10-O ) :   1.5647
B(  9-N , 11-O ) :   1.5436 B( 10-O , 11-O ) :   0.2826

Dispersion correction           -0.044927992
FINAL SINGLE POINT ENERGY      -913.122647242692

DIPOLE MOMENT
-------------
                                X             Y             Z
Electronic contribution:      8.99431      -5.54274      -3.40545
Nuclear contribution   :     -8.98621       6.36662       4.59954
                        -----------------------------------------
Total Dipole Moment    :      0.00810       0.82387       1.19410
                        -----------------------------------------
Magnitude (a.u.)       :      1.45076
Magnitude (Debye)      :      3.68754

Rotational constants in cm-1:     0.043657     0.023066     0.017365
Rotational constants in MHz :  1308.797103   691.514793   520.587414

                             ****ORCA TERMINATED NORMALLY****
TOTAL RUN TIME: 0 days 0 hours 24 minutes 9 seconds 778 msec
