                         Program Version 4.2.0 -  RELEASE  -
|  1> # ORCA input file
|  2> # SCF done        -24.900707223883          0.000348324034
|  3> ! B3LYP/G D3BJ Opt RIJCOSX def2-SVP def2/J
|  4> * xyz 0 1
|  5>    C        3.38287         0.91842         2.17644
|  6>    N        2.40002         1.22985         2.85825
|  7>    N        3.52134         0.84074         0.79281
|  8>    C        3.04411         1.63212        -0.07324
|  9>    C        2.22106         2.81232         0.11768
| 10>    C        1.42381         3.05039         1.18336
| 11>    S        0.52831         4.51033         1.20235
| 12>    C        1.08300         5.04209        -0.32198
| 13>    S        2.18024         4.03612        -1.15610
| 14>    H        4.31028         0.54178         2.63805
| 15>    H        3.31178         1.42066        -1.10628
| 16>    H        1.42840         2.35150         2.04434
| 17>    H        0.73948         5.95876        -0.75323
| 18> *
| 19>
| 20>                          ****END OF INPUT****
 Total Charge           Charge          ....    0
 Multiplicity           Mult            ....    1
 Number of Electrons    NEL             ....   80
 Basis Dimension        Dim             ....  154

ORBITAL ENERGIES
----------------

  NO   OCC          E(Eh)            E(eV)
   0   2.0000     -88.940623     -2420.1974
   1   2.0000     -88.939092     -2420.1557
   2   2.0000     -14.324936      -389.8013
   3   2.0000     -14.254272      -387.8785
   4   2.0000     -10.285193      -279.8743
   5   2.0000     -10.263769      -279.2914
   6   2.0000     -10.248309      -278.8707
   7   2.0000     -10.243869      -278.7498
   8   2.0000     -10.202932      -277.6359
   9   2.0000      -8.034971      -218.6427
  10   2.0000      -8.033220      -218.5950
  11   2.0000      -6.002964      -163.3489
  12   2.0000      -6.001163      -163.2999
  13   2.0000      -5.998285      -163.2216
  14   2.0000      -5.997114      -163.1898
  15   2.0000      -5.997027      -163.1874
  16   2.0000      -5.994993      -163.1320
  17   2.0000      -0.948821       -25.8187
  18   2.0000      -0.926402       -25.2087
  19   2.0000      -0.830678       -22.6039
  20   2.0000      -0.812781       -22.1169
  21   2.0000      -0.789242       -21.4764
  22   2.0000      -0.674529       -18.3549
  23   2.0000      -0.635524       -17.2935
  24   2.0000      -0.607993       -16.5443
  25   2.0000      -0.551657       -15.0113
  26   2.0000      -0.506452       -13.7812
  27   2.0000      -0.480430       -13.0732
  28   2.0000      -0.455382       -12.3916
  29   2.0000      -0.448629       -12.2078
  30   2.0000      -0.442370       -12.0375
  31   2.0000      -0.414669       -11.2837
  32   2.0000      -0.393165       -10.6986
  33   2.0000      -0.372603       -10.1390
  34   2.0000      -0.339162        -9.2291
  35   2.0000      -0.322585        -8.7780
  36   2.0000      -0.308248        -8.3879
  37   2.0000      -0.270772        -7.3681
  38   2.0000      -0.243181        -6.6173
  39   2.0000      -0.153004        -4.1635
  40   0.0000      -0.127847        -3.4789
  41   0.0000      -0.071621        -1.9489
  42   0.0000      -0.041043        -1.1168
  43   0.0000       0.011275         0.3068
  44   0.0000       0.045633         1.2417

MULLIKEN ATOMIC CHARGES
-----------------------
   0 C :   -0.007043
   1 N :   -0.249700
   2 N :   -0.059131
   3 C :    0.044723
   4 C :   -0.125296
   5 C :   -0.042862
   6 S :    0.237039
   7 C :   -0.166779
   8 S :    0.222488
   9 H :   -0.028761
  10 H :    0.001336
  11 H :    0.083481
  12 H :    0.090504
Sum of atomic charges:   -0.0000000

LOEWDIN ATOMIC CHARGES
----------------------
   0 C :   -0.067779
   1 N :   -0.242012
   2 N :   -0.049973
   3 C :   -0.001953
   4 C :   -0.199475
   5 C :   -0.158488
   6 S :    0.537321
   7 C :   -0.366750
   8 S :    0.498924
   9 H :   -0.016445
  10 H :    0.016711
  11 H :    0.025189
  12 H :    0.024730

  Mayer bond orders larger than 0.100000
B(  0-C ,  1-N ) :   2.0624 B(  0-C ,  2-N ) :   1.0557 B(  0-C ,  9-H ) :   0.9149
B(  1-N ,  7-C ) :   0.2101 B(  1-N ,  8-S ) :   0.1147 B(  1-N , 11-H ) :   0.2905
B(  2-N ,  3-C ) :   1.9480 B(  3-C ,  4-C ) :   1.0379 B(  3-C , 10-H ) :   0.9620
B(  4-C ,  5-C ) :   1.6577 B(  4-C ,  8-S ) :   1.0645 B(  5-C ,  6-S ) :   1.1374
B(  5-C , 11-H ) :   0.7835 B(  6-S ,  7-C ) :   1.2280 B(  7-C ,  8-S ) :   1.2262
B(  7-C , 12-H ) :   0.9632

Dispersion correction           -0.031872062
FINAL SINGLE POINT ENERGY     -1098.222064844132
Dispersion correction            ... done
Dispersion correction           -0.031259430
FINAL SINGLE POINT ENERGY     -1098.225373447365
Dispersion correction            ... done
Dispersion correction           -0.031779064
FINAL SINGLE POINT ENERGY     -1098.227935265914
Dispersion correction            ... done
FINAL SINGLE POINT ENERGY     -1098.227703716015
FINAL SINGLE POINT ENERGY     -1098.228820246823
FINAL SINGLE POINT ENERGY     -1098.230222820279
FINAL SINGLE POINT ENERGY     -1098.230166245127
FINAL SINGLE POINT ENERGY     -1098.233095296655
FINAL SINGLE POINT ENERGY     -1098.239611451589
FINAL SINGLE POINT ENERGY     -1098.240770745354
FINAL SINGLE POINT ENERGY     -1098.272570759726
FINAL SINGLE POINT ENERGY     -1098.272577229937
FINAL SINGLE POINT ENERGY     -1098.272572225465
FINAL SINGLE POINT ENERGY     -1098.272563047743
FINAL SINGLE POINT ENERGY     -1098.272569878680
FINAL SINGLE POINT ENERGY     -1098.272564774440
FINAL SINGLE POINT ENERGY     -1098.272554799660
Dispersion correction           -0.030748875
FINAL SINGLE POINT ENERGY     -1098.272546152559
Dispersion correction            ... done
Dispersion correction           -0.030706973
FINAL SINGLE POINT ENERGY     -1098.272499744136
Dispersion correction            ... done

CARTESIAN COORDINATES (ANGSTROEM)
---------------------------------
  C      3.434302    0.962478    2.200473
  N      2.452491    1.015191    3.004703
  N      3.458243    0.917397    0.803435
  C      2.931020    1.707052   -0.045340
  C      2.122373    2.916822    0.179725
  C      1.334570    3.252248    1.247652
  S      0.567173    4.746067    1.027335
  C      1.131330    5.182217   -0.537175
  S      2.152926    4.067669   -1.232028
  H      4.447530    0.812864    2.612846
  H      3.114593    1.463374   -1.107765
  H      1.577404    1.197185    2.499353
  H      0.850745    6.104515   -1.050762

Dispersion correction           -0.030697840
FINAL SINGLE POINT ENERGY     -1098.272501790493
Dispersion correction            ... done

DIPOLE MOMENT
-------------
                                X             Y             Z
Electronic contribution:     -2.26508       4.60086      -2.61164
Nuclear contribution   :      1.85667      -2.89079       0.72215
                        -----------------------------------------
Total Dipole Moment    :     -0.40841       1.71007      -1.88950
                        -----------------------------------------
Magnitude (a.u.)       :      2.58096
Magnitude (Debye)      :      6.56027

Rotational constants in cm-1:     0.078130     0.027535     0.020705
Rotational constants in MHz :  2342.279459   825.491485   620.705679

                             ****ORCA TERMINATED NORMALLY****
TOTAL RUN TIME: 0 days 0 hours 33 minutes 32 seconds 663 msec
