                         Program Version 4.2.0 -  RELEASE  -
|  1> # ORCA input file
|  2> # SCF done        -26.575685176723          0.000446717609
|  3> ! B3LYP/G D3BJ Opt RIJCOSX def2-SVP def2/J
|  4> * xyz 0 1
|  5>    C       -1.53753        -1.22059         0.16732
|  6>    S       -2.71296         0.01676         0.25522
|  7>    C       -1.52968         1.24524         0.16473
|  8>    C       -0.25979         0.72715         0.07067
|  9>    C       -0.26351        -0.71229         0.07194
| 10>    C        0.96388        -1.41436        -0.02024
| 11>    C        2.13650        -0.72706        -0.10931
| 12>    C        3.45616        -1.42867        -0.21039
| 13>    C        2.12810         0.69795        -0.10852
| 14>    C        0.97724         1.41280        -0.02200
| 15>    H       -1.84249        -2.24754         0.19076
| 16>    H       -1.82668         2.27465         0.18573
| 17>    H        0.94799        -2.49480        -0.01880
| 18>    H        3.32641        -2.50786        -0.20073
| 19>    H        4.09926        -1.14675         0.62298
| 20>    H        3.96462        -1.14635        -1.13202
| 21>    H        3.07763         1.20907        -0.18017
| 22>    H        0.98241         2.49284        -0.02249
| 23> *
| 24>
| 25>                          ****END OF INPUT****
 Total Charge           Charge          ....    0
 Multiplicity           Mult            ....    1
 Number of Electrons    NEL             ....   78
Dispersion correction           -0.038025184
FINAL SINGLE POINT ENERGY      -745.635005534431
Dispersion correction            ... done
Dispersion correction           -0.037843011
FINAL SINGLE POINT ENERGY      -745.637833019341
Dispersion correction            ... done
Dispersion correction           -0.037814177
FINAL SINGLE POINT ENERGY      -745.637914172416
Dispersion correction            ... done
Dispersion correction           -0.037802832
FINAL SINGLE POINT ENERGY      -745.637899701427
Dispersion correction            ... done
Dispersion correction           -0.037807132
FINAL SINGLE POINT ENERGY      -745.637925798960
Dispersion correction            ... done
                    ***********************HURRAY********************

CARTESIAN COORDINATES (ANGSTROEM)
---------------------------------
  C     -1.566375   -1.231231    0.170784
  S     -2.736011    0.020372    0.277109
  C     -1.559637    1.263902    0.176280
  C     -0.277332    0.737980    0.065009
  C     -0.279286   -0.715657    0.061947
  C      0.963290   -1.419917   -0.035478
  C      2.150574   -0.733010   -0.114881
  C      3.476714   -1.441661   -0.204353
  C      2.135161    0.708938   -0.112301
  C      0.972808    1.426857   -0.031634
  H     -1.872738   -2.275277    0.192085
  H     -1.856654    2.310617    0.202322
  H      0.956280   -2.513469   -0.041133
  H      3.355115   -2.534806   -0.188619
  H      4.135709   -1.159350    0.634755
  H      4.012307   -1.169528   -1.130443
  H      3.091026    1.235774   -0.180780
  H      0.986609    2.519655   -0.035988

 Multiplicity           Mult            ....    1
 Number of Electrons    NEL             ....   78
 Basis Dimension        Dim             ....  184

ORBITAL ENERGIES
----------------

  NO   OCC          E(Eh)            E(eV)
   0   2.0000     -88.881670     -2418.5932
   1   2.0000     -10.209204      -277.8066
   2   2.0000     -10.207810      -277.7686
   3   2.0000     -10.195726      -277.4398
   4   2.0000     -10.195572      -277.4356
   5   2.0000     -10.195130      -277.4236
   6   2.0000     -10.192596      -277.3546
   7   2.0000     -10.188362      -277.2394
   8   2.0000     -10.187930      -277.2277
   9   2.0000     -10.187369      -277.2124
  10   2.0000      -7.976292      -217.0459
  11   2.0000      -5.944010      -161.7447
  12   2.0000      -5.939872      -161.6321
  13   2.0000      -5.938678      -161.5996
  14   2.0000      -0.886549       -24.1242
  15   2.0000      -0.828586       -22.5470
  16   2.0000      -0.762581       -20.7509
  17   2.0000      -0.743830       -20.2406
  18   2.0000      -0.702514       -19.1164
  19   2.0000      -0.668980       -18.2039
  20   2.0000      -0.604685       -16.4543
  21   2.0000      -0.570861       -15.5339
  22   2.0000      -0.559253       -15.2181
  23   2.0000      -0.508345       -13.8328
  24   2.0000      -0.470583       -12.8052
  25   2.0000      -0.460327       -12.5261
  26   2.0000      -0.426455       -11.6044
  27   2.0000      -0.420679       -11.4473
  28   2.0000      -0.413911       -11.2631
  29   2.0000      -0.406923       -11.0729
  30   2.0000      -0.394994       -10.7483
  31   2.0000      -0.383781       -10.4432
  32   2.0000      -0.360191        -9.8013
  33   2.0000      -0.349080        -9.4990
  34   2.0000      -0.335543        -9.1306
  35   2.0000      -0.325995        -8.8708
  36   2.0000      -0.282620        -7.6905
  37   2.0000      -0.243143        -6.6163
  38   2.0000      -0.202322        -5.5054
  39   0.0000      -0.054309        -1.4778
  40   0.0000       0.019672         0.5353
  41   0.0000       0.027950         0.7606
  42   0.0000       0.052836         1.4378
  43   0.0000       0.067359         1.8329

MULLIKEN ATOMIC CHARGES
-----------------------
   0 C :   -0.149732
   1 S :    0.130362
   2 C :   -0.144216
   3 C :    0.092588
   4 C :    0.107739
   5 C :   -0.049788
   6 C :   -0.031504
   7 C :    0.062324
   8 C :   -0.003555
   9 C :   -0.000570
  10 H :    0.014749
  11 H :    0.014835
  12 H :   -0.043408
  13 H :    0.011005
  14 H :    0.026649
  15 H :    0.024464
  16 H :   -0.033150
  17 H :   -0.028792
Sum of atomic charges:    0.0000000

LOEWDIN ATOMIC CHARGES
----------------------
   0 C :   -0.215791
   1 S :    0.475270
   2 C :   -0.213022
   3 C :   -0.053748
   4 C :   -0.048889
   5 C :   -0.033032
   6 C :   -0.029882
   7 C :   -0.047344
   8 C :   -0.030850
   9 C :   -0.018631
  10 H :    0.023007
  11 H :    0.023518
  12 H :    0.023323
  13 H :    0.027964
  14 H :    0.033733
  15 H :    0.033259
  16 H :    0.023695
  17 H :    0.027422

  Mayer bond orders larger than 0.100000
B(  0-C ,  1-S ) :   1.1976 B(  0-C ,  2-C ) :   0.1187 B(  0-C ,  4-C ) :   1.4063
B(  0-C , 10-H ) :   0.9644 B(  1-S ,  2-C ) :   1.2039 B(  2-C ,  3-C ) :   1.4058
B(  2-C , 11-H ) :   0.9649 B(  3-C ,  4-C ) :   1.2036 B(  3-C ,  9-C ) :   1.1720
B(  4-C ,  5-C ) :   1.1639 B(  5-C ,  6-C ) :   1.5578 B(  5-C , 12-H ) :   0.9927
B(  6-C ,  7-C ) :   1.0638 B(  6-C ,  8-C ) :   1.1869 B(  7-C , 13-H ) :   0.9603
B(  7-C , 14-H ) :   0.9530 B(  7-C , 15-H ) :   0.9525 B(  8-C ,  9-C ) :   1.5571
B(  8-C , 16-H ) :   0.9833 B(  9-C , 17-H ) :   0.9928

Dispersion correction           -0.037808973
FINAL SINGLE POINT ENERGY      -745.637927585751

DIPOLE MOMENT
-------------
                                X             Y             Z
Electronic contribution:    -12.06386       2.35138       0.91942
Nuclear contribution   :     12.22363      -2.36537      -0.92730
                        -----------------------------------------
Total Dipole Moment    :      0.15977      -0.01399      -0.00789
                        -----------------------------------------
Magnitude (a.u.)       :      0.16058
Magnitude (Debye)      :      0.40815

Rotational constants in cm-1:     0.107429     0.025552     0.020723
Rotational constants in MHz :  3220.653564   766.014737   621.251314

                             ****ORCA TERMINATED NORMALLY****
TOTAL RUN TIME: 0 days 0 hours 5 minutes 31 seconds 416 msec
