                         Program Version 4.2.0 -  RELEASE  -
|  1> # ORCA input file
|  2> # SCF done        -22.269579644492          0.000702249921
|  3> ! B3LYP/G D3BJ Opt RIJCOSX def2-SVP def2/J
|  4> * xyz 0 1
|  5>    C        2.24197        -0.17767        -0.04103
|  6>    C        3.11883        -1.15290        -0.26572
|  7>    C        0.81064        -0.32206        -0.07261
|  8>    S       -0.19189         1.06556         0.25852
|  9>    C       -1.64039         0.14130         0.03938
| 10>    C       -2.97511         0.77681         0.19583
| 11>    C       -1.34760        -1.15249        -0.26875
| 12>    C        0.03345        -1.41810        -0.33316
| 13>    H        2.59459         0.82012         0.18724
| 14>    H        2.81177        -2.15875        -0.49472
| 15>    H        4.17831        -0.97138        -0.22604
| 16>    H       -3.06879         1.64337        -0.45792
| 17>    H       -3.12161         1.11709         1.22070
| 18>    H       -3.75735         0.06374        -0.05176
| 19>    H       -2.10342        -1.89765        -0.44642
| 20>    H        0.43681        -2.38684        -0.56517
| 21> *
| 22>
| 23>                          ****END OF INPUT****
 Total Charge           Charge          ....    0
 Multiplicity           Mult            ....    1
 Number of Electrons    NEL             ....   66
Dispersion correction           -0.029567946
FINAL SINGLE POINT ENERGY      -669.448756415818
Dispersion correction            ... done
Dispersion correction           -0.029346120
FINAL SINGLE POINT ENERGY      -669.451291272756
Dispersion correction            ... done
Dispersion correction           -0.029311733
FINAL SINGLE POINT ENERGY      -669.451363600372
Dispersion correction            ... done
FINAL SINGLE POINT ENERGY      -669.451345423442
FINAL SINGLE POINT ENERGY      -669.451358868526
FINAL SINGLE POINT ENERGY      -669.451335231857
FINAL SINGLE POINT ENERGY      -669.451233803777
FINAL SINGLE POINT ENERGY      -669.451128746628
FINAL SINGLE POINT ENERGY      -669.451151380181
FINAL SINGLE POINT ENERGY      -669.451175930722
Dispersion correction            ... done
Dispersion correction           -0.029312453
FINAL SINGLE POINT ENERGY      -669.451168496545
Dispersion correction            ... done
Dispersion correction           -0.029314572
FINAL SINGLE POINT ENERGY      -669.451165156832
Dispersion correction            ... done
                    ***********************HURRAY********************

CARTESIAN COORDINATES (ANGSTROEM)
---------------------------------
  C      2.269749   -0.216131    0.054216
  C      3.153874   -1.114233   -0.408983
  C      0.819596   -0.349923    0.017042
  S     -0.186152    1.057961    0.272162
  C     -1.654794    0.150464    0.046860
  C     -2.997003    0.806820    0.131029
  C     -1.362834   -1.171820   -0.201365
  C      0.030857   -1.458735   -0.216802
  H      2.650719    0.709766    0.499614
  H      2.836435   -2.043399   -0.890188
  H      4.228246   -0.934759   -0.322861
  H     -3.103663    1.624584   -0.600231
  H     -3.185731    1.237171    1.129076
  H     -3.784750    0.067482   -0.075535
  H     -2.138424   -1.921603   -0.367911
  H      0.444085   -2.453495   -0.387754

 Multiplicity           Mult            ....    1
 Number of Electrons    NEL             ....   66
 Basis Dimension        Dim             ....  156

ORBITAL ENERGIES
----------------

  NO   OCC          E(Eh)            E(eV)
   0   2.0000     -88.866265     -2418.1740
   1   2.0000     -10.215657      -277.9821
   2   2.0000     -10.212291      -277.8906
   3   2.0000     -10.201347      -277.5928
   4   2.0000     -10.200893      -277.5804
   5   2.0000     -10.188926      -277.2548
   6   2.0000     -10.188549      -277.2445
   7   2.0000     -10.187109      -277.2053
   8   2.0000      -7.961743      -216.6501
   9   2.0000      -5.929734      -161.3563
  10   2.0000      -5.925869      -161.2511
  11   2.0000      -5.923062      -161.1747
  12   2.0000      -0.877352       -23.8740
  13   2.0000      -0.786488       -21.4014
  14   2.0000      -0.741990       -20.1906
  15   2.0000      -0.726710       -19.7748
  16   2.0000      -0.666455       -18.1352
  17   2.0000      -0.599390       -16.3102
  18   2.0000      -0.537712       -14.6319
  19   2.0000      -0.520158       -14.1542
  20   2.0000      -0.495781       -13.4909
  21   2.0000      -0.449615       -12.2347
  22   2.0000      -0.430234       -11.7073
  23   2.0000      -0.428785       -11.6678
  24   2.0000      -0.416073       -11.3219
  25   2.0000      -0.386435       -10.5154
  26   2.0000      -0.374902       -10.2016
  27   2.0000      -0.363232        -9.8841
  28   2.0000      -0.359038        -9.7699
  29   2.0000      -0.338681        -9.2160
  30   2.0000      -0.295183        -8.0323
  31   2.0000      -0.252229        -6.8635
  32   2.0000      -0.211654        -5.7594
  33   0.0000      -0.041644        -1.1332
  34   0.0000       0.026664         0.7256
  35   0.0000       0.032755         0.8913
  36   0.0000       0.068295         1.8584
  37   0.0000       0.078452         2.1348

MULLIKEN ATOMIC CHARGES
-----------------------
   0 C :    0.041721
   1 C :   -0.032460
   2 C :   -0.103940
   3 S :    0.096593
   4 C :   -0.208200
   5 C :    0.114151
   6 C :    0.022494
   7 C :    0.012827
   8 H :   -0.012137
   9 H :    0.015498
  10 H :    0.025388
  11 H :    0.031195
  12 H :    0.028921
  13 H :    0.015325
  14 H :   -0.024085
  15 H :   -0.023288
Sum of atomic charges:   -0.0000000

LOEWDIN ATOMIC CHARGES
----------------------
   0 C :   -0.041043
   1 C :   -0.052896
   2 C :   -0.181391
   3 S :    0.410290
   4 C :   -0.180348
   5 C :   -0.057922
   6 C :   -0.073489
   7 C :   -0.058745
   8 H :    0.027452
   9 H :    0.021619
  10 H :    0.026375
  11 H :    0.035227
  12 H :    0.035014
  13 H :    0.036600
  14 H :    0.026297
  15 H :    0.026961

  Mayer bond orders larger than 0.100000
B(  0-C ,  1-C ) :   1.9430 B(  0-C ,  2-C ) :   1.0945 B(  0-C ,  8-H ) :   0.9479
B(  1-C ,  9-H ) :   0.9491 B(  1-C , 10-H ) :   0.9450 B(  2-C ,  3-S ) :   1.1119
B(  2-C ,  7-C ) :   1.5339 B(  3-S ,  4-C ) :   1.1411 B(  4-C ,  5-C ) :   1.0813
B(  4-C ,  6-C ) :   1.5677 B(  5-C , 11-H ) :   0.9509 B(  5-C , 12-H ) :   0.9493
B(  5-C , 13-H ) :   0.9540 B(  6-C ,  7-C ) :   1.2437 B(  6-C , 14-H ) :   0.9859
B(  7-C , 15-H ) :   0.9869

Dispersion correction           -0.029314833
FINAL SINGLE POINT ENERGY      -669.451165954425

DIPOLE MOMENT
-------------
                                X             Y             Z
Electronic contribution:      1.29066       2.85464       0.98604
Nuclear contribution   :     -1.62452      -2.90695      -1.00657
                        -----------------------------------------
Total Dipole Moment    :     -0.33386      -0.05231      -0.02053
                        -----------------------------------------
Magnitude (a.u.)       :      0.33856
Magnitude (Debye)      :      0.86054

Rotational constants in cm-1:     0.158645     0.037236     0.030442
Rotational constants in MHz :  4756.047837  1116.310395   912.638282

                             ****ORCA TERMINATED NORMALLY****
TOTAL RUN TIME: 0 days 0 hours 8 minutes 2 seconds 253 msec
