                         Program Version 4.2.0 -  RELEASE  -
|  1> # ORCA input file
|  2> # SCF done        -39.199709324430          0.000983209269
|  3> ! B3LYP/G D3BJ Opt RIJCOSX def2-SVP def2/J
|  4> * xyz 0 1
|  5>    C        1.55416        -1.37768        -0.14271
|  6>    S        2.75321        -0.15063        -0.12881
|  7>    C        1.53188         1.08812        -0.02644
|  8>    C        0.27210         0.53648        -0.01689
|  9>    C        0.28881        -0.88056        -0.07866
| 10>    C       -0.95088        -1.72600        -0.11135
| 11>    C       -1.18516        -2.25409        -1.53105
| 12>    C       -2.14423        -0.91529         0.40274
| 13>    C       -2.21337         0.45977        -0.25232
| 14>    C       -0.99795         1.33053         0.10592
| 15>    C       -1.12150         1.86327         1.50788
| 16>    C       -1.38387         3.12222         1.80178
| 17>    C        1.88855         2.47932         0.03991
| 18>    C        3.13327         2.94728         0.00738
| 19>    H        1.85783        -2.40470        -0.19627
| 20>    H       -0.80432        -2.59271         0.54443
| 21>    H       -1.28110        -1.43586        -2.24017
| 22>    H       -2.09221        -2.85388        -1.56604
| 23>    H       -0.34783        -2.87334        -1.84352
| 24>    H       -2.05816        -0.79577         1.48413
| 25>    H       -3.06705        -1.46388         0.20339
| 26>    H       -3.12145         0.97655         0.06615
| 27>    H       -2.26049         0.34425        -1.33651
| 28>    H       -0.96907         2.18069        -0.58519
| 29>    H       -0.98510         1.13589         2.29723
| 30>    H       -1.52047         3.86932         1.03516
| 31>    H       -1.47520         3.46497         2.81851
| 32>    H        1.05460         3.16236         0.13168
| 33>    H        3.98166         2.28757        -0.07537
| 34>    H        3.34221         4.00081         0.06380
| 35> *
| 36>
| 37>                          ****END OF INPUT****
 Total Charge           Charge          ....    0
 Multiplicity           Mult            ....    1
 Number of Electrons    NEL             ....  110
Dispersion correction           -0.066351971
FINAL SINGLE POINT ENERGY      -902.757619793607
Dispersion correction            ... done
Dispersion correction           -0.065553213
FINAL SINGLE POINT ENERGY      -902.762059676610
Dispersion correction            ... done
Dispersion correction           -0.065437609
FINAL SINGLE POINT ENERGY      -902.762174886609
Dispersion correction            ... done
FINAL SINGLE POINT ENERGY      -902.762132601978
FINAL SINGLE POINT ENERGY      -902.762095252450
FINAL SINGLE POINT ENERGY      -902.762115422319
FINAL SINGLE POINT ENERGY      -902.762110662604
Dispersion correction            ... done
Dispersion correction           -0.065382562
FINAL SINGLE POINT ENERGY      -902.762103061022
Dispersion correction            ... done
Dispersion correction           -0.065370047
FINAL SINGLE POINT ENERGY      -902.762097271424
Dispersion correction            ... done
                    ***********************HURRAY********************

CARTESIAN COORDINATES (ANGSTROEM)
---------------------------------
  C      1.570049   -1.400566   -0.130929
  S      2.766931   -0.157996   -0.122623
  C      1.548107    1.090217   -0.028355
  C      0.274118    0.534343   -0.008294
  C      0.289284   -0.900933   -0.072848
  C     -0.965882   -1.749106   -0.131279
  C     -1.189045   -2.325190   -1.542474
  C     -2.185134   -0.942704    0.356771
  C     -2.236646    0.463925   -0.244602
  C     -1.011538    1.329502    0.138960
  C     -1.141604    1.883625    1.540527
  C     -1.299158    3.176564    1.832494
  C      1.906670    2.497911    0.026375
  C      3.146982    3.014785    0.005128
  H      1.873168   -2.445401   -0.188890
  H     -0.825001   -2.605509    0.549893
  H     -1.381833   -1.526605   -2.275404
  H     -2.050002   -3.013392   -1.554037
  H     -0.302890   -2.880107   -1.886372
  H     -2.161070   -0.869163    1.457202
  H     -3.105490   -1.492589    0.099958
  H     -3.149773    0.984055    0.084937
  H     -2.289942    0.394070   -1.344003
  H     -0.982061    2.190672   -0.548463
  H     -1.093559    1.150328    2.354145
  H     -1.337480    3.938387    1.045926
  H     -1.393304    3.529323    2.862962
  H      1.056305    3.180268    0.105151
  H      4.037828    2.382843   -0.057284
  H      3.310840    4.093451    0.054220

 Multiplicity           Mult            ....    1
 Number of Electrons    NEL             ....  110
 Basis Dimension        Dim             ....  280

ORBITAL ENERGIES
----------------

  NO   OCC          E(Eh)            E(eV)
   0   2.0000     -88.865668     -2418.1578
   1   2.0000     -10.209592      -277.8171
   2   2.0000     -10.205080      -277.6943
   3   2.0000     -10.201111      -277.5863
   4   2.0000     -10.197631      -277.4917
   5   2.0000     -10.197327      -277.4834
   6   2.0000     -10.192823      -277.3608
   7   2.0000     -10.192486      -277.3517
   8   2.0000     -10.190339      -277.2932
   9   2.0000     -10.188670      -277.2478
  10   2.0000     -10.186815      -277.1973
  11   2.0000     -10.184490      -277.1341
  12   2.0000     -10.184147      -277.1247
  13   2.0000     -10.182465      -277.0789
  14   2.0000      -7.960659      -216.6205
  15   2.0000      -5.928665      -161.3272
  16   2.0000      -5.924740      -161.2204
  17   2.0000      -5.922111      -161.1488
  18   2.0000      -0.882069       -24.0023
  19   2.0000      -0.824594       -22.4383
  20   2.0000      -0.797242       -21.6941
  21   2.0000      -0.769093       -20.9281
  22   2.0000      -0.735840       -20.0232
  23   2.0000      -0.726559       -19.7707
  24   2.0000      -0.692635       -18.8476
  25   2.0000      -0.668698       -18.1962
  26   2.0000      -0.615609       -16.7516
  27   2.0000      -0.600998       -16.3540
  28   2.0000      -0.581868       -15.8334
  29   2.0000      -0.557718       -15.1763
  30   2.0000      -0.526758       -14.3338
  31   2.0000      -0.504260       -13.7216
  32   2.0000      -0.497719       -13.5436
  33   2.0000      -0.471122       -12.8199
  34   2.0000      -0.454914       -12.3788
  35   2.0000      -0.439669       -11.9640
  36   2.0000      -0.432465       -11.7680
  37   2.0000      -0.428044       -11.6477
  38   2.0000      -0.420708       -11.4481
  39   2.0000      -0.409870       -11.1531
  40   2.0000      -0.399586       -10.8733
  41   2.0000      -0.397632       -10.8201
  42   2.0000      -0.381488       -10.3808
  43   2.0000      -0.373183       -10.1548
  44   2.0000      -0.365316        -9.9408
  45   2.0000      -0.359119        -9.7721
  46   2.0000      -0.348447        -9.4817
  47   2.0000      -0.336312        -9.1515
  48   2.0000      -0.328129        -8.9288
  49   2.0000      -0.321221        -8.7409
  50   2.0000      -0.316102        -8.6016
  51   2.0000      -0.295157        -8.0316
  52   2.0000      -0.263666        -7.1747
  53   2.0000      -0.240383        -6.5411
  54   2.0000      -0.209712        -5.7065
  55   0.0000      -0.044996        -1.2244
  56   0.0000       0.004666         0.1270
  57   0.0000       0.034322         0.9339
  58   0.0000       0.044602         1.2137
  59   0.0000       0.054927         1.4946

MULLIKEN ATOMIC CHARGES
-----------------------
   0 C :   -0.133797
   1 S :    0.096292
   2 C :   -0.146770
   3 C :    0.015245
   4 C :   -0.003956
   5 C :   -0.012346
   6 C :    0.054227
   7 C :    0.055719
   8 C :    0.074174
   9 C :    0.017655
  10 C :   -0.015083
  11 C :   -0.032028
  12 C :    0.016912
  13 C :   -0.040709
  14 H :    0.009495
  15 H :   -0.010295
  16 H :    0.006620
  17 H :    0.009474
  18 H :    0.005856
  19 H :    0.000329
  20 H :   -0.011602
  21 H :   -0.007278
  22 H :    0.003803
  23 H :   -0.012159
  24 H :    0.003839
  25 H :    0.014043
  26 H :    0.018381
  27 H :   -0.014665
  28 H :    0.016567
  29 H :    0.022057
Sum of atomic charges:   -0.0000000

LOEWDIN ATOMIC CHARGES
----------------------
   0 C :   -0.194765
   1 S :    0.426844
   2 C :   -0.180711
   3 C :   -0.050281
   4 C :   -0.059768
   5 C :   -0.026274
   6 C :   -0.044434
   7 C :   -0.025031
   8 C :   -0.018365
   9 C :   -0.024867
  10 C :   -0.010412
  11 C :   -0.065040
  12 C :   -0.037366
  13 C :   -0.059985
  14 H :    0.020702
  15 H :    0.027812
  16 H :    0.020972
  17 H :    0.020862
  18 H :    0.022131
  19 H :    0.020696
  20 H :    0.021508
  21 H :    0.023604
  22 H :    0.021254
  23 H :    0.030107
  24 H :    0.024076
  25 H :    0.018102
  26 H :    0.023845
  27 H :    0.032214
  28 H :    0.016836
  29 H :    0.025733

  Mayer bond orders larger than 0.100000
B(  0-C ,  1-S ) :   1.1530 B(  0-C ,  4-C ) :   1.5388 B(  0-C , 14-H ) :   0.9636
B(  1-S ,  2-C ) :   1.1171 B(  2-C ,  3-C ) :   1.4810 B(  2-C , 12-C ) :   1.1449
B(  3-C ,  4-C ) :   1.3056 B(  3-C ,  9-C ) :   0.9947 B(  4-C ,  5-C ) :   0.9915
B(  5-C ,  6-C ) :   1.0768 B(  5-C ,  7-C ) :   1.0593 B(  5-C , 15-H ) :   0.8969
B(  6-C , 16-H ) :   0.9592 B(  6-C , 17-H ) :   0.9615 B(  6-C , 18-H ) :   0.9621
B(  7-C ,  8-C ) :   1.0740 B(  7-C , 19-H ) :   0.9367 B(  7-C , 20-H ) :   0.9293
B(  8-C ,  9-C ) :   1.0528 B(  8-C , 21-H ) :   0.9245 B(  8-C , 22-H ) :   0.9364
B(  9-C , 10-C ) :   1.0082 B(  9-C , 23-H ) :   0.8894 B( 10-C , 11-C ) :   2.0020
B( 10-C , 24-H ) :   0.9564 B( 11-C , 25-H ) :   0.9493 B( 11-C , 26-H ) :   0.9479
B( 12-C , 13-C ) :   1.9000 B( 12-C , 27-H ) :   0.9451 B( 13-C , 28-H ) :   0.9524
B( 13-C , 29-H ) :   0.9455

Dispersion correction           -0.065368596
FINAL SINGLE POINT ENERGY      -902.762099364251

DIPOLE MOMENT
-------------
                                X             Y             Z
Electronic contribution:     13.46252      -0.77934       0.56263
Nuclear contribution   :    -13.90977       0.55891      -0.58507
                        -----------------------------------------
Total Dipole Moment    :     -0.44725      -0.22043      -0.02244
                        -----------------------------------------
Magnitude (a.u.)       :      0.49912
Magnitude (Debye)      :      1.26867

Rotational constants in cm-1:     0.025732     0.019544     0.012117
Rotational constants in MHz :   771.415562   585.924506   363.269905

                             ****ORCA TERMINATED NORMALLY****
TOTAL RUN TIME: 0 days 0 hours 23 minutes 12 seconds 397 msec
