                         Program Version 4.2.0 -  RELEASE  -
|  1> # ORCA input file
|  2> # SCF done        -19.902046535148          0.000566354349
|  3> ! B3LYP/G D3BJ Opt RIJCOSX def2-SVP def2/J
|  4> * xyz 0 1
|  5>    C       -1.24058         0.03033        -0.02730
|  6>    O       -0.45387         1.14117         0.00242
|  7>    C        0.79224         0.64977         0.04216
|  8>    C        2.28431         0.82708         0.09412
|  9>    C        2.33819        -0.73822         0.08850
| 10>    C        0.82187        -0.70685         0.03763
| 11>    C       -0.52072        -1.13877        -0.00931
| 12>    H       -2.29842         0.19831        -0.06120
| 13>    H        2.66570         1.29558         0.99982
| 14>    H        2.72702         1.30468        -0.77834
| 15>    H        2.75727        -1.17761         0.99091
| 16>    H        2.81603        -1.16877        -0.78866
| 17>    H       -0.92701        -2.12966        -0.02699
| 18> *
| 19>
| 20>                          ****END OF INPUT****
 Total Charge           Charge          ....    0
 Multiplicity           Mult            ....    1
 Number of Electrons    NEL             ....   50
Dispersion correction           -0.018147642
FINAL SINGLE POINT ENERGY      -307.170101675331
Dispersion correction            ... done
Dispersion correction           -0.018169457
FINAL SINGLE POINT ENERGY      -307.172624955811
Dispersion correction            ... done
Dispersion correction           -0.018169391
FINAL SINGLE POINT ENERGY      -307.172939937456
Dispersion correction            ... done
FINAL SINGLE POINT ENERGY      -307.173034067739
Dispersion correction            ... done
Dispersion correction           -0.018167065
FINAL SINGLE POINT ENERGY      -307.173037699289
Dispersion correction            ... done
Dispersion correction           -0.018168342
FINAL SINGLE POINT ENERGY      -307.173036986610
Dispersion correction            ... done
                    ***********************HURRAY********************

CARTESIAN COORDINATES (ANGSTROEM)
---------------------------------
  C     -1.263148    0.024201   -0.028024
  O     -0.446699    1.134861    0.001823
  C      0.797672    0.617382    0.041504
  C      2.285693    0.849905    0.094274
  C      2.351307   -0.747090    0.088236
  C      0.820883   -0.727811    0.037125
  C     -0.549678   -1.154844   -0.009225
  H     -2.329195    0.235033   -0.062763
  H      2.679195    1.321634    1.008968
  H      2.742281    1.332335   -0.784602
  H      2.799358   -1.177705    0.997335
  H      2.858919   -1.168240   -0.793489
  H     -0.984559   -2.152622   -0.027402

 Multiplicity           Mult            ....    1
 Number of Electrons    NEL             ....   50
 Basis Dimension        Dim             ....  128

ORBITAL ENERGIES
----------------

  NO   OCC          E(Eh)            E(eV)
   0   2.0000     -19.199484      -522.4445
   1   2.0000     -10.235395      -278.5192
   2   2.0000     -10.220570      -278.1158
   3   2.0000     -10.210811      -277.8503
   4   2.0000     -10.209533      -277.8155
   5   2.0000     -10.192747      -277.3588
   6   2.0000     -10.173066      -276.8232
   7   2.0000      -1.097223       -29.8569
   8   2.0000      -0.856460       -23.3055
   9   2.0000      -0.768059       -20.9000
  10   2.0000      -0.681438       -18.5429
  11   2.0000      -0.637006       -17.3338
  12   2.0000      -0.587002       -15.9731
  13   2.0000      -0.526254       -14.3201
  14   2.0000      -0.513149       -13.9635
  15   2.0000      -0.480588       -13.0775
  16   2.0000      -0.440552       -11.9880
  17   2.0000      -0.430799       -11.7226
  18   2.0000      -0.394817       -10.7435
  19   2.0000      -0.375065       -10.2060
  20   2.0000      -0.373330       -10.1588
  21   2.0000      -0.362402        -9.8615
  22   2.0000      -0.319833        -8.7031
  23   2.0000      -0.275218        -7.4890
  24   2.0000      -0.220088        -5.9889
  25   0.0000       0.010366         0.2821
  26   0.0000       0.064519         1.7557
  27   0.0000       0.071611         1.9486
  28   0.0000       0.093586         2.5466
  29   0.0000       0.094402         2.5688

MULLIKEN ATOMIC CHARGES
-----------------------
   0 C :    0.121291
   1 O :   -0.213294
   2 C :   -0.015584
   3 C :    0.113007
   4 C :    0.106761
   5 C :   -0.082751
   6 C :   -0.092692
   7 H :    0.010533
   8 H :    0.018267
   9 H :    0.018994
  10 H :    0.012107
  11 H :    0.012826
  12 H :   -0.009466
Sum of atomic charges:   -0.0000000

LOEWDIN ATOMIC CHARGES
----------------------
   0 C :    0.033874
   1 O :   -0.007480
   2 C :   -0.012323
   3 C :   -0.006220
   4 C :    0.009860
   5 C :   -0.089627
   6 C :   -0.076667
   7 H :    0.021203
   8 H :    0.026477
   9 H :    0.026517
  10 H :    0.023115
  11 H :    0.023297
  12 H :    0.027972

  Mayer bond orders larger than 0.100000
B(  0-C ,  1-O ) :   1.1025 B(  0-C ,  6-C ) :   1.5661 B(  0-C ,  7-H ) :   0.9982
B(  1-O ,  2-C ) :   1.1475 B(  2-C ,  3-C ) :   1.1260 B(  2-C ,  5-C ) :   1.6205
B(  3-C ,  4-C ) :   1.1689 B(  3-C ,  8-H ) :   0.8961 B(  3-C ,  9-H ) :   0.8963
B(  4-C ,  5-C ) :   1.1074 B(  4-C , 10-H ) :   0.8995 B(  4-C , 11-H ) :   0.8994
B(  5-C ,  6-C ) :   1.2116 B(  6-C , 12-H ) :   1.0059

Dispersion correction           -0.018169174
FINAL SINGLE POINT ENERGY      -307.173037943304

DIPOLE MOMENT
-------------
                                X             Y             Z
Electronic contribution:     -3.81513       1.46964      -0.12774
Nuclear contribution   :      4.03837      -1.66494       0.13373
                        -----------------------------------------
Total Dipole Moment    :      0.22324      -0.19529       0.00599
                        -----------------------------------------
Magnitude (a.u.)       :      0.29667
Magnitude (Debye)      :      0.75408

Rotational constants in cm-1:     0.218495     0.093300     0.067068
Rotational constants in MHz :  6550.321892  2797.061349  2010.641095

                             ****ORCA TERMINATED NORMALLY****
TOTAL RUN TIME: 0 days 0 hours 3 minutes 59 seconds 826 msec
