                         Program Version 4.2.0 -  RELEASE  -
|  1> # ORCA input file
|  2> # SCF done        -36.475667105757          0.000529554402
|  3> ! B3LYP/G D3BJ Opt RIJCOSX def2-SVP def2/J
|  4> * xyz 0 1
|  5>    C        1.54326        -1.59235         0.13582
|  6>    C        0.56485        -0.66301         0.03048
|  7>    C        0.81262         0.79983        -0.05519
|  8>    C        2.12192         1.32104        -0.03160
|  9>    C        3.21668         0.53481         0.06897
| 10>    S        3.20723        -1.18864         0.18282
| 11>    N       -0.29766         1.49475        -0.15046
| 12>    C       -1.31949         0.58445        -0.13505
| 13>    C       -0.84549        -0.73570        -0.02669
| 14>    S       -2.12169        -1.88030        -0.00607
| 15>    C       -3.30251        -0.58491        -0.14461
| 16>    C       -2.71937         0.65763        -0.20151
| 17>    C       -4.69357        -0.94826        -0.18181
| 18>    C       -5.70893        -0.09583        -0.29968
| 19>    H        1.34515        -2.65109         0.19759
| 20>    H        2.23798         2.39271        -0.09787
| 21>    H        4.21595         0.93698         0.08608
| 22>    H       -3.27150         1.57424        -0.28557
| 23>    H       -4.88903        -2.00988        -0.10518
| 24>    H       -5.55913         0.96678        -0.37928
| 25>    H       -6.72729        -0.44156        -0.32122
| 26> *
| 27>
| 28>                          ****END OF INPUT****
 Total Charge           Charge          ....    0
 Multiplicity           Mult            ....    1
 Number of Electrons    NEL             ....  112
Dispersion correction           -0.052747038
FINAL SINGLE POINT ENERGY     -1273.950243563649
Dispersion correction            ... done
Dispersion correction           -0.052571761
FINAL SINGLE POINT ENERGY     -1273.953491331717
Dispersion correction            ... done
Dispersion correction           -0.052518006
FINAL SINGLE POINT ENERGY     -1273.953635291047
Dispersion correction            ... done
FINAL SINGLE POINT ENERGY     -1273.953641293117
Dispersion correction            ... done
Dispersion correction           -0.052485841
FINAL SINGLE POINT ENERGY     -1273.953660213400
Dispersion correction            ... done
Dispersion correction           -0.052488818
FINAL SINGLE POINT ENERGY     -1273.953659975368
Dispersion correction            ... done
                    ***********************HURRAY********************

CARTESIAN COORDINATES (ANGSTROEM)
---------------------------------
  C      1.578183   -1.596688    0.140275
  C      0.578945   -0.670596    0.038867
  C      0.828132    0.805383   -0.054270
  C      2.152213    1.326116   -0.034524
  C      3.259810    0.534670    0.065019
  S      3.250100   -1.192800    0.182592
  N     -0.285738    1.507158   -0.150015
  C     -1.309305    0.575774   -0.125569
  C     -0.844074   -0.750762   -0.011166
  S     -2.141832   -1.886993    0.012612
  C     -3.324082   -0.580787   -0.136248
  C     -2.723861    0.665284   -0.194418
  C     -4.731083   -0.946744   -0.192154
  C     -5.765930   -0.097932   -0.301367
  H      1.381875   -2.670265    0.205285
  H      2.272961    2.409852   -0.107355
  H      4.268811    0.952349    0.075485
  H     -3.275698    1.599175   -0.291492
  H     -4.941369   -2.020894   -0.140929
  H     -5.627833    0.985535   -0.359575
  H     -6.790243   -0.475147   -0.341083

 Multiplicity           Mult            ....    1
 Number of Electrons    NEL             ....  112
 Basis Dimension        Dim             ....  239

ORBITAL ENERGIES
----------------

  NO   OCC          E(Eh)            E(eV)
   0   2.0000     -88.904318     -2419.2095
   1   2.0000     -88.877086     -2418.4685
   2   2.0000     -14.306623      -389.3030
   3   2.0000     -10.249900      -278.9140
   4   2.0000     -10.240366      -278.6545
   5   2.0000     -10.230262      -278.3796
   6   2.0000     -10.224214      -278.2150
   7   2.0000     -10.221361      -278.1374
   8   2.0000     -10.216811      -278.0136
   9   2.0000     -10.212764      -277.9034
  10   2.0000     -10.205986      -277.7190
  11   2.0000     -10.205057      -277.6937
  12   2.0000     -10.192868      -277.3620
  13   2.0000     -10.192604      -277.3549
  14   2.0000      -7.999130      -217.6674
  15   2.0000      -7.971052      -216.9034
  16   2.0000      -5.967312      -162.3788
  17   2.0000      -5.962901      -162.2588
  18   2.0000      -5.960592      -162.1959
  19   2.0000      -5.939299      -161.6165
  20   2.0000      -5.935596      -161.5158
  21   2.0000      -5.931971      -161.4171
  22   2.0000      -0.952663       -25.9233
  23   2.0000      -0.877209       -23.8701
  24   2.0000      -0.864738       -23.5307
  25   2.0000      -0.796492       -21.6737
  26   2.0000      -0.773541       -21.0491
  27   2.0000      -0.766112       -20.8470
  28   2.0000      -0.720337       -19.6014
  29   2.0000      -0.704963       -19.1830
  30   2.0000      -0.641313       -17.4510
  31   2.0000      -0.624278       -16.9875
  32   2.0000      -0.587400       -15.9840
  33   2.0000      -0.562327       -15.3017
  34   2.0000      -0.530041       -14.4232
  35   2.0000      -0.516364       -14.0510
  36   2.0000      -0.488791       -13.3007
  37   2.0000      -0.483934       -13.1685
  38   2.0000      -0.469785       -12.7835
  39   2.0000      -0.458529       -12.4772
  40   2.0000      -0.433937       -11.8080
  41   2.0000      -0.433209       -11.7882
  42   2.0000      -0.410201       -11.1621
  43   2.0000      -0.398828       -10.8527
  44   2.0000      -0.387765       -10.5516
  45   2.0000      -0.374761       -10.1978
  46   2.0000      -0.365264        -9.9394
  47   2.0000      -0.362453        -9.8629
  48   2.0000      -0.352286        -9.5862
  49   2.0000      -0.348872        -9.4933
  50   2.0000      -0.322996        -8.7892
  51   2.0000      -0.286720        -7.8020
  52   2.0000      -0.274580        -7.4717
  53   2.0000      -0.263698        -7.1756
  54   2.0000      -0.219730        -5.9791
  55   2.0000      -0.206937        -5.6311
  56   0.0000      -0.080937        -2.2024
  57   0.0000      -0.053820        -1.4645
  58   0.0000      -0.013620        -0.3706
  59   0.0000       0.024518         0.6672
  60   0.0000       0.039271         1.0686

MULLIKEN ATOMIC CHARGES
-----------------------
   0 C :   -0.152495
   1 C :    0.067231
   2 C :   -0.004985
   3 C :    0.059664
   4 C :   -0.105239
   5 S :    0.137236
   6 N :   -0.098655
   7 C :    0.071735
   8 C :   -0.090398
   9 S :    0.120080
  10 C :   -0.098550
  11 C :   -0.024072
  12 C :    0.039893
  13 C :   -0.031063
  14 H :    0.041175
  15 H :   -0.000297
  16 H :    0.049325
  17 H :   -0.023141
  18 H :   -0.008975
  19 H :    0.026450
  20 H :    0.025082
Sum of atomic charges:   -0.0000000

LOEWDIN ATOMIC CHARGES
----------------------
   0 C :   -0.159056
   1 C :   -0.064213
   2 C :    0.003633
   3 C :   -0.032517
   4 C :   -0.186181
   5 S :    0.468906
   6 N :   -0.124634
   7 C :   -0.020726
   8 C :   -0.230214
   9 S :    0.411299
  10 C :   -0.154413
  11 C :   -0.055875
  12 C :   -0.044289
  13 C :   -0.043000
  14 H :    0.036169
  15 H :    0.046450
  16 H :    0.034269
  17 H :    0.033923
  18 H :    0.028219
  19 H :    0.024609
  20 H :    0.027640

  Mayer bond orders larger than 0.100000
B(  0-C ,  1-C ) :   1.5313 B(  0-C ,  5-S ) :   1.1568 B(  0-C , 14-H ) :   0.9405
B(  1-C ,  2-C ) :   1.0122 B(  1-C ,  8-C ) :   1.2318 B(  2-C ,  3-C ) :   1.2103
B(  2-C ,  6-N ) :   1.6345 B(  3-C ,  4-C ) :   1.5859 B(  3-C , 15-H ) :   0.9707
B(  4-C ,  5-S ) :   1.1215 B(  4-C , 16-H ) :   0.9404 B(  6-N ,  7-C ) :   1.2782
B(  7-C ,  8-C ) :   1.3474 B(  7-C , 11-C ) :   1.2302 B(  8-C ,  9-S ) :   1.0546
B(  9-S , 10-C ) :   1.0980 B( 10-C , 11-C ) :   1.4729 B( 10-C , 12-C ) :   1.1090
B( 11-C , 17-H ) :   1.0062 B( 12-C , 13-C ) :   1.9184 B( 12-C , 18-H ) :   0.9506
B( 13-C , 19-H ) :   0.9509 B( 13-C , 20-H ) :   0.9452

Dispersion correction           -0.052489480
FINAL SINGLE POINT ENERGY     -1273.953658353497

DIPOLE MOMENT
-------------
                                X             Y             Z
Electronic contribution:      9.53414      -4.03412       0.77323
Nuclear contribution   :     -8.81104       3.39864      -0.71236
                        -----------------------------------------
Total Dipole Moment    :      0.72311      -0.63548       0.06087
                        -----------------------------------------
Magnitude (a.u.)       :      0.96458
Magnitude (Debye)      :      2.45178

Rotational constants in cm-1:     0.060560     0.009772     0.008414
Rotational constants in MHz :  1815.555029   292.957226   252.258384

                             ****ORCA TERMINATED NORMALLY****
TOTAL RUN TIME: 0 days 0 hours 12 minutes 26 seconds 780 msec
