                         Program Version 4.2.0 -  RELEASE  -
|  1> # ORCA input file
|  2> # SCF done        -29.745051834230          0.000484673864
|  3> ! B3LYP/G D3BJ Opt RIJCOSX def2-SVP def2/J
|  4> * xyz 0 1
|  5>    C       -1.54992        -1.21402         0.15176
|  6>    S       -2.71537         0.02955         0.23423
|  7>    C       -1.52102         1.24511         0.14885
|  8>    C       -0.25317         0.71926         0.06058
|  9>    C       -0.26658        -0.72333         0.06232
| 10>    C        0.96099        -1.44177        -0.02258
| 11>    C        0.99952        -2.94140        -0.02466
| 12>    C        2.11350        -0.71632        -0.10390
| 13>    C        2.12460         0.69738        -0.10601
| 14>    C        0.97867         1.42964        -0.02621
| 15>    C        0.97683         2.92613        -0.02675
| 16>    H       -1.88303        -2.23186         0.17497
| 17>    H       -1.81610         2.27456         0.16903
| 18>    H        0.00620        -3.36839         0.06342
| 19>    H        1.60575        -3.30304         0.80518
| 20>    H        1.45050        -3.30450        -0.94770
| 21>    H        3.05973        -1.23472        -0.17021
| 22>    H        3.07830         1.20135        -0.17410
| 23>    H        1.99033         3.31099        -0.10639
| 24>    H        0.53015         3.30592         0.89188
| 25>    H        0.39199         3.30548        -0.86424
| 26> *
| 27>
| 28>                          ****END OF INPUT****
 Total Charge           Charge          ....    0
 Multiplicity           Mult            ....    1
 Number of Electrons    NEL             ....   86
Dispersion correction           -0.044783590
FINAL SINGLE POINT ENERGY      -784.929268274471
Dispersion correction            ... done
Dispersion correction           -0.044553337
FINAL SINGLE POINT ENERGY      -784.932373475112
Dispersion correction            ... done
Dispersion correction           -0.044520466
FINAL SINGLE POINT ENERGY      -784.932484194016
Dispersion correction            ... done
FINAL SINGLE POINT ENERGY      -784.932471165116
FINAL SINGLE POINT ENERGY      -784.932503036198
FINAL SINGLE POINT ENERGY      -784.932514809038
FINAL SINGLE POINT ENERGY      -784.932610082811
FINAL SINGLE POINT ENERGY      -784.932841568829
FINAL SINGLE POINT ENERGY      -784.933290752373
FINAL SINGLE POINT ENERGY      -784.934051243005
FINAL SINGLE POINT ENERGY      -784.934835176493
FINAL SINGLE POINT ENERGY      -784.930257254052
FINAL SINGLE POINT ENERGY      -784.935198491419
FINAL SINGLE POINT ENERGY      -784.935270997600
FINAL SINGLE POINT ENERGY      -784.935412516664
FINAL SINGLE POINT ENERGY      -784.935458737039
FINAL SINGLE POINT ENERGY      -784.935506326937
Dispersion correction            ... done
Dispersion correction           -0.044611052
FINAL SINGLE POINT ENERGY      -784.935516774937
Dispersion correction            ... done
Dispersion correction           -0.044611204
FINAL SINGLE POINT ENERGY      -784.935519830714
Dispersion correction            ... done
                    ***********************HURRAY********************

CARTESIAN COORDINATES (ANGSTROEM)
---------------------------------
  C     -1.543451   -1.246266    0.044018
  S     -2.721805    0.000092    0.064852
  C     -1.542096    1.245173    0.044277
  C     -0.252079    0.725494    0.022739
  C     -0.252869   -0.728045    0.022663
  C      0.989233   -1.453911    0.003125
  C      0.978441   -2.954669   -0.004509
  C      2.149143   -0.718327   -0.009578
  C      2.149942    0.713403   -0.009397
  C      0.990776    1.450162    0.003404
  C      0.981361    2.950908   -0.003950
  H     -1.851470   -2.289419    0.048457
  H     -1.848784    2.288713    0.048797
  H      0.462275   -3.358202    0.883588
  H      1.998707   -3.363017   -0.019605
  H      0.441570   -3.347123   -0.885309
  H      3.109863   -1.240358   -0.022689
  H      3.111183    1.234469   -0.022331
  H      2.001946    3.358465   -0.016489
  H      0.463440    3.354448    0.883130
  H      0.446544    3.344028   -0.885722

 Multiplicity           Mult            ....    1
 Number of Electrons    NEL             ....   86
 Basis Dimension        Dim             ....  208

ORBITAL ENERGIES
----------------

  NO   OCC          E(Eh)            E(eV)
   0   2.0000     -88.881048     -2418.5763
   1   2.0000     -10.208303      -277.7820
   2   2.0000     -10.208227      -277.7800
   3   2.0000     -10.192767      -277.3593
   4   2.0000     -10.192687      -277.3571
   5   2.0000     -10.192484      -277.3516
   6   2.0000     -10.192473      -277.3513
   7   2.0000     -10.187097      -277.2050
   8   2.0000     -10.187072      -277.2043
   9   2.0000     -10.182924      -277.0914
  10   2.0000     -10.182699      -277.0853
  11   2.0000      -7.975689      -217.0295
  12   2.0000      -5.943400      -161.7281
  13   2.0000      -5.939317      -161.6170
  14   2.0000      -5.938045      -161.5824
  15   2.0000      -0.886707       -24.1285
  16   2.0000      -0.826758       -22.4972
  17   2.0000      -0.786591       -21.4042
  18   2.0000      -0.725622       -19.7452
  19   2.0000      -0.711200       -19.3527
  20   2.0000      -0.705682       -19.2026
  21   2.0000      -0.646288       -17.5864
  22   2.0000      -0.593963       -16.1625
  23   2.0000      -0.575073       -15.6485
  24   2.0000      -0.552123       -15.0240
  25   2.0000      -0.494418       -13.4538
  26   2.0000      -0.464859       -12.6495
  27   2.0000      -0.461006       -12.5446
  28   2.0000      -0.427513       -11.6332
  29   2.0000      -0.423029       -11.5112
  30   2.0000      -0.415515       -11.3067
  31   2.0000      -0.414599       -11.2818
  32   2.0000      -0.403343       -10.9755
  33   2.0000      -0.392272       -10.6743
  34   2.0000      -0.382268       -10.4021
  35   2.0000      -0.373812       -10.1719
  36   2.0000      -0.349333        -9.5058
  37   2.0000      -0.349130        -9.5003
  38   2.0000      -0.333831        -9.0840
  39   2.0000      -0.323206        -8.7949
  40   2.0000      -0.267737        -7.2855
  41   2.0000      -0.246201        -6.6995
  42   2.0000      -0.199182        -5.4200
  43   0.0000      -0.054171        -1.4741
  44   0.0000       0.026748         0.7278
  45   0.0000       0.032513         0.8847
  46   0.0000       0.051704         1.4069
  47   0.0000       0.063078         1.7164

MULLIKEN ATOMIC CHARGES
-----------------------
   0 C :   -0.169259
   1 S :    0.132421
   2 C :   -0.169254
   3 C :    0.076162
   4 C :    0.076240
   5 C :   -0.039450
   6 C :    0.083992
   7 C :   -0.038564
   8 C :   -0.038605
   9 C :   -0.039434
  10 C :    0.084002
  11 H :    0.014680
  12 H :    0.014696
  13 H :    0.021428
  14 H :    0.002109
  15 H :    0.021806
  16 H :   -0.039147
  17 H :   -0.039170
  18 H :    0.002128
  19 H :    0.021392
  20 H :    0.021827
Sum of atomic charges:   -0.0000000

LOEWDIN ATOMIC CHARGES
----------------------
   0 C :   -0.215556
   1 S :    0.475550
   2 C :   -0.215576
   3 C :   -0.049243
   4 C :   -0.049244
   5 C :   -0.024830
   6 C :   -0.044233
   7 C :   -0.039678
   8 C :   -0.039685
   9 C :   -0.024817
  10 C :   -0.044227
  11 H :    0.021794
  12 H :    0.021799
  13 H :    0.031732
  14 H :    0.027983
  15 H :    0.031972
  16 H :    0.022286
  17 H :    0.022283
  18 H :    0.027979
  19 H :    0.031718
  20 H :    0.031994

  Mayer bond orders larger than 0.100000
B(  0-C ,  1-S ) :   1.1969 B(  0-C ,  2-C ) :   0.1164 B(  0-C ,  4-C ) :   1.4276
B(  0-C , 11-H ) :   0.9533 B(  1-S ,  2-C ) :   1.1969 B(  2-C ,  3-C ) :   1.4277
B(  2-C , 12-H ) :   0.9533 B(  3-C ,  4-C ) :   1.2008 B(  3-C ,  9-C ) :   1.1855
B(  4-C ,  5-C ) :   1.1855 B(  5-C ,  6-C ) :   1.0948 B(  5-C ,  7-C ) :   1.5550
B(  6-C , 13-H ) :   0.9446 B(  6-C , 14-H ) :   0.9530 B(  6-C , 15-H ) :   0.9448
B(  7-C ,  8-C ) :   1.1605 B(  7-C , 16-H ) :   0.9812 B(  8-C ,  9-C ) :   1.5550
B(  8-C , 17-H ) :   0.9812 B(  9-C , 10-C ) :   1.0948 B( 10-C , 18-H ) :   0.9530
B( 10-C , 19-H ) :   0.9446 B( 10-C , 20-H ) :   0.9448

Dispersion correction           -0.044612376
FINAL SINGLE POINT ENERGY      -784.935521100025

DIPOLE MOMENT
-------------
                                X             Y             Z
Electronic contribution:     -9.23853       0.00496       0.18575
Nuclear contribution   :      9.22614      -0.00488      -0.18941
                        -----------------------------------------
Total Dipole Moment    :     -0.01239       0.00008      -0.00367
                        -----------------------------------------
Magnitude (a.u.)       :      0.01292
Magnitude (Debye)      :      0.03285

Rotational constants in cm-1:     0.041396     0.034464     0.018940
Rotational constants in MHz :  1241.035044  1033.204305   567.811933

                             ****ORCA TERMINATED NORMALLY****
TOTAL RUN TIME: 0 days 0 hours 28 minutes 0 seconds 585 msec
