                         Program Version 4.2.0 -  RELEASE  -
|  1> # ORCA input file
|  2> # SCF done        -17.066648914615          0.000639902337
|  3> ! B3LYP/G D3BJ Opt RIJCOSX def2-SVP def2/J
|  4> * xyz 0 1
|  5>    C       -1.27238        -0.13177        -0.00187
|  6>    S       -0.46041         1.38342        -0.00159
|  7>    C        1.07028         0.60129        -0.00086
|  8>    C        0.95902        -0.74916         0.00047
|  9>    C       -0.39560        -1.17214        -0.00025
| 10>    S       -0.90868        -2.85986         0.00071
| 11>    H       -2.34245        -0.17170        -0.00267
| 12>    H        1.96509         1.19100        -0.00063
| 13>    H        1.79510        -1.42603         0.00193
| 14>    H        0.32529        -3.35816         0.00842
| 15> *
| 16>
| 17>                          ****END OF INPUT****
 Total Charge           Charge          ....    0
 Multiplicity           Mult            ....    1
 Number of Electrons    NEL             ....   60
Dispersion correction           -0.021078305
FINAL SINGLE POINT ENERGY      -950.883859359656
Dispersion correction            ... done
Dispersion correction           -0.021014787
FINAL SINGLE POINT ENERGY      -950.885634628206
Dispersion correction            ... done
Dispersion correction           -0.020998986
FINAL SINGLE POINT ENERGY      -950.885705669263
Dispersion correction            ... done
FINAL SINGLE POINT ENERGY      -950.885712315893
FINAL SINGLE POINT ENERGY      -950.885753792244
FINAL SINGLE POINT ENERGY      -950.885897226236
FINAL SINGLE POINT ENERGY      -950.886115777563
FINAL SINGLE POINT ENERGY      -950.886327155281
FINAL SINGLE POINT ENERGY      -950.886466757989
FINAL SINGLE POINT ENERGY      -950.886502888994
FINAL SINGLE POINT ENERGY      -950.886534147412
Dispersion correction            ... done
Dispersion correction           -0.020946288
FINAL SINGLE POINT ENERGY      -950.886550244777
Dispersion correction            ... done
Dispersion correction           -0.020947902
FINAL SINGLE POINT ENERGY      -950.886546926474
Dispersion correction            ... done
                    ***********************HURRAY********************

CARTESIAN COORDINATES (ANGSTROEM)
---------------------------------
  C     -1.252080   -0.172403    0.015121
  S     -0.482883    1.372365    0.127558
  C      1.089515    0.652368    0.020344
  C      1.018534   -0.708195   -0.116887
  C     -0.333953   -1.188096   -0.114952
  S     -0.816584   -2.879501   -0.380930
  H     -2.335887   -0.260527    0.066818
  H      1.981299    1.276626    0.051278
  H      1.886578   -1.358010   -0.230551
  H     -0.019279   -3.427736    0.565861

 Multiplicity           Mult            ....    1
 Number of Electrons    NEL             ....   60
 Basis Dimension        Dim             ....  112

ORBITAL ENERGIES
----------------

  NO   OCC          E(Eh)            E(eV)
   0   2.0000     -88.879566     -2418.5360
   1   2.0000     -88.849714     -2417.7236
   2   2.0000     -10.221627      -278.1446
   3   2.0000     -10.218916      -278.0708
   4   2.0000     -10.216839      -278.0143
   5   2.0000     -10.201001      -277.5833
   6   2.0000      -7.974735      -217.0036
   7   2.0000      -7.943927      -216.1652
   8   2.0000      -5.942888      -161.7142
   9   2.0000      -5.938742      -161.6014
  10   2.0000      -5.936042      -161.5279
  11   2.0000      -5.913233      -160.9073
  12   2.0000      -5.909508      -160.8059
  13   2.0000      -5.902690      -160.6204
  14   2.0000      -0.886141       -24.1131
  15   2.0000      -0.781483       -21.2652
  16   2.0000      -0.729679       -19.8556
  17   2.0000      -0.688531       -18.7359
  18   2.0000      -0.571298       -15.5458
  19   2.0000      -0.546885       -14.8815
  20   2.0000      -0.501215       -13.6388
  21   2.0000      -0.431466       -11.7408
  22   2.0000      -0.416730       -11.3398
  23   2.0000      -0.402212       -10.9448
  24   2.0000      -0.389259       -10.5923
  25   2.0000      -0.359370        -9.7790
  26   2.0000      -0.344328        -9.3697
  27   2.0000      -0.279486        -7.6052
  28   2.0000      -0.253428        -6.8961
  29   2.0000      -0.227177        -6.1818
  30   0.0000      -0.023619        -0.6427
  31   0.0000       0.015739         0.4283
  32   0.0000       0.036625         0.9966
  33   0.0000       0.056103         1.5266
  34   0.0000       0.071975         1.9585

MULLIKEN ATOMIC CHARGES
-----------------------
   0 C :   -0.107069
   1 S :    0.098743
   2 C :   -0.091900
   3 C :    0.055891
   4 C :   -0.070637
   5 S :    0.002646
   6 H :    0.032765
   7 H :    0.034290
   8 H :   -0.010942
   9 H :    0.056214
Sum of atomic charges:   -0.0000000

LOEWDIN ATOMIC CHARGES
----------------------
   0 C :   -0.209916
   1 S :    0.428410
   2 C :   -0.186582
   3 C :   -0.077353
   4 C :   -0.210496
   5 S :    0.195052
   6 H :    0.027527
   7 H :    0.026874
   8 H :    0.029525
   9 H :   -0.023040

  Mayer bond orders larger than 0.100000
B(  0-C ,  1-S ) :   1.1685 B(  0-C ,  4-C ) :   1.5688 B(  0-C ,  6-H ) :   0.9697
B(  1-S ,  2-C ) :   1.1722 B(  2-C ,  3-C ) :   1.5779 B(  2-C ,  7-H ) :   0.9666
B(  3-C ,  4-C ) :   1.2545 B(  3-C ,  8-H ) :   0.9928 B(  4-C ,  5-S ) :   1.0162
B(  5-S ,  9-H ) :   0.9480

Dispersion correction           -0.020948218
FINAL SINGLE POINT ENERGY      -950.886545557522

DIPOLE MOMENT
-------------
                                X             Y             Z
Electronic contribution:     -2.16400       1.41579      -0.48716
Nuclear contribution   :      2.53369      -1.29476       0.75148
                        -----------------------------------------
Total Dipole Moment    :      0.36969       0.12103       0.26431
                        -----------------------------------------
Magnitude (a.u.)       :      0.47030
Magnitude (Debye)      :      1.19540

Rotational constants in cm-1:     0.230240     0.049476     0.040935
Rotational constants in MHz :  6902.409421  1483.265495  1227.194045

                             ****ORCA TERMINATED NORMALLY****
TOTAL RUN TIME: 0 days 0 hours 5 minutes 43 seconds 337 msec
