                         Program Version 4.2.0 -  RELEASE  -
|  1> # ORCA input file
|  2> # SCF done        -31.511791180610          0.000359975357
|  3> ! B3LYP/G D3BJ Opt RIJCOSX def2-SVP def2/J
|  4> * xyz 0 1
|  5>    C        2.04636         0.77946         0.00688
|  6>    C        2.13159        -0.51834        -0.32056
|  7>    O        1.01377        -1.32560        -0.47210
|  8>    C       -0.16916        -0.67880        -0.25874
|  9>    C       -0.23900         0.70553         0.08819
| 10>    C       -1.51019         1.14377         0.25225
| 11>    S       -2.65046        -0.12358        -0.01082
| 12>    C       -1.39159        -1.25546        -0.34836
| 13>    O        0.88438         1.47359         0.23076
| 14>    C        3.39951        -1.18213        -0.54454
| 15>    C        3.51410        -2.46404        -0.87561
| 16>    H        2.91390         1.40494         0.12387
| 17>    H       -1.83959         2.12815         0.51074
| 18>    H       -1.62480        -2.27105        -0.59021
| 19>    H        4.26820        -0.55141        -0.42310
| 20>    H        2.64553        -3.08750        -0.99698
| 21>    H        4.47426        -2.92174        -1.03328
| 22> *
| 23>
| 24>                          ****END OF INPUT****
 Total Charge           Charge          ....    0
 Multiplicity           Mult            ....    1
 Number of Electrons    NEL             ....   86
Dispersion correction           -0.033762181
FINAL SINGLE POINT ENERGY      -856.609772657878
Dispersion correction            ... done
Dispersion correction           -0.033698947
FINAL SINGLE POINT ENERGY      -856.611738506159
Dispersion correction            ... done
Dispersion correction           -0.033697425
FINAL SINGLE POINT ENERGY      -856.611845751878
Dispersion correction            ... done
FINAL SINGLE POINT ENERGY      -856.611855611945
Dispersion correction            ... done
Dispersion correction           -0.033706074
FINAL SINGLE POINT ENERGY      -856.611869152383
Dispersion correction            ... done
Dispersion correction           -0.033705663
FINAL SINGLE POINT ENERGY      -856.611873368542
Dispersion correction            ... done
                    ***********************HURRAY********************

CARTESIAN COORDINATES (ANGSTROEM)
---------------------------------
  C      2.051174    0.801661   -0.004468
  C      2.138643   -0.501927   -0.344218
  O      1.017423   -1.296527   -0.507856
  C     -0.175472   -0.674346   -0.276158
  C     -0.247790    0.711844    0.087957
  C     -1.527292    1.151695    0.273121
  S     -2.668945   -0.132522    0.004903
  C     -1.403099   -1.267838   -0.358419
  O      0.879123    1.474541    0.223900
  C      3.402380   -1.184021   -0.553848
  C      3.519102   -2.485289   -0.858123
  H      2.930512    1.427575    0.129270
  H     -1.849863    2.149529    0.560667
  H     -1.625622   -2.298822   -0.621958
  H      4.292448   -0.558397   -0.438368
  H      2.635723   -3.115865   -0.975097
  H      4.498364   -2.945502   -1.002915

 Multiplicity           Mult            ....    1
 Number of Electrons    NEL             ....   86
 Basis Dimension        Dim             ....  188

ORBITAL ENERGIES
----------------

  NO   OCC          E(Eh)            E(eV)
   0   2.0000     -88.880035     -2418.5487
   1   2.0000     -19.196602      -522.3661
   2   2.0000     -19.190541      -522.2012
   3   2.0000     -10.261168      -279.2206
   4   2.0000     -10.260912      -279.2136
   5   2.0000     -10.257961      -279.1333
   6   2.0000     -10.255753      -279.0732
   7   2.0000     -10.217330      -278.0277
   8   2.0000     -10.216060      -277.9931
   9   2.0000     -10.203963      -277.6639
  10   2.0000     -10.189782      -277.2781
  11   2.0000      -7.974745      -217.0038
  12   2.0000      -5.943114      -161.7204
  13   2.0000      -5.939252      -161.6153
  14   2.0000      -5.935343      -161.5089
  15   2.0000      -1.109096       -30.1800
  16   2.0000      -1.073753       -29.2183
  17   2.0000      -0.888210       -24.1694
  18   2.0000      -0.811064       -22.0702
  19   2.0000      -0.756651       -20.5895
  20   2.0000      -0.735027       -20.0011
  21   2.0000      -0.718292       -19.5457
  22   2.0000      -0.649586       -17.6761
  23   2.0000      -0.607830       -16.5399
  24   2.0000      -0.596061       -16.2197
  25   2.0000      -0.568081       -15.4583
  26   2.0000      -0.514956       -14.0127
  27   2.0000      -0.498680       -13.5698
  28   2.0000      -0.480989       -13.0884
  29   2.0000      -0.466413       -12.6917
  30   2.0000      -0.449131       -12.2215
  31   2.0000      -0.429981       -11.7004
  32   2.0000      -0.428085       -11.6488
  33   2.0000      -0.418986       -11.4012
  34   2.0000      -0.410044       -11.1579
  35   2.0000      -0.380644       -10.3578
  36   2.0000      -0.373573       -10.1654
  37   2.0000      -0.362566        -9.8659
  38   2.0000      -0.345187        -9.3930
  39   2.0000      -0.312472        -8.5028
  40   2.0000      -0.257889        -7.0175
  41   2.0000      -0.240660        -6.5487
  42   2.0000      -0.199624        -5.4321
  43   0.0000      -0.033918        -0.9230
  44   0.0000      -0.018434        -0.5016
  45   0.0000       0.036204         0.9852
  46   0.0000       0.053785         1.4636
  47   0.0000       0.056445         1.5359

MULLIKEN ATOMIC CHARGES
-----------------------
   0 C :    0.100319
   1 C :    0.169179
   2 O :   -0.268946
   3 C :    0.221154
   4 C :    0.199127
   5 C :   -0.162078
   6 S :    0.097377
   7 C :   -0.166246
   8 O :   -0.246257
   9 C :   -0.041046
  10 C :   -0.008648
  11 H :    0.010707
  12 H :    0.025162
  13 H :    0.025186
  14 H :   -0.007328
  15 H :    0.031816
  16 H :    0.020522
Sum of atomic charges:    0.0000000

LOEWDIN ATOMIC CHARGES
----------------------
   0 C :    0.018799
   1 C :    0.009818
   2 O :   -0.060373
   3 C :   -0.003427
   4 C :   -0.006929
   5 C :   -0.211698
   6 S :    0.424148
   7 C :   -0.214522
   8 O :   -0.053640
   9 C :   -0.038625
  10 C :   -0.046038
  11 H :    0.032898
  12 H :    0.031380
  13 H :    0.031142
  14 H :    0.033677
  15 H :    0.027304
  16 H :    0.026085

  Mayer bond orders larger than 0.100000
B(  0-C ,  1-C ) :   1.6414 B(  0-C ,  8-O ) :   1.0419 B(  0-C , 10-C ) :   0.1171
B(  0-C , 11-H ) :   0.9789 B(  1-C ,  2-O ) :   1.0324 B(  1-C ,  9-C ) :   1.1201
B(  2-O ,  3-C ) :   1.0563 B(  3-C ,  4-C ) :   1.1931 B(  3-C ,  7-C ) :   1.5620
B(  4-C ,  5-C ) :   1.5585 B(  4-C ,  8-O ) :   1.0550 B(  5-C ,  6-S ) :   1.1322
B(  5-C , 12-H ) :   0.9670 B(  6-S ,  7-C ) :   1.1265 B(  7-C , 13-H ) :   0.9642
B(  9-C , 10-C ) :   1.9055 B(  9-C , 14-H ) :   0.9589 B( 10-C , 15-H ) :   0.9462
B( 10-C , 16-H ) :   0.9437

Dispersion correction           -0.033705892
FINAL SINGLE POINT ENERGY      -856.611874006828

DIPOLE MOMENT
-------------
                                X             Y             Z
Electronic contribution:     -8.45461       3.45794       1.17589
Nuclear contribution   :      8.65694      -3.37200      -1.15118
                        -----------------------------------------
Total Dipole Moment    :      0.20233       0.08594       0.02471
                        -----------------------------------------
Magnitude (a.u.)       :      0.22121
Magnitude (Debye)      :      0.56227

Rotational constants in cm-1:     0.083615     0.021200     0.016914
Rotational constants in MHz :  2506.701671   635.558037   507.056958

                             ****ORCA TERMINATED NORMALLY****
TOTAL RUN TIME: 0 days 0 hours 6 minutes 16 seconds 971 msec
