                         Program Version 4.2.0 -  RELEASE  -
|  1> # ORCA input file
|  2> # SCF done        -32.197235402420          0.000556424585
|  3> ! B3LYP/G D3BJ Opt RIJCOSX def2-SVP def2/J
|  4> * xyz 0 1
|  5>    N        0.61859        -1.64131        -0.13297
|  6>    C       -0.47135        -0.78271        -0.06362
|  7>    C       -1.73441        -1.20998         0.22211
|  8>    S       -2.90798         0.04181         0.08632
|  9>    C       -1.68422         1.17739        -0.32156
| 10>    C       -0.44326         0.61955        -0.36771
| 11>    N        0.73038         1.32204        -0.68812
| 12>    C        1.77318         1.30711         0.32272
| 13>    C        2.32506        -0.08340         0.57402
| 14>    O        2.96425        -0.35449         1.55845
| 15>    C        1.92567        -1.11271        -0.46993
| 16>    H        0.63082        -2.34780         0.58877
| 17>    H       -2.04417        -2.20072         0.48551
| 18>    H       -1.95055         2.19715        -0.51794
| 19>    H        0.50624         2.27111        -0.96438
| 20>    H        1.45794         1.73767         1.28827
| 21>    H        2.61239         1.90872        -0.04463
| 22>    H        2.63807        -1.93912        -0.47640
| 23>    H        1.87016        -0.65155        -1.45855
| 24> *
| 25>
| 26>                          ****END OF INPUT****
 Total Charge           Charge          ....    0
 Multiplicity           Mult            ....    1
 Number of Electrons    NEL             ....   88
Dispersion correction           -0.040626613
FINAL SINGLE POINT ENERGY      -854.036589865380
Dispersion correction            ... done
Dispersion correction           -0.040260501
FINAL SINGLE POINT ENERGY      -854.039507322400
Dispersion correction            ... done
Dispersion correction           -0.040117676
FINAL SINGLE POINT ENERGY      -854.039996301326
Dispersion correction            ... done
FINAL SINGLE POINT ENERGY      -854.040311393239
FINAL SINGLE POINT ENERGY      -854.040439664103
FINAL SINGLE POINT ENERGY      -854.040604205240
FINAL SINGLE POINT ENERGY      -854.040741413419
FINAL SINGLE POINT ENERGY      -854.040837669975
FINAL SINGLE POINT ENERGY      -854.040878808889
FINAL SINGLE POINT ENERGY      -854.040904655253
FINAL SINGLE POINT ENERGY      -854.040915687247
Dispersion correction            ... done
Dispersion correction           -0.040014041
FINAL SINGLE POINT ENERGY      -854.040925870292
Dispersion correction            ... done
Dispersion correction           -0.040016538
FINAL SINGLE POINT ENERGY      -854.040928036018
Dispersion correction            ... done
                    ***********************HURRAY********************

CARTESIAN COORDINATES (ANGSTROEM)
---------------------------------
  N      0.611787   -1.601484    0.017891
  C     -0.517308   -0.775720   -0.059671
  C     -1.805649   -1.228552    0.121172
  S     -2.982461    0.031242   -0.039675
  C     -1.747614    1.200657   -0.354436
  C     -0.487481    0.648965   -0.340215
  N      0.701667    1.346377   -0.612436
  C      1.773021    1.295467    0.365170
  C      2.469803   -0.064433    0.452949
  O      3.362096   -0.247902    1.248297
  C      1.920563   -1.169295   -0.444068
  H      0.637520   -2.206433    0.830728
  H     -2.113642   -2.254317    0.312510
  H     -2.004403    2.245747   -0.518570
  H      0.519284    2.289140   -0.937618
  H      1.462788    1.574098    1.394222
  H      2.554945    2.012609    0.066881
  H      2.614064   -2.020493   -0.398079
  H      1.847830   -0.816913   -1.484692

 Multiplicity           Mult            ....    1
 Number of Electrons    NEL             ....   88
 Basis Dimension        Dim             ....  198

ORBITAL ENERGIES
----------------

  NO   OCC          E(Eh)            E(eV)
   0   2.0000     -88.865257     -2418.1466
   1   2.0000     -19.130766      -520.5746
   2   2.0000     -14.344128      -390.3236
   3   2.0000     -14.343223      -390.2989
   4   2.0000     -10.275378      -279.6072
   5   2.0000     -10.232817      -278.4491
   6   2.0000     -10.227071      -278.2927
   7   2.0000     -10.226564      -278.2790
   8   2.0000     -10.225710      -278.2557
   9   2.0000     -10.202230      -277.6168
  10   2.0000     -10.198558      -277.5169
  11   2.0000      -7.960085      -216.6049
  12   2.0000      -5.928348      -161.3186
  13   2.0000      -5.924486      -161.2135
  14   2.0000      -5.921004      -161.1187
  15   2.0000      -1.039683       -28.2912
  16   2.0000      -0.947730       -25.7890
  17   2.0000      -0.912961       -24.8429
  18   2.0000      -0.858763       -23.3681
  19   2.0000      -0.753577       -20.5059
  20   2.0000      -0.730144       -19.8682
  21   2.0000      -0.691976       -18.8296
  22   2.0000      -0.670397       -18.2424
  23   2.0000      -0.590652       -16.0725
  24   2.0000      -0.557948       -15.1825
  25   2.0000      -0.553023       -15.0485
  26   2.0000      -0.526488       -14.3265
  27   2.0000      -0.506299       -13.7771
  28   2.0000      -0.478017       -13.0075
  29   2.0000      -0.472675       -12.8621
  30   2.0000      -0.457322       -12.4444
  31   2.0000      -0.440088       -11.9754
  32   2.0000      -0.428415       -11.6578
  33   2.0000      -0.401392       -10.9224
  34   2.0000      -0.398865       -10.8537
  35   2.0000      -0.385967       -10.5027
  36   2.0000      -0.382437       -10.4066
  37   2.0000      -0.364319        -9.9136
  38   2.0000      -0.350832        -9.5466
  39   2.0000      -0.307798        -8.3756
  40   2.0000      -0.293614        -7.9896
  41   2.0000      -0.257184        -6.9983
  42   2.0000      -0.214333        -5.8323
  43   2.0000      -0.195303        -5.3145
  44   0.0000      -0.029671        -0.8074
  45   0.0000      -0.009529        -0.2593
  46   0.0000       0.040102         1.0912
  47   0.0000       0.052598         1.4313
  48   0.0000       0.061431         1.6716

MULLIKEN ATOMIC CHARGES
-----------------------
   0 N :   -0.211601
   1 C :    0.120334
   2 C :   -0.180613
   3 S :    0.090137
   4 C :   -0.178988
   5 C :    0.074933
   6 N :   -0.170548
   7 C :    0.174800
   8 C :   -0.077669
   9 O :   -0.197921
  10 C :    0.238642
  11 H :    0.124191
  12 H :   -0.001285
  13 H :   -0.003608
  14 H :    0.107600
  15 H :    0.022396
  16 H :    0.031979
  17 H :    0.011476
  18 H :    0.025747
Sum of atomic charges:   -0.0000000

LOEWDIN ATOMIC CHARGES
----------------------
   0 N :   -0.045959
   1 C :   -0.034972
   2 C :   -0.233640
   3 S :    0.412160
   4 C :   -0.240110
   5 C :   -0.042734
   6 N :   -0.067912
   7 C :    0.004675
   8 C :    0.059121
   9 O :   -0.144604
  10 C :    0.012304
  11 H :    0.076079
  12 H :    0.019989
  13 H :    0.018486
  14 H :    0.072773
  15 H :    0.024970
  16 H :    0.044464
  17 H :    0.031626
  18 H :    0.033284

  Mayer bond orders larger than 0.100000
B(  0-N ,  1-C ) :   1.0949 B(  0-N , 10-C ) :   1.0311 B(  0-N , 11-H ) :   0.9356
B(  1-C ,  2-C ) :   1.5248 B(  1-C ,  5-C ) :   1.2369 B(  2-C ,  3-S ) :   1.1381
B(  2-C , 12-H ) :   0.9679 B(  3-S ,  4-C ) :   1.1356 B(  4-C ,  5-C ) :   1.5152
B(  4-C , 13-H ) :   0.9671 B(  5-C ,  6-N ) :   1.1029 B(  6-N ,  7-C ) :   1.0359
B(  6-N , 14-H ) :   0.9218 B(  7-C ,  8-C ) :   0.9285 B(  7-C , 15-H ) :   0.9155
B(  7-C , 16-H ) :   0.9224 B(  8-C ,  9-O ) :   2.1627 B(  8-C , 10-C ) :   0.9839
B( 10-C , 17-H ) :   0.9268 B( 10-C , 18-H ) :   0.9184

Dispersion correction           -0.040019210
FINAL SINGLE POINT ENERGY      -854.040926010991

DIPOLE MOMENT
-------------
                                X             Y             Z
Electronic contribution:     -5.41022      -0.63895       0.66335
Nuclear contribution   :      5.25744       1.07089      -0.96362
                        -----------------------------------------
Total Dipole Moment    :     -0.15278       0.43194      -0.30027
                        -----------------------------------------
Magnitude (a.u.)       :      0.54779
Magnitude (Debye)      :      1.39238

Rotational constants in cm-1:     0.078764     0.021375     0.018074
Rotational constants in MHz :  2361.285186   640.798317   541.841660

                             ****ORCA TERMINATED NORMALLY****
TOTAL RUN TIME: 0 days 0 hours 17 minutes 13 seconds 3 msec
