                         Program Version 4.2.0 -  RELEASE  -
|  1> # ORCA input file
|  2> # SCF done        -28.645232064474          0.000734996623
|  3> ! B3LYP/G D3BJ Opt RIJCOSX def2-SVP def2/J
|  4> * xyz 0 1
|  5>    C        1.41775         1.16180        -0.40504
|  6>    S        2.63283        -0.05700        -0.41933
|  7>    C        1.45686        -1.26392        -0.06775
|  8>    C        0.20644        -0.74950         0.05831
|  9>    C        0.18292         0.66131        -0.14090
| 10>    C       -1.08482         1.45654        -0.10760
| 11>    C       -2.22198         0.65430         0.52381
| 12>    C       -2.28755        -0.77869        -0.01425
| 13>    C       -2.46242        -0.82040        -1.53059
| 14>    C       -1.02115        -1.53037         0.40722
| 15>    H        1.69446         2.17988        -0.59626
| 16>    H        1.76733        -2.28535         0.02997
| 17>    H       -1.35471         1.73598        -1.13045
| 18>    H       -0.92921         2.38546         0.44665
| 19>    H       -3.16957         1.16403         0.33828
| 20>    H       -2.07403         0.61062         1.60553
| 21>    H       -3.15166        -1.27384         0.44407
| 22>    H       -1.56124        -0.48130        -2.03437
| 23>    H       -3.29417        -0.19063        -1.83811
| 24>    H       -2.66694        -1.83861        -1.85563
| 25>    H       -0.98640        -2.51476        -0.06436
| 26>    H       -1.03973        -1.68829         1.49075
| 27> *
| 28>
| 29>                          ****END OF INPUT****
 Total Charge           Charge          ....    0
 Multiplicity           Mult            ....    1
 Number of Electrons    NEL             ....   82
Dispersion correction           -0.045010391
FINAL SINGLE POINT ENERGY      -748.057621605989
Dispersion correction            ... done
Dispersion correction           -0.044552035
FINAL SINGLE POINT ENERGY      -748.060424889283
Dispersion correction            ... done
Dispersion correction           -0.044452951
FINAL SINGLE POINT ENERGY      -748.060526696708
Dispersion correction            ... done
FINAL SINGLE POINT ENERGY      -748.060531703830
Dispersion correction            ... done
Dispersion correction           -0.044412614
FINAL SINGLE POINT ENERGY      -748.060525283648
Dispersion correction            ... done
Dispersion correction           -0.044422977
FINAL SINGLE POINT ENERGY      -748.060533625081
Dispersion correction            ... done
                    ***********************HURRAY********************

CARTESIAN COORDINATES (ANGSTROEM)
---------------------------------
  C      1.472726    1.184626   -0.357373
  S      2.679294   -0.053643   -0.396193
  C      1.497687   -1.276769   -0.085702
  C      0.233885   -0.754270    0.048690
  C      0.216990    0.676134   -0.122095
  C     -1.067814    1.467166   -0.101819
  C     -2.231672    0.668626    0.503108
  C     -2.294106   -0.779839   -0.015691
  C     -2.523403   -0.849633   -1.527859
  C     -1.012348   -1.530386    0.394854
  H      1.750040    2.223327   -0.532687
  H      1.801685   -2.318886    0.002448
  H     -1.324949    1.759806   -1.135146
  H     -0.927629    2.411520    0.448175
  H     -3.181034    1.185575    0.285591
  H     -2.130154    0.646090    1.602339
  H     -3.143486   -1.276457    0.483244
  H     -1.648990   -0.481686   -2.087282
  H     -3.393652   -0.246179   -1.831942
  H     -2.702428   -1.887746   -1.849502
  H     -0.983461   -2.527866   -0.071633
  H     -1.034171   -1.702247    1.486425

 Multiplicity           Mult            ....    1
 Number of Electrons    NEL             ....   82
 Basis Dimension        Dim             ....  204

ORBITAL ENERGIES
----------------

  NO   OCC          E(Eh)            E(eV)
   0   2.0000     -88.863483     -2418.0983
   1   2.0000     -10.199110      -277.5319
   2   2.0000     -10.198667      -277.5198
   3   2.0000     -10.190029      -277.2848
   4   2.0000     -10.188833      -277.2523
   5   2.0000     -10.187346      -277.2118
   6   2.0000     -10.186514      -277.1891
   7   2.0000     -10.186272      -277.1826
   8   2.0000     -10.184136      -277.1244
   9   2.0000     -10.176955      -276.9290
  10   2.0000      -7.958579      -216.5639
  11   2.0000      -5.926662      -161.2727
  12   2.0000      -5.922555      -161.1609
  13   2.0000      -5.920073      -161.0934
  14   2.0000      -0.873577       -23.7712
  15   2.0000      -0.817260       -22.2388
  16   2.0000      -0.755607       -20.5611
  17   2.0000      -0.732793       -19.9403
  18   2.0000      -0.693508       -18.8713
  19   2.0000      -0.665260       -18.1026
  20   2.0000      -0.619435       -16.8557
  21   2.0000      -0.561230       -15.2718
  22   2.0000      -0.559211       -15.2169
  23   2.0000      -0.496473       -13.5097
  24   2.0000      -0.493578       -13.4309
  25   2.0000      -0.457618       -12.4524
  26   2.0000      -0.444789       -12.1033
  27   2.0000      -0.428324       -11.6553
  28   2.0000      -0.405445       -11.0327
  29   2.0000      -0.399278       -10.8649
  30   2.0000      -0.395922       -10.7736
  31   2.0000      -0.392751       -10.6873
  32   2.0000      -0.371765       -10.1162
  33   2.0000      -0.367800       -10.0083
  34   2.0000      -0.344638        -9.3781
  35   2.0000      -0.332425        -9.0458
  36   2.0000      -0.328006        -8.9255
  37   2.0000      -0.318105        -8.6561
  38   2.0000      -0.311666        -8.4809
  39   2.0000      -0.234371        -6.3776
  40   2.0000      -0.226085        -6.1521
  41   0.0000      -0.012329        -0.3355
  42   0.0000       0.043432         1.1819
  43   0.0000       0.057031         1.5519
  44   0.0000       0.060894         1.6570
  45   0.0000       0.079982         2.1764

MULLIKEN ATOMIC CHARGES
-----------------------
   0 C :   -0.147064
   1 S :    0.088770
   2 C :   -0.143933
   3 C :   -0.054461
   4 C :   -0.036910
   5 C :    0.127279
   6 C :    0.034601
   7 C :   -0.103339
   8 C :    0.047725
   9 C :    0.174960
  10 H :    0.006402
  11 H :    0.006751
  12 H :    0.008848
  13 H :   -0.002021
  14 H :   -0.009352
  15 H :    0.001284
  16 H :   -0.017333
  17 H :    0.021540
  18 H :    0.002179
  19 H :    0.001216
  20 H :   -0.015678
  21 H :    0.008536
Sum of atomic charges:   -0.0000000

LOEWDIN ATOMIC CHARGES
----------------------
   0 C :   -0.205458
   1 S :    0.419269
   2 C :   -0.206473
   3 C :   -0.067310
   4 C :   -0.068460
   5 C :   -0.024727
   6 C :   -0.025426
   7 C :   -0.033185
   8 C :   -0.050093
   9 C :   -0.017340
  10 H :    0.019816
  11 H :    0.019852
  12 H :    0.028520
  13 H :    0.029068
  14 H :    0.019754
  15 H :    0.020566
  16 H :    0.020336
  17 H :    0.024403
  18 H :    0.020260
  19 H :    0.021942
  20 H :    0.024662
  21 H :    0.030025

  Mayer bond orders larger than 0.100000
B(  0-C ,  1-S ) :   1.1614 B(  0-C ,  4-C ) :   1.5529 B(  0-C , 10-H ) :   0.9655
B(  1-S ,  2-C ) :   1.1581 B(  2-C ,  3-C ) :   1.5518 B(  2-C , 11-H ) :   0.9641
B(  3-C ,  4-C ) :   1.2883 B(  3-C ,  9-C ) :   1.0355 B(  4-C ,  5-C ) :   1.0412
B(  5-C ,  6-C ) :   1.0863 B(  5-C , 12-H ) :   0.9155 B(  5-C , 13-H ) :   0.9168
B(  6-C ,  7-C ) :   1.0529 B(  6-C , 14-H ) :   0.9309 B(  6-C , 15-H ) :   0.9408
B(  7-C ,  8-C ) :   1.0680 B(  7-C ,  9-C ) :   1.0600 B(  7-C , 16-H ) :   0.9113
B(  8-C , 17-H ) :   0.9638 B(  8-C , 18-H ) :   0.9654 B(  8-C , 19-H ) :   0.9608
B(  9-C , 20-H ) :   0.9148 B(  9-C , 21-H ) :   0.9118

Dispersion correction           -0.044430191
FINAL SINGLE POINT ENERGY      -748.060538993750

DIPOLE MOMENT
-------------
                                X             Y             Z
Electronic contribution:     15.54579       0.72630       0.74908
Nuclear contribution   :    -15.97088      -0.72679      -0.69637
                        -----------------------------------------
Total Dipole Moment    :     -0.42509      -0.00049       0.05271
                        -----------------------------------------
Magnitude (a.u.)       :      0.42834
Magnitude (Debye)      :      1.08876

Rotational constants in cm-1:     0.081049     0.027157     0.023231
Rotational constants in MHz :  2429.780605   814.143831   696.436935

                             ****ORCA TERMINATED NORMALLY****
TOTAL RUN TIME: 0 days 0 hours 10 minutes 3 seconds 97 msec
