                         Program Version 4.2.0 -  RELEASE  -
|  1> # ORCA input file
|  2> # SCF done        -19.927228107686          0.000439343893
|  3> ! B3LYP/G D3BJ Opt RIJCOSX def2-SVP def2/J
|  4> * xyz 0 1
|  5>    C       -0.26834         1.05313        -0.14845
|  6>    O       -1.02748        -0.05017        -0.14039
|  7>    C       -0.20584        -1.10902         0.06104
|  8>    C        1.08932        -0.66446         0.18090
|  9>    C        1.04335         0.73902         0.04341
| 10>    C       -0.79676        -2.42206         0.11356
| 11>    C       -0.12973        -3.55098         0.33155
| 12>    H       -0.76640         1.99106        -0.29629
| 13>    H        1.96066        -1.26439         0.34369
| 14>    H        1.86911         1.41963         0.08302
| 15>    H       -1.86764        -2.43507        -0.03958
| 16>    H        0.93473        -3.56138         0.48813
| 17>    H       -0.63135        -4.50184         0.35995
| 18> *
| 19>
| 20>                          ****END OF INPUT****
 Total Charge           Charge          ....    0
 Multiplicity           Mult            ....    1
 Number of Electrons    NEL             ....   50
Dispersion correction           -0.018785939
FINAL SINGLE POINT ENERGY      -307.222614020676
Dispersion correction            ... done
Dispersion correction           -0.018749762
FINAL SINGLE POINT ENERGY      -307.224743520795
Dispersion correction            ... done
Dispersion correction           -0.018732740
FINAL SINGLE POINT ENERGY      -307.224843108913
Dispersion correction            ... done
FINAL SINGLE POINT ENERGY      -307.224850583565
Dispersion correction            ... done
Dispersion correction           -0.018713846
FINAL SINGLE POINT ENERGY      -307.224847401307
Dispersion correction            ... done
Dispersion correction           -0.018713017
FINAL SINGLE POINT ENERGY      -307.224848064828
Dispersion correction            ... done
                    ***********************HURRAY********************

CARTESIAN COORDINATES (ANGSTROEM)
---------------------------------
  C     -0.275575    1.068350   -0.153635
  O     -1.010375   -0.067517   -0.133685
  C     -0.161426   -1.118519    0.076621
  C      1.125633   -0.639895    0.188116
  C      1.048383    0.779316    0.038177
  C     -0.779718   -2.427344    0.126133
  C     -0.154182   -3.598120    0.325689
  H     -0.824045    1.992096   -0.317157
  H      2.017991   -1.236196    0.361645
  H      1.867726    1.493948    0.070295
  H     -1.863560   -2.408002   -0.029041
  H      0.925895   -3.658898    0.487404
  H     -0.713118   -4.535749    0.339978

 Multiplicity           Mult            ....    1
 Number of Electrons    NEL             ....   50
 Basis Dimension        Dim             ....  128

ORBITAL ENERGIES
----------------

  NO   OCC          E(Eh)            E(eV)
   0   2.0000     -19.201306      -522.4941
   1   2.0000     -10.241374      -278.6819
   2   2.0000     -10.239880      -278.6413
   3   2.0000     -10.201753      -277.6038
   4   2.0000     -10.191211      -277.3169
   5   2.0000     -10.190720      -277.3036
   6   2.0000     -10.189717      -277.2763
   7   2.0000      -1.105479       -30.0816
   8   2.0000      -0.800023       -21.7697
   9   2.0000      -0.788327       -21.4515
  10   2.0000      -0.720958       -19.6183
  11   2.0000      -0.616056       -16.7637
  12   2.0000      -0.590938       -16.0802
  13   2.0000      -0.549732       -14.9590
  14   2.0000      -0.517192       -14.0735
  15   2.0000      -0.471848       -12.8396
  16   2.0000      -0.459881       -12.5140
  17   2.0000      -0.427196       -11.6246
  18   2.0000      -0.418070       -11.3763
  19   2.0000      -0.404517       -11.0075
  20   2.0000      -0.380582       -10.3562
  21   2.0000      -0.361087        -9.8257
  22   2.0000      -0.310432        -8.4473
  23   2.0000      -0.283828        -7.7233
  24   2.0000      -0.214822        -5.8456
  25   0.0000      -0.036309        -0.9880
  26   0.0000       0.036972         1.0061
  27   0.0000       0.075356         2.0505
  28   0.0000       0.083476         2.2715
  29   0.0000       0.095043         2.5862

MULLIKEN ATOMIC CHARGES
-----------------------
   0 C :    0.132198
   1 O :   -0.216649
   2 C :    0.141083
   3 C :   -0.061171
   4 C :   -0.006206
   5 C :    0.011617
   6 C :   -0.033652
   7 H :    0.007532
   8 H :   -0.015579
   9 H :   -0.004353
  10 H :    0.003134
  11 H :    0.016909
  12 H :    0.025137
Sum of atomic charges:   -0.0000000

LOEWDIN ATOMIC CHARGES
----------------------
   0 C :    0.033097
   1 O :    0.002148
   2 C :    0.020237
   3 C :   -0.065231
   4 C :   -0.073208
   5 C :   -0.036440
   6 C :   -0.048813
   7 H :    0.022205
   8 H :    0.028752
   9 H :    0.030720
  10 H :    0.036920
  11 H :    0.022490
  12 H :    0.027123

  Mayer bond orders larger than 0.100000
B(  0-C ,  1-O ) :   1.1416 B(  0-C ,  4-C ) :   1.5272 B(  0-C ,  7-H ) :   1.0010
B(  1-O ,  2-C ) :   1.1174 B(  2-C ,  3-C ) :   1.5178 B(  2-C ,  5-C ) :   1.1100
B(  3-C ,  4-C ) :   1.2262 B(  3-C ,  8-H ) :   1.0016 B(  4-C ,  9-H ) :   0.9967
B(  5-C ,  6-C ) :   1.9152 B(  5-C , 10-H ) :   0.9476 B(  6-C , 11-H ) :   0.9529
B(  6-C , 12-H ) :   0.9468

Dispersion correction           -0.018713230
FINAL SINGLE POINT ENERGY      -307.224850061748

DIPOLE MOMENT
-------------
                                X             Y             Z
Electronic contribution:     -1.40277       3.10812      -0.47982
Nuclear contribution   :      1.61436      -2.99194       0.49480
                        -----------------------------------------
Total Dipole Moment    :      0.21158       0.11618       0.01497
                        -----------------------------------------
Magnitude (a.u.)       :      0.24185
Magnitude (Debye)      :      0.61473

Rotational constants in cm-1:     0.267059     0.066922     0.053513
Rotational constants in MHz :  8006.212684  2006.283302  1604.280306

                             ****ORCA TERMINATED NORMALLY****
TOTAL RUN TIME: 0 days 0 hours 3 minutes 53 seconds 793 msec
