                         Program Version 4.2.0 -  RELEASE  -
|  1> # ORCA input file
|  2> # SCF done        -53.130927155075          0.000712607527
|  3> ! B3LYP/G D3BJ Opt RIJCOSX def2-SVP def2/J
|  4> * xyz 0 1
|  5>    C       -0.72945         0.86504         0.30750
|  6>    C       -0.57891         0.48596        -0.98226
|  7>    C        0.47769        -0.44542        -1.17744
|  8>    C        1.12040        -0.74280         0.00977
|  9>    S        0.42242         0.12012         1.34450
| 10>    C        2.22783        -1.60195         0.19015
| 11>    C        2.70176        -2.54736        -0.70294
| 12>    C        2.18756        -2.93209        -2.02438
| 13>    O        2.47250        -4.02757        -2.46841
| 14>    N        1.48131        -2.04037        -2.82397
| 15>    C        0.77157        -0.87407        -2.54986
| 16>    O        0.32137        -0.22299        -3.47325
| 17>    C        1.39136        -2.46081        -4.22969
| 18>    C        0.13105        -3.27688        -4.48129
| 19>    C        3.80017        -3.26662        -0.18029
| 20>    C        4.17731        -2.87938         1.07621
| 21>    S        3.14209        -1.60794         1.66185
| 22>    C        5.24327        -3.36330         1.91414
| 23>    C        6.10373        -4.31926         1.57336
| 24>    H       -1.44755         1.54365         0.72248
| 25>    H       -1.18295         0.83866        -1.79780
| 26>    H        2.27599        -3.05793        -4.45174
| 27>    H        1.38795        -1.55703        -4.83996
| 28>    H        0.13279        -4.16898        -3.85993
| 29>    H        0.09481        -3.57665        -5.52481
| 30>    H       -0.75263        -2.68413        -4.25719
| 31>    H        4.27878        -4.04701        -0.74217
| 32>    H        5.31580        -2.88931         2.88414
| 33>    H        6.06180        -4.81346         0.61868
| 34>    H        6.87893        -4.63734         2.24759
| 35> *
| 36>
| 37>                          ****END OF INPUT****
 Total Charge           Charge          ....    0
 Multiplicity           Mult            ....    1
 Number of Electrons    NEL             ....  150
Dispersion correction           -0.076763608
FINAL SINGLE POINT ENERGY     -1541.005898111539
Dispersion correction            ... done
Dispersion correction           -0.076164705
FINAL SINGLE POINT ENERGY     -1541.010211071988
Dispersion correction            ... done
Dispersion correction           -0.076020744
FINAL SINGLE POINT ENERGY     -1541.010324444455
Dispersion correction            ... done
FINAL SINGLE POINT ENERGY     -1541.010240009588
FINAL SINGLE POINT ENERGY     -1541.010290003244
FINAL SINGLE POINT ENERGY     -1541.010301241256
FINAL SINGLE POINT ENERGY     -1541.010298817525
Dispersion correction            ... done
Dispersion correction           -0.076065864
FINAL SINGLE POINT ENERGY     -1541.010305023542
Dispersion correction            ... done
Dispersion correction           -0.076068313
FINAL SINGLE POINT ENERGY     -1541.010288669211
Dispersion correction            ... done
                    ***********************HURRAY********************

CARTESIAN COORDINATES (ANGSTROEM)
---------------------------------
  C     -0.722146    0.919067    0.323552
  C     -0.581662    0.526830   -0.977245
  C      0.458411   -0.443411   -1.167021
  C      1.108725   -0.750899    0.022981
  S      0.419203    0.130018    1.361151
  C      2.210482   -1.644992    0.213000
  C      2.678991   -2.611192   -0.671297
  C      2.147313   -2.993549   -2.003179
  O      2.413545   -4.102423   -2.435582
  N      1.468121   -2.078172   -2.833464
  C      0.729215   -0.912398   -2.547065
  O      0.215505   -0.304662   -3.473494
  C      1.391453   -2.491076   -4.257026
  C      0.084436   -3.204550   -4.585598
  C      3.780582   -3.347464   -0.141926
  C      4.174351   -2.936993    1.113360
  S      3.142428   -1.643897    1.681475
  C      5.275228   -3.380281    1.959007
  C      6.243555   -4.241005    1.605968
  H     -1.433113    1.629226    0.742848
  H     -1.180414    0.897142   -1.806789
  H      2.244786   -3.151367   -4.441386
  H      1.495673   -1.580111   -4.856980
  H     -0.040234   -4.093737   -3.951808
  H      0.089723   -3.534608   -5.636485
  H     -0.773534   -2.531388   -4.443700
  H      4.251366   -4.154176   -0.700922
  H      5.299851   -2.949179    2.965596
  H      6.288753   -4.691746    0.611202
  H      7.028157   -4.516229    2.313819

 Multiplicity           Mult            ....    1
 Number of Electrons    NEL             ....  150
 Basis Dimension        Dim             ....  329

ORBITAL ENERGIES
----------------

  NO   OCC          E(Eh)            E(eV)
   0   2.0000     -88.897122     -2419.0137
   1   2.0000     -88.896159     -2418.9875
   2   2.0000     -19.122278      -520.3436
   3   2.0000     -19.118018      -520.2277
   4   2.0000     -14.383161      -391.3857
   5   2.0000     -10.313157      -280.6353
   6   2.0000     -10.311177      -280.5814
   7   2.0000     -10.253422      -279.0098
   8   2.0000     -10.252743      -278.9913
   9   2.0000     -10.238930      -278.6154
  10   2.0000     -10.232162      -278.4313
  11   2.0000     -10.223863      -278.2055
  12   2.0000     -10.221580      -278.1433
  13   2.0000     -10.218979      -278.0726
  14   2.0000     -10.217668      -278.0369
  15   2.0000     -10.210963      -277.8544
  16   2.0000     -10.210344      -277.8376
  17   2.0000     -10.205542      -277.7069
  18   2.0000     -10.176870      -276.9267
  19   2.0000      -7.992228      -217.4796
  20   2.0000      -7.991399      -217.4570
  21   2.0000      -5.960412      -162.1911
  22   2.0000      -5.959446      -162.1648
  23   2.0000      -5.956182      -162.0759
  24   2.0000      -5.955521      -162.0580
  25   2.0000      -5.953492      -162.0028
  26   2.0000      -5.952564      -161.9775
  27   2.0000      -1.058551       -28.8046
  28   2.0000      -1.040001       -28.2999
  29   2.0000      -0.928568       -25.2676
  30   2.0000      -0.917672       -24.9711
  31   2.0000      -0.893910       -24.3245
  32   2.0000      -0.811018       -22.0689
  33   2.0000      -0.781538       -21.2667
  34   2.0000      -0.770775       -20.9738
  35   2.0000      -0.758256       -20.6332
  36   2.0000      -0.742494       -20.2043
  37   2.0000      -0.713205       -19.4073
  38   2.0000      -0.661782       -18.0080
  39   2.0000      -0.652897       -17.7662
  40   2.0000      -0.630701       -17.1622
  41   2.0000      -0.608317       -16.5531
  42   2.0000      -0.590589       -16.0708
  43   2.0000      -0.575492       -15.6599
  44   2.0000      -0.568132       -15.4597
  45   2.0000      -0.533727       -14.5235
  46   2.0000      -0.499651       -13.5962
  47   2.0000      -0.489773       -13.3274
  48   2.0000      -0.473586       -12.8869
  49   2.0000      -0.467901       -12.7322
  50   2.0000      -0.466378       -12.6908
  51   2.0000      -0.459165       -12.4945
  52   2.0000      -0.439873       -11.9696
  53   2.0000      -0.431935       -11.7535
  54   2.0000      -0.428573       -11.6621
  55   2.0000      -0.423701       -11.5295
  56   2.0000      -0.423402       -11.5214
  57   2.0000      -0.419063       -11.4033
  58   2.0000      -0.408707       -11.1215
  59   2.0000      -0.390106       -10.6153
  60   2.0000      -0.383530       -10.4364
  61   2.0000      -0.382019       -10.3953
  62   2.0000      -0.379993       -10.3401
  63   2.0000      -0.378491       -10.2993
  64   2.0000      -0.368762       -10.0345
  65   2.0000      -0.363328        -9.8867
  66   2.0000      -0.345312        -9.3964
  67   2.0000      -0.330319        -8.9884
  68   2.0000      -0.294988        -8.0270
  69   2.0000      -0.282488        -7.6869
  70   2.0000      -0.279137        -7.5957
  71   2.0000      -0.275266        -7.4904
  72   2.0000      -0.270060        -7.3487
  73   2.0000      -0.263361        -7.1664
  74   2.0000      -0.222280        -6.0485
  75   0.0000      -0.090497        -2.4626
  76   0.0000      -0.049805        -1.3553
  77   0.0000      -0.038656        -1.0519
  78   0.0000      -0.014902        -0.4055
  79   0.0000      -0.001986        -0.0540

MULLIKEN ATOMIC CHARGES
-----------------------
   0 C :   -0.056007
   1 C :    0.037346
   2 C :    0.005977
   3 C :   -0.110729
   4 S :    0.133095
   5 C :   -0.095328
   6 C :    0.026440
   7 C :    0.174035
   8 O :   -0.225262
   9 N :   -0.287198
  10 C :    0.181825
  11 O :   -0.230667
  12 C :    0.143958
  13 C :   -0.002579
  14 C :   -0.022313
  15 C :   -0.055571
  16 S :    0.137765
  17 C :    0.045712
  18 C :   -0.018265
  19 H :    0.040253
  20 H :    0.010337
  21 H :    0.024497
  22 H :    0.026473
  23 H :    0.021009
  24 H :    0.014921
  25 H :    0.027071
  26 H :    0.000702
  27 H :   -0.007657
  28 H :    0.026817
  29 H :    0.033344
Sum of atomic charges:    0.0000000

LOEWDIN ATOMIC CHARGES
----------------------
   0 C :   -0.176137
   1 C :   -0.026217
   2 C :   -0.094320
   3 C :   -0.175452
   4 S :    0.439632
   5 C :   -0.178291
   6 C :   -0.085277
   7 C :    0.094731
   8 O :   -0.180012
   9 N :   -0.035525
  10 C :    0.095368
  11 O :   -0.187130
  12 C :    0.051857
  13 C :   -0.057826
  14 C :   -0.022669
  15 C :   -0.163478
  16 S :    0.442425
  17 C :   -0.043821
  18 C :   -0.030198
  19 H :    0.031353
  20 H :    0.041615
  21 H :    0.024830
  22 H :    0.026881
  23 H :    0.025501
  24 H :    0.029538
  25 H :    0.025204
  26 H :    0.039427
  27 H :    0.029900
  28 H :    0.026887
  29 H :    0.031202

  Mayer bond orders larger than 0.100000
B(  0-C ,  1-C ) :   1.5523 B(  0-C ,  4-S ) :   1.1235 B(  0-C , 19-H ) :   0.9679
B(  1-C ,  2-C ) :   1.2623 B(  1-C , 20-H ) :   0.9916 B(  2-C ,  3-C ) :   1.4560
B(  2-C , 10-C ) :   0.9737 B(  3-C ,  4-S ) :   1.1478 B(  3-C ,  5-C ) :   1.1850
B(  5-C ,  6-C ) :   1.4596 B(  5-C , 16-S ) :   1.1363 B(  6-C ,  7-C ) :   0.9543
B(  6-C , 14-C ) :   1.2612 B(  7-C ,  8-O ) :   2.0627 B(  7-C ,  9-N ) :   1.0461
B(  9-N , 10-C ) :   1.0548 B(  9-N , 12-C ) :   0.9229 B( 10-C , 11-O ) :   2.0581
B( 12-C , 13-C ) :   1.1366 B( 12-C , 21-H ) :   0.9335 B( 12-C , 22-H ) :   0.9302
B( 13-C , 23-H ) :   0.9662 B( 13-C , 24-H ) :   0.9646 B( 13-C , 25-H ) :   0.9633
B( 14-C , 15-C ) :   1.4861 B( 14-C , 26-H ) :   0.9997 B( 15-C , 16-S ) :   1.0916
B( 15-C , 17-C ) :   1.0969 B( 17-C , 18-C ) :   1.9361 B( 17-C , 27-H ) :   0.9457
B( 18-C , 28-H ) :   0.9497 B( 18-C , 29-H ) :   0.9434

Dispersion correction           -0.076071286
FINAL SINGLE POINT ENERGY     -1541.010290287023

DIPOLE MOMENT
-------------
                                X             Y             Z
Electronic contribution:     -1.97421       9.19842      12.58252
Nuclear contribution   :      2.26366      -8.87657     -11.46462
                        -----------------------------------------
Total Dipole Moment    :      0.28946       0.32185       1.11790
                        -----------------------------------------
Magnitude (a.u.)       :      1.19878
Magnitude (Debye)      :      3.04704

Rotational constants in cm-1:     0.014208     0.009213     0.005768
Rotational constants in MHz :   425.941099   276.196910   172.929897

                             ****ORCA TERMINATED NORMALLY****
TOTAL RUN TIME: 0 days 0 hours 32 minutes 11 seconds 806 msec
