                         Program Version 4.2.0 -  RELEASE  -
|  1> # ORCA input file
|  2> # SCF done        -35.755454995565          0.000378990362
|  3> ! B3LYP/G D3BJ Opt RIJCOSX def2-SVP def2/J
|  4> * xyz 0 1
|  5>    C       -0.86314        -1.52806        -0.00195
|  6>    C       -2.06124        -0.86145        -0.01056
|  7>    C       -2.14327         0.54040        -0.00826
|  8>    C       -1.02753         1.35505         0.00291
|  9>    C        0.21387         0.68276         0.01231
| 10>    C        0.29479        -0.74311         0.00992
| 11>    N        1.59816        -1.06941         0.02547
| 12>    N        2.21323         0.08052         0.03749
| 13>    C        3.64589         0.16334         0.01823
| 14>    C        4.16003         0.19122        -1.41791
| 15>    N        1.47113         1.15318         0.02927
| 16>    C       -1.04229         2.80774         0.00387
| 17>    C       -2.11841         3.58680         0.00629
| 18>    H       -0.79931        -2.60400        -0.00447
| 19>    H       -2.98208        -1.42685        -0.02007
| 20>    H       -3.12497         0.98875        -0.01648
| 21>    H        4.03267        -0.71084         0.54552
| 22>    H        3.92917         1.07749         0.54357
| 23>    H        3.85738        -0.71261        -1.94104
| 24>    H        5.24463         0.25291        -1.42148
| 25>    H        3.75702         1.05364        -1.94339
| 26>    H       -0.05530         3.25153         0.00424
| 27>    H       -3.12131         3.19479         0.00872
| 28>    H       -2.03149         4.65970         0.00819
| 29> *
| 30>
| 31>                          ****END OF INPUT****
 Total Charge           Charge          ....    0
 Multiplicity           Mult            ....    1
 Number of Electrons    NEL             ....   92
Dispersion correction           -0.045082876
FINAL SINGLE POINT ENERGY      -551.544301786924
Dispersion correction            ... done
Dispersion correction           -0.044884767
FINAL SINGLE POINT ENERGY      -551.547980921463
Dispersion correction            ... done
Dispersion correction           -0.044867241
FINAL SINGLE POINT ENERGY      -551.548155208949
Dispersion correction            ... done
FINAL SINGLE POINT ENERGY      -551.548164773951
FINAL SINGLE POINT ENERGY      -551.548163717581
FINAL SINGLE POINT ENERGY      -551.548163749357
FINAL SINGLE POINT ENERGY      -551.548172347022
Dispersion correction            ... done
Dispersion correction           -0.044867179
FINAL SINGLE POINT ENERGY      -551.548185203920
Dispersion correction            ... done
Dispersion correction           -0.044863326
FINAL SINGLE POINT ENERGY      -551.548194052026
Dispersion correction            ... done
                    ***********************HURRAY********************

CARTESIAN COORDINATES (ANGSTROEM)
---------------------------------
  C     -0.880021   -1.566105    0.044832
  C     -2.082900   -0.885286    0.009243
  C     -2.152985    0.534882   -0.008921
  C     -1.022798    1.345697    0.007488
  C      0.221153    0.649989    0.042368
  C      0.293759   -0.778379    0.060096
  N      1.599703   -1.127862    0.088658
  N      2.224389    0.036532    0.096424
  C      3.676600    0.115190    0.010604
  C      4.137275    0.283800   -1.433739
  N      1.482692    1.130241    0.062330
  C     -1.027924    2.812680   -0.014005
  C     -2.101345    3.614845   -0.057656
  H     -0.826198   -2.655933    0.057924
  H     -3.018460   -1.449154   -0.007794
  H     -3.140319    0.999827   -0.039526
  H      4.061292   -0.811912    0.454729
  H      3.987068    0.964516    0.634252
  H      3.804385   -0.569351   -2.043752
  H      5.235516    0.340569   -1.482806
  H      3.718369    1.204770   -1.864333
  H     -0.031763    3.265043    0.008584
  H     -3.123649    3.227284   -0.083646
  H     -1.986208    4.701606   -0.070966

 Multiplicity           Mult            ....    1
 Number of Electrons    NEL             ....   92
 Basis Dimension        Dim             ....  237

ORBITAL ENERGIES
----------------

  NO   OCC          E(Eh)            E(eV)
   0   2.0000     -14.449035      -393.1782
   1   2.0000     -14.355914      -390.6443
   2   2.0000     -14.355508      -390.6332
   3   2.0000     -10.244255      -278.7603
   4   2.0000     -10.215591      -277.9804
   5   2.0000     -10.215187      -277.9694
   6   2.0000     -10.203842      -277.6607
   7   2.0000     -10.198910      -277.5264
   8   2.0000     -10.198035      -277.5026
   9   2.0000     -10.197131      -277.4780
  10   2.0000     -10.195005      -277.4202
  11   2.0000     -10.193618      -277.3825
  12   2.0000     -10.187948      -277.2282
  13   2.0000      -1.107992       -30.1500
  14   2.0000      -0.891245       -24.2520
  15   2.0000      -0.875946       -23.8357
  16   2.0000      -0.825672       -22.4677
  17   2.0000      -0.782209       -21.2850
  18   2.0000      -0.744181       -20.2502
  19   2.0000      -0.722512       -19.6606
  20   2.0000      -0.676723       -18.4146
  21   2.0000      -0.630425       -17.1547
  22   2.0000      -0.617226       -16.7956
  23   2.0000      -0.594749       -16.1840
  24   2.0000      -0.547909       -14.9094
  25   2.0000      -0.522473       -14.2172
  26   2.0000      -0.516800       -14.0628
  27   2.0000      -0.497479       -13.5371
  28   2.0000      -0.481601       -13.1050
  29   2.0000      -0.460953       -12.5432
  30   2.0000      -0.456644       -12.4259
  31   2.0000      -0.448226       -12.1969
  32   2.0000      -0.420109       -11.4317
  33   2.0000      -0.411711       -11.2032
  34   2.0000      -0.394695       -10.7402
  35   2.0000      -0.387696       -10.5497
  36   2.0000      -0.378065       -10.2877
  37   2.0000      -0.370288       -10.0761
  38   2.0000      -0.362477        -9.8635
  39   2.0000      -0.355250        -9.6668
  40   2.0000      -0.325461        -8.8562
  41   2.0000      -0.313414        -8.5284
  42   2.0000      -0.297622        -8.0987
  43   2.0000      -0.281593        -7.6625
  44   2.0000      -0.256928        -6.9914
  45   2.0000      -0.217683        -5.9234
  46   0.0000      -0.064749        -1.7619
  47   0.0000      -0.007846        -0.2135
  48   0.0000       0.017259         0.4696
  49   0.0000       0.061024         1.6606
  50   0.0000       0.064952         1.7674

MULLIKEN ATOMIC CHARGES
-----------------------
   0 C :   -0.058969
   1 C :    0.039441
   2 C :   -0.051377
   3 C :    0.058717
   4 C :   -0.019909
   5 C :    0.049362
   6 N :   -0.069385
   7 N :   -0.102803
   8 C :    0.167614
   9 C :   -0.021568
  10 N :   -0.082518
  11 C :   -0.006555
  12 C :   -0.022006
  13 H :   -0.021819
  14 H :   -0.016600
  15 H :   -0.032887
  16 H :    0.028110
  17 H :    0.030018
  18 H :    0.033319
  19 H :    0.030928
  20 H :    0.032454
  21 H :   -0.004081
  22 H :    0.012721
  23 H :    0.027794
Sum of atomic charges:   -0.0000000

LOEWDIN ATOMIC CHARGES
----------------------
   0 C :   -0.028663
   1 C :   -0.024413
   2 C :   -0.018801
   3 C :   -0.031974
   4 C :   -0.044468
   5 C :   -0.052142
   6 N :   -0.100823
   7 N :    0.147452
   8 C :    0.044056
   9 C :   -0.056393
  10 N :   -0.103863
  11 C :   -0.017712
  12 C :   -0.042133
  13 H :    0.033167
  14 H :    0.028368
  15 H :    0.025350
  16 H :    0.033946
  17 H :    0.033809
  18 H :    0.031826
  19 H :    0.033003
  20 H :    0.031233
  21 H :    0.032436
  22 H :    0.019386
  23 H :    0.027350

  Mayer bond orders larger than 0.100000
B(  0-C ,  1-C ) :   1.4445 B(  0-C ,  3-C ) :   0.1081 B(  0-C ,  5-C ) :   1.2167
B(  0-C , 13-H ) :   1.0142 B(  1-C ,  2-C ) :   1.2563 B(  1-C , 14-H ) :   0.9793
B(  2-C ,  3-C ) :   1.4513 B(  2-C , 15-H ) :   0.9855 B(  3-C ,  4-C ) :   1.1954
B(  3-C , 11-C ) :   1.1038 B(  4-C ,  5-C ) :   1.2133 B(  4-C , 10-N ) :   1.4454
B(  5-C ,  6-N ) :   1.4210 B(  6-N ,  7-N ) :   1.2207 B(  6-N , 10-N ) :   0.1746
B(  7-N ,  8-C ) :   0.9303 B(  7-N , 10-N ) :   1.2041 B(  8-C ,  9-C ) :   1.1155
B(  8-C , 16-H ) :   0.9415 B(  8-C , 17-H ) :   0.9425 B(  9-C , 18-H ) :   0.9667
B(  9-C , 19-H ) :   0.9658 B(  9-C , 20-H ) :   0.9669 B( 11-C , 12-C ) :   1.9072
B( 11-C , 21-H ) :   0.9618 B( 12-C , 22-H ) :   0.9440 B( 12-C , 23-H ) :   0.9476

Dispersion correction           -0.044863678
FINAL SINGLE POINT ENERGY      -551.548195333904

DIPOLE MOMENT
-------------
                                X             Y             Z
Electronic contribution:     -3.48641      -3.64459       3.02261
Nuclear contribution   :      3.88806       3.66907      -3.14133
                        -----------------------------------------
Total Dipole Moment    :      0.40165       0.02448      -0.11872
                        -----------------------------------------
Magnitude (a.u.)       :      0.41954
Magnitude (Debye)      :      1.06638

Rotational constants in cm-1:     0.046351     0.019328     0.014239
Rotational constants in MHz :  1389.560320   579.441393   426.883558

                             ****ORCA TERMINATED NORMALLY****
TOTAL RUN TIME: 0 days 0 hours 14 minutes 56 seconds 937 msec
