                         Program Version 4.2.0 -  RELEASE  -
|  1> # ORCA input file
|  2> # SCF done        -39.146826718051          0.000406134250
|  3> ! B3LYP/G D3BJ Opt RIJCOSX def2-SVP def2/J
|  4> * xyz 0 1
|  5>    C       -1.43704         1.25871        -0.11894
|  6>    S       -2.53893        -0.03225        -0.15131
|  7>    C       -1.28995        -1.22847        -0.02694
|  8>    C       -0.03899        -0.62227         0.00227
|  9>    C       -0.13144         0.81665        -0.03863
| 10>    C        1.03737         1.60164        -0.00205
| 11>    C        2.24956         0.96784         0.04370
| 12>    N        3.45252         1.75214         0.08695
| 13>    O        3.33893         2.96167         0.09399
| 14>    O        4.51331         1.16214         0.11671
| 15>    C        2.35869        -0.44617         0.02595
| 16>    C        1.24409        -1.22402         0.00311
| 17>    C       -1.68455        -2.61142         0.04665
| 18>    C       -1.00284        -3.59565         0.62769
| 19>    H       -1.78520         2.27137        -0.15542
| 20>    H        0.98102         2.67927        -0.01539
| 21>    H        3.34751        -0.87689         0.02393
| 22>    H        1.32958        -2.29687        -0.04152
| 23>    H       -2.65588        -2.82277        -0.38308
| 24>    H       -0.06578        -3.43497         1.13037
| 25>    H       -1.38654        -4.60066         0.63834
| 26> *
| 27>
| 28>                          ****END OF INPUT****
 Total Charge           Charge          ....    0
 Multiplicity           Mult            ....    1
 Number of Electrons    NEL             ....  106
Dispersion correction           -0.048803542
FINAL SINGLE POINT ENERGY      -988.048003860792
Dispersion correction            ... done
Dispersion correction           -0.048481937
FINAL SINGLE POINT ENERGY      -988.051416631153
Dispersion correction            ... done
Dispersion correction           -0.048427212
FINAL SINGLE POINT ENERGY      -988.051404258473
Dispersion correction            ... done
FINAL SINGLE POINT ENERGY      -988.051457551142
FINAL SINGLE POINT ENERGY      -988.051622370322
Dispersion correction            ... done
Dispersion correction           -0.048432965
FINAL SINGLE POINT ENERGY      -988.051588853554
Dispersion correction            ... done
Dispersion correction           -0.048425875
FINAL SINGLE POINT ENERGY      -988.051625478166
Dispersion correction            ... done
                    ***********************HURRAY********************

CARTESIAN COORDINATES (ANGSTROEM)
---------------------------------
  C     -1.454201    1.277287   -0.112344
  S     -2.548901   -0.029516   -0.147738
  C     -1.305917   -1.236485   -0.025102
  C     -0.044264   -0.621484    0.014977
  C     -0.137093    0.829437   -0.027917
  C      1.046033    1.620411   -0.001422
  C      2.255348    0.976985    0.039738
  N      3.485041    1.791398    0.062787
  O      3.366617    3.006888    0.046830
  O      4.550892    1.196778    0.097712
  C      2.377633   -0.445306    0.046015
  C      1.251302   -1.226608    0.036854
  C     -1.709007   -2.632435    0.046160
  C     -1.026513   -3.644051    0.609333
  H     -1.805813    2.306174   -0.156265
  H      1.010764    2.709396   -0.020879
  H      3.376397   -0.878600    0.048562
  H      1.345405   -2.312434    0.021353
  H     -2.691621   -2.853936   -0.386423
  H     -0.070787   -3.497786    1.115375
  H     -1.435872   -4.657092    0.598777

 Multiplicity           Mult            ....    1
 Number of Electrons    NEL             ....  106
 Basis Dimension        Dim             ....  235

ORBITAL ENERGIES
----------------

  NO   OCC          E(Eh)            E(eV)
   0   2.0000     -88.907160     -2419.2868
   1   2.0000     -19.161182      -521.4023
   2   2.0000     -19.159643      -521.3604
   3   2.0000     -14.558016      -396.1438
   4   2.0000     -10.251159      -278.9482
   5   2.0000     -10.240505      -278.6583
   6   2.0000     -10.238119      -278.5934
   7   2.0000     -10.228039      -278.3191
   8   2.0000     -10.226599      -278.2799
   9   2.0000     -10.224024      -278.2098
  10   2.0000     -10.221603      -278.1439
  11   2.0000     -10.217787      -278.0401
  12   2.0000     -10.215498      -277.9778
  13   2.0000     -10.206225      -277.7255
  14   2.0000      -8.001914      -217.7431
  15   2.0000      -5.969477      -162.4377
  16   2.0000      -5.965464      -162.3285
  17   2.0000      -5.964361      -162.2985
  18   2.0000      -1.221021       -33.2257
  19   2.0000      -1.046752       -28.4836
  20   2.0000      -0.917892       -24.9771
  21   2.0000      -0.868688       -23.6382
  22   2.0000      -0.808038       -21.9878
  23   2.0000      -0.792838       -21.5742
  24   2.0000      -0.766527       -20.8583
  25   2.0000      -0.723063       -19.6755
  26   2.0000      -0.692115       -18.8334
  27   2.0000      -0.635129       -17.2828
  28   2.0000      -0.619177       -16.8487
  29   2.0000      -0.582329       -15.8460
  30   2.0000      -0.567400       -15.4397
  31   2.0000      -0.545177       -14.8350
  32   2.0000      -0.539765       -14.6878
  33   2.0000      -0.521734       -14.1971
  34   2.0000      -0.501049       -13.6342
  35   2.0000      -0.491316       -13.3694
  36   2.0000      -0.479694       -13.0531
  37   2.0000      -0.462046       -12.5729
  38   2.0000      -0.453350       -12.3363
  39   2.0000      -0.435751       -11.8574
  40   2.0000      -0.428866       -11.6700
  41   2.0000      -0.408758       -11.1229
  42   2.0000      -0.391230       -10.6459
  43   2.0000      -0.375360       -10.2141
  44   2.0000      -0.366109        -9.9623
  45   2.0000      -0.362638        -9.8679
  46   2.0000      -0.329544        -8.9674
  47   2.0000      -0.311536        -8.4773
  48   2.0000      -0.309552        -8.4233
  49   2.0000      -0.292854        -7.9690
  50   2.0000      -0.290621        -7.9082
  51   2.0000      -0.277658        -7.5555
  52   2.0000      -0.221195        -6.0190
  53   0.0000      -0.100654        -2.7389
  54   0.0000      -0.073712        -2.0058
  55   0.0000      -0.019388        -0.5276
  56   0.0000       0.003696         0.1006
  57   0.0000       0.016637         0.4527

MULLIKEN ATOMIC CHARGES
-----------------------
   0 C :   -0.113505
   1 S :    0.165571
   2 C :   -0.172106
   3 C :    0.153557
   4 C :    0.073046
   5 C :   -0.057936
   6 C :    0.175268
   7 N :    0.230498
   8 O :   -0.243077
   9 O :   -0.241256
  10 C :   -0.013430
  11 C :   -0.030249
  12 C :    0.022747
  13 C :   -0.036215
  14 H :    0.031848
  15 H :    0.003342
  16 H :    0.003677
  17 H :   -0.013947
  18 H :   -0.000613
  19 H :    0.030615
  20 H :    0.032164
Sum of atomic charges:   -0.0000000

LOEWDIN ATOMIC CHARGES
----------------------
   0 C :   -0.191947
   1 S :    0.505567
   2 C :   -0.186095
   3 C :   -0.039637
   4 C :   -0.049769
   5 C :    0.015992
   6 C :   -0.029076
   7 N :    0.275705
   8 O :   -0.210612
   9 O :   -0.205593
  10 C :   -0.020849
  11 C :   -0.008557
  12 C :   -0.044343
  13 C :   -0.043468
  14 H :    0.031369
  15 H :    0.042662
  16 H :    0.039730
  17 H :    0.033181
  18 H :    0.031203
  19 H :    0.024351
  20 H :    0.030186

  Mayer bond orders larger than 0.100000
B(  0-C ,  1-S ) :   1.2162 B(  0-C ,  2-C ) :   0.1084 B(  0-C ,  4-C ) :   1.3760
B(  0-C , 14-H ) :   0.9674 B(  1-S ,  2-C ) :   1.1690 B(  2-C ,  3-C ) :   1.3682
B(  2-C , 12-C ) :   1.1065 B(  3-C ,  4-C ) :   1.1910 B(  3-C , 11-C ) :   1.1888
B(  4-C ,  5-C ) :   1.1442 B(  5-C ,  6-C ) :   1.4992 B(  5-C , 15-H ) :   0.9969
B(  6-C ,  7-N ) :   0.8601 B(  6-C , 10-C ) :   1.2103 B(  7-N ,  8-O ) :   1.5491
B(  7-N ,  9-O ) :   1.5428 B(  8-O ,  9-O ) :   0.2767 B( 10-C , 11-C ) :   1.5030
B( 10-C , 16-H ) :   0.9813 B( 11-C , 17-H ) :   0.9889 B( 12-C , 13-C ) :   1.9178
B( 12-C , 18-H ) :   0.9440 B( 13-C , 19-H ) :   0.9540 B( 13-C , 20-H ) :   0.9435

Dispersion correction           -0.048426904
FINAL SINGLE POINT ENERGY      -988.051627826627

DIPOLE MOMENT
-------------
                                X             Y             Z
Electronic contribution:      1.72924       8.29510      -0.96444
Nuclear contribution   :     -3.52141      -9.21169       0.92093
                        -----------------------------------------
Total Dipole Moment    :     -1.79217      -0.91659      -0.04350
                        -----------------------------------------
Magnitude (a.u.)       :      2.01343
Magnitude (Debye)      :      5.11774

Rotational constants in cm-1:     0.045379     0.012184     0.009644
Rotational constants in MHz :  1360.441715   365.266115   289.124624

                             ****ORCA TERMINATED NORMALLY****
TOTAL RUN TIME: 0 days 0 hours 14 minutes 35 seconds 680 msec
