                         Program Version 4.2.0 -  RELEASE  -
|  1> # ORCA input file
|  2> # SCF done        -42.063780383858          0.000400919843
|  3> ! B3LYP/G D3BJ Opt RIJCOSX def2-SVP def2/J
|  4> * xyz 0 1
|  5>    C        0.26582         1.21007        -0.26286
|  6>    S       -1.04938         0.28208        -0.86295
|  7>    C       -0.09750        -1.14667        -0.86394
|  8>    C        1.16797        -0.91662        -0.42202
|  9>    N        2.15776        -1.89914        -0.23214
| 10>    O        1.74813        -3.13863        -0.75682
| 11>    O        3.39568        -1.55492        -0.79192
| 12>    C        1.37955         0.45434        -0.06950
| 13>    N        2.64636         0.92800         0.30703
| 14>    O        3.18901         0.21160         1.40784
| 15>    O        2.59819         2.28852         0.64772
| 16>    C        3.74001         2.95178         0.28569
| 17>    C        3.93082         4.21772         0.60591
| 18>    H        0.15461         2.25986        -0.08753
| 19>    H       -0.51687        -2.08009        -1.17739
| 20>    H        2.07604        -3.80914        -0.14101
| 21>    H        3.30781        -1.38908        -1.74697
| 22>    H        3.84204        -0.39257         1.02379
| 23>    H        4.45302         2.36090        -0.27580
| 24>    H        3.19860         4.76558         1.17008
| 25>    H        4.82414         4.73013         0.30626
| 26> *
| 27>
| 28>                          ****END OF INPUT****
 Total Charge           Charge          ....    0
 Multiplicity           Mult            ....    1
 Number of Electrons    NEL             ....  106
Dispersion correction           -0.039009786
FINAL SINGLE POINT ENERGY     -1041.219802899211
Dispersion correction            ... done
Dispersion correction           -0.039204616
FINAL SINGLE POINT ENERGY     -1041.224716713008
Dispersion correction            ... done
Dispersion correction           -0.039214787
FINAL SINGLE POINT ENERGY     -1041.225362604683
Dispersion correction            ... done
FINAL SINGLE POINT ENERGY     -1041.225416641600
FINAL SINGLE POINT ENERGY     -1041.225586791844
FINAL SINGLE POINT ENERGY     -1041.225547769324
FINAL SINGLE POINT ENERGY     -1041.225586113692
FINAL SINGLE POINT ENERGY     -1041.225586620530
Dispersion correction            ... done
Dispersion correction           -0.039240301
FINAL SINGLE POINT ENERGY     -1041.225581359538
Dispersion correction            ... done
Dispersion correction           -0.039239963
FINAL SINGLE POINT ENERGY     -1041.225585938127
Dispersion correction            ... done
                    ***********************HURRAY********************

CARTESIAN COORDINATES (ANGSTROEM)
---------------------------------
  C      0.302915    1.222397   -0.398761
  S     -1.042344    0.259358   -0.897640
  C     -0.114792   -1.195091   -0.789834
  C      1.175358   -0.948013   -0.388841
  N      2.142300   -1.963705   -0.136765
  O      1.705711   -3.151851   -0.737400
  O      3.392655   -1.631494   -0.690762
  C      1.415463    0.457966   -0.155851
  N      2.702115    0.963094    0.161685
  O      3.236401    0.289503    1.286010
  O      2.570795    2.309909    0.520784
  C      3.708132    3.013943    0.228291
  C      3.947115    4.203116    0.778319
  H      0.227019    2.301393   -0.302014
  H     -0.546185   -2.164458   -1.018052
  H      2.011479   -3.835246   -0.122618
  H      3.240522   -1.414263   -1.632414
  H      3.882832   -0.302294    0.864320
  H      4.359171    2.519507   -0.499494
  H      3.264077    4.632596    1.514168
  H      4.831071    4.767355    0.480338

 Multiplicity           Mult            ....    1
 Number of Electrons    NEL             ....  106
 Basis Dimension        Dim             ....  226

ORBITAL ENERGIES
----------------

  NO   OCC          E(Eh)            E(eV)
   0   2.0000     -88.880207     -2418.5534
   1   2.0000     -19.193834      -522.2908
   2   2.0000     -19.188977      -522.1586
   3   2.0000     -19.188130      -522.1356
   4   2.0000     -19.161022      -521.3979
   5   2.0000     -14.446961      -393.1218
   6   2.0000     -14.438746      -392.8982
   7   2.0000     -10.242584      -278.7149
   8   2.0000     -10.237673      -278.5813
   9   2.0000     -10.235786      -278.5299
  10   2.0000     -10.217894      -278.0430
  11   2.0000     -10.214903      -277.9616
  12   2.0000     -10.177044      -276.9315
  13   2.0000      -7.975239      -217.0173
  14   2.0000      -5.943423      -161.7288
  15   2.0000      -5.939452      -161.6207
  16   2.0000      -5.936315      -161.5353
  17   2.0000      -1.140320       -31.0297
  18   2.0000      -1.132882       -30.8273
  19   2.0000      -1.027684       -27.9647
  20   2.0000      -1.018922       -27.7263
  21   2.0000      -0.902039       -24.5457
  22   2.0000      -0.832133       -22.6435
  23   2.0000      -0.816964       -22.2307
  24   2.0000      -0.744595       -20.2614
  25   2.0000      -0.707095       -19.2410
  26   2.0000      -0.692532       -18.8447
  27   2.0000      -0.613238       -16.6870
  28   2.0000      -0.594743       -16.1838
  29   2.0000      -0.577051       -15.7024
  30   2.0000      -0.570336       -15.5196
  31   2.0000      -0.556288       -15.1374
  32   2.0000      -0.541664       -14.7394
  33   2.0000      -0.494819       -13.4647
  34   2.0000      -0.487271       -13.2593
  35   2.0000      -0.473891       -12.8952
  36   2.0000      -0.448486       -12.2039
  37   2.0000      -0.440822       -11.9954
  38   2.0000      -0.425366       -11.5748
  39   2.0000      -0.418289       -11.3822
  40   2.0000      -0.406554       -11.0629
  41   2.0000      -0.394148       -10.7253
  42   2.0000      -0.385088       -10.4788
  43   2.0000      -0.372909       -10.1474
  44   2.0000      -0.370708       -10.0875
  45   2.0000      -0.349261        -9.5039
  46   2.0000      -0.328692        -8.9442
  47   2.0000      -0.322623        -8.7790
  48   2.0000      -0.297476        -8.0947
  49   2.0000      -0.281246        -7.6531
  50   2.0000      -0.242902        -6.6097
  51   2.0000      -0.235110        -6.3977
  52   2.0000      -0.221676        -6.0321
  53   0.0000      -0.023034        -0.6268
  54   0.0000       0.015365         0.4181
  55   0.0000       0.021514         0.5854
  56   0.0000       0.036091         0.9821
  57   0.0000       0.053791         1.4637

MULLIKEN ATOMIC CHARGES
-----------------------
   0 C :   -0.150001
   1 S :    0.110854
   2 C :   -0.137068
   3 C :    0.130833
   4 N :   -0.002760
   5 O :   -0.206654
   6 O :   -0.226192
   7 C :    0.188071
   8 N :   -0.007042
   9 O :   -0.213509
  10 O :   -0.231853
  11 C :    0.146655
  12 C :   -0.066429
  13 H :    0.029327
  14 H :    0.017705
  15 H :    0.191315
  16 H :    0.169610
  17 H :    0.192928
  18 H :    0.004805
  19 H :    0.031246
  20 H :    0.028159
Sum of atomic charges:   -0.0000000

LOEWDIN ATOMIC CHARGES
----------------------
   0 C :   -0.207304
   1 S :    0.437556
   2 C :   -0.205277
   3 C :   -0.074685
   4 N :    0.077779
   5 O :   -0.083595
   6 O :   -0.090965
   7 C :   -0.061250
   8 N :    0.085218
   9 O :   -0.095354
  10 O :   -0.061361
  11 C :    0.043594
  12 C :   -0.112229
  13 H :    0.031131
  14 H :    0.027630
  15 H :    0.084406
  16 H :    0.066157
  17 H :    0.062797
  18 H :    0.012649
  19 H :    0.030752
  20 H :    0.032351

  Mayer bond orders larger than 0.100000
B(  0-C ,  1-S ) :   1.1387 B(  0-C ,  7-C ) :   1.5401 B(  0-C , 13-H ) :   0.9596
B(  1-S ,  2-C ) :   1.1479 B(  2-C ,  3-C ) :   1.5303 B(  2-C , 14-H ) :   0.9595
B(  3-C ,  4-N ) :   0.9867 B(  3-C ,  7-C ) :   1.2716 B(  4-N ,  5-O ) :   0.9943
B(  4-N ,  6-O ) :   0.9367 B(  5-O , 15-H ) :   0.9672 B(  6-O , 16-H ) :   0.9482
B(  7-C ,  8-N ) :   0.9950 B(  8-N ,  9-O ) :   0.9559 B(  8-N , 10-O ) :   0.9501
B(  9-O , 17-H ) :   0.9492 B( 10-O , 11-C ) :   1.0153 B( 11-C , 12-C ) :   1.9453
B( 11-C , 18-H ) :   0.9594 B( 12-C , 19-H ) :   0.9506 B( 12-C , 20-H ) :   0.9509

Dispersion correction           -0.039239915
FINAL SINGLE POINT ENERGY     -1041.225589624094

DIPOLE MOMENT
-------------
                                X             Y             Z
Electronic contribution:     -6.86074      -4.99032      -1.25629
Nuclear contribution   :      7.02819       4.31862       0.53623
                        -----------------------------------------
Total Dipole Moment    :      0.16745      -0.67169      -0.72006
                        -----------------------------------------
Magnitude (a.u.)       :      0.99885
Magnitude (Debye)      :      2.53887

Rotational constants in cm-1:     0.034037     0.016997     0.011875
Rotational constants in MHz :  1020.413572   509.560359   356.001295

                             ****ORCA TERMINATED NORMALLY****
TOTAL RUN TIME: 0 days 0 hours 16 minutes 27 seconds 797 msec
