                         Program Version 4.2.0 -  RELEASE  -
|  1> # ORCA input file
|  2> # SCF done        -33.917389484001          0.000620189530
|  3> ! B3LYP/G D3BJ Opt RIJCOSX def2-SVP def2/J
|  4> * xyz 0 1
|  5>    C        1.60576         1.24938        -0.05104
|  6>    S        2.79489         0.00581        -0.04797
|  7>    C        1.56608        -1.19715        -0.01999
|  8>    C        0.31663        -0.66350        -0.01481
|  9>    C        0.33826         0.76005        -0.02913
| 10>    C       -0.90304         1.60130         0.03515
| 11>    C       -1.00967         2.25883         1.41603
| 12>    C       -2.13465         0.74659        -0.28464
| 13>    C       -2.11379        -0.58524         0.45875
| 14>    C       -0.95248        -1.45872        -0.04198
| 15>    C       -1.26969        -1.98292        -1.41892
| 16>    C       -0.66809        -1.63352        -2.53970
| 17>    H        1.92088         2.27382        -0.06940
| 18>    H        1.84210        -2.23287        -0.01683
| 19>    H       -0.82922         2.40265        -0.70979
| 20>    H       -1.03682         1.50799         2.20166
| 21>    H       -1.91265         2.86209         1.47963
| 22>    H       -0.15067         2.90112         1.59361
| 23>    H       -2.16328         0.54462        -1.35812
| 24>    H       -3.03640         1.30412        -0.02309
| 25>    H       -3.05770        -1.11116         0.30079
| 26>    H       -2.00181        -0.41318         1.53036
| 27>    H       -0.84925        -2.32631         0.62254
| 28>    H       -2.08919        -2.69035        -1.44132
| 29>    H        0.14694        -0.92987        -2.55709
| 30>    H       -0.96329        -2.04273        -3.49128
| 31> *
| 32>
| 33>                          ****END OF INPUT****
 Total Charge           Charge          ....    0
 Multiplicity           Mult            ....    1
 Number of Electrons    NEL             ....   96
Dispersion correction           -0.056965608
FINAL SINGLE POINT ENERGY      -825.402426489478
Dispersion correction            ... done
Dispersion correction           -0.056094606
FINAL SINGLE POINT ENERGY      -825.406400426482
Dispersion correction            ... done
Dispersion correction           -0.055917929
FINAL SINGLE POINT ENERGY      -825.406543275823
Dispersion correction            ... done
FINAL SINGLE POINT ENERGY      -825.406385495955
FINAL SINGLE POINT ENERGY      -825.406397888911
FINAL SINGLE POINT ENERGY      -825.406455256570
FINAL SINGLE POINT ENERGY      -825.406449722991
FINAL SINGLE POINT ENERGY      -825.406433762366
Dispersion correction            ... done
Dispersion correction           -0.055792023
FINAL SINGLE POINT ENERGY      -825.406427474943
Dispersion correction            ... done
Dispersion correction           -0.055789737
FINAL SINGLE POINT ENERGY      -825.406424174840
Dispersion correction            ... done
                    ***********************HURRAY********************

CARTESIAN COORDINATES (ANGSTROEM)
---------------------------------
  C      1.624591    1.311140   -0.087449
  S      2.811147    0.055887   -0.159477
  C      1.587787   -1.162748   -0.108583
  C      0.322650   -0.625922   -0.047426
  C      0.342859    0.814048   -0.026634
  C     -0.912049    1.654272    0.108788
  C     -1.023298    2.274565    1.513537
  C     -2.158573    0.819157   -0.248326
  C     -2.147911   -0.561570    0.411013
  C     -0.960969   -1.424558   -0.078901
  C     -1.272977   -2.016662   -1.440398
  C     -0.570987   -1.880992   -2.567316
  H      1.936317    2.354935   -0.081096
  H      1.862591   -2.215654   -0.152724
  H     -0.841070    2.489156   -0.608913
  H     -1.125067    1.497584    2.287169
  H     -1.899808    2.939665    1.581108
  H     -0.127182    2.865180    1.758041
  H     -2.211916    0.689574   -1.342293
  H     -3.061568    1.374020    0.055297
  H     -3.090532   -1.090143    0.193423
  H     -2.091698   -0.455339    1.506759
  H     -0.860670   -2.279310    0.614901
  H     -2.195926   -2.610747   -1.462668
  H      0.357338   -1.304440   -2.602365
  H     -0.903229   -2.360249   -3.492047

 Multiplicity           Mult            ....    1
 Number of Electrons    NEL             ....   96
 Basis Dimension        Dim             ....  242

ORBITAL ENERGIES
----------------

  NO   OCC          E(Eh)            E(eV)
   0   2.0000     -88.866606     -2418.1833
   1   2.0000     -10.201777      -277.6045
   2   2.0000     -10.201009      -277.5836
   3   2.0000     -10.199500      -277.5425
   4   2.0000     -10.194390      -277.4035
   5   2.0000     -10.189484      -277.2699
   6   2.0000     -10.188089      -277.2320
   7   2.0000     -10.187498      -277.2159
   8   2.0000     -10.186968      -277.2015
   9   2.0000     -10.182081      -277.0685
  10   2.0000     -10.180149      -277.0159
  11   2.0000     -10.178184      -276.9625
  12   2.0000      -7.961569      -216.6453
  13   2.0000      -5.929606      -161.3528
  14   2.0000      -5.925514      -161.2414
  15   2.0000      -5.923195      -161.1783
  16   2.0000      -0.877432       -23.8762
  17   2.0000      -0.821070       -22.3425
  18   2.0000      -0.788562       -21.4579
  19   2.0000      -0.733011       -19.9462
  20   2.0000      -0.722183       -19.6516
  21   2.0000      -0.699334       -19.0299
  22   2.0000      -0.668969       -18.2036
  23   2.0000      -0.612657       -16.6712
  24   2.0000      -0.575009       -15.6468
  25   2.0000      -0.566270       -15.4090
  26   2.0000      -0.552363       -15.0306
  27   2.0000      -0.495276       -13.4772
  28   2.0000      -0.487594       -13.2681
  29   2.0000      -0.469105       -12.7650
  30   2.0000      -0.455638       -12.3985
  31   2.0000      -0.431761       -11.7488
  32   2.0000      -0.429664       -11.6917
  33   2.0000      -0.411614       -11.2006
  34   2.0000      -0.404327       -11.0023
  35   2.0000      -0.396547       -10.7906
  36   2.0000      -0.385397       -10.4872
  37   2.0000      -0.380415       -10.3516
  38   2.0000      -0.368108       -10.0167
  39   2.0000      -0.357627        -9.7315
  40   2.0000      -0.345701        -9.4070
  41   2.0000      -0.332328        -9.0431
  42   2.0000      -0.324790        -8.8380
  43   2.0000      -0.321083        -8.7371
  44   2.0000      -0.316202        -8.6043
  45   2.0000      -0.261017        -7.1026
  46   2.0000      -0.238817        -6.4985
  47   2.0000      -0.227182        -6.1819
  48   0.0000      -0.015100        -0.4109
  49   0.0000       0.012449         0.3387
  50   0.0000       0.046800         1.2735
  51   0.0000       0.054820         1.4917
  52   0.0000       0.062395         1.6978

MULLIKEN ATOMIC CHARGES
-----------------------
   0 C :   -0.152388
   1 S :    0.092256
   2 C :   -0.140049
   3 C :   -0.035649
   4 C :    0.019767
   5 C :   -0.009569
   6 C :    0.051630
   7 C :    0.068126
   8 C :    0.038964
   9 C :    0.107834
  10 C :   -0.085634
  11 C :    0.001082
  12 H :    0.008976
  13 H :    0.011734
  14 H :   -0.009763
  15 H :    0.006764
  16 H :    0.007436
  17 H :    0.005840
  18 H :    0.002872
  19 H :   -0.014430
  20 H :   -0.011161
  21 H :    0.000632
  22 H :   -0.000416
  23 H :   -0.005751
  24 H :    0.029216
  25 H :    0.011681
Sum of atomic charges:    0.0000000

LOEWDIN ATOMIC CHARGES
----------------------
   0 C :   -0.205428
   1 S :    0.423968
   2 C :   -0.200110
   3 C :   -0.059622
   4 C :   -0.056322
   5 C :   -0.025844
   6 C :   -0.044894
   7 C :   -0.024214
   8 C :   -0.019758
   9 C :   -0.024868
  10 C :   -0.022884
  11 C :   -0.061346
  12 H :    0.019728
  13 H :    0.021920
  14 H :    0.028062
  15 H :    0.020633
  16 H :    0.020257
  17 H :    0.021806
  18 H :    0.023095
  19 H :    0.019651
  20 H :    0.020485
  21 H :    0.019677
  22 H :    0.036349
  23 H :    0.022153
  24 H :    0.024545
  25 H :    0.022963

  Mayer bond orders larger than 0.100000
B(  0-C ,  1-S ) :   1.1607 B(  0-C ,  4-C ) :   1.5403 B(  0-C , 12-H ) :   0.9627
B(  1-S ,  2-C ) :   1.1607 B(  2-C ,  3-C ) :   1.5374 B(  2-C , 13-H ) :   0.9658
B(  3-C ,  4-C ) :   1.3102 B(  3-C ,  9-C ) :   0.9878 B(  4-C ,  5-C ) :   0.9941
B(  5-C ,  6-C ) :   1.0762 B(  5-C ,  7-C ) :   1.0619 B(  5-C , 14-H ) :   0.8965
B(  6-C , 15-H ) :   0.9598 B(  6-C , 16-H ) :   0.9619 B(  6-C , 17-H ) :   0.9627
B(  7-C ,  8-C ) :   1.0684 B(  7-C , 18-H ) :   0.9333 B(  7-C , 19-H ) :   0.9305
B(  8-C ,  9-C ) :   1.0562 B(  8-C , 20-H ) :   0.9302 B(  8-C , 21-H ) :   0.9359
B(  9-C , 10-C ) :   0.9971 B(  9-C , 22-H ) :   0.8771 B( 10-C , 11-C ) :   2.0174
B( 10-C , 23-H ) :   0.9588 B( 11-C , 24-H ) :   0.9296 B( 11-C , 25-H ) :   0.9445

Dispersion correction           -0.055788843
FINAL SINGLE POINT ENERGY      -825.406424670146

DIPOLE MOMENT
-------------
                                X             Y             Z
Electronic contribution:     14.10857      -2.16762      -1.05308
Nuclear contribution   :    -14.45789       2.20911       1.14275
                        -----------------------------------------
Total Dipole Moment    :     -0.34932       0.04149       0.08967
                        -----------------------------------------
Magnitude (a.u.)       :      0.36302
Magnitude (Debye)      :      0.92273

Rotational constants in cm-1:     0.034101     0.027795     0.017600
Rotational constants in MHz :  1022.330624   833.260880   527.627289

                             ****ORCA TERMINATED NORMALLY****
TOTAL RUN TIME: 0 days 0 hours 18 minutes 53 seconds 709 msec
