                         Program Version 4.2.0 -  RELEASE  -
|  1> # ORCA input file
|  2> # SCF done        -30.960316578113          0.000570909997
|  3> ! B3LYP/G D3BJ Opt RIJCOSX def2-SVP def2/J
|  4> * xyz 0 1
|  5>    C       -2.81957         0.45511         0.00275
|  6>    C       -3.14974        -0.85351         0.00455
|  7>    S       -1.77878        -1.91113         0.00614
|  8>    C       -0.70540        -0.54556         0.00458
|  9>    C       -1.41100         0.67112         0.00283
| 10>    C       -0.70898         1.88842         0.00134
| 11>    C        0.66011         1.89581         0.00147
| 12>    C        1.37523         0.68616         0.00320
| 13>    C        0.68280        -0.53806         0.00479
| 14>    S        1.77088        -1.89198         0.00677
| 15>    C        3.13033        -0.81960         0.00532
| 16>    C        2.78606         0.48537         0.00364
| 17>    H       -3.53857         1.25486         0.00150
| 18>    H       -4.12982        -1.28886         0.00499
| 19>    H       -1.26679         2.81259         0.00000
| 20>    H        1.20792         2.82594         0.00033
| 21>    H        4.11506        -1.24435         0.00587
| 22>    H        3.49637         1.29284         0.00260
| 23> *
| 24>
| 25>                          ****END OF INPUT****
 Total Charge           Charge          ....    0
 Multiplicity           Mult            ....    1
 Number of Electrons    NEL             ....   98
Dispersion correction           -0.047906060
FINAL SINGLE POINT ENERGY     -1180.614660977099
Dispersion correction            ... done
Dispersion correction           -0.047775673
FINAL SINGLE POINT ENERGY     -1180.617726511568
Dispersion correction            ... done
Dispersion correction           -0.047760612
FINAL SINGLE POINT ENERGY     -1180.617814163310
Dispersion correction            ... done
Dispersion correction           -0.047762229
FINAL SINGLE POINT ENERGY     -1180.617825712735
Dispersion correction            ... done
Dispersion correction           -0.047766160
FINAL SINGLE POINT ENERGY     -1180.617827963631
Dispersion correction            ... done
                    ***********************HURRAY********************

CARTESIAN COORDINATES (ANGSTROEM)
---------------------------------
  C     -2.849999    0.451774    0.003040
  C     -3.181348   -0.870694    0.004242
  S     -1.786675   -1.923626    0.006932
  C     -0.712924   -0.546684    0.004812
  C     -1.427121    0.676642    0.003134
  C     -0.715259    1.904253    0.001511
  C      0.666371    1.911583    0.001456
  C      1.391248    0.691640    0.003053
  C      0.690254   -0.539245    0.004771
  S      1.778985   -1.904414    0.006495
  C      3.162060   -0.836385    0.005439
  C      2.816421    0.482453    0.003377
  H     -3.585087    1.257757    0.001582
  H     -4.177540   -1.310878    0.004117
  H     -1.272539    2.843519    0.000117
  H      1.213814    2.856672    0.000102
  H      4.162966   -1.265762    0.006225
  H      3.542482    1.296564    0.002266

 Multiplicity           Mult            ....    1
 Number of Electrons    NEL             ....   98
 Basis Dimension        Dim             ....  206

ORBITAL ENERGIES
----------------

  NO   OCC          E(Eh)            E(eV)
   0   2.0000     -88.874691     -2418.4033
   1   2.0000     -88.874606     -2418.4010
   2   2.0000     -10.224107      -278.2121
   3   2.0000     -10.223797      -278.2037
   4   2.0000     -10.219313      -278.0816
   5   2.0000     -10.219308      -278.0815
   6   2.0000     -10.202067      -277.6124
   7   2.0000     -10.201993      -277.6103
   8   2.0000     -10.198751      -277.5221
   9   2.0000     -10.198724      -277.5214
  10   2.0000     -10.196495      -277.4607
  11   2.0000     -10.196060      -277.4489
  12   2.0000      -7.969522      -216.8617
  13   2.0000      -7.969454      -216.8599
  14   2.0000      -5.937942      -161.5796
  15   2.0000      -5.937900      -161.5785
  16   2.0000      -5.933855      -161.4684
  17   2.0000      -5.933835      -161.4679
  18   2.0000      -5.930203      -161.3690
  19   2.0000      -5.930188      -161.3686
  20   2.0000      -0.900946       -24.5160
  21   2.0000      -0.869466       -23.6594
  22   2.0000      -0.810437       -22.0531
  23   2.0000      -0.761610       -20.7245
  24   2.0000      -0.743710       -20.2374
  25   2.0000      -0.704500       -19.1704
  26   2.0000      -0.699228       -19.0270
  27   2.0000      -0.602559       -16.3965
  28   2.0000      -0.601445       -16.3662
  29   2.0000      -0.573321       -15.6009
  30   2.0000      -0.543957       -14.8018
  31   2.0000      -0.516775       -14.0622
  32   2.0000      -0.472570       -12.8593
  33   2.0000      -0.466746       -12.7008
  34   2.0000      -0.461411       -12.5556
  35   2.0000      -0.422467       -11.4959
  36   2.0000      -0.418859       -11.3977
  37   2.0000      -0.411587       -11.1999
  38   2.0000      -0.395555       -10.7636
  39   2.0000      -0.375766       -10.2251
  40   2.0000      -0.374041       -10.1782
  41   2.0000      -0.367953       -10.0125
  42   2.0000      -0.359622        -9.7858
  43   2.0000      -0.334215        -9.0944
  44   2.0000      -0.322309        -8.7705
  45   2.0000      -0.285176        -7.7600
  46   2.0000      -0.267034        -7.2664
  47   2.0000      -0.222055        -6.0424
  48   2.0000      -0.218085        -5.9344
  49   0.0000      -0.042665        -1.1610
  50   0.0000      -0.015888        -0.4323
  51   0.0000       0.012729         0.3464
  52   0.0000       0.014861         0.4044
  53   0.0000       0.057185         1.5561

MULLIKEN ATOMIC CHARGES
-----------------------
   0 C :    0.024386
   1 C :   -0.066809
   2 S :    0.108956
   3 C :   -0.117517
   4 C :    0.081472
   5 C :   -0.012628
   6 C :   -0.013095
   7 C :    0.081289
   8 C :   -0.116905
   9 S :    0.109011
  10 C :   -0.066723
  11 C :    0.024323
  12 H :   -0.015576
  13 H :    0.028579
  14 H :   -0.030868
  15 H :   -0.030881
  16 H :    0.028602
  17 H :   -0.015615
Sum of atomic charges:   -0.0000000

LOEWDIN ATOMIC CHARGES
----------------------
   0 C :   -0.058544
   1 C :   -0.170988
   2 S :    0.397525
   3 C :   -0.177913
   4 C :   -0.050209
   5 C :   -0.025729
   6 C :   -0.025803
   7 C :   -0.050203
   8 C :   -0.177936
   9 S :    0.397575
  10 C :   -0.170994
  11 C :   -0.058523
  12 H :    0.031509
  13 H :    0.026451
  14 H :    0.027926
  15 H :    0.027916
  16 H :    0.026448
  17 H :    0.031492

  Mayer bond orders larger than 0.100000
B(  0-C ,  1-C ) :   1.6091 B(  0-C ,  4-C ) :   1.1793 B(  0-C , 12-H ) :   0.9908
B(  1-C ,  2-S ) :   1.1090 B(  1-C , 13-H ) :   0.9661 B(  2-S ,  3-C ) :   1.0812
B(  3-C ,  4-C ) :   1.3531 B(  3-C ,  8-C ) :   1.3928 B(  4-C ,  5-C ) :   1.2427
B(  5-C ,  6-C ) :   1.4671 B(  5-C , 14-H ) :   0.9889 B(  6-C ,  7-C ) :   1.2429
B(  6-C , 15-H ) :   0.9889 B(  7-C ,  8-C ) :   1.3530 B(  7-C , 11-C ) :   1.1795
B(  8-C ,  9-S ) :   1.0810 B(  9-S , 10-C ) :   1.1092 B( 10-C , 11-C ) :   1.6088
B( 10-C , 16-H ) :   0.9661 B( 11-C , 17-H ) :   0.9909

Dispersion correction           -0.047767524
FINAL SINGLE POINT ENERGY     -1180.617827975998

DIPOLE MOMENT
-------------
                                X             Y             Z
Electronic contribution:      0.03976      -7.36327       0.01142
Nuclear contribution   :     -0.04150       7.69400      -0.01215
                        -----------------------------------------
Total Dipole Moment    :     -0.00174       0.33073      -0.00073
                        -----------------------------------------
Magnitude (a.u.)       :      0.33073
Magnitude (Debye)      :      0.84065

Rotational constants in cm-1:     0.047456     0.021806     0.014941
Rotational constants in MHz :  1422.706019   653.722947   447.911109

                             ****ORCA TERMINATED NORMALLY****
TOTAL RUN TIME: 0 days 0 hours 6 minutes 23 seconds 784 msec
