                         Program Version 4.2.0 -  RELEASE  -
|  1> # ORCA input file
|  2> # SCF done        -27.271771883658          0.000716581318
|  3> ! B3LYP/G D3BJ Opt RIJCOSX def2-SVP def2/J
|  4> * xyz 0 1
|  5>    C        0.46362         1.73404         0.23560
|  6>    S       -0.77716         0.75607        -0.42390
|  7>    C        0.18221        -0.66236        -0.17836
|  8>    C       -0.35653        -1.95946        -0.57341
|  9>    O       -1.43969        -2.12885        -1.07871
| 10>    O        0.50566        -2.95653        -0.30364
| 11>    C        0.06901        -4.25939        -0.66134
| 12>    C        1.39596        -0.36247         0.38512
| 13>    C        1.55439         1.01294         0.62137
| 14>    H        0.31993         2.79454         0.30289
| 15>    H        0.77969        -4.95163        -0.21665
| 16>    H        0.05872        -4.36928        -1.74799
| 17>    H       -0.93796        -4.44053        -0.27998
| 18>    H        2.13193        -1.11139         0.61339
| 19>    H        2.43524         1.44939         1.05680
| 20> *
| 21>
| 22>                          ****END OF INPUT****
 Total Charge           Charge          ....    0
 Multiplicity           Mult            ....    1
 Number of Electrons    NEL             ....   74
Dispersion correction           -0.027044283
FINAL SINGLE POINT ENERGY      -780.523111806435
Dispersion correction            ... done
Dispersion correction           -0.026943269
FINAL SINGLE POINT ENERGY      -780.524588130373
Dispersion correction            ... done
Dispersion correction           -0.026936525
FINAL SINGLE POINT ENERGY      -780.524630428892
Dispersion correction            ... done
FINAL SINGLE POINT ENERGY      -780.524635431151
FINAL SINGLE POINT ENERGY      -780.524647999941
FINAL SINGLE POINT ENERGY      -780.524661042367
FINAL SINGLE POINT ENERGY      -780.524665902334
FINAL SINGLE POINT ENERGY      -780.524609795036
FINAL SINGLE POINT ENERGY      -780.524590858828
FINAL SINGLE POINT ENERGY      -780.524626964631
FINAL SINGLE POINT ENERGY      -780.524650053527
FINAL SINGLE POINT ENERGY      -780.524688651017
Dispersion correction            ... done
Dispersion correction           -0.026948715
FINAL SINGLE POINT ENERGY      -780.524680649810
Dispersion correction            ... done
Dispersion correction           -0.026946725
FINAL SINGLE POINT ENERGY      -780.524687186079
Dispersion correction            ... done
                    ***********************HURRAY********************

CARTESIAN COORDINATES (ANGSTROEM)
---------------------------------
  C      0.465916    1.759565    0.215861
  S     -0.733653    0.770277   -0.521705
  C      0.211956   -0.657691   -0.224564
  C     -0.329507   -1.962999   -0.631660
  O     -1.402150   -2.128519   -1.167802
  O      0.515368   -2.968702   -0.325839
  C      0.051591   -4.279948   -0.646010
  C      1.399970   -0.358503    0.412584
  C      1.545987    1.032607    0.667111
  H      0.310622    2.835591    0.288001
  H      0.877863   -4.963450   -0.415664
  H     -0.227587   -4.350427   -1.708311
  H     -0.832473   -4.537211   -0.043492
  H      2.123860   -1.124850    0.687036
  H      2.407257    1.479350    1.165647

 Multiplicity           Mult            ....    1
 Number of Electrons    NEL             ....   74
 Basis Dimension        Dim             ....  160

ORBITAL ENERGIES
----------------

  NO   OCC          E(Eh)            E(eV)
   0   2.0000     -88.884202     -2418.6621
   1   2.0000     -19.179374      -521.8973
   2   2.0000     -19.120316      -520.2902
   3   2.0000     -10.319007      -280.7945
   4   2.0000     -10.246653      -278.8256
   5   2.0000     -10.225796      -278.2580
   6   2.0000     -10.222446      -278.1669
   7   2.0000     -10.208305      -277.7821
   8   2.0000     -10.204737      -277.6850
   9   2.0000      -7.979118      -217.1228
  10   2.0000      -5.947160      -161.8304
  11   2.0000      -5.942930      -161.7154
  12   2.0000      -5.940685      -161.6543
  13   2.0000      -1.097338       -29.8601
  14   2.0000      -1.006680       -27.3932
  15   2.0000      -0.889397       -24.2017
  16   2.0000      -0.763134       -20.7659
  17   2.0000      -0.744289       -20.2531
  18   2.0000      -0.708530       -19.2801
  19   2.0000      -0.613811       -16.7027
  20   2.0000      -0.567375       -15.4391
  21   2.0000      -0.551058       -14.9950
  22   2.0000      -0.531441       -14.4613
  23   2.0000      -0.487322       -13.2607
  24   2.0000      -0.472365       -12.8537
  25   2.0000      -0.462456       -12.5841
  26   2.0000      -0.419503       -11.4153
  27   2.0000      -0.414511       -11.2794
  28   2.0000      -0.411733       -11.2038
  29   2.0000      -0.397440       -10.8149
  30   2.0000      -0.378487       -10.2992
  31   2.0000      -0.361589        -9.8393
  32   2.0000      -0.357349        -9.7240
  33   2.0000      -0.307572        -8.3695
  34   2.0000      -0.282854        -7.6968
  35   2.0000      -0.265899        -7.2355
  36   2.0000      -0.252642        -6.8747
  37   0.0000      -0.057671        -1.5693
  38   0.0000       0.024142         0.6569
  39   0.0000       0.039057         1.0628
  40   0.0000       0.070141         1.9086
  41   0.0000       0.075117         2.0440

MULLIKEN ATOMIC CHARGES
-----------------------
   0 C :   -0.073044
   1 S :    0.168728
   2 C :   -0.200795
   3 C :    0.235469
   4 O :   -0.223781
   5 O :   -0.313862
   6 C :    0.195975
   7 C :    0.055599
   8 C :    0.028332
   9 H :    0.039396
  10 H :    0.030987
  11 H :    0.030683
  12 H :    0.027403
  13 H :    0.001504
  14 H :   -0.002594
Sum of atomic charges:   -0.0000000

LOEWDIN ATOMIC CHARGES
----------------------
   0 C :   -0.175806
   1 S :    0.475896
   2 C :   -0.228423
   3 C :    0.063722
   4 O :   -0.187590
   5 O :   -0.101010
   6 C :    0.085625
   7 C :   -0.028305
   8 C :   -0.068056
   9 H :    0.028385
  10 H :    0.023975
  11 H :    0.022030
  12 H :    0.021499
  13 H :    0.036305
  14 H :    0.031755

  Mayer bond orders larger than 0.100000
B(  0-C ,  1-S ) :   1.1986 B(  0-C ,  2-C ) :   0.1032 B(  0-C ,  8-C ) :   1.5326
B(  0-C ,  9-H ) :   0.9678 B(  1-S ,  2-C ) :   1.1530 B(  2-C ,  3-C ) :   0.9994
B(  2-C ,  7-C ) :   1.5161 B(  3-C ,  4-O ) :   2.0965 B(  3-C ,  5-O ) :   1.2108
B(  5-O ,  6-C ) :   0.9253 B(  6-C , 10-H ) :   0.9792 B(  6-C , 11-H ) :   0.9711
B(  6-C , 12-H ) :   0.9745 B(  7-C ,  8-C ) :   1.2626 B(  7-C , 13-H ) :   0.9912
B(  8-C , 14-H ) :   0.9876

Dispersion correction           -0.026946210
FINAL SINGLE POINT ENERGY      -780.524683759087

DIPOLE MOMENT
-------------
                                X             Y             Z
Electronic contribution:     -3.31908       5.34605      -1.25029
Nuclear contribution   :      4.09544      -5.29818       1.67582
                        -----------------------------------------
Total Dipole Moment    :      0.77636       0.04787       0.42552
                        -----------------------------------------
Magnitude (a.u.)       :      0.88662
Magnitude (Debye)      :      2.25362

Rotational constants in cm-1:     0.115642     0.030754     0.024409
Rotational constants in MHz :  3466.846884   921.976741   731.754117

                             ****ORCA TERMINATED NORMALLY****
TOTAL RUN TIME: 0 days 0 hours 9 minutes 31 seconds 248 msec
