                         Program Version 4.2.0 -  RELEASE  -
|  1> # ORCA input file
|  2> # SCF done        -39.998199227140          0.000940289798
|  3> ! B3LYP/G D3BJ Opt RIJCOSX def2-SVP def2/J
|  4> * xyz 0 1
|  5>    C        0.23943         1.17106        -0.12724
|  6>    S       -0.84560        -0.13293        -0.18716
|  7>    C        0.43536        -1.30479         0.00688
|  8>    C        1.64492        -0.66708         0.11793
|  9>    C        1.53121         0.74596         0.04045
| 10>    N        2.64223         1.63908         0.15815
| 11>    O        2.42306         2.81658        -0.01179
| 12>    O        3.71412         1.14550         0.42792
| 13>    N        2.92037        -1.35065         0.30701
| 14>    O        3.18140        -1.69072         1.43057
| 15>    O        3.56818        -1.55401        -0.68687
| 16>    C        0.09049        -2.70616         0.02111
| 17>    C        0.93476        -3.72872        -0.08108
| 18>    H       -0.08782         2.18928        -0.20602
| 19>    H       -0.97254        -2.89327         0.10612
| 20>    H        1.99803        -3.61923        -0.20140
| 21>    H        0.56911        -4.73994        -0.05814
| 22> *
| 23>
| 24>                          ****END OF INPUT****
 Total Charge           Charge          ....    0
 Multiplicity           Mult            ....    1
 Number of Electrons    NEL             ....  102
Dispersion correction           -0.038159702
FINAL SINGLE POINT ENERGY     -1038.833514351222
Dispersion correction            ... done
Dispersion correction           -0.037882021
FINAL SINGLE POINT ENERGY     -1038.836358850704
Dispersion correction            ... done
Dispersion correction           -0.037836206
FINAL SINGLE POINT ENERGY     -1038.836206654459
Dispersion correction            ... done
FINAL SINGLE POINT ENERGY     -1038.836528854599
FINAL SINGLE POINT ENERGY     -1038.836373410426
FINAL SINGLE POINT ENERGY     -1038.836468883454
FINAL SINGLE POINT ENERGY     -1038.836518712886
FINAL SINGLE POINT ENERGY     -1038.836582086906
FINAL SINGLE POINT ENERGY     -1038.836591309931
FINAL SINGLE POINT ENERGY     -1038.836657402607
FINAL SINGLE POINT ENERGY     -1038.836463030118
FINAL SINGLE POINT ENERGY     -1038.836575774984
FINAL SINGLE POINT ENERGY     -1038.836568188825
FINAL SINGLE POINT ENERGY     -1038.836585591473
FINAL SINGLE POINT ENERGY     -1038.836591241875
FINAL SINGLE POINT ENERGY     -1038.836593865471
FINAL SINGLE POINT ENERGY     -1038.836597803629
Dispersion correction            ... done
Dispersion correction           -0.037725835
FINAL SINGLE POINT ENERGY     -1038.836600474667
Dispersion correction            ... done
Dispersion correction           -0.037727516
FINAL SINGLE POINT ENERGY     -1038.836611120989
Dispersion correction            ... done
                    ***********************HURRAY********************

CARTESIAN COORDINATES (ANGSTROEM)
---------------------------------
  C      0.242587    1.186255   -0.094610
  S     -0.824105   -0.144893   -0.242759
  C      0.465563   -1.320655   -0.079463
  C      1.668375   -0.659007    0.072080
  C      1.537267    0.761035    0.066573
  N      2.641748    1.703363    0.191838
  O      2.351988    2.863260    0.432054
  O      3.767038    1.261589    0.031607
  N      2.946490   -1.349882    0.291904
  O      3.404708   -1.290123    1.414021
  O      3.418871   -1.948982   -0.655867
  C      0.093304   -2.729924   -0.087685
  C      0.900787   -3.798818   -0.012139
  H     -0.093417    2.219820   -0.131243
  H     -0.985535   -2.901936   -0.167222
  H      1.988071   -3.731573    0.044218
  H      0.462972   -4.799569   -0.016867

 Multiplicity           Mult            ....    1
 Number of Electrons    NEL             ....  102
 Basis Dimension        Dim             ....  206

ORBITAL ENERGIES
----------------

  NO   OCC          E(Eh)            E(eV)
   0   2.0000     -88.930667     -2419.9265
   1   2.0000     -19.187127      -522.1083
   2   2.0000     -19.186353      -522.0872
   3   2.0000     -19.182111      -521.9718
   4   2.0000     -19.180376      -521.9246
   5   2.0000     -14.585246      -396.8847
   6   2.0000     -14.583133      -396.8272
   7   2.0000     -10.284322      -279.8506
   8   2.0000     -10.283589      -279.8307
   9   2.0000     -10.276171      -279.6288
  10   2.0000     -10.270237      -279.4674
  11   2.0000     -10.238979      -278.6168
  12   2.0000     -10.223689      -278.2007
  13   2.0000      -8.025572      -218.3869
  14   2.0000      -5.993511      -163.0917
  15   2.0000      -5.989572      -162.9845
  16   2.0000      -5.986997      -162.9145
  17   2.0000      -1.249604       -34.0034
  18   2.0000      -1.243041       -33.8249
  19   2.0000      -1.076094       -29.2820
  20   2.0000      -1.070814       -29.1383
  21   2.0000      -0.950524       -25.8651
  22   2.0000      -0.844335       -22.9755
  23   2.0000      -0.833843       -22.6900
  24   2.0000      -0.792319       -21.5601
  25   2.0000      -0.718914       -19.5626
  26   2.0000      -0.699443       -19.0328
  27   2.0000      -0.642900       -17.4942
  28   2.0000      -0.613411       -16.6918
  29   2.0000      -0.577928       -15.7262
  30   2.0000      -0.568509       -15.4699
  31   2.0000      -0.561675       -15.2840
  32   2.0000      -0.544398       -14.8138
  33   2.0000      -0.534705       -14.5501
  34   2.0000      -0.528724       -14.3873
  35   2.0000      -0.513669       -13.9776
  36   2.0000      -0.499447       -13.5906
  37   2.0000      -0.481971       -13.1151
  38   2.0000      -0.445573       -12.1247
  39   2.0000      -0.441244       -12.0069
  40   2.0000      -0.411592       -11.2000
  41   2.0000      -0.398646       -10.8477
  42   2.0000      -0.351279        -9.5588
  43   2.0000      -0.340174        -9.2566
  44   2.0000      -0.335285        -9.1236
  45   2.0000      -0.328804        -8.9472
  46   2.0000      -0.327420        -8.9095
  47   2.0000      -0.325781        -8.8649
  48   2.0000      -0.315529        -8.5860
  49   2.0000      -0.298633        -8.1262
  50   2.0000      -0.265565        -7.2264
  51   0.0000      -0.106525        -2.8987
  52   0.0000      -0.099830        -2.7165
  53   0.0000      -0.077936        -2.1208
  54   0.0000      -0.013428        -0.3654
  55   0.0000       0.001625         0.0442

MULLIKEN ATOMIC CHARGES
-----------------------
   0 C :   -0.104581
   1 S :    0.178156
   2 C :   -0.164698
   3 C :    0.164796
   4 C :    0.176817
   5 N :    0.245785
   6 O :   -0.236472
   7 O :   -0.228546
   8 N :    0.226313
   9 O :   -0.204773
  10 O :   -0.214963
  11 C :    0.030449
  12 C :   -0.018386
  13 H :    0.053949
  14 H :    0.002400
  15 H :    0.053890
  16 H :    0.039861
Sum of atomic charges:   -0.0000000

LOEWDIN ATOMIC CHARGES
----------------------
   0 C :   -0.152444
   1 S :    0.504222
   2 C :   -0.155290
   3 C :   -0.044324
   4 C :   -0.057624
   5 N :    0.276908
   6 O :   -0.197799
   7 O :   -0.190773
   8 N :    0.274548
   9 O :   -0.168116
  10 O :   -0.176081
  11 C :   -0.054784
  12 C :   -0.005787
  13 H :    0.047077
  14 H :    0.034250
  15 H :    0.029627
  16 H :    0.036390

  Mayer bond orders larger than 0.100000
B(  0-C ,  1-S ) :   1.1850 B(  0-C ,  4-C ) :   1.5083 B(  0-C , 13-H ) :   0.9538
B(  1-S ,  2-C ) :   1.1489 B(  2-C ,  3-C ) :   1.5081 B(  2-C , 11-C ) :   1.1185
B(  3-C ,  4-C ) :   1.2799 B(  3-C ,  8-N ) :   0.8328 B(  4-C ,  5-N ) :   0.8856
B(  5-N ,  6-O ) :   1.5296 B(  5-N ,  7-O ) :   1.5235 B(  6-O ,  7-O ) :   0.2916
B(  8-N ,  9-O ) :   1.5503 B(  8-N , 10-O ) :   1.5186 B(  9-O , 10-O ) :   0.3087
B( 11-C , 12-C ) :   1.9227 B( 11-C , 14-H ) :   0.9399 B( 12-C , 15-H ) :   0.9525
B( 12-C , 16-H ) :   0.9406

Dispersion correction           -0.037727726
FINAL SINGLE POINT ENERGY     -1038.836611226296

DIPOLE MOMENT
-------------
                                X             Y             Z
Electronic contribution:      2.23378       6.62053       0.24167
Nuclear contribution   :     -4.51774      -7.22913      -0.54204
                        -----------------------------------------
Total Dipole Moment    :     -2.28396      -0.60861      -0.30037
                        -----------------------------------------
Magnitude (a.u.)       :      2.38267
Magnitude (Debye)      :      6.05626

Rotational constants in cm-1:     0.033341     0.023320     0.014589
Rotational constants in MHz :   999.535599   699.113129   437.355984

                             ****ORCA TERMINATED NORMALLY****
TOTAL RUN TIME: 0 days 0 hours 34 minutes 2 seconds 759 msec
