                         Program Version 4.2.0 -  RELEASE  -
|  1> # ORCA input file
|  2> # SCF done        -34.071513549569          0.000599964804
|  3> ! B3LYP/G D3BJ Opt RIJCOSX def2-SVP def2/J
|  4> * xyz 0 1
|  5>    N        4.21413         0.96235         1.40327
|  6>    C        3.36332         0.24172         0.76651
|  7>    C        2.10956         0.78177         0.19669
|  8>    C        3.74352        -1.16653         0.66388
|  9>    C        5.06606        -1.22206         1.35663
| 10>    C        5.29648         0.19906         1.82184
| 11>    O        6.23244         0.57165         2.47672
| 12>    C        5.66551        -2.38203         2.02379
| 13>    C        5.61462        -3.20032         3.21903
| 14>    N        6.19075        -2.11284         0.91960
| 15>    C        3.09084        -2.12942         0.08241
| 16>    O        2.49150        -2.98554        -0.42091
| 17>    H        1.24846         0.28174         0.63802
| 18>    H        2.08252         0.60863        -0.87808
| 19>    H        2.05399         1.84773         0.39618
| 20>    H        5.89471        -2.58128         4.07295
| 21>    H        6.30067        -4.04173         3.13784
| 22>    H        4.59812        -3.55818         3.38368
| 23> *
| 24>
| 25>                          ****END OF INPUT****
 Total Charge           Charge          ....    0
 Multiplicity           Mult            ....    1
 Number of Electrons    NEL             ....   84
Dispersion correction           -0.033585286
FINAL SINGLE POINT ENERGY      -567.933059154292
Dispersion correction            ... done
Dispersion correction           -0.033302643
FINAL SINGLE POINT ENERGY      -567.936228381869
Dispersion correction            ... done
Dispersion correction           -0.033192451
FINAL SINGLE POINT ENERGY      -567.936808322068
Dispersion correction            ... done
FINAL SINGLE POINT ENERGY      -567.937000546828
FINAL SINGLE POINT ENERGY      -567.937041567127
FINAL SINGLE POINT ENERGY      -567.937129941918
FINAL SINGLE POINT ENERGY      -567.937165224402
FINAL SINGLE POINT ENERGY      -567.937182661947
FINAL SINGLE POINT ENERGY      -567.937178164551
FINAL SINGLE POINT ENERGY      -567.937155816591
FINAL SINGLE POINT ENERGY      -567.937124172719
FINAL SINGLE POINT ENERGY      -567.937077938133
FINAL SINGLE POINT ENERGY      -567.937038393039
FINAL SINGLE POINT ENERGY      -567.937001579709
FINAL SINGLE POINT ENERGY      -567.937008624694
FINAL SINGLE POINT ENERGY      -567.937036639182
FINAL SINGLE POINT ENERGY      -567.937082806815
Dispersion correction            ... done
Dispersion correction           -0.033139381
FINAL SINGLE POINT ENERGY      -567.937136600817
Dispersion correction            ... done
Dispersion correction           -0.033138919
FINAL SINGLE POINT ENERGY      -567.937179271814
Dispersion correction            ... done
                    ***********************HURRAY********************

CARTESIAN COORDINATES (ANGSTROEM)
---------------------------------
  N      4.221443    0.998591    1.365938
  C      3.345671    0.266922    0.751432
  C      2.092530    0.819797    0.157150
  C      3.696814   -1.162690    0.683316
  C      5.006324   -1.265458    1.398171
  C      5.292608    0.179189    1.795592
  O      6.271042    0.536105    2.399769
  C      5.617996   -2.388526    2.085129
  C      5.691788   -3.234980    3.290644
  N      6.157421   -2.171569    0.973003
  C      3.011270   -2.101774    0.051561
  O      2.406652   -2.922286   -0.505337
  H      1.223936    0.197970    0.425465
  H      2.167233    0.825912   -0.943745
  H      1.934848    1.847628    0.506169
  H      5.980218   -2.602080    4.145483
  H      6.432382   -4.036660    3.161759
  H      4.707025   -3.671371    3.518551

 Multiplicity           Mult            ....    1
 Number of Electrons    NEL             ....   84
 Basis Dimension        Dim             ....  198

ORBITAL ENERGIES
----------------

  NO   OCC          E(Eh)            E(eV)
   0   2.0000     -19.239550      -523.5348
   1   2.0000     -19.123463      -520.3759
   2   2.0000     -14.366657      -390.9366
   3   2.0000     -14.326804      -389.8521
   4   2.0000     -10.346299      -281.5371
   5   2.0000     -10.289437      -279.9898
   6   2.0000     -10.276597      -279.6404
   7   2.0000     -10.272645      -279.5329
   8   2.0000     -10.261761      -279.2367
   9   2.0000     -10.234703      -278.5004
  10   2.0000     -10.232403      -278.4378
  11   2.0000     -10.216033      -277.9924
  12   2.0000      -1.142931       -31.1007
  13   2.0000      -1.046286       -28.4709
  14   2.0000      -1.014402       -27.6033
  15   2.0000      -0.953961       -25.9586
  16   2.0000      -0.817460       -22.2442
  17   2.0000      -0.774270       -21.0690
  18   2.0000      -0.765817       -20.8389
  19   2.0000      -0.686608       -18.6835
  20   2.0000      -0.621856       -16.9216
  21   2.0000      -0.577784       -15.7223
  22   2.0000      -0.550861       -14.9897
  23   2.0000      -0.546352       -14.8670
  24   2.0000      -0.528594       -14.3838
  25   2.0000      -0.506067       -13.7708
  26   2.0000      -0.493048       -13.4165
  27   2.0000      -0.474485       -12.9114
  28   2.0000      -0.463174       -12.6036
  29   2.0000      -0.460008       -12.5175
  30   2.0000      -0.446666       -12.1544
  31   2.0000      -0.442830       -12.0500
  32   2.0000      -0.428429       -11.6581
  33   2.0000      -0.419284       -11.4093
  34   2.0000      -0.412780       -11.2323
  35   2.0000      -0.386015       -10.5040
  36   2.0000      -0.347111        -9.4454
  37   2.0000      -0.341249        -9.2858
  38   2.0000      -0.306614        -8.3434
  39   2.0000      -0.297900        -8.1063
  40   2.0000      -0.256436        -6.9780
  41   2.0000      -0.247341        -6.7305
  42   0.0000      -0.078162        -2.1269
  43   0.0000      -0.069624        -1.8946
  44   0.0000      -0.032621        -0.8877
  45   0.0000      -0.007441        -0.2025
  46   0.0000       0.047934         1.3044

MULLIKEN ATOMIC CHARGES
-----------------------
   0 N :   -0.137414
   1 C :   -0.093284
   2 C :    0.114546
   3 C :    0.013184
   4 C :   -0.060273
   5 C :    0.150334
   6 O :   -0.148491
   7 C :   -0.050963
   8 C :    0.100840
   9 N :   -0.121642
  10 C :   -0.039776
  11 O :    0.002025
  12 H :    0.028071
  13 H :    0.050015
  14 H :    0.039783
  15 H :    0.064756
  16 H :    0.046020
  17 H :    0.042268
Sum of atomic charges:   -0.0000000

LOEWDIN ATOMIC CHARGES
----------------------
   0 N :   -0.127321
   1 C :    0.075105
   2 C :   -0.051718
   3 C :   -0.211855
   4 C :   -0.045396
   5 C :    0.056735
   6 O :   -0.137537
   7 C :    0.042897
   8 C :   -0.049862
   9 N :   -0.035518
  10 C :    0.172202
  11 O :    0.006115
  12 H :    0.040203
  13 H :    0.052397
  14 H :    0.047660
  15 H :    0.063703
  16 H :    0.049589
  17 H :    0.052599

  Mayer bond orders larger than 0.100000
B(  0-N ,  1-C ) :   1.7741 B(  0-N ,  5-C ) :   1.1039 B(  1-C ,  2-C ) :   1.1371
B(  1-C ,  3-C ) :   1.0243 B(  2-C , 12-H ) :   0.9380 B(  2-C , 13-H ) :   0.9322
B(  2-C , 14-H ) :   0.9341 B(  3-C ,  4-C ) :   0.9620 B(  3-C , 10-C ) :   1.5007
B(  3-C , 11-O ) :   0.1501 B(  4-C ,  5-C ) :   0.8544 B(  4-C ,  7-C ) :   0.9063
B(  4-C ,  9-N ) :   0.9329 B(  5-C ,  6-O ) :   2.2373 B(  7-C ,  8-C ) :   1.1418
B(  7-C ,  9-N ) :   1.7887 B(  8-C , 15-H ) :   0.9351 B(  8-C , 16-H ) :   0.9317
B(  8-C , 17-H ) :   0.9356 B( 10-C , 11-O ) :   2.3647

Dispersion correction           -0.033139972
FINAL SINGLE POINT ENERGY      -567.937189485053

DIPOLE MOMENT
-------------
                                X             Y             Z
Electronic contribution:      2.25820      -0.15593      -3.07875
Nuclear contribution   :     -3.66162      -1.11639       3.31038
                        -----------------------------------------
Total Dipole Moment    :     -1.40341      -1.27232       0.23163
                        -----------------------------------------
Magnitude (a.u.)       :      1.90841
Magnitude (Debye)      :      4.85078

Rotational constants in cm-1:     0.040979     0.030287     0.019170
Rotational constants in MHz :  1228.509499   907.989801   574.694656

                             ****ORCA TERMINATED NORMALLY****
TOTAL RUN TIME: 0 days 0 hours 19 minutes 52 seconds 7 msec
