                         Program Version 4.2.0 -  RELEASE  -
|  1> # ORCA input file
|  2> # SCF done        -31.692881666696          0.000801143315
|  3> ! B3LYP/G D3BJ Opt RIJCOSX def2-SVP def2/J
|  4> * xyz 0 1
|  5>    C        1.79429        -1.45656         2.01796
|  6>    C        2.38916        -0.77890         1.08730
|  7>    C        2.98438        -0.09898         0.15775
|  8>    C        3.40223        -0.66077        -1.19573
|  9>    C        4.02370         0.53243        -1.83203
| 10>    C        4.00635         1.62634        -1.05367
| 11>    C        3.36388         1.37370         0.26961
| 12>    C        4.62697         2.73989        -1.75782
| 13>    C        5.01296         2.27804        -2.97275
| 14>    C        4.66896         0.82900        -3.13968
| 15>    C        4.81352         4.09496        -1.28876
| 16>    C        4.46249         4.56249        -0.09615
| 17>    H        0.71864        -1.51942         2.07842
| 18>    H        2.34641        -1.99030         2.77631
| 19>    H        2.53846        -1.03402        -1.75518
| 20>    H        4.10380        -1.49340        -1.08288
| 21>    H        2.47825         1.99521         0.43009
| 22>    H        4.04816         1.53824         1.10665
| 23>    H        5.50509         2.84760        -3.74075
| 24>    H        5.55941         0.22104        -3.31579
| 25>    H        3.99695         0.66869        -3.98593
| 26>    H        5.28594         4.75596        -2.00500
| 27>    H        3.99105         3.94422         0.64739
| 28>    H        4.63797         5.58907         0.17829
| 29> *
| 30>
| 31>                          ****END OF INPUT****
 Total Charge           Charge          ....    0
 Multiplicity           Mult            ....    1
 Number of Electrons    NEL             ....   84
Dispersion correction           -0.044548907
FINAL SINGLE POINT ENERGY      -464.097281831986
Dispersion correction            ... done
Dispersion correction           -0.044286056
FINAL SINGLE POINT ENERGY      -464.101123285707
Dispersion correction            ... done
Dispersion correction           -0.044252054
FINAL SINGLE POINT ENERGY      -464.101003340777
Dispersion correction            ... done
FINAL SINGLE POINT ENERGY      -464.100161573183
FINAL SINGLE POINT ENERGY      -464.100397236734
FINAL SINGLE POINT ENERGY      -464.100719144429
FINAL SINGLE POINT ENERGY      -464.101043835936
FINAL SINGLE POINT ENERGY      -464.101092059785
FINAL SINGLE POINT ENERGY      -464.101088829510
Dispersion correction            ... done
Dispersion correction           -0.044248441
FINAL SINGLE POINT ENERGY      -464.101081711911
Dispersion correction            ... done
Dispersion correction           -0.044249021
FINAL SINGLE POINT ENERGY      -464.101070221046
Dispersion correction            ... done
                    ***********************HURRAY********************

CARTESIAN COORDINATES (ANGSTROEM)
---------------------------------
  C      1.831550   -1.484800    2.084045
  C      2.393111   -0.801727    1.115770
  C      2.960749   -0.112235    0.156806
  C      3.341128   -0.663892   -1.232578
  C      3.992652    0.530442   -1.863263
  C      3.997117    1.623603   -1.071034
  C      3.363501    1.372963    0.269593
  C      4.676066    2.740205   -1.760535
  C      5.084078    2.277273   -2.979582
  C      4.678010    0.833005   -3.162788
  C      4.873841    4.095859   -1.263279
  C      4.379833    4.600003   -0.120735
  H      0.741931   -1.542247    2.197626
  H      2.432467   -2.030116    2.821586
  H      2.451873   -1.015589   -1.787079
  H      4.017316   -1.534153   -1.153200
  H      2.485746    2.014088    0.465598
  H      4.064292    1.540185    1.105624
  H      5.614776    2.863368   -3.731850
  H      5.548471    0.176596   -3.350938
  H      4.010411    0.698829   -4.035267
  H      5.473976    4.745696   -1.910735
  H      3.768472    4.003754    0.560146
  H      4.577653    5.633418    0.173719

 Multiplicity           Mult            ....    1
 Number of Electrons    NEL             ....   84
 Basis Dimension        Dim             ....  228

ORBITAL ENERGIES
----------------

  NO   OCC          E(Eh)            E(eV)
   0   2.0000     -10.199684      -277.5475
   1   2.0000     -10.199518      -277.5430
   2   2.0000     -10.199217      -277.5348
   3   2.0000     -10.198654      -277.5195
   4   2.0000     -10.194253      -277.3997
   5   2.0000     -10.193683      -277.3842
   6   2.0000     -10.192710      -277.3578
   7   2.0000     -10.191419      -277.3226
   8   2.0000     -10.186734      -277.1951
   9   2.0000     -10.185645      -277.1655
  10   2.0000     -10.180202      -277.0174
  11   2.0000     -10.179393      -276.9954
  12   2.0000      -0.873439       -23.7675
  13   2.0000      -0.814400       -22.1610
  14   2.0000      -0.772707       -21.0264
  15   2.0000      -0.751563       -20.4511
  16   2.0000      -0.716453       -19.4957
  17   2.0000      -0.684917       -18.6375
  18   2.0000      -0.674401       -18.3514
  19   2.0000      -0.613661       -16.6986
  20   2.0000      -0.580120       -15.7859
  21   2.0000      -0.548028       -14.9126
  22   2.0000      -0.503980       -13.7140
  23   2.0000      -0.488674       -13.2975
  24   2.0000      -0.479279       -13.0419
  25   2.0000      -0.462252       -12.5785
  26   2.0000      -0.448644       -12.2082
  27   2.0000      -0.438837       -11.9414
  28   2.0000      -0.436025       -11.8648
  29   2.0000      -0.421797       -11.4777
  30   2.0000      -0.404923       -11.0185
  31   2.0000      -0.402336       -10.9481
  32   2.0000      -0.378404       -10.2969
  33   2.0000      -0.369344       -10.0504
  34   2.0000      -0.362929        -9.8758
  35   2.0000      -0.357541        -9.7292
  36   2.0000      -0.341570        -9.2946
  37   2.0000      -0.330312        -8.9883
  38   2.0000      -0.262432        -7.1411
  39   2.0000      -0.260843        -7.0979
  40   2.0000      -0.241457        -6.5704
  41   2.0000      -0.206536        -5.6201
  42   0.0000      -0.038014        -1.0344
  43   0.0000       0.009219         0.2509
  44   0.0000       0.010847         0.2952
  45   0.0000       0.015606         0.4247
  46   0.0000       0.065117         1.7719

MULLIKEN ATOMIC CHARGES
-----------------------
   0 C :   -0.241690
   1 C :    0.117989
   2 C :   -0.275630
   3 C :    0.255309
   4 C :   -0.286024
   5 C :   -0.123612
   6 C :    0.242505
   7 C :    0.094622
   8 C :   -0.180138
   9 C :    0.225665
  10 C :   -0.006570
  11 C :   -0.032022
  12 H :    0.048310
  13 H :    0.046380
  14 H :    0.016295
  15 H :    0.015499
  16 H :    0.025171
  17 H :    0.020368
  18 H :   -0.022495
  19 H :    0.026802
  20 H :    0.025859
  21 H :   -0.023414
  22 H :    0.011097
  23 H :    0.019723
Sum of atomic charges:    0.0000000

LOEWDIN ATOMIC CHARGES
----------------------
   0 C :   -0.099922
   1 C :    0.004037
   2 C :   -0.055768
   3 C :   -0.005985
   4 C :   -0.040098
   5 C :   -0.036617
   6 C :   -0.007805
   7 C :   -0.031825
   8 C :   -0.027765
   9 C :   -0.021605
  10 C :   -0.022152
  11 C :   -0.054175
  12 H :    0.037395
  13 H :    0.037180
  14 H :    0.033880
  15 H :    0.033416
  16 H :    0.033740
  17 H :    0.034873
  18 H :    0.017970
  19 H :    0.048113
  20 H :    0.048734
  21 H :    0.028163
  22 H :    0.021571
  23 H :    0.024646

  Mayer bond orders larger than 0.100000
B(  0-C ,  1-C ) :   1.9900 B(  0-C , 12-H ) :   0.9319 B(  0-C , 13-H ) :   0.9317
B(  1-C ,  2-C ) :   1.7254 B(  2-C ,  3-C ) :   1.0128 B(  2-C ,  6-C ) :   1.0057
B(  3-C ,  4-C ) :   1.0280 B(  3-C , 14-H ) :   0.8952 B(  3-C , 15-H ) :   0.9003
B(  4-C ,  5-C ) :   1.8347 B(  4-C ,  9-C ) :   1.0632 B(  5-C ,  6-C ) :   1.0390
B(  5-C ,  7-C ) :   1.0180 B(  6-C , 16-H ) :   0.8919 B(  6-C , 17-H ) :   0.8971
B(  7-C ,  8-C ) :   1.6694 B(  7-C , 10-C ) :   1.1088 B(  8-C ,  9-C ) :   1.0154
B(  8-C , 11-C ) :   0.1165 B(  8-C , 18-H ) :   0.9829 B(  9-C , 19-H ) :   0.8801
B(  9-C , 20-H ) :   0.8771 B( 10-C , 11-C ) :   1.8996 B( 10-C , 21-H ) :   0.9555
B( 11-C , 22-H ) :   0.9459 B( 11-C , 23-H ) :   0.9427

Dispersion correction           -0.044249178
FINAL SINGLE POINT ENERGY      -464.101068856756

DIPOLE MOMENT
-------------
                                X             Y             Z
Electronic contribution:      0.42745      -0.58623      -1.31185
Nuclear contribution   :     -0.33259       0.47010       1.02376
                        -----------------------------------------
Total Dipole Moment    :      0.09487      -0.11613      -0.28809
                        -----------------------------------------
Magnitude (a.u.)       :      0.32478
Magnitude (Debye)      :      0.82552

Rotational constants in cm-1:     0.056246     0.020458     0.015188
Rotational constants in MHz :  1686.226253   613.325326   455.320428

                             ****ORCA TERMINATED NORMALLY****
TOTAL RUN TIME: 0 days 0 hours 16 minutes 55 seconds 209 msec
