                         Program Version 4.2.0 -  RELEASE  -
|  1> # ORCA input file
|  2> # SCF done        -24.102925765925          0.000150881145
|  3> ! B3LYP/G D3BJ Opt RIJCOSX def2-SVP def2/J
|  4> * xyz 0 1
|  5>    C        0.16043         1.23907        -0.10077
|  6>    S       -1.05185         0.04445        -0.27841
|  7>    C        0.12745        -1.22500        -0.11123
|  8>    C       -0.20257        -2.65660        -0.16206
|  9>    O        0.63497        -3.50926        -0.04015
| 10>    O       -1.49536        -2.97474        -0.35296
| 11>    C        1.38196        -0.70449         0.07100
| 12>    C        1.39777         0.70144         0.07658
| 13>    H       -0.11917         2.27356        -0.13865
| 14>    H       -2.06904        -2.20122        -0.43635
| 15>    H        2.24742        -1.32925         0.19445
| 16>    H        2.28664         1.29175         0.20621
| 17> *
| 18>
| 19>                          ****END OF INPUT****
 Total Charge           Charge          ....    0
 Multiplicity           Mult            ....    1
 Number of Electrons    NEL             ....   66
Dispersion correction           -0.023321167
FINAL SINGLE POINT ENERGY      -741.234980538635
Dispersion correction            ... done
Dispersion correction           -0.023225423
FINAL SINGLE POINT ENERGY      -741.236440954400
Dispersion correction            ... done
Dispersion correction           -0.023214001
FINAL SINGLE POINT ENERGY      -741.236475032476
Dispersion correction            ... done
FINAL SINGLE POINT ENERGY      -741.236366474390
FINAL SINGLE POINT ENERGY      -741.236490110429
FINAL SINGLE POINT ENERGY      -741.236517611299
FINAL SINGLE POINT ENERGY      -741.236510243313
Dispersion correction            ... done
Dispersion correction           -0.023233090
FINAL SINGLE POINT ENERGY      -741.236522254190
Dispersion correction            ... done
Dispersion correction           -0.023231570
FINAL SINGLE POINT ENERGY      -741.236521063714
Dispersion correction            ... done
                    ***********************HURRAY********************

CARTESIAN COORDINATES (ANGSTROEM)
---------------------------------
  C      0.164225    1.263609   -0.146204
  S     -1.029836    0.053500   -0.426944
  C      0.128513   -1.224562   -0.170136
  C     -0.200214   -2.671426   -0.234073
  O      0.645451   -3.526257   -0.224507
  O     -1.512825   -3.000399   -0.298916
  C      1.378509   -0.708094    0.098199
  C      1.398036    0.713960    0.115099
  H     -0.112574    2.315739   -0.202613
  H     -2.080835   -2.224747   -0.186067
  H      2.234703   -1.355798    0.286128
  H      2.285497    1.314186    0.317694

 Multiplicity           Mult            ....    1
 Number of Electrons    NEL             ....   66
 Basis Dimension        Dim             ....  136

ORBITAL ENERGIES
----------------

  NO   OCC          E(Eh)            E(eV)
   0   2.0000     -88.902027     -2419.1471
   1   2.0000     -19.183779      -522.0172
   2   2.0000     -19.120160      -520.2860
   3   2.0000     -10.327131      -281.0155
   4   2.0000     -10.241488      -278.6851
   5   2.0000     -10.235769      -278.5294
   6   2.0000     -10.218113      -278.0490
   7   2.0000     -10.217762      -278.0394
   8   2.0000      -7.997291      -217.6174
   9   2.0000      -5.965382      -162.3263
  10   2.0000      -5.961216      -162.2129
  11   2.0000      -5.958763      -162.1462
  12   2.0000      -1.094482       -29.7824
  13   2.0000      -1.012121       -27.5412
  14   2.0000      -0.903307       -24.5802
  15   2.0000      -0.758219       -20.6322
  16   2.0000      -0.755314       -20.5532
  17   2.0000      -0.644387       -17.5347
  18   2.0000      -0.606040       -16.4912
  19   2.0000      -0.579250       -15.7622
  20   2.0000      -0.543652       -14.7935
  21   2.0000      -0.474920       -12.9232
  22   2.0000      -0.459084       -12.4923
  23   2.0000      -0.451873       -12.2961
  24   2.0000      -0.427807       -11.6412
  25   2.0000      -0.413600       -11.2546
  26   2.0000      -0.400264       -10.8917
  27   2.0000      -0.387349       -10.5403
  28   2.0000      -0.373139       -10.1536
  29   2.0000      -0.325328        -8.8526
  30   2.0000      -0.284631        -7.7452
  31   2.0000      -0.280940        -7.6448
  32   2.0000      -0.264780        -7.2050
  33   0.0000      -0.068058        -1.8520
  34   0.0000      -0.003688        -0.1004
  35   0.0000       0.014539         0.3956
  36   0.0000       0.059279         1.6131
  37   0.0000       0.065105         1.7716

MULLIKEN ATOMIC CHARGES
-----------------------
   0 C :   -0.070558
   1 S :    0.096358
   2 C :   -0.210439
   3 C :    0.204099
   4 O :   -0.179307
   5 O :   -0.167947
   6 C :    0.043252
   7 C :    0.043876
   8 H :    0.045625
   9 H :    0.172053
  10 H :    0.016160
  11 H :    0.006828
Sum of atomic charges:    0.0000000

LOEWDIN ATOMIC CHARGES
----------------------
   0 C :   -0.170228
   1 S :    0.426600
   2 C :   -0.243097
   3 C :    0.066367
   4 O :   -0.155798
   5 O :   -0.038997
   6 C :   -0.014625
   7 C :   -0.057525
   8 H :    0.031525
   9 H :    0.075749
  10 H :    0.043642
  11 H :    0.036388

  Mayer bond orders larger than 0.100000
B(  0-C ,  1-S ) :   1.1808 B(  0-C ,  7-C ) :   1.5390 B(  0-C ,  8-H ) :   0.9703
B(  1-S ,  2-C ) :   1.1129 B(  2-C ,  3-C ) :   0.9461 B(  2-C ,  6-C ) :   1.5406
B(  3-C ,  4-O ) :   2.1675 B(  3-C ,  5-O ) :   1.2128 B(  5-O ,  9-H ) :   0.9512
B(  6-C ,  7-C ) :   1.2562 B(  6-C , 10-H ) :   0.9952 B(  7-C , 11-H ) :   0.9913

Dispersion correction           -0.023231057
FINAL SINGLE POINT ENERGY      -741.236520809154

DIPOLE MOMENT
-------------
                                X             Y             Z
Electronic contribution:     -2.84284      -2.07123      -0.80393
Nuclear contribution   :      2.49540       3.87900       0.96490
                        -----------------------------------------
Total Dipole Moment    :     -0.34744       1.80777       0.16096
                        -----------------------------------------
Magnitude (a.u.)       :      1.84788
Magnitude (Debye)      :      4.69694

Rotational constants in cm-1:     0.123028     0.047002     0.034148
Rotational constants in MHz :  3688.273707  1409.090607  1023.746212

                             ****ORCA TERMINATED NORMALLY****
TOTAL RUN TIME: 0 days 0 hours 4 minutes 31 seconds 86 msec
