                         Program Version 4.2.0 -  RELEASE  -
|  1> # ORCA input file
|  2> # SCF done        -31.617762580613          0.000518040955
|  3> ! B3LYP/G D3BJ Opt RIJCOSX def2-SVP def2/J
|  4> * xyz 0 1
|  5>    C        0.86332         1.55625         0.15950
|  6>    S        2.33174         0.64468         0.10666
|  7>    C        1.52550        -0.89924        -0.07221
|  8>    C        0.17978        -0.66028        -0.08297
|  9>    C       -0.18398         0.70470         0.04658
| 10>    O       -1.54431         0.77391         0.02009
| 11>    C       -1.98958        -0.49678        -0.11936
| 12>    S       -3.54640        -0.90524        -0.19754
| 13>    O       -0.97174        -1.38374        -0.18418
| 14>    C        2.26162        -2.12935        -0.18163
| 15>    C        1.68250        -3.31642        -0.34136
| 16>    H        0.88053         2.61984         0.26711
| 17>    H        3.33632        -2.02913        -0.12649
| 18>    H        0.61216        -3.41847        -0.39855
| 19>    H        2.26483        -4.21675        -0.42015
| 20> *
| 21>
| 22>                          ****END OF INPUT****
 Total Charge           Charge          ....    0
 Multiplicity           Mult            ....    1
 Number of Electrons    NEL             ....   94
Dispersion correction           -0.032892186
FINAL SINGLE POINT ENERGY     -1215.420732947387
Dispersion correction            ... done
Dispersion correction           -0.032801875
FINAL SINGLE POINT ENERGY     -1215.423883628648
Dispersion correction            ... done
Dispersion correction           -0.032768811
FINAL SINGLE POINT ENERGY     -1215.424114450469
Dispersion correction            ... done
FINAL SINGLE POINT ENERGY     -1215.424095882855
FINAL SINGLE POINT ENERGY     -1215.424164965509
Dispersion correction            ... done
Dispersion correction           -0.032759981
FINAL SINGLE POINT ENERGY     -1215.424171050809
Dispersion correction            ... done
Dispersion correction           -0.032758878
FINAL SINGLE POINT ENERGY     -1215.424169741788
Dispersion correction            ... done
                    ***********************HURRAY********************

CARTESIAN COORDINATES (ANGSTROEM)
---------------------------------
  C      0.864538    1.579176    0.182640
  S      2.340196    0.650121    0.100666
  C      1.517276   -0.900368   -0.097713
  C      0.169878   -0.635099   -0.094382
  C     -0.184459    0.715789    0.060176
  O     -1.552097    0.791831    0.039329
  C     -2.041528   -0.479226   -0.133566
  S     -3.602663   -0.874950   -0.238576
  O     -0.988383   -1.358929   -0.208754
  C      2.262854   -2.140687   -0.212712
  C      1.712207   -3.361976   -0.313481
  H      0.881721    2.657259    0.318045
  H      3.353222   -2.038808   -0.210741
  H      0.628790   -3.509328   -0.318294
  H      2.340739   -4.250823   -0.397136

 Multiplicity           Mult            ....    1
 Number of Electrons    NEL             ....   94
 Basis Dimension        Dim             ....  182

ORBITAL ENERGIES
----------------

  NO   OCC          E(Eh)            E(eV)
   0   2.0000     -88.903024     -2419.1743
   1   2.0000     -88.821140     -2416.9461
   2   2.0000     -19.237947      -523.4911
   3   2.0000     -19.236236      -523.4446
   4   2.0000     -10.362051      -281.9657
   5   2.0000     -10.280162      -279.7374
   6   2.0000     -10.276415      -279.6355
   7   2.0000     -10.250533      -278.9312
   8   2.0000     -10.244771      -278.7744
   9   2.0000     -10.224067      -278.2110
  10   2.0000     -10.207037      -277.7476
  11   2.0000      -7.997242      -217.6160
  12   2.0000      -7.918266      -215.4670
  13   2.0000      -5.965659      -162.3338
  14   2.0000      -5.961698      -162.2261
  15   2.0000      -5.957863      -162.1217
  16   2.0000      -5.887031      -160.1943
  17   2.0000      -5.883425      -160.0961
  18   2.0000      -5.877438      -159.9332
  19   2.0000      -1.186328       -32.2816
  20   2.0000      -1.081516       -29.4295
  21   2.0000      -0.915795       -24.9201
  22   2.0000      -0.817064       -22.2335
  23   2.0000      -0.805271       -21.9125
  24   2.0000      -0.739275       -20.1167
  25   2.0000      -0.733928       -19.9712
  26   2.0000      -0.654673       -17.8146
  27   2.0000      -0.648925       -17.6581
  28   2.0000      -0.623150       -16.9568
  29   2.0000      -0.593366       -16.1463
  30   2.0000      -0.532557       -14.4916
  31   2.0000      -0.530757       -14.4426
  32   2.0000      -0.499063       -13.5802
  33   2.0000      -0.481846       -13.1117
  34   2.0000      -0.429317       -11.6823
  35   2.0000      -0.424114       -11.5407
  36   2.0000      -0.421243       -11.4626
  37   2.0000      -0.420698       -11.4478
  38   2.0000      -0.411222       -11.1899
  39   2.0000      -0.409878       -11.1533
  40   2.0000      -0.380888       -10.3645
  41   2.0000      -0.375822       -10.2266
  42   2.0000      -0.326283        -8.8786
  43   2.0000      -0.304389        -8.2828
  44   2.0000      -0.245836        -6.6895
  45   2.0000      -0.244486        -6.6528
  46   2.0000      -0.239211        -6.5093
  47   0.0000      -0.074573        -2.0292
  48   0.0000      -0.039636        -1.0786
  49   0.0000      -0.003743        -0.1019
  50   0.0000       0.013072         0.3557
  51   0.0000       0.055739         1.5167

MULLIKEN ATOMIC CHARGES
-----------------------
   0 C :   -0.184209
   1 S :    0.119084
   2 C :   -0.185120
   3 C :    0.173591
   4 C :    0.235001
   5 O :   -0.198636
   6 C :    0.250471
   7 S :   -0.142531
   8 O :   -0.206697
   9 C :    0.045725
  10 C :   -0.023607
  11 H :    0.047465
  12 H :   -0.005134
  13 H :    0.042356
  14 H :    0.032244
Sum of atomic charges:    0.0000000

LOEWDIN ATOMIC CHARGES
----------------------
   0 C :   -0.206880
   1 S :    0.448152
   2 C :   -0.190547
   3 C :   -0.008341
   4 C :   -0.007718
   5 O :   -0.028997
   6 C :   -0.056747
   7 S :    0.020690
   8 O :   -0.029167
   9 C :   -0.044797
  10 C :   -0.029309
  11 H :    0.038508
  12 H :    0.032732
  13 H :    0.030998
  14 H :    0.031423

  Mayer bond orders larger than 0.100000
B(  0-C ,  1-S ) :   1.1197 B(  0-C ,  2-C ) :   0.1022 B(  0-C ,  4-C ) :   1.5020
B(  0-C , 11-H ) :   0.9847 B(  1-S ,  2-C ) :   1.1076 B(  2-C ,  3-C ) :   1.4926
B(  2-C ,  9-C ) :   1.1186 B(  3-C ,  4-C ) :   1.2492 B(  3-C ,  8-O ) :   1.0527
B(  4-C ,  5-O ) :   1.0503 B(  5-O ,  6-C ) :   1.0768 B(  6-C ,  7-S ) :   1.8062
B(  6-C ,  8-O ) :   1.0720 B(  9-C , 10-C ) :   1.9188 B(  9-C , 12-H ) :   0.9465
B( 10-C , 13-H ) :   0.9508 B( 10-C , 14-H ) :   0.9429

Dispersion correction           -0.032758221
FINAL SINGLE POINT ENERGY     -1215.424167714873

DIPOLE MOMENT
-------------
                                X             Y             Z
Electronic contribution:     -5.76767       5.21308       0.34660
Nuclear contribution   :      7.20687      -4.95929      -0.26458
                        -----------------------------------------
Total Dipole Moment    :      1.43919       0.25380       0.08202
                        -----------------------------------------
Magnitude (a.u.)       :      1.46370
Magnitude (Debye)      :      3.72043

Rotational constants in cm-1:     0.051500     0.019920     0.014365
Rotational constants in MHz :  1543.927628   597.187800   430.661251

                             ****ORCA TERMINATED NORMALLY****
TOTAL RUN TIME: 0 days 0 hours 6 minutes 31 seconds 517 msec
