                         Program Version 4.2.0 -  RELEASE  -
|  1> # ORCA input file
|  2> # SCF done        -34.364147611786          0.000561621032
|  3> ! B3LYP/G D3BJ Opt RIJCOSX def2-SVP def2/J
|  4> * xyz 0 1
|  5>    C       -3.17349        -0.09594         0.03926
|  6>    C       -2.55603        -1.30295        -0.06399
|  7>    C       -1.15566        -1.15359        -0.04304
|  8>    C       -0.73962         0.18212         0.07743
|  9>    S       -2.08977         1.25315         0.16465
| 10>    C        0.66121         0.17151         0.08458
| 11>    C        1.05689        -1.17206        -0.03213
| 12>    N       -0.05629        -1.96832        -0.10917
| 13>    C        2.44762        -1.34686        -0.03974
| 14>    C        3.11327        -0.15014         0.06983
| 15>    S        2.02144         1.22449         0.18529
| 16>    C        4.53690         0.03150         0.09523
| 17>    C        5.15792         1.20279         0.20599
| 18>    H       -4.22738         0.09850         0.05061
| 19>    H       -3.07702        -2.23912        -0.14951
| 20>    H       -0.06421        -2.96932        -0.19633
| 21>    H        2.94947        -2.29440        -0.12050
| 22>    H        5.10885        -0.88524         0.01728
| 23>    H        4.60562         2.12452         0.28502
| 24>    H        6.23070         1.27538         0.21967
| 25> *
| 26>
| 27>                          ****END OF INPUT****
 Total Charge           Charge          ....    0
 Multiplicity           Mult            ....    1
 Number of Electrons    NEL             ....  106
Dispersion correction           -0.048603321
FINAL SINGLE POINT ENERGY     -1235.882014172250
Dispersion correction            ... done
Dispersion correction           -0.048490372
FINAL SINGLE POINT ENERGY     -1235.885469551809
Dispersion correction            ... done
Dispersion correction           -0.048471042
FINAL SINGLE POINT ENERGY     -1235.885586495358
Dispersion correction            ... done
FINAL SINGLE POINT ENERGY     -1235.885577374822
Dispersion correction            ... done
Dispersion correction           -0.048455930
FINAL SINGLE POINT ENERGY     -1235.885590284935
Dispersion correction            ... done
Dispersion correction           -0.048455732
FINAL SINGLE POINT ENERGY     -1235.885589580398
Dispersion correction            ... done
                    ***********************HURRAY********************

CARTESIAN COORDINATES (ANGSTROEM)
---------------------------------
  C     -3.227618   -0.098374    0.021670
  C     -2.598453   -1.315205   -0.093568
  C     -1.184893   -1.158618   -0.034495
  C     -0.766008    0.178298    0.123834
  S     -2.130071    1.250092    0.204616
  C      0.650638    0.167222    0.146462
  C      1.054891   -1.175538    0.003232
  N     -0.070420   -1.974529   -0.099098
  C      2.461326   -1.352235   -0.009720
  C      3.130260   -0.145434    0.115827
  S      2.020405    1.224391    0.269662
  C      4.566207    0.048282    0.111422
  C      5.220902    1.221228    0.156200
  H     -4.298890    0.096444    0.005543
  H     -3.128804   -2.259145   -0.220352
  H     -0.075852   -2.973754   -0.245336
  H      2.983433   -2.303463   -0.119488
  H      5.142771   -0.882385    0.056483
  H      4.688682    2.175800    0.201260
  H      6.311913    1.262942    0.146276

 Multiplicity           Mult            ....    1
 Number of Electrons    NEL             ....  106
 Basis Dimension        Dim             ....  225

ORBITAL ENERGIES
----------------

  NO   OCC          E(Eh)            E(eV)
   0   2.0000     -88.872003     -2418.3301
   1   2.0000     -88.868015     -2418.2216
   2   2.0000     -14.381747      -391.3472
   3   2.0000     -10.226405      -278.2746
   4   2.0000     -10.225819      -278.2587
   5   2.0000     -10.217135      -278.0224
   6   2.0000     -10.214293      -277.9450
   7   2.0000     -10.209991      -277.8280
   8   2.0000     -10.209006      -277.8012
   9   2.0000     -10.201513      -277.5973
  10   2.0000     -10.200868      -277.5797
  11   2.0000     -10.200775      -277.5772
  12   2.0000     -10.185626      -277.1650
  13   2.0000      -7.966046      -216.7671
  14   2.0000      -7.962107      -216.6599
  15   2.0000      -5.934615      -161.4891
  16   2.0000      -5.930636      -161.3808
  17   2.0000      -5.930528      -161.3779
  18   2.0000      -5.926771      -161.2756
  19   2.0000      -5.926664      -161.2727
  20   2.0000      -5.922515      -161.1598
  21   2.0000      -0.982124       -26.7249
  22   2.0000      -0.868968       -23.6458
  23   2.0000      -0.863972       -23.5099
  24   2.0000      -0.785158       -21.3652
  25   2.0000      -0.752458       -20.4754
  26   2.0000      -0.736651       -20.0453
  27   2.0000      -0.718356       -19.5475
  28   2.0000      -0.685051       -18.6412
  29   2.0000      -0.620446       -16.8832
  30   2.0000      -0.588886       -16.0244
  31   2.0000      -0.571174       -15.5424
  32   2.0000      -0.549478       -14.9521
  33   2.0000      -0.526857       -14.3365
  34   2.0000      -0.520849       -14.1730
  35   2.0000      -0.477221       -12.9859
  36   2.0000      -0.468230       -12.7412
  37   2.0000      -0.443334       -12.0637
  38   2.0000      -0.438547       -11.9335
  39   2.0000      -0.418118       -11.3776
  40   2.0000      -0.408075       -11.1043
  41   2.0000      -0.397321       -10.8117
  42   2.0000      -0.382680       -10.4133
  43   2.0000      -0.375557       -10.2194
  44   2.0000      -0.366694        -9.9783
  45   2.0000      -0.348007        -9.4697
  46   2.0000      -0.346758        -9.4358
  47   2.0000      -0.336222        -9.1491
  48   2.0000      -0.302882        -8.2418
  49   2.0000      -0.259348        -7.0572
  50   2.0000      -0.256704        -6.9853
  51   2.0000      -0.214927        -5.8485
  52   2.0000      -0.189843        -5.1659
  53   0.0000      -0.050137        -1.3643
  54   0.0000       0.002539         0.0691
  55   0.0000       0.024981         0.6798
  56   0.0000       0.051278         1.3954
  57   0.0000       0.061230         1.6661

MULLIKEN ATOMIC CHARGES
-----------------------
   0 C :   -0.107231
   1 C :    0.009225
   2 C :    0.079461
   3 C :   -0.131401
   4 S :    0.123203
   5 C :   -0.120273
   6 C :    0.115097
   7 N :   -0.052941
   8 C :   -0.047631
   9 C :   -0.087640
  10 S :    0.117169
  11 C :    0.022809
  12 C :   -0.048678
  13 H :    0.030686
  14 H :   -0.023429
  15 H :    0.118072
  16 H :   -0.028550
  17 H :   -0.014907
  18 H :    0.020308
  19 H :    0.026653
Sum of atomic charges:   -0.0000000

LOEWDIN ATOMIC CHARGES
----------------------
   0 C :   -0.183752
   1 C :   -0.084361
   2 C :   -0.022638
   3 C :   -0.227753
   4 S :    0.404159
   5 C :   -0.218396
   6 C :   -0.024080
   7 N :    0.051873
   8 C :   -0.074966
   9 C :   -0.165760
  10 S :    0.400720
  11 C :   -0.040335
  12 C :   -0.065267
  13 H :    0.024661
  14 H :    0.030255
  15 H :    0.088826
  16 H :    0.029171
  17 H :    0.032498
  18 H :    0.018536
  19 H :    0.026607

  Mayer bond orders larger than 0.100000
B(  0-C ,  1-C ) :   1.5377 B(  0-C ,  4-S ) :   1.1441 B(  0-C , 13-H ) :   0.9618
B(  1-C ,  2-C ) :   1.2247 B(  1-C , 14-H ) :   1.0048 B(  2-C ,  3-C ) :   1.3934
B(  2-C ,  7-N ) :   1.1562 B(  3-C ,  4-S ) :   1.0464 B(  3-C ,  5-C ) :   1.3968
B(  5-C ,  6-C ) :   1.3945 B(  5-C , 10-S ) :   1.0423 B(  6-C ,  7-N ) :   1.1523
B(  6-C ,  8-C ) :   1.2032 B(  7-N , 15-H ) :   0.9367 B(  8-C ,  9-C ) :   1.4598
B(  8-C , 16-H ) :   1.0095 B(  9-C , 10-S ) :   1.0863 B(  9-C , 11-C ) :   1.1577
B( 11-C , 12-C ) :   1.8791 B( 11-C , 17-H ) :   0.9563 B( 12-C , 18-H ) :   0.9510
B( 12-C , 19-H ) :   0.9480

Dispersion correction           -0.048455514
FINAL SINGLE POINT ENERGY     -1235.885577864776

DIPOLE MOMENT
-------------
                                X             Y             Z
Electronic contribution:     -7.35849       3.57523       0.63774
Nuclear contribution   :      7.13095      -4.76404      -0.81806
                        -----------------------------------------
Total Dipole Moment    :     -0.22754      -1.18881      -0.18031
                        -----------------------------------------
Magnitude (a.u.)       :      1.22375
Magnitude (Debye)      :      3.11052

Rotational constants in cm-1:     0.062523     0.012410     0.010358
Rotational constants in MHz :  1874.407147   372.047118   310.532825

                             ****ORCA TERMINATED NORMALLY****
TOTAL RUN TIME: 0 days 0 hours 9 minutes 12 seconds 465 msec
