                         Program Version 4.2.0 -  RELEASE  -
|  1> # ORCA input file
|  2> # SCF done        -45.176372654240          0.000393426811
|  3> ! B3LYP/G D3BJ Opt RIJCOSX def2-SVP def2/J
|  4> * xyz 0 1
|  5>    C       -0.02182         1.17702        -0.47790
|  6>    S       -0.97428        -0.25004        -0.51981
|  7>    C        0.44073        -1.26280        -0.53004
|  8>    C        1.59166        -0.49585        -0.50341
|  9>    C        1.31580         0.91020        -0.48044
| 10>    O        2.33380         1.81948        -0.49583
| 11>    C        2.00736         3.19017        -0.38135
| 12>    C        1.63421         3.59359         1.04141
| 13>    O        2.80531        -1.09975        -0.52041
| 14>    C        3.95895        -0.37312        -0.12826
| 15>    C        5.09740        -1.37438        -0.00745
| 16>    C        0.26902        -2.68100        -0.56437
| 17>    C        1.25018        -3.59767        -0.65785
| 18>    C        0.99595        -5.01123        -0.67896
| 19>    C        1.95362        -5.93297        -0.77185
| 20>    H       -0.51983         2.12451        -0.47054
| 21>    H        1.20547         3.44975        -1.08337
| 22>    H        2.91971         3.70911        -0.68837
| 23>    H        0.75233         3.05431         1.37785
| 24>    H        1.43054         4.66007         1.07637
| 25>    H        2.45512         3.36835         1.71776
| 26>    H        3.78140         0.12360         0.83309
| 27>    H        4.19743         0.39106        -0.87633
| 28>    H        4.85557        -2.12829         0.73736
| 29>    H        6.00872        -0.86178         0.28644
| 30>    H        5.25896        -1.86884        -0.96157
| 31>    H       -0.76187        -3.01084        -0.51249
| 32>    H        2.27871        -3.27937        -0.72227
| 33>    H       -0.04171        -5.31523        -0.61539
| 34>    H        2.99321        -5.65697        -0.83610
| 35>    H        1.73412        -6.98650        -0.78594
| 36> *
| 37>
| 38>                          ****END OF INPUT****
 Total Charge           Charge          ....    0
 Multiplicity           Mult            ....    1
 Number of Electrons    NEL             ....  120
Dispersion correction           -0.056948953
FINAL SINGLE POINT ENERGY     -1014.980974666403
Dispersion correction            ... done
Dispersion correction           -0.056496664
FINAL SINGLE POINT ENERGY     -1014.984419733279
Dispersion correction            ... done
Dispersion correction           -0.056538878
FINAL SINGLE POINT ENERGY     -1014.984560958415
Dispersion correction            ... done
FINAL SINGLE POINT ENERGY     -1014.984450462118
FINAL SINGLE POINT ENERGY     -1014.984544562167
FINAL SINGLE POINT ENERGY     -1014.984582541985
FINAL SINGLE POINT ENERGY     -1014.984578924343
FINAL SINGLE POINT ENERGY     -1014.984582327071
FINAL SINGLE POINT ENERGY     -1014.984617409690
FINAL SINGLE POINT ENERGY     -1014.984668539963
Dispersion correction            ... done
Dispersion correction           -0.056817109
FINAL SINGLE POINT ENERGY     -1014.984681866751
Dispersion correction            ... done
Dispersion correction           -0.056813476
FINAL SINGLE POINT ENERGY     -1014.984693712280
Dispersion correction            ... done
                    ***********************HURRAY********************

CARTESIAN COORDINATES (ANGSTROEM)
---------------------------------
  C     -0.076750    1.223739   -0.608203
  S     -0.985182   -0.246222   -0.592143
  C      0.462651   -1.223393   -0.653593
  C      1.596671   -0.419337   -0.703400
  C      1.279056    0.987187   -0.677378
  O      2.272277    1.910654   -0.727375
  C      1.963642    3.249376   -0.354466
  C      1.735896    3.399079    1.142423
  O      2.831059   -0.961996   -0.806901
  C      3.955564   -0.312085   -0.202349
  C      5.039548   -1.349630    0.006935
  C      0.322691   -2.657989   -0.619854
  C      1.302829   -3.595159   -0.655395
  C      1.015834   -5.012310   -0.586595
  C      1.940639   -5.988772   -0.607932
  H     -0.589001    2.180771   -0.577301
  H      1.096000    3.611690   -0.933890
  H      2.832745    3.840876   -0.677327
  H      0.889555    2.787659    1.486857
  H      1.521389    4.450044    1.393063
  H      2.631481    3.084859    1.700029
  H      3.649099    0.142866    0.754849
  H      4.303161    0.503542   -0.854765
  H      4.703245   -2.143466    0.690457
  H      5.935671   -0.875456    0.437559
  H      5.322138   -1.815902   -0.949836
  H     -0.711381   -3.015366   -0.540067
  H      2.345710   -3.282786   -0.741533
  H     -0.043553   -5.288619   -0.507962
  H      3.008291   -5.757189   -0.683142
  H      1.654794   -7.042076   -0.550786

 Multiplicity           Mult            ....    1
 Number of Electrons    NEL             ....  120
 Basis Dimension        Dim             ....  294

ORBITAL ENERGIES
----------------

  NO   OCC          E(Eh)            E(eV)
   0   2.0000     -88.867189     -2418.1992
   1   2.0000     -19.169239      -521.6215
   2   2.0000     -19.159602      -521.3593
   3   2.0000     -10.254017      -279.0260
   4   2.0000     -10.251283      -278.9516
   5   2.0000     -10.245455      -278.7930
   6   2.0000     -10.239995      -278.6444
   7   2.0000     -10.208670      -277.7920
   8   2.0000     -10.205636      -277.7095
   9   2.0000     -10.194705      -277.4120
  10   2.0000     -10.193059      -277.3672
  11   2.0000     -10.185361      -277.1578
  12   2.0000     -10.184602      -277.1371
  13   2.0000     -10.179181      -276.9896
  14   2.0000     -10.176876      -276.9269
  15   2.0000      -7.961986      -216.6566
  16   2.0000      -5.930294      -161.3715
  17   2.0000      -5.926562      -161.2700
  18   2.0000      -5.922621      -161.1627
  19   2.0000      -1.067956       -29.0606
  20   2.0000      -1.047432       -28.5021
  21   2.0000      -0.874255       -23.7897
  22   2.0000      -0.797116       -21.6906
  23   2.0000      -0.775034       -21.0897
  24   2.0000      -0.768343       -20.9077
  25   2.0000      -0.743434       -20.2299
  26   2.0000      -0.710401       -19.3310
  27   2.0000      -0.691215       -18.8089
  28   2.0000      -0.648901       -17.6575
  29   2.0000      -0.621312       -16.9068
  30   2.0000      -0.611077       -16.6282
  31   2.0000      -0.559515       -15.2252
  32   2.0000      -0.551819       -15.0158
  33   2.0000      -0.541778       -14.7425
  34   2.0000      -0.529920       -14.4199
  35   2.0000      -0.491303       -13.3690
  36   2.0000      -0.482165       -13.1204
  37   2.0000      -0.477767       -13.0007
  38   2.0000      -0.462849       -12.5948
  39   2.0000      -0.458430       -12.4745
  40   2.0000      -0.443700       -12.0737
  41   2.0000      -0.421345       -11.4654
  42   2.0000      -0.413632       -11.2555
  43   2.0000      -0.403814       -10.9883
  44   2.0000      -0.400783       -10.9059
  45   2.0000      -0.392152       -10.6710
  46   2.0000      -0.388742       -10.5782
  47   2.0000      -0.383042       -10.4231
  48   2.0000      -0.374564       -10.1924
  49   2.0000      -0.370486       -10.0814
  50   2.0000      -0.354090        -9.6353
  51   2.0000      -0.351012        -9.5515
  52   2.0000      -0.346642        -9.4326
  53   2.0000      -0.335637        -9.1331
  54   2.0000      -0.327548        -8.9130
  55   2.0000      -0.314006        -8.5445
  56   2.0000      -0.298257        -8.1160
  57   2.0000      -0.258761        -7.0412
  58   2.0000      -0.215639        -5.8678
  59   2.0000      -0.191225        -5.2035
  60   0.0000      -0.048839        -1.3290
  61   0.0000       0.021690         0.5902
  62   0.0000       0.033186         0.9030
  63   0.0000       0.047494         1.2924
  64   0.0000       0.059945         1.6312

MULLIKEN ATOMIC CHARGES
-----------------------
   0 C :   -0.186876
   1 S :    0.100836
   2 C :   -0.163923
   3 C :    0.200018
   4 C :    0.174049
   5 O :   -0.322827
   6 C :    0.180642
   7 C :   -0.025043
   8 O :   -0.329721
   9 C :    0.192098
  10 C :    0.002243
  11 C :    0.033580
  12 C :   -0.001195
  13 C :    0.004983
  14 C :   -0.036062
  15 H :    0.016538
  16 H :    0.008026
  17 H :    0.018830
  18 H :    0.030163
  19 H :    0.019022
  20 H :    0.025686
  21 H :   -0.001988
  22 H :    0.019077
  23 H :    0.028181
  24 H :    0.011417
  25 H :    0.022320
  26 H :   -0.030263
  27 H :   -0.002423
  28 H :   -0.016166
  29 H :    0.011515
  30 H :    0.017265
Sum of atomic charges:   -0.0000000

LOEWDIN ATOMIC CHARGES
----------------------
   0 C :   -0.252872
   1 S :    0.419720
   2 C :   -0.201563
   3 C :   -0.000142
   4 C :   -0.011076
   5 O :   -0.101707
   6 C :    0.086413
   7 C :   -0.070548
   8 O :   -0.102715
   9 C :    0.092224
  10 C :   -0.063452
  11 C :   -0.042902
  12 C :   -0.030542
  13 C :   -0.027419
  14 C :   -0.063142
  15 H :    0.020571
  16 H :    0.010773
  17 H :    0.024400
  18 H :    0.028270
  19 H :    0.031710
  20 H :    0.028518
  21 H :    0.010205
  22 H :    0.013335
  23 H :    0.027781
  24 H :    0.029518
  25 H :    0.028347
  26 H :    0.023045
  27 H :    0.026351
  28 H :    0.024464
  29 H :    0.020138
  30 H :    0.022298

  Mayer bond orders larger than 0.100000
B(  0-C ,  1-S ) :   1.1029 B(  0-C ,  4-C ) :   1.4707 B(  0-C , 15-H ) :   0.9702
B(  1-S ,  2-C ) :   1.1200 B(  2-C ,  3-C ) :   1.4543 B(  2-C , 11-C ) :   1.1308
B(  3-C ,  4-C ) :   1.2031 B(  3-C ,  8-O ) :   1.1564 B(  4-C ,  5-O ) :   1.1210
B(  5-O ,  6-C ) :   0.9471 B(  6-C ,  7-C ) :   1.1117 B(  6-C , 16-H ) :   0.9430
B(  6-C , 17-H ) :   0.9559 B(  7-C , 18-H ) :   0.9634 B(  7-C , 19-H ) :   0.9593
B(  7-C , 20-H ) :   0.9640 B(  8-O ,  9-C ) :   0.9166 B(  9-C , 10-C ) :   1.1093
B(  9-C , 21-H ) :   0.9456 B(  9-C , 22-H ) :   0.9524 B( 10-C , 23-H ) :   0.9665
B( 10-C , 24-H ) :   0.9583 B( 10-C , 25-H ) :   0.9649 B( 11-C , 12-C ) :   1.6823
B( 11-C , 14-C ) :   0.1129 B( 11-C , 26-H ) :   0.9515 B( 12-C , 13-C ) :   1.1228
B( 12-C , 27-H ) :   0.9709 B( 13-C , 14-C ) :   1.8599 B( 13-C , 28-H ) :   0.9691
B( 14-C , 29-H ) :   0.9527 B( 14-C , 30-H ) :   0.9481

Dispersion correction           -0.056810350
FINAL SINGLE POINT ENERGY     -1014.984695446818

DIPOLE MOMENT
-------------
                                X             Y             Z
Electronic contribution:    -13.44563      -0.17804      -5.56162
Nuclear contribution   :     13.81117       1.43305       6.05829
                        -----------------------------------------
Total Dipole Moment    :      0.36554       1.25501       0.49667
                        -----------------------------------------
Magnitude (a.u.)       :      1.39834
Magnitude (Debye)      :      3.55429

Rotational constants in cm-1:     0.025832     0.010802     0.007938
Rotational constants in MHz :   774.425068   323.831273   237.966029

                             ****ORCA TERMINATED NORMALLY****
TOTAL RUN TIME: 0 days 0 hours 29 minutes 13 seconds 383 msec
