                         Program Version 4.2.0 -  RELEASE  -
|  1> # ORCA input file
|  2> # SCF done        -34.252571689691          0.000504817134
|  3> ! B3LYP/G D3BJ Opt RIJCOSX def2-SVP def2/J
|  4> * xyz 0 1
|  5>    C        0.17709         1.46265        -0.05027
|  6>    S       -1.03119         0.22693         0.56318
|  7>    C        0.05208        -1.19542         0.20368
|  8>    C        1.46788        -0.64799         0.00579
|  9>    C        1.28574         0.68429        -0.74141
| 10>    C        2.28682        -1.58336        -0.90858
| 11>    O        1.77980        -2.35024        -1.69290
| 12>    N        3.61598        -1.39284        -0.80331
| 13>    N        2.18208        -0.42647         1.24764
| 14>    C        2.42970        -1.50865         2.08203
| 15>    C        2.57828        -1.42403         3.39648
| 16>    H        0.54118         2.03139         0.80636
| 17>    H       -0.33835         2.14020        -0.72739
| 18>    H       -0.29280        -1.68940        -0.70488
| 19>    H       -0.00384        -1.88984         1.04046
| 20>    H        0.99595         0.46026        -1.76955
| 21>    H        2.21643         1.25288        -0.75539
| 22>    H        3.98671        -0.81545        -0.06779
| 23>    H        4.23693        -1.96931        -1.34612
| 24>    H        1.85421         0.38452         1.75786
| 25>    H        2.55646        -2.44775         1.55922
| 26>    H        2.44671        -0.49399         3.92308
| 27>    H        2.84730        -2.28140         3.98294
| 28> *
| 29>
| 30>                          ****END OF INPUT****
 Total Charge           Charge          ....    0
 Multiplicity           Mult            ....    1
 Number of Electrons    NEL             ....   92
Dispersion correction           -0.047120945
FINAL SINGLE POINT ENERGY      -856.483923524338
Dispersion correction            ... done
Dispersion correction           -0.046734479
FINAL SINGLE POINT ENERGY      -856.486627834734
Dispersion correction            ... done
Dispersion correction           -0.046829317
FINAL SINGLE POINT ENERGY      -856.486969532375
Dispersion correction            ... done
FINAL SINGLE POINT ENERGY      -856.487047765463
FINAL SINGLE POINT ENERGY      -856.487156389976
FINAL SINGLE POINT ENERGY      -856.487237053932
FINAL SINGLE POINT ENERGY      -856.487264171392
Dispersion correction            ... done
Dispersion correction           -0.047056304
FINAL SINGLE POINT ENERGY      -856.487271967767
Dispersion correction            ... done
Dispersion correction           -0.047065960
FINAL SINGLE POINT ENERGY      -856.487269913437
Dispersion correction            ... done
                    ***********************HURRAY********************

CARTESIAN COORDINATES (ANGSTROEM)
---------------------------------
  C      0.218305    1.450491    0.058317
  S     -0.919296    0.193168    0.792901
  C      0.103741   -1.233510    0.234313
  C      1.509078   -0.669166   -0.033971
  C      1.247667    0.669041   -0.758972
  C      2.318316   -1.582901   -0.987697
  O      1.781943   -2.300032   -1.811788
  N      3.662958   -1.444543   -0.871939
  N      2.268801   -0.407210    1.192696
  C      2.446497   -1.458019    2.097116
  C      2.378584   -1.367211    3.432414
  H      0.690534    2.037139    0.864231
  H     -0.354935    2.150346   -0.566259
  H     -0.304293   -1.679676   -0.680790
  H      0.116274   -1.992427    1.029279
  H      0.839362    0.430177   -1.752107
  H      2.183089    1.232208   -0.896829
  H      4.048541   -0.872283   -0.131197
  H      4.258727   -1.995023   -1.477552
  H      1.950573    0.438901    1.658463
  H      2.708539   -2.409736    1.621271
  H      2.101627   -0.433932    3.932029
  H      2.616517   -2.228822    4.057198

 Multiplicity           Mult            ....    1
 Number of Electrons    NEL             ....   92
 Basis Dimension        Dim             ....  218

ORBITAL ENERGIES
----------------

  NO   OCC          E(Eh)            E(eV)
   0   2.0000     -88.828908     -2417.1575
   1   2.0000     -19.103808      -519.8410
   2   2.0000     -14.354617      -390.6090
   3   2.0000     -14.348012      -390.4293
   4   2.0000     -10.291538      -280.0470
   5   2.0000     -10.247221      -278.8411
   6   2.0000     -10.224922      -278.2343
   7   2.0000     -10.222839      -278.1776
   8   2.0000     -10.210135      -277.8319
   9   2.0000     -10.208635      -277.7911
  10   2.0000     -10.176383      -276.9134
  11   2.0000      -7.924279      -215.6306
  12   2.0000      -5.893989      -160.3836
  13   2.0000      -5.889890      -160.2721
  14   2.0000      -5.882281      -160.0650
  15   2.0000      -1.031095       -28.0575
  16   2.0000      -0.944450       -25.6998
  17   2.0000      -0.897031       -24.4095
  18   2.0000      -0.837624       -22.7929
  19   2.0000      -0.752578       -20.4787
  20   2.0000      -0.731312       -19.9000
  21   2.0000      -0.710949       -19.3459
  22   2.0000      -0.629048       -17.1173
  23   2.0000      -0.601587       -16.3700
  24   2.0000      -0.582704       -15.8562
  25   2.0000      -0.568396       -15.4668
  26   2.0000      -0.543641       -14.7932
  27   2.0000      -0.516660       -14.0590
  28   2.0000      -0.491103       -13.3636
  29   2.0000      -0.478775       -13.0281
  30   2.0000      -0.456776       -12.4295
  31   2.0000      -0.438467       -11.9313
  32   2.0000      -0.435391       -11.8476
  33   2.0000      -0.417267       -11.3544
  34   2.0000      -0.409144       -11.1334
  35   2.0000      -0.385210       -10.4821
  36   2.0000      -0.380152       -10.3445
  37   2.0000      -0.372178       -10.1275
  38   2.0000      -0.365775        -9.9532
  39   2.0000      -0.363959        -9.9038
  40   2.0000      -0.329651        -8.9703
  41   2.0000      -0.312389        -8.5005
  42   2.0000      -0.278028        -7.5655
  43   2.0000      -0.262196        -7.1347
  44   2.0000      -0.223607        -6.0847
  45   2.0000      -0.219770        -5.9802
  46   0.0000       0.012177         0.3314
  47   0.0000       0.017725         0.4823
  48   0.0000       0.036294         0.9876
  49   0.0000       0.043118         1.1733
  50   0.0000       0.057763         1.5718

MULLIKEN ATOMIC CHARGES
-----------------------
   0 C :   -0.022026
   1 S :   -0.118878
   2 C :    0.073825
   3 C :   -0.244072
   4 C :    0.082177
   5 C :    0.076245
   6 O :   -0.226072
   7 N :   -0.064035
   8 N :   -0.152942
   9 C :    0.028481
  10 C :   -0.058977
  11 H :    0.035570
  12 H :    0.048616
  13 H :    0.059884
  14 H :    0.048325
  15 H :    0.028244
  16 H :    0.010788
  17 H :    0.129157
  18 H :    0.125308
  19 H :    0.105471
  20 H :    0.008023
  21 H :    0.007565
  22 H :    0.019324
Sum of atomic charges:    0.0000000

LOEWDIN ATOMIC CHARGES
----------------------
   0 C :   -0.128669
   1 S :    0.184748
   2 C :   -0.115833
   3 C :   -0.039231
   4 C :   -0.027471
   5 C :    0.058925
   6 O :   -0.214044
   7 N :    0.004939
   8 N :   -0.048981
   9 C :    0.010176
  10 C :   -0.125032
  11 H :    0.011378
  12 H :    0.026825
  13 H :    0.024731
  14 H :    0.025833
  15 H :    0.037783
  16 H :    0.025260
  17 H :    0.072787
  18 H :    0.079661
  19 H :    0.067756
  20 H :    0.021380
  21 H :    0.019655
  22 H :    0.027423

  Mayer bond orders larger than 0.100000
B(  0-C ,  1-S ) :   0.9986 B(  0-C ,  4-C ) :   1.0653 B(  0-C , 11-H ) :   0.9413
B(  0-C , 12-H ) :   0.9451 B(  1-S ,  2-C ) :   0.9881 B(  2-C ,  3-C ) :   0.9942
B(  2-C , 13-H ) :   0.9306 B(  2-C , 14-H ) :   0.9308 B(  3-C ,  4-C ) :   1.0355
B(  3-C ,  5-C ) :   0.8536 B(  3-C ,  8-N ) :   0.9913 B(  4-C , 15-H ) :   0.9282
B(  4-C , 16-H ) :   0.9321 B(  5-C ,  6-O ) :   2.1215 B(  5-C ,  7-N ) :   1.3011
B(  7-N , 17-H ) :   0.9166 B(  7-N , 18-H ) :   0.9371 B(  8-N ,  9-C ) :   1.1092
B(  8-N , 19-H ) :   0.9258 B(  9-C , 10-C ) :   1.9279 B(  9-C , 20-H ) :   0.9522
B( 10-C , 21-H ) :   0.9498 B( 10-C , 22-H ) :   0.9450

Dispersion correction           -0.047071301
FINAL SINGLE POINT ENERGY      -856.487268710837

DIPOLE MOMENT
-------------
                                X             Y             Z
Electronic contribution:     -3.73281      -1.51027      -3.17339
Nuclear contribution   :      4.88853       2.29084       3.39952
                        -----------------------------------------
Total Dipole Moment    :      1.15572       0.78057       0.22613
                        -----------------------------------------
Magnitude (a.u.)       :      1.41284
Magnitude (Debye)      :      3.59116

Rotational constants in cm-1:     0.037721     0.029428     0.021030
Rotational constants in MHz :  1130.841350   882.215984   630.448819

                             ****ORCA TERMINATED NORMALLY****
TOTAL RUN TIME: 0 days 0 hours 13 minutes 57 seconds 746 msec
