                         Program Version 4.2.0 -  RELEASE  -
|  1> # ORCA input file
|  2> # SCF done        -46.234261590172          0.000462481190
|  3> ! B3LYP/G D3BJ Opt RIJCOSX def2-SVP def2/J
|  4> * xyz 0 1
|  5>    C       -0.53241         1.22226        -0.45349
|  6>    S       -1.93890         0.24917        -0.38559
|  7>    C       -1.04608        -1.19597        -0.04552
|  8>    C        0.30862        -0.90404         0.01010
|  9>    C        0.59927         0.48308        -0.22639
| 10>    N        1.87975         0.94554        -0.21605
| 11>    C        2.80187         0.05884         0.02099
| 12>    O        4.08790         0.41289         0.04353
| 13>    C        4.36377         1.78774        -0.20937
| 14>    C        5.86927         1.97893        -0.20212
| 15>    C        2.51525        -1.34098         0.26863
| 16>    C        3.64553        -2.29654         0.54320
| 17>    N        3.24724        -3.66925         0.76664
| 18>    N        1.30014        -1.79662         0.25895
| 19>    C       -1.65314        -2.47942         0.13985
| 20>    C       -2.95944        -2.72541         0.06683
| 21>    H       -0.60894         2.27094        -0.65494
| 22>    H        3.87810         2.39516         0.56314
| 23>    H        3.92861         2.06517        -1.17644
| 24>    H        6.27895         1.69267         0.76285
| 25>    H        6.10563         3.02122        -0.39448
| 26>    H        6.32854         1.36224        -0.97002
| 27>    H        4.19557        -1.94049         1.42141
| 28>    H        4.34144        -2.26310        -0.30240
| 29>    H        2.60641        -3.70995         1.55319
| 30>    H        2.73196        -4.00531        -0.04125
| 31>    H       -0.94454        -3.26940         0.35078
| 32>    H       -3.66727        -1.94011        -0.14411
| 33>    H       -3.35751        -3.71321         0.21485
| 34> *
| 35>
| 36>                          ****END OF INPUT****
 Total Charge           Charge          ....    0
 Multiplicity           Mult            ....    1
 Number of Electrons    NEL             ....  124
Dispersion correction           -0.058615202
FINAL SINGLE POINT ENERGY     -1064.099529506798
Dispersion correction            ... done
Dispersion correction           -0.058260238
FINAL SINGLE POINT ENERGY     -1064.103088377748
Dispersion correction            ... done
Dispersion correction           -0.058237677
FINAL SINGLE POINT ENERGY     -1064.103281869091
Dispersion correction            ... done
FINAL SINGLE POINT ENERGY     -1064.103012793186
FINAL SINGLE POINT ENERGY     -1064.103015336863
FINAL SINGLE POINT ENERGY     -1064.102941035810
FINAL SINGLE POINT ENERGY     -1064.102606671385
FINAL SINGLE POINT ENERGY     -1064.102732814866
Dispersion correction            ... done
Dispersion correction           -0.058278982
FINAL SINGLE POINT ENERGY     -1064.102719146422
Dispersion correction            ... done
Dispersion correction           -0.058278387
FINAL SINGLE POINT ENERGY     -1064.102703135798
Dispersion correction            ... done
                    ***********************HURRAY********************

CARTESIAN COORDINATES (ANGSTROEM)
---------------------------------
  C     -0.616881    1.292606   -0.298447
  S     -2.003966    0.269578   -0.346702
  C     -1.084421   -1.180724   -0.086617
  C      0.269304   -0.854817    0.044152
  C      0.538659    0.559743   -0.091819
  N      1.822649    1.038682   -0.028643
  C      2.746296    0.151932    0.178287
  O      4.044711    0.481556    0.205352
  C      4.421788    1.820348   -0.141144
  C      5.902381    1.803017   -0.458168
  C      2.485547   -1.277194    0.376547
  C      3.634708   -2.216077    0.686873
  N      3.274504   -3.603267    0.882532
  N      1.274914   -1.747434    0.290508
  C     -1.643817   -2.513472   -0.023645
  C     -2.935258   -2.863351   -0.147106
  H     -0.708995    2.367009   -0.439829
  H      4.179158    2.490925    0.700110
  H      3.814477    2.152891   -0.997578
  H      6.489446    1.466390    0.410199
  H      6.244800    2.809807   -0.743250
  H      6.109263    1.117705   -1.293788
  H      4.157614   -1.830716    1.581360
  H      4.383737   -2.125333   -0.120413
  H      2.577307   -3.662124    1.626443
  H      2.777578   -3.936096    0.055026
  H     -0.882671   -3.282294    0.142808
  H     -3.723925   -2.124111   -0.315319
  H     -3.243316   -3.909129   -0.084957

 Multiplicity           Mult            ....    1
 Number of Electrons    NEL             ....  124
 Basis Dimension        Dim             ....  293

ORBITAL ENERGIES
----------------

  NO   OCC          E(Eh)            E(eV)
   0   2.0000     -88.887201     -2418.7437
   1   2.0000     -19.181279      -521.9491
   2   2.0000     -14.341790      -390.2599
   3   2.0000     -14.332733      -390.0135
   4   2.0000     -14.301208      -389.1556
   5   2.0000     -10.291902      -280.0569
   6   2.0000     -10.249760      -278.9102
   7   2.0000     -10.240895      -278.6689
   8   2.0000     -10.230177      -278.3773
   9   2.0000     -10.226233      -278.2699
  10   2.0000     -10.222608      -278.1713
  11   2.0000     -10.216252      -277.9984
  12   2.0000     -10.215376      -277.9745
  13   2.0000     -10.202959      -277.6366
  14   2.0000     -10.193670      -277.3839
  15   2.0000     -10.190893      -277.3083
  16   2.0000      -7.981699      -217.1931
  17   2.0000      -5.949559      -161.8957
  18   2.0000      -5.945555      -161.7868
  19   2.0000      -5.943571      -161.7328
  20   2.0000      -1.084552       -29.5122
  21   2.0000      -0.974621       -26.5208
  22   2.0000      -0.911666       -24.8077
  23   2.0000      -0.882646       -24.0180
  24   2.0000      -0.865779       -23.5591
  25   2.0000      -0.788633       -21.4598
  26   2.0000      -0.781376       -21.2623
  27   2.0000      -0.744300       -20.2534
  28   2.0000      -0.712888       -19.3987
  29   2.0000      -0.694151       -18.8888
  30   2.0000      -0.653716       -17.7885
  31   2.0000      -0.613416       -16.6919
  32   2.0000      -0.604316       -16.4443
  33   2.0000      -0.601800       -16.3758
  34   2.0000      -0.560334       -15.2475
  35   2.0000      -0.541204       -14.7269
  36   2.0000      -0.523355       -14.2412
  37   2.0000      -0.502860       -13.6835
  38   2.0000      -0.496465       -13.5095
  39   2.0000      -0.488835       -13.3019
  40   2.0000      -0.454250       -12.3608
  41   2.0000      -0.451112       -12.2754
  42   2.0000      -0.445172       -12.1137
  43   2.0000      -0.432258       -11.7623
  44   2.0000      -0.424715       -11.5571
  45   2.0000      -0.414253       -11.2724
  46   2.0000      -0.407743       -11.0953
  47   2.0000      -0.402661       -10.9570
  48   2.0000      -0.398872       -10.8539
  49   2.0000      -0.383608       -10.4385
  50   2.0000      -0.373965       -10.1761
  51   2.0000      -0.362208        -9.8562
  52   2.0000      -0.356191        -9.6925
  53   2.0000      -0.348980        -9.4962
  54   2.0000      -0.343636        -9.3508
  55   2.0000      -0.326499        -8.8845
  56   2.0000      -0.315476        -8.5845
  57   2.0000      -0.291532        -7.9330
  58   2.0000      -0.260258        -7.0820
  59   2.0000      -0.244121        -6.6429
  60   2.0000      -0.238577        -6.4920
  61   2.0000      -0.210595        -5.7306
  62   0.0000      -0.080813        -2.1990
  63   0.0000      -0.021943        -0.5971
  64   0.0000       0.010271         0.2795
  65   0.0000       0.037367         1.0168
  66   0.0000       0.053932         1.4676

MULLIKEN ATOMIC CHARGES
-----------------------
   0 C :   -0.172659
   1 S :    0.134633
   2 C :   -0.158946
   3 C :    0.031495
   4 C :    0.109928
   5 N :   -0.070749
   6 C :    0.129092
   7 O :   -0.308246
   8 C :    0.186890
   9 C :    0.000803
  10 C :   -0.184206
  11 C :    0.169760
  12 N :   -0.183125
  13 N :   -0.042503
  14 C :    0.012621
  15 C :   -0.032782
  16 H :    0.014756
  17 H :    0.017886
  18 H :    0.018169
  19 H :    0.026456
  20 H :    0.017542
  21 H :    0.024348
  22 H :    0.018279
  23 H :    0.022948
  24 H :    0.087933
  25 H :    0.088280
  26 H :   -0.001208
  27 H :    0.017716
  28 H :    0.024890
Sum of atomic charges:   -0.0000000

LOEWDIN ATOMIC CHARGES
----------------------
   0 C :   -0.207366
   1 S :    0.471522
   2 C :   -0.189695
   3 C :   -0.054060
   4 C :   -0.045975
   5 N :   -0.104956
   6 C :    0.046955
   7 O :   -0.086746
   8 C :    0.093680
   9 C :   -0.061981
  10 C :   -0.026747
  11 C :    0.007160
  12 N :   -0.101786
  13 N :   -0.061946
  14 C :   -0.034413
  15 C :   -0.055448
  16 H :    0.028170
  17 H :    0.019033
  18 H :    0.017468
  19 H :    0.029472
  20 H :    0.031811
  21 H :    0.028632
  22 H :    0.033418
  23 H :    0.033540
  24 H :    0.053951
  25 H :    0.053778
  26 H :    0.036793
  27 H :    0.018462
  28 H :    0.027275

  Mayer bond orders larger than 0.100000
B(  0-C ,  1-S ) :   1.1646 B(  0-C ,  2-C ) :   0.1141 B(  0-C ,  4-C ) :   1.4123
B(  0-C , 16-H ) :   0.9710 B(  1-S ,  2-C ) :   1.1520 B(  2-C ,  3-C ) :   1.3535
B(  2-C , 14-C ) :   1.1698 B(  3-C ,  4-C ) :   1.1894 B(  3-C , 13-N ) :   1.3403
B(  4-C ,  5-N ) :   1.3065 B(  5-N ,  6-C ) :   1.6388 B(  6-C ,  7-O ) :   1.2343
B(  6-C , 10-C ) :   1.0660 B(  7-O ,  8-C ) :   0.8923 B(  8-C ,  9-C ) :   1.1028
B(  8-C , 17-H ) :   0.9561 B(  8-C , 18-H ) :   0.9459 B(  9-C , 19-H ) :   0.9663
B(  9-C , 20-H ) :   0.9601 B(  9-C , 21-H ) :   0.9690 B( 10-C , 11-C ) :   0.9666
B( 10-C , 13-N ) :   1.7724 B( 11-C , 12-N ) :   1.1595 B( 11-C , 22-H ) :   0.9253
B( 11-C , 23-H ) :   0.9233 B( 12-N , 24-H ) :   0.9731 B( 12-N , 25-H ) :   0.9718
B( 14-C , 15-C ) :   1.8718 B( 14-C , 26-H ) :   0.9494 B( 15-C , 27-H ) :   0.9525
B( 15-C , 28-H ) :   0.9476

Dispersion correction           -0.058278236
FINAL SINGLE POINT ENERGY     -1064.102706943802

DIPOLE MOMENT
-------------
                                X             Y             Z
Electronic contribution:    -15.32713       2.65153      -0.24218
Nuclear contribution   :     15.46377      -1.95364       0.03145
                        -----------------------------------------
Total Dipole Moment    :      0.13664       0.69789      -0.21072
                        -----------------------------------------
Magnitude (a.u.)       :      0.74170
Magnitude (Debye)      :      1.88525

Rotational constants in cm-1:     0.026820     0.009845     0.007280
Rotational constants in MHz :   804.035999   295.149423   218.235387

                             ****ORCA TERMINATED NORMALLY****
TOTAL RUN TIME: 0 days 0 hours 24 minutes 40 seconds 739 msec
