                         Program Version 4.2.0 -  RELEASE  -
|  1> # ORCA input file
|  2> # SCF done        -38.789434280445          0.000329389472
|  3> ! B3LYP/G D3BJ Opt RIJCOSX def2-SVP def2/J
|  4> * xyz 0 1
|  5>    C        1.41656         0.56892        -0.68030
|  6>    C        0.69840         1.75783        -0.58346
|  7>    O        1.39173         2.90178        -0.86875
|  8>    C        0.72090         4.13200        -0.76227
|  9>    C       -0.63584         1.70746        -0.21116
| 10>    C       -1.26499         0.49620         0.06895
| 11>    C       -0.52250        -0.69723        -0.01885
| 12>    C        0.81307        -0.64112        -0.40038
| 13>    O       -1.18737        -1.85224         0.27403
| 14>    C       -0.48199        -3.07492         0.26152
| 15>    C       -1.44992        -4.16616         0.69360
| 16>    C       -2.66536         0.42859         0.46793
| 17>    C       -3.57393         1.38712         0.33145
| 18>    H        2.45334         0.61150        -0.97291
| 19>    H        1.45711         4.89254        -1.01860
| 20>    H        0.36059         4.30802         0.25704
| 21>    H       -0.12038         4.19515        -1.46083
| 22>    H       -1.21207         2.61236        -0.11510
| 23>    H        1.40082        -1.54130        -0.48390
| 24>    H        0.37013        -3.02892         0.95441
| 25>    H       -0.10290        -3.28452        -0.74885
| 26>    H       -1.82223        -3.95716         1.69296
| 27>    H       -0.94674        -5.12893         0.69420
| 28>    H       -2.29411        -4.20400         0.01042
| 29>    H       -2.95724        -0.52094         0.89449
| 30>    H       -3.35660         2.34239        -0.11591
| 31>    H       -4.58946         1.24370         0.65855
| 32> *
| 33>
| 34>                          ****END OF INPUT****
 Total Charge           Charge          ....    0
 Multiplicity           Mult            ....    1
 Number of Electrons    NEL             ....   96
Dispersion correction           -0.046581135
FINAL SINGLE POINT ENERGY      -577.636204652782
Dispersion correction            ... done
Dispersion correction           -0.046336426
FINAL SINGLE POINT ENERGY      -577.638740155864
Dispersion correction            ... done
Dispersion correction           -0.046298912
FINAL SINGLE POINT ENERGY      -577.638777396828
Dispersion correction            ... done
FINAL SINGLE POINT ENERGY      -577.638510932543
FINAL SINGLE POINT ENERGY      -577.638265115867
FINAL SINGLE POINT ENERGY      -577.638285890177
FINAL SINGLE POINT ENERGY      -577.638311650084
FINAL SINGLE POINT ENERGY      -577.638285591633
Dispersion correction            ... done
Dispersion correction           -0.046312550
FINAL SINGLE POINT ENERGY      -577.638266889850
Dispersion correction            ... done
Dispersion correction           -0.046310630
FINAL SINGLE POINT ENERGY      -577.638262116006
Dispersion correction            ... done
                    ***********************HURRAY********************

CARTESIAN COORDINATES (ANGSTROEM)
---------------------------------
  C      1.478615    0.584592   -0.512308
  C      0.738397    1.774028   -0.480500
  O      1.402916    2.907271   -0.839884
  C      0.670700    4.095952   -1.014156
  C     -0.601853    1.731444   -0.084787
  C     -1.225985    0.517069    0.254872
  C     -0.469317   -0.675983    0.197738
  C      0.882264   -0.627278   -0.175323
  O     -1.125563   -1.830488    0.498343
  C     -0.482796   -3.072979    0.279888
  C     -1.512841   -4.172685    0.432281
  C     -2.638346    0.455360    0.660299
  C     -3.580867    1.371857    0.397096
  H      2.524345    0.630816   -0.820316
  H      1.371215    4.842779   -1.412302
  H      0.251513    4.472313   -0.062745
  H     -0.160205    3.963106   -1.730867
  H     -1.185895    2.647692   -0.010243
  H      1.479237   -1.537183   -0.215707
  H      0.348649   -3.206498    0.998466
  H     -0.044517   -3.094200   -0.735114
  H     -1.939961   -4.176763    1.446818
  H     -1.046851   -5.152793    0.243429
  H     -2.335615   -4.028781   -0.283819
  H     -2.919124   -0.443838    1.214498
  H     -3.377805    2.269863   -0.194167
  H     -4.601291    1.243447    0.766793

 Multiplicity           Mult            ....    1
 Number of Electrons    NEL             ....   96
 Basis Dimension        Dim             ....  252

ORBITAL ENERGIES
----------------

  NO   OCC          E(Eh)            E(eV)
   0   2.0000     -19.159404      -521.3539
   1   2.0000     -19.157360      -521.2983
   2   2.0000     -10.245946      -278.8064
   3   2.0000     -10.242435      -278.7108
   4   2.0000     -10.241561      -278.6870
   5   2.0000     -10.239602      -278.6337
   6   2.0000     -10.191903      -277.3358
   7   2.0000     -10.188774      -277.2506
   8   2.0000     -10.188459      -277.2421
   9   2.0000     -10.186386      -277.1856
  10   2.0000     -10.185587      -277.1639
  11   2.0000     -10.184946      -277.1465
  12   2.0000     -10.179889      -277.0089
  13   2.0000      -1.055464       -28.7206
  14   2.0000      -1.052645       -28.6439
  15   2.0000      -0.847227       -23.0542
  16   2.0000      -0.783624       -21.3235
  17   2.0000      -0.768409       -20.9095
  18   2.0000      -0.732687       -19.9374
  19   2.0000      -0.719229       -19.5712
  20   2.0000      -0.683474       -18.5983
  21   2.0000      -0.635552       -17.2942
  22   2.0000      -0.617401       -16.8003
  23   2.0000      -0.576133       -15.6774
  24   2.0000      -0.558121       -15.1872
  25   2.0000      -0.533199       -14.5091
  26   2.0000      -0.520588       -14.1659
  27   2.0000      -0.494863       -13.4659
  28   2.0000      -0.486716       -13.2442
  29   2.0000      -0.467191       -12.7129
  30   2.0000      -0.451195       -12.2776
  31   2.0000      -0.445778       -12.1302
  32   2.0000      -0.429752       -11.6941
  33   2.0000      -0.423217       -11.5163
  34   2.0000      -0.412940       -11.2367
  35   2.0000      -0.401596       -10.9280
  36   2.0000      -0.397958       -10.8290
  37   2.0000      -0.390349       -10.6219
  38   2.0000      -0.372488       -10.1359
  39   2.0000      -0.366145        -9.9633
  40   2.0000      -0.354451        -9.6451
  41   2.0000      -0.342368        -9.3163
  42   2.0000      -0.334105        -9.0915
  43   2.0000      -0.318138        -8.6570
  44   2.0000      -0.301557        -8.2058
  45   2.0000      -0.283518        -7.7149
  46   2.0000      -0.235478        -6.4077
  47   2.0000      -0.199198        -5.4204
  48   0.0000      -0.035325        -0.9612
  49   0.0000       0.016292         0.4433
  50   0.0000       0.051735         1.4078
  51   0.0000       0.058453         1.5906
  52   0.0000       0.061300         1.6681

MULLIKEN ATOMIC CHARGES
-----------------------
   0 C :   -0.013632
   1 C :    0.248319
   2 O :   -0.320419
   3 C :    0.188795
   4 C :   -0.147582
   5 C :    0.031099
   6 C :    0.200462
   7 C :   -0.082398
   8 O :   -0.324694
   9 C :    0.157233
  10 C :    0.022979
  11 C :    0.003780
  12 C :   -0.024522
  13 H :   -0.024199
  14 H :    0.029496
  15 H :    0.015677
  16 H :    0.014700
  17 H :   -0.046955
  18 H :   -0.028044
  19 H :    0.009473
  20 H :    0.006538
  21 H :    0.021456
  22 H :    0.010064
  23 H :    0.026832
  24 H :   -0.003292
  25 H :    0.010947
  26 H :    0.017887
Sum of atomic charges:    0.0000000

LOEWDIN ATOMIC CHARGES
----------------------
   0 C :   -0.036409
   1 C :    0.036026
   2 O :   -0.108890
   3 C :    0.077630
   4 C :   -0.058027
   5 C :   -0.044572
   6 C :    0.044211
   7 C :   -0.065824
   8 O :   -0.105337
   9 C :    0.083586
  10 C :   -0.058418
  11 C :   -0.014519
  12 C :   -0.056236
  13 H :    0.030919
  14 H :    0.025347
  15 H :    0.010557
  16 H :    0.011476
  17 H :    0.024135
  18 H :    0.027364
  19 H :    0.009621
  20 H :    0.010298
  21 H :    0.028294
  22 H :    0.029303
  23 H :    0.029769
  24 H :    0.029005
  25 H :    0.016823
  26 H :    0.023868

  Mayer bond orders larger than 0.100000
B(  0-C ,  1-C ) :   1.3578 B(  0-C ,  7-C ) :   1.3365 B(  0-C , 13-H ) :   0.9870
B(  1-C ,  2-O ) :   1.1081 B(  1-C ,  4-C ) :   1.2932 B(  2-O ,  3-C ) :   0.9782
B(  3-C , 14-H ) :   0.9760 B(  3-C , 15-H ) :   0.9637 B(  3-C , 16-H ) :   0.9633
B(  4-C ,  5-C ) :   1.3279 B(  4-C , 17-H ) :   0.9895 B(  5-C ,  6-C ) :   1.3461
B(  5-C , 11-C ) :   1.0821 B(  6-C ,  7-C ) :   1.2937 B(  6-C ,  8-O ) :   1.1440
B(  7-C , 18-H ) :   0.9919 B(  8-O ,  9-C ) :   0.9480 B(  9-C , 10-C ) :   1.1050
B(  9-C , 19-H ) :   0.9452 B(  9-C , 20-H ) :   0.9406 B( 10-C , 21-H ) :   0.9656
B( 10-C , 22-H ) :   0.9590 B( 10-C , 23-H ) :   0.9676 B( 11-C , 12-C ) :   1.9352
B( 11-C , 24-H ) :   0.9517 B( 12-C , 25-H ) :   0.9444 B( 12-C , 26-H ) :   0.9446

Dispersion correction           -0.046310548
FINAL SINGLE POINT ENERGY      -577.638263379863

DIPOLE MOMENT
-------------
                                X             Y             Z
Electronic contribution:      4.42985       4.17840       0.09047
Nuclear contribution   :     -4.39319      -4.37030      -0.24853
                        -----------------------------------------
Total Dipole Moment    :      0.03666      -0.19191      -0.15806
                        -----------------------------------------
Magnitude (a.u.)       :      0.25131
Magnitude (Debye)      :      0.63877

Rotational constants in cm-1:     0.044571     0.015629     0.011725
Rotational constants in MHz :  1336.205974   468.558408   351.508204

                             ****ORCA TERMINATED NORMALLY****
TOTAL RUN TIME: 0 days 0 hours 17 minutes 43 seconds 685 msec
