                         Program Version 4.2.0 -  RELEASE  -
|  1> # ORCA input file
|  2> # SCF done        -33.866642265013          0.000736230862
|  3> ! B3LYP/G D3BJ Opt RIJCOSX def2-SVP def2/J
|  4> * xyz 0 1
|  5>    C       -1.50928        -1.22877         0.28333
|  6>    S       -2.67790         0.00582         0.33748
|  7>    C       -1.50489         1.23352         0.15030
|  8>    C       -0.23435         0.71948         0.05057
|  9>    C       -0.23513        -0.72211         0.12803
| 10>    C        0.98306        -1.42475         0.04305
| 11>    C        2.13932        -0.70907        -0.11309
| 12>    N        3.39045        -1.41095        -0.20359
| 13>    O        3.36613        -2.62255        -0.12263
| 14>    O        4.39945        -0.75373        -0.35594
| 15>    C        2.15187         0.70959        -0.19056
| 16>    C        0.99364         1.41243        -0.11039
| 17>    H       -1.80227        -2.25581         0.36766
| 18>    H       -1.80533         2.26160         0.12488
| 19>    H        1.00800        -2.50226         0.09789
| 20>    H        3.10520         1.19866        -0.31508
| 21>    H        0.98670         2.48952        -0.16844
| 22> *
| 23>
| 24>                          ****END OF INPUT****
 Total Charge           Charge          ....    0
 Multiplicity           Mult            ....    1
 Number of Electrons    NEL             ....   92
Dispersion correction           -0.038702280
FINAL SINGLE POINT ENERGY      -910.694559843632
Dispersion correction            ... done
Dispersion correction           -0.038526413
FINAL SINGLE POINT ENERGY      -910.697341624891
Dispersion correction            ... done
Dispersion correction           -0.038501530
FINAL SINGLE POINT ENERGY      -910.697318677380
Dispersion correction            ... done
FINAL SINGLE POINT ENERGY      -910.697383206192
FINAL SINGLE POINT ENERGY      -910.697505382478
Dispersion correction            ... done
Dispersion correction           -0.038500793
FINAL SINGLE POINT ENERGY      -910.697512117355
Dispersion correction            ... done
Dispersion correction           -0.038499832
FINAL SINGLE POINT ENERGY      -910.697509269485
Dispersion correction            ... done
                    ***********************HURRAY********************

CARTESIAN COORDINATES (ANGSTROEM)
---------------------------------
  C     -1.529494   -1.240848    0.291908
  S     -2.697708    0.006047    0.344000
  C     -1.533524    1.250942    0.150358
  C     -0.249422    0.731251    0.047569
  C     -0.246444   -0.722369    0.130513
  C      0.986496   -1.429676    0.043614
  C      2.140236   -0.705147   -0.108558
  N      3.418357   -1.436157   -0.208199
  O      3.385308   -2.656132   -0.161539
  O      4.436472   -0.773239   -0.334405
  C      2.164014    0.723041   -0.184923
  C      0.992061    1.426346   -0.113719
  H     -1.823564   -2.284512    0.383839
  H     -1.841845    2.294043    0.114354
  H      1.033747   -2.516871    0.096713
  H      3.126254    1.217407   -0.306220
  H      0.993728    2.516494   -0.181837

 Multiplicity           Mult            ....    1
 Number of Electrons    NEL             ....   92
 Basis Dimension        Dim             ....  197

ORBITAL ENERGIES
----------------

  NO   OCC          E(Eh)            E(eV)
   0   2.0000     -88.909090     -2419.3393
   1   2.0000     -19.160279      -521.3777
   2   2.0000     -19.158688      -521.3344
   3   2.0000     -14.557223      -396.1222
   4   2.0000     -10.250545      -278.9315
   5   2.0000     -10.237289      -278.5708
   6   2.0000     -10.233460      -278.4666
   7   2.0000     -10.227470      -278.3036
   8   2.0000     -10.225609      -278.2530
   9   2.0000     -10.223534      -278.1965
  10   2.0000     -10.218233      -278.0523
  11   2.0000     -10.215019      -277.9648
  12   2.0000      -8.003722      -217.7923
  13   2.0000      -5.971336      -162.4883
  14   2.0000      -5.967126      -162.3738
  15   2.0000      -5.966314      -162.3517
  16   2.0000      -1.220072       -33.1998
  17   2.0000      -1.045723       -28.4556
  18   2.0000      -0.916068       -24.9275
  19   2.0000      -0.866704       -23.5842
  20   2.0000      -0.795901       -21.6576
  21   2.0000      -0.776244       -21.1227
  22   2.0000      -0.730738       -19.8844
  23   2.0000      -0.689471       -18.7615
  24   2.0000      -0.629591       -17.1320
  25   2.0000      -0.597192       -16.2504
  26   2.0000      -0.576854       -15.6970
  27   2.0000      -0.549734       -14.9590
  28   2.0000      -0.538857       -14.6631
  29   2.0000      -0.527291       -14.3483
  30   2.0000      -0.505541       -13.7565
  31   2.0000      -0.490139       -13.3374
  32   2.0000      -0.464431       -12.6378
  33   2.0000      -0.453270       -12.3341
  34   2.0000      -0.433828       -11.8051
  35   2.0000      -0.427624       -11.6363
  36   2.0000      -0.411019       -11.1844
  37   2.0000      -0.377889       -10.2829
  38   2.0000      -0.369802       -10.0628
  39   2.0000      -0.363279        -9.8853
  40   2.0000      -0.314884        -8.5684
  41   2.0000      -0.308914        -8.4060
  42   2.0000      -0.308367        -8.3911
  43   2.0000      -0.291905        -7.9431
  44   2.0000      -0.277156        -7.5418
  45   2.0000      -0.231894        -6.3101
  46   0.0000      -0.098961        -2.6929
  47   0.0000      -0.061936        -1.6854
  48   0.0000      -0.000099        -0.0027
  49   0.0000       0.018120         0.4931
  50   0.0000       0.029759         0.8098

MULLIKEN ATOMIC CHARGES
-----------------------
   0 C :   -0.128779
   1 S :    0.162503
   2 C :   -0.137980
   3 C :    0.113280
   4 C :    0.087556
   5 C :   -0.049071
   6 C :    0.166125
   7 N :    0.228943
   8 O :   -0.243547
   9 O :   -0.241869
  10 C :   -0.012001
  11 C :    0.001222
  12 H :    0.032005
  13 H :    0.026151
  14 H :    0.003616
  15 H :    0.005206
  16 H :   -0.013361
Sum of atomic charges:   -0.0000000

LOEWDIN ATOMIC CHARGES
----------------------
   0 C :   -0.194659
   1 S :    0.507527
   2 C :   -0.204413
   3 C :   -0.046293
   4 C :   -0.052156
   5 C :    0.015957
   6 C :   -0.029665
   7 N :    0.275504
   8 O :   -0.211024
   9 O :   -0.206357
  10 C :   -0.022840
  11 C :   -0.008435
  12 H :    0.031070
  13 H :    0.029036
  14 H :    0.042491
  15 H :    0.039780
  16 H :    0.034478

  Mayer bond orders larger than 0.100000
B(  0-C ,  1-S ) :   1.2305 B(  0-C ,  2-C ) :   0.1120 B(  0-C ,  4-C ) :   1.3852
B(  0-C , 12-H ) :   0.9660 B(  1-S ,  2-C ) :   1.2042 B(  2-C ,  3-C ) :   1.4156
B(  2-C , 13-H ) :   0.9650 B(  3-C ,  4-C ) :   1.1948 B(  3-C , 11-C ) :   1.1695
B(  4-C ,  5-C ) :   1.1463 B(  5-C ,  6-C ) :   1.5076 B(  5-C , 14-H ) :   0.9952
B(  6-C ,  7-N ) :   0.8604 B(  6-C , 10-C ) :   1.2046 B(  7-N ,  8-O ) :   1.5487
B(  7-N ,  9-O ) :   1.5427 B(  8-O ,  9-O ) :   0.2760 B( 10-C , 11-C ) :   1.5190
B( 10-C , 15-H ) :   0.9806 B( 11-C , 16-H ) :   0.9944

Dispersion correction           -0.038501143
FINAL SINGLE POINT ENERGY      -910.697511228782

DIPOLE MOMENT
-------------
                                X             Y             Z
Electronic contribution:     -0.30563      -2.20410       0.15715
Nuclear contribution   :     -1.55621       3.00933      -0.00652
                        -----------------------------------------
Total Dipole Moment    :     -1.86184       0.80523       0.15063
                        -----------------------------------------
Magnitude (a.u.)       :      2.03409
Magnitude (Debye)      :      5.17024

Rotational constants in cm-1:     0.083160     0.015479     0.013050
Rotational constants in MHz :  2493.062596   464.042012   391.230243

                             ****ORCA TERMINATED NORMALLY****
TOTAL RUN TIME: 0 days 0 hours 8 minutes 33 seconds 658 msec
