                         Program Version 4.2.0 -  RELEASE  -
|  1> # ORCA input file
|  2> # SCF done        -32.551974319676          0.000685322776
|  3> ! B3LYP/G D3BJ Opt RIJCOSX def2-SVP def2/J
|  4> * xyz 0 1
|  5>    C        0.08692         1.53038         0.20198
|  6>    S       -1.12817         0.33196         0.14946
|  7>    C        0.06511        -0.88513        -0.15844
|  8>    C       -0.36497        -2.27048        -0.31885
|  9>    O       -1.51164        -2.64412        -0.27334
| 10>    O        0.67993        -3.09427        -0.52194
| 11>    C        0.35269        -4.46621        -0.68415
| 12>    C        1.32673        -0.36084        -0.21340
| 13>    C        1.35427         1.03935        -0.00650
| 14>    C        2.53301         1.88489        -0.00626
| 15>    C        3.77863         1.46941        -0.20252
| 16>    H       -0.18659         2.55149         0.38509
| 17>    H        1.29871        -4.99767        -0.74935
| 18>    H       -0.23258        -4.61172        -1.59459
| 19>    H       -0.23101        -4.82033         0.16799
| 20>    H        2.19232        -0.96920        -0.39654
| 21>    H        2.33697         2.93431         0.17115
| 22>    H        4.01987         0.43576        -0.38155
| 23>    H        4.60668         2.15653        -0.18971
| 24> *
| 25>
| 26>                          ****END OF INPUT****
 Total Charge           Charge          ....    0
 Multiplicity           Mult            ....    1
 Number of Electrons    NEL             ....   88
Dispersion correction           -0.035727973
FINAL SINGLE POINT ENERGY      -857.876418255929
Dispersion correction            ... done
Dispersion correction           -0.035525021
FINAL SINGLE POINT ENERGY      -857.878501869786
Dispersion correction            ... done
Dispersion correction           -0.035486906
FINAL SINGLE POINT ENERGY      -857.878502086352
Dispersion correction            ... done
FINAL SINGLE POINT ENERGY      -857.878502853743
FINAL SINGLE POINT ENERGY      -857.878458167844
FINAL SINGLE POINT ENERGY      -857.878461946467
Dispersion correction            ... done
Dispersion correction           -0.035489729
FINAL SINGLE POINT ENERGY      -857.878459671116
Dispersion correction            ... done
Dispersion correction           -0.035486981
FINAL SINGLE POINT ENERGY      -857.878464377071
Dispersion correction            ... done
                    ***********************HURRAY********************

CARTESIAN COORDINATES (ANGSTROEM)
---------------------------------
  C      0.075295    1.542302    0.155601
  S     -1.129448    0.317485    0.134841
  C      0.081712   -0.907140   -0.115565
  C     -0.366664   -2.299743   -0.275864
  O     -1.522375   -2.655106   -0.214333
  O      0.661002   -3.136257   -0.514959
  C      0.313513   -4.504462   -0.720081
  C      1.347706   -0.371473   -0.168710
  C      1.361504    1.052529   -0.013895
  C      2.543551    1.916140   -0.034355
  C      3.819455    1.521044   -0.152887
  H     -0.208179    2.584729    0.299079
  H      1.244814   -5.020548   -0.983026
  H     -0.421744   -4.604313   -1.532360
  H     -0.121836   -4.939431    0.192805
  H      2.231724   -0.987113   -0.328206
  H      2.333564    2.987819    0.059150
  H      4.099756    0.468558   -0.247515
  H      4.633530    2.249089   -0.161190

 Multiplicity           Mult            ....    1
 Number of Electrons    NEL             ....   88
 Basis Dimension        Dim             ....  198

ORBITAL ENERGIES
----------------

  NO   OCC          E(Eh)            E(eV)
   0   2.0000     -88.885498     -2418.6974
   1   2.0000     -19.181443      -521.9536
   2   2.0000     -19.122492      -520.3495
   3   2.0000     -10.321033      -280.8496
   4   2.0000     -10.248351      -278.8718
   5   2.0000     -10.225213      -278.2422
   6   2.0000     -10.225012      -278.2367
   7   2.0000     -10.210359      -277.8380
   8   2.0000     -10.209144      -277.8049
   9   2.0000     -10.205050      -277.6935
  10   2.0000     -10.193915      -277.3905
  11   2.0000      -7.980219      -217.1528
  12   2.0000      -5.948266      -161.8606
  13   2.0000      -5.944079      -161.7466
  14   2.0000      -5.941782      -161.6841
  15   2.0000      -1.099835       -29.9280
  16   2.0000      -1.008994       -27.4561
  17   2.0000      -0.893348       -24.3092
  18   2.0000      -0.794858       -21.6292
  19   2.0000      -0.762704       -20.7542
  20   2.0000      -0.726761       -19.7762
  21   2.0000      -0.710860       -19.3435
  22   2.0000      -0.626415       -17.0456
  23   2.0000      -0.592766       -16.1300
  24   2.0000      -0.555352       -15.1119
  25   2.0000      -0.545427       -14.8418
  26   2.0000      -0.529129       -14.3983
  27   2.0000      -0.489505       -13.3201
  28   2.0000      -0.474239       -12.9047
  29   2.0000      -0.463391       -12.6095
  30   2.0000      -0.453490       -12.3401
  31   2.0000      -0.426774       -11.6131
  32   2.0000      -0.417808       -11.3691
  33   2.0000      -0.411660       -11.2018
  34   2.0000      -0.396157       -10.7800
  35   2.0000      -0.386123       -10.5069
  36   2.0000      -0.371925       -10.1206
  37   2.0000      -0.362692        -9.8694
  38   2.0000      -0.354123        -9.6362
  39   2.0000      -0.314057        -8.5459
  40   2.0000      -0.308039        -8.3822
  41   2.0000      -0.284702        -7.7471
  42   2.0000      -0.261376        -7.1124
  43   2.0000      -0.233653        -6.3580
  44   0.0000      -0.058750        -1.5987
  45   0.0000      -0.030985        -0.8431
  46   0.0000       0.036710         0.9989
  47   0.0000       0.063430         1.7260
  48   0.0000       0.066857         1.8193

MULLIKEN ATOMIC CHARGES
-----------------------
   0 C :   -0.117978
   1 S :    0.173783
   2 C :   -0.189682
   3 C :    0.231544
   4 O :   -0.223060
   5 O :   -0.310752
   6 C :    0.194577
   7 C :    0.042147
   8 C :    0.082445
   9 C :    0.001372
  10 C :   -0.024680
  11 H :    0.027014
  12 H :    0.030336
  13 H :    0.032481
  14 H :    0.030250
  15 H :   -0.005515
  16 H :   -0.014199
  17 H :    0.013343
  18 H :    0.026574
Sum of atomic charges:   -0.0000000

LOEWDIN ATOMIC CHARGES
----------------------
   0 C :   -0.174940
   1 S :    0.479450
   2 C :   -0.221061
   3 C :    0.062905
   4 O :   -0.186779
   5 O :   -0.098584
   6 C :    0.085955
   7 C :   -0.016062
   8 C :   -0.068011
   9 C :   -0.023762
  10 C :   -0.048529
  11 H :    0.026751
  12 H :    0.024253
  13 H :    0.022506
  14 H :    0.022361
  15 H :    0.034682
  16 H :    0.029962
  17 H :    0.021078
  18 H :    0.027825

  Mayer bond orders larger than 0.100000
B(  0-C ,  1-S ) :   1.1862 B(  0-C ,  8-C ) :   1.4806 B(  0-C , 11-H ) :   0.9669
B(  1-S ,  2-C ) :   1.1448 B(  2-C ,  3-C ) :   0.9877 B(  2-C ,  7-C ) :   1.5158
B(  3-C ,  4-O ) :   2.0938 B(  3-C ,  5-O ) :   1.2161 B(  5-O ,  6-C ) :   0.9213
B(  6-C , 12-H ) :   0.9791 B(  6-C , 13-H ) :   0.9725 B(  6-C , 14-H ) :   0.9747
B(  7-C ,  8-C ) :   1.2230 B(  7-C , 15-H ) :   0.9950 B(  8-C ,  9-C ) :   1.0896
B(  9-C , 10-C ) :   1.9315 B(  9-C , 16-H ) :   0.9617 B( 10-C , 17-H ) :   0.9477
B( 10-C , 18-H ) :   0.9456

Dispersion correction           -0.035487175
FINAL SINGLE POINT ENERGY      -857.878464691191

DIPOLE MOMENT
-------------
                                X             Y             Z
Electronic contribution:     -8.85190       1.93178       1.29230
Nuclear contribution   :      9.65128      -1.80097      -1.38913
                        -----------------------------------------
Total Dipole Moment    :      0.79938       0.13081      -0.09683
                        -----------------------------------------
Magnitude (a.u.)       :      0.81578
Magnitude (Debye)      :      2.07354

Rotational constants in cm-1:     0.055874     0.020114     0.014835
Rotational constants in MHz :  1675.053076   602.999747   444.746393

                             ****ORCA TERMINATED NORMALLY****
TOTAL RUN TIME: 0 days 0 hours 12 minutes 3 seconds 35 msec
