                         Program Version 4.2.0 -  RELEASE  -
|  1> # ORCA input file
|  2> # SCF done        -32.147041821489          0.000562567296
|  3> ! B3LYP/G D3BJ Opt RIJCOSX def2-SVP def2/J
|  4> * xyz 0 2
|  5>    C        0.23359        -0.29449         1.25164
|  6>    S        1.19661         0.05113        -0.12046
|  7>    C       -0.13190         0.96677        -0.89755
|  8>    S        0.04164         1.68568        -2.39991
|  9>    C       -1.21804         0.94605        -0.06080
| 10>    C       -1.02718         0.24351         1.14423
| 11>    C       -2.18164         0.22697         2.02022
| 12>    C       -3.24014         0.87615         1.54723
| 13>    S       -2.89251         1.58740        -0.07690
| 14>    O       -2.89767         3.01845        -0.01471
| 15>    O       -3.67754         0.94535        -1.08872
| 16>    H        0.64033        -0.87195         2.05897
| 17>    H       -2.14014        -0.28311         2.97054
| 18>    H       -4.19818         1.00039         2.01097
| 19> *
| 20>
| 21>                          ****END OF INPUT****
 Total Charge           Charge          ....    0
 Multiplicity           Mult            ....    2
 Number of Electrons    NEL             ....  103
Dispersion correction           -0.040857213
FINAL SINGLE POINT ENERGY     -1574.735938436133
Dispersion correction            ... done
Dispersion correction           -0.040796636
FINAL SINGLE POINT ENERGY     -1574.740236425359
Dispersion correction            ... done
Dispersion correction           -0.040803466
FINAL SINGLE POINT ENERGY     -1574.741110919311
Dispersion correction            ... done
FINAL SINGLE POINT ENERGY     -1574.741177410194
FINAL SINGLE POINT ENERGY     -1574.741178901601
Dispersion correction            ... done
Dispersion correction           -0.040861150
FINAL SINGLE POINT ENERGY     -1574.741178174526
Dispersion correction            ... done
Dispersion correction           -0.040858479
FINAL SINGLE POINT ENERGY     -1574.741182838112
Dispersion correction            ... done
                    ***********************HURRAY********************

CARTESIAN COORDINATES (ANGSTROEM)
---------------------------------
  C      0.269888   -0.305018    1.251797
  S      1.213082    0.064240   -0.146450
  C     -0.134320    0.976566   -0.917368
  S     -0.006124    1.712108   -2.415590
  C     -1.216729    0.926904   -0.036107
  C     -1.011116    0.222436    1.167768
  C     -2.190585    0.213210    2.044807
  C     -3.239555    0.882387    1.538936
  S     -2.886098    1.591376   -0.086125
  O     -2.860719    3.051083   -0.007544
  O     -3.691650    0.910220   -1.097209
  H      0.692332   -0.887880    2.071002
  H     -2.200979   -0.294582    3.010629
  H     -4.230197    1.035252    1.966203

 Multiplicity           Mult            ....    2
 Number of Electrons    NEL             ....  103
 Basis Dimension        Dim             ....  181

ORBITAL ENERGIES
----------------
                 SPIN UP ORBITALS
  NO   OCC          E(Eh)            E(eV)
   0   1.0000     -89.074854     -2423.8500
   1   1.0000     -88.911357     -2419.4010
   2   1.0000     -88.857164     -2417.9264
   3   1.0000     -19.133507      -520.6492
   4   1.0000     -19.133177      -520.6402
   5   1.0000     -10.281766      -279.7811
   6   1.0000     -10.270065      -279.4627
   7   1.0000     -10.253158      -279.0026
   8   1.0000     -10.250095      -278.9193
   9   1.0000     -10.247200      -278.8405
  10   1.0000     -10.243381      -278.7366
  11   1.0000      -8.139301      -221.4816
  12   1.0000      -8.006461      -217.8669
  13   1.0000      -7.952047      -216.3862
  14   1.0000      -6.107428      -166.1916
  15   1.0000      -6.106731      -166.1726
  16   1.0000      -6.106460      -166.1652
  17   1.0000      -5.974568      -162.5763
  18   1.0000      -5.970356      -162.4616
  19   1.0000      -5.967786      -162.3917
  20   1.0000      -5.923758      -161.1937
  21   1.0000      -5.919164      -161.0686
  22   1.0000      -5.909197      -160.7974
  23   1.0000      -1.109423       -30.1889
  24   1.0000      -0.998647       -27.1746
  25   1.0000      -0.934258       -25.4224
  26   1.0000      -0.862682       -23.4748
  27   1.0000      -0.807737       -21.9796
  28   1.0000      -0.762825       -20.7575
  29   1.0000      -0.730319       -19.8730
  30   1.0000      -0.678667       -18.4675
  31   1.0000      -0.629091       -17.1184
  32   1.0000      -0.598023       -16.2730
  33   1.0000      -0.554302       -15.0833
  34   1.0000      -0.520661       -14.1679
  35   1.0000      -0.487417       -13.2633
  36   1.0000      -0.482483       -13.1290
  37   1.0000      -0.467755       -12.7283
  38   1.0000      -0.467274       -12.7152
  39   1.0000      -0.443031       -12.0555
  40   1.0000      -0.436689       -11.8829
  41   1.0000      -0.410310       -11.1651
  42   1.0000      -0.390721       -10.6321
  43   1.0000      -0.371942       -10.1211
  44   1.0000      -0.341754        -9.2996
  45   1.0000      -0.339538        -9.2393
  46   1.0000      -0.334771        -9.1096
  47   1.0000      -0.307507        -8.3677
  48   1.0000      -0.305181        -8.3044
  49   1.0000      -0.278229        -7.5710
  50   1.0000      -0.255650        -6.9566
  51   1.0000      -0.245202        -6.6723
  52   0.0000      -0.086779        -2.3614
  53   0.0000      -0.057931        -1.5764
  54   0.0000      -0.012658        -0.3444
  55   0.0000       0.038365         1.0440
  56   0.0000       0.043267         1.1774

                 SPIN DOWN ORBITALS
  NO   OCC          E(Eh)            E(eV)
   0   1.0000     -89.074912     -2423.8516
   1   1.0000     -88.911184     -2419.3963
   2   1.0000     -88.853564     -2417.8284
   3   1.0000     -19.132996      -520.6353
   4   1.0000     -19.132674      -520.6265
   5   1.0000     -10.283165      -279.8192
   6   1.0000     -10.266268      -279.3593
   7   1.0000     -10.252888      -278.9953
   8   1.0000     -10.251032      -278.9448
   9   1.0000     -10.243828      -278.7487
  10   1.0000     -10.243475      -278.7391
  11   1.0000      -8.139364      -221.4834
  12   1.0000      -8.006298      -217.8624
  13   1.0000      -7.948518      -216.2902
  14   1.0000      -6.107558      -166.1951
  15   1.0000      -6.106805      -166.1746
  16   1.0000      -6.106501      -166.1664
  17   1.0000      -5.974543      -162.5756
  18   1.0000      -5.970320      -162.4607
  19   1.0000      -5.967081      -162.3725
  20   1.0000      -5.917056      -161.0113
  21   1.0000      -5.912114      -160.8768
  22   1.0000      -5.907062      -160.7393
  23   1.0000      -1.108798       -30.1719
  24   1.0000      -0.997624       -27.1467
  25   1.0000      -0.930720       -25.3262
  26   1.0000      -0.861910       -23.4538
  27   1.0000      -0.799346       -21.7513
  28   1.0000      -0.759465       -20.6661
  29   1.0000      -0.723842       -19.6968
  30   1.0000      -0.670102       -18.2344
  31   1.0000      -0.627672       -17.0798
  32   1.0000      -0.595256       -16.1977
  33   1.0000      -0.551500       -15.0071
  34   1.0000      -0.518053       -14.0969
  35   1.0000      -0.486037       -13.2257
  36   1.0000      -0.480821       -13.0838
  37   1.0000      -0.466614       -12.6972
  38   1.0000      -0.463227       -12.6050
  39   1.0000      -0.441911       -12.0250
  40   1.0000      -0.429707       -11.6929
  41   1.0000      -0.402645       -10.9565
  42   1.0000      -0.389163       -10.5897
  43   1.0000      -0.368337       -10.0230
  44   1.0000      -0.336536        -9.1576
  45   1.0000      -0.335067        -9.1176
  46   1.0000      -0.319879        -8.7044
  47   1.0000      -0.303918        -8.2700
  48   1.0000      -0.297478        -8.0948
  49   1.0000      -0.269783        -7.3412
  50   1.0000      -0.246796        -6.7157
  51   0.0000      -0.164902        -4.4872
  52   0.0000      -0.078905        -2.1471
  53   0.0000      -0.043425        -1.1816
  54   0.0000      -0.011601        -0.3157
  55   0.0000       0.039464         1.0739

MULLIKEN ATOMIC CHARGES AND SPIN POPULATIONS
--------------------------------------------
   0 C :   -0.096926    0.251855
   1 S :    0.166356    0.028547
   2 C :   -0.238166   -0.119200
   3 S :    0.001854    0.657154
   4 C :    0.028249    0.259736
   5 C :    0.069340   -0.078738
   6 C :    0.089541    0.022083
   7 C :   -0.027502   -0.028408
   8 S :    0.786591   -0.016214
   9 O :   -0.444769    0.017556
  10 O :   -0.444599    0.017344
  11 H :    0.044277   -0.011767
  12 H :    0.009814   -0.000988
  13 H :    0.055939    0.001040
Sum of atomic charges         :   -0.0000000

LOEWDIN ATOMIC CHARGES AND SPIN POPULATIONS
-------------------------------------------
   0 C :   -0.142144    0.211855
   1 S :    0.444105    0.034773
   2 C :   -0.330950   -0.064474
   3 S :    0.127495    0.628481
   4 C :   -0.194377    0.206891
   5 C :   -0.078899   -0.035265
   6 C :   -0.006577    0.013854
   7 C :   -0.142849   -0.023424
   8 S :    1.171645   -0.006263
   9 O :   -0.483325    0.017286
  10 O :   -0.483001    0.017067
  11 H :    0.036262   -0.000431
  12 H :    0.042224   -0.000236
  13 H :    0.040390   -0.000113

  Mayer bond orders larger than 0.100000
B(  0-C ,  1-S ) :   1.2161 B(  0-C ,  5-C ) :   1.4101 B(  0-C , 11-H ) :   0.9608
B(  1-S ,  2-C ) :   1.0537 B(  2-C ,  3-S ) :   1.4332 B(  2-C ,  4-C ) :   1.3698
B(  4-C ,  5-C ) :   1.3310 B(  4-C ,  8-S ) :   0.7723 B(  5-C ,  6-C ) :   1.0533
B(  6-C ,  7-C ) :   1.7537 B(  6-C , 12-H ) :   0.9886 B(  7-C ,  8-S ) :   0.8597
B(  7-C , 13-H ) :   0.9604 B(  8-S ,  9-O ) :   1.6812 B(  8-S , 10-O ) :   1.6796

Dispersion correction           -0.040858662
FINAL SINGLE POINT ENERGY     -1574.741182725121

DIPOLE MOMENT
-------------
                                X             Y             Z
Electronic contribution:      2.83397       1.66019      -5.23654
Nuclear contribution   :     -1.97605      -2.97442       7.14472
                        -----------------------------------------
Total Dipole Moment    :      0.85792      -1.31423       1.90818
                        -----------------------------------------
Magnitude (a.u.)       :      2.47071
Magnitude (Debye)      :      6.28004

Rotational constants in cm-1:     0.038164     0.024143     0.016262
Rotational constants in MHz :  1144.116123   723.779578   487.528111

                             ****ORCA TERMINATED NORMALLY****
TOTAL RUN TIME: 0 days 0 hours 9 minutes 44 seconds 375 msec
