                         Program Version 4.2.0 -  RELEASE  -
|  1> # ORCA input file
|  2> # SCF done        -27.964668568767          0.000282198058
|  3> ! B3LYP/G D3BJ Opt RIJCOSX def2-SVP def2/J
|  4> * xyz 0 1
|  5>    C        0.85750         1.51875        -0.00079
|  6>    S        2.29546         0.57609        -0.02497
|  7>    C        1.43218        -0.93696        -0.03728
|  8>    C        2.14348        -2.24422        -0.00762
|  9>    C        2.37097        -2.71493         1.43110
| 10>    C        0.09865        -0.68302        -0.01199
| 11>    C       -0.24408         0.71696         0.00414
| 12>    N       -1.58639         0.96839         0.01773
| 13>    C       -2.25477        -0.11141         0.01362
| 14>    S       -1.35854        -1.63357        -0.00743
| 15>    H        0.91117         2.58740         0.00712
| 16>    H        3.10489        -2.14717        -0.51509
| 17>    H        1.54039        -2.98377        -0.54032
| 18>    H        2.97897        -1.99398         1.97293
| 19>    H        2.88133        -3.67445         1.43469
| 20>    H        1.41983        -2.82467         1.94684
| 21>    H       -3.32706        -0.14382         0.02361
| 22> *
| 23>
| 24>                          ****END OF INPUT****
 Total Charge           Charge          ....    0
 Multiplicity           Mult            ....    1
 Number of Electrons    NEL             ....   88
Dispersion correction           -0.038686430
FINAL SINGLE POINT ENERGY     -1121.658169043367
Dispersion correction            ... done
Dispersion correction           -0.038403494
FINAL SINGLE POINT ENERGY     -1121.660976333329
Dispersion correction            ... done
Dispersion correction           -0.038319153
FINAL SINGLE POINT ENERGY     -1121.661106493684
Dispersion correction            ... done
FINAL SINGLE POINT ENERGY     -1121.661097318618
FINAL SINGLE POINT ENERGY     -1121.661158187907
FINAL SINGLE POINT ENERGY     -1121.661160947356
FINAL SINGLE POINT ENERGY     -1121.661152651184
Dispersion correction            ... done
Dispersion correction           -0.038272656
FINAL SINGLE POINT ENERGY     -1121.661142540311
Dispersion correction            ... done
Dispersion correction           -0.038272221
FINAL SINGLE POINT ENERGY     -1121.661138642744
Dispersion correction            ... done
                    ***********************HURRAY********************

CARTESIAN COORDINATES (ANGSTROEM)
---------------------------------
  C      0.852147    1.532525    0.030525
  S      2.281784    0.566608    0.020427
  C      1.410168   -0.951384   -0.025971
  C      2.129287   -2.268253    0.019011
  C      2.458323   -2.737271    1.444696
  C      0.064337   -0.678716   -0.024320
  C     -0.266686    0.728983    0.001856
  N     -1.619889    1.021363   -0.012697
  C     -2.309239   -0.063220   -0.043659
  S     -1.419957   -1.611917   -0.055852
  H      0.905398    2.618820    0.046390
  H      3.057412   -2.205340   -0.572753
  H      1.496707   -3.017162   -0.486449
  H      3.093318   -2.002230    1.963075
  H      2.993655   -3.700188    1.428370
  H      1.539710   -2.863116    2.037431
  H     -3.402497   -0.093883   -0.063790

 Multiplicity           Mult            ....    1
 Number of Electrons    NEL             ....   88
 Basis Dimension        Dim             ....  183

ORBITAL ENERGIES
----------------

  NO   OCC          E(Eh)            E(eV)
   0   2.0000     -88.882302     -2418.6104
   1   2.0000     -88.876771     -2418.4599
   2   2.0000     -14.335613      -390.0919
   3   2.0000     -10.257880      -279.1311
   4   2.0000     -10.226000      -278.2636
   5   2.0000     -10.225198      -278.2418
   6   2.0000     -10.219700      -278.0922
   7   2.0000     -10.216075      -277.9935
   8   2.0000     -10.210257      -277.8352
   9   2.0000     -10.191122      -277.3145
  10   2.0000      -7.976941      -217.0636
  11   2.0000      -7.971882      -216.9259
  12   2.0000      -5.945105      -161.7745
  13   2.0000      -5.940916      -161.6605
  14   2.0000      -5.940273      -161.6430
  15   2.0000      -5.938349      -161.5907
  16   2.0000      -5.936614      -161.5435
  17   2.0000      -5.932106      -161.4208
  18   2.0000      -0.964468       -26.2445
  19   2.0000      -0.879003       -23.9189
  20   2.0000      -0.800320       -21.7778
  21   2.0000      -0.780935       -21.2503
  22   2.0000      -0.727348       -19.7922
  23   2.0000      -0.700898       -19.0724
  24   2.0000      -0.631039       -17.1714
  25   2.0000      -0.612148       -16.6574
  26   2.0000      -0.555828       -15.1249
  27   2.0000      -0.540188       -14.6993
  28   2.0000      -0.475084       -12.9277
  29   2.0000      -0.468553       -12.7500
  30   2.0000      -0.453492       -12.3401
  31   2.0000      -0.445010       -12.1093
  32   2.0000      -0.431040       -11.7292
  33   2.0000      -0.414247       -11.2722
  34   2.0000      -0.398291       -10.8381
  35   2.0000      -0.375986       -10.2311
  36   2.0000      -0.364748        -9.9253
  37   2.0000      -0.354681        -9.6514
  38   2.0000      -0.349552        -9.5118
  39   2.0000      -0.341481        -9.2922
  40   2.0000      -0.304174        -8.2770
  41   2.0000      -0.281564        -7.6618
  42   2.0000      -0.248768        -6.7693
  43   2.0000      -0.218935        -5.9575
  44   0.0000      -0.047341        -1.2882
  45   0.0000       0.000927         0.0252
  46   0.0000       0.016543         0.4501
  47   0.0000       0.022658         0.6166
  48   0.0000       0.069749         1.8980

MULLIKEN ATOMIC CHARGES
-----------------------
   0 C :   -0.160712
   1 S :    0.111577
   2 C :   -0.315369
   3 C :    0.084240
   4 C :    0.015171
   5 C :    0.014540
   6 C :    0.114837
   7 N :   -0.080027
   8 C :    0.003778
   9 S :    0.063398
  10 H :    0.024324
  11 H :    0.008187
  12 H :    0.013709
  13 H :    0.014839
  14 H :    0.017650
  15 H :    0.020028
  16 H :    0.049831
Sum of atomic charges:   -0.0000000

LOEWDIN ATOMIC CHARGES
----------------------
   0 C :   -0.204233
   1 S :    0.444370
   2 C :   -0.201872
   3 C :   -0.042789
   4 C :   -0.051013
   5 C :   -0.213113
   6 C :   -0.064495
   7 N :   -0.094287
   8 C :   -0.098323
   9 S :    0.334457
  10 H :    0.031571
  11 H :    0.030168
  12 H :    0.033410
  13 H :    0.023150
  14 H :    0.024843
  15 H :    0.025900
  16 H :    0.022255

  Mayer bond orders larger than 0.100000
B(  0-C ,  1-S ) :   1.1556 B(  0-C ,  2-C ) :   0.1126 B(  0-C ,  6-C ) :   1.4741
B(  0-C , 10-H ) :   0.9762 B(  1-S ,  2-C ) :   1.1549 B(  2-C ,  3-C ) :   1.0756
B(  2-C ,  5-C ) :   1.5748 B(  3-C ,  4-C ) :   1.1029 B(  3-C , 11-H ) :   0.9183
B(  3-C , 12-H ) :   0.9264 B(  4-C , 13-H ) :   0.9679 B(  4-C , 14-H ) :   0.9639
B(  4-C , 15-H ) :   0.9704 B(  5-C ,  6-C ) :   1.2079 B(  5-C ,  9-S ) :   1.0305
B(  6-C ,  7-N ) :   1.2438 B(  7-N ,  8-C ) :   1.7857 B(  7-N ,  9-S ) :   0.1266
B(  8-C ,  9-S ) :   1.0613 B(  8-C , 16-H ) :   0.9557

Dispersion correction           -0.038272675
FINAL SINGLE POINT ENERGY     -1121.661137437662

DIPOLE MOMENT
-------------
                                X             Y             Z
Electronic contribution:     -6.18957       6.73518      -3.28140
Nuclear contribution   :      6.47965      -7.30324       3.31764
                        -----------------------------------------
Total Dipole Moment    :      0.29008      -0.56807       0.03624
                        -----------------------------------------
Magnitude (a.u.)       :      0.63887
Magnitude (Debye)      :      1.62389

Rotational constants in cm-1:     0.050729     0.030547     0.020073
Rotational constants in MHz :  1520.824243   915.776883   601.770684

                             ****ORCA TERMINATED NORMALLY****
TOTAL RUN TIME: 0 days 0 hours 7 minutes 20 seconds 680 msec
