                         Program Version 4.2.0 -  RELEASE  -
|  1> # ORCA input file
|  2> # SCF done        -34.187804951782          0.000918465360
|  3> ! B3LYP/G D3BJ Opt RIJCOSX def2-SVP def2/J
|  4> * xyz 0 1
|  5>    C        1.53129         1.21346        -0.06023
|  6>    S        2.73317        -0.00746         0.05527
|  7>    C        1.52509        -1.23264         0.05391
|  8>    C        0.26876        -0.72275        -0.03047
|  9>    C        0.27360         0.69920        -0.09962
| 10>    C       -0.98053         1.52525        -0.15033
| 11>    C       -2.19284         0.63713        -0.48968
| 12>    C       -2.18453        -0.65130         0.32727
| 13>    C       -0.99603        -1.52066        -0.07721
| 14>    N       -1.12754         2.22297         1.11138
| 15>    C       -1.96168         3.31066         1.21564
| 16>    C       -2.53164         3.73515         2.33753
| 17>    H        1.82216         2.24439        -0.08566
| 18>    H        1.81877        -2.26161         0.11536
| 19>    H       -0.87784         2.29898        -0.92261
| 20>    H       -2.16852         0.38992        -1.55320
| 21>    H       -3.10483         1.20514        -0.29237
| 22>    H       -3.11380        -1.20065         0.16527
| 23>    H       -2.12150        -0.41280         1.39165
| 24>    H       -1.14784        -1.88555        -1.09855
| 25>    H       -0.91456        -2.39394         0.57339
| 26>    H       -1.11714         1.62381         1.92498
| 27>    H       -2.07900         3.86049         0.29077
| 28>    H       -2.42108         3.20293         3.26586
| 29>    H       -3.10428         4.64248         2.36265
| 30> *
| 31>
| 32>                          ****END OF INPUT****
 Total Charge           Charge          ....    0
 Multiplicity           Mult            ....    1
 Number of Electrons    NEL             ....   96
Dispersion correction           -0.051078000
FINAL SINGLE POINT ENERGY      -841.426006693794
Dispersion correction            ... done
Dispersion correction           -0.050634948
FINAL SINGLE POINT ENERGY      -841.429713563513
Dispersion correction            ... done
Dispersion correction           -0.050568539
FINAL SINGLE POINT ENERGY      -841.429904275183
Dispersion correction            ... done
FINAL SINGLE POINT ENERGY      -841.429828435401
FINAL SINGLE POINT ENERGY      -841.429675724037
FINAL SINGLE POINT ENERGY      -841.429691420122
FINAL SINGLE POINT ENERGY      -841.429685083104
Dispersion correction            ... done
Dispersion correction           -0.050577728
FINAL SINGLE POINT ENERGY      -841.429652638743
Dispersion correction            ... done
Dispersion correction           -0.050567475
FINAL SINGLE POINT ENERGY      -841.429621375718
Dispersion correction            ... done
                    ***********************HURRAY********************

CARTESIAN COORDINATES (ANGSTROEM)
---------------------------------
  C      1.534687    1.220936    0.037984
  S      2.738480   -0.003476    0.199078
  C      1.548794   -1.255139    0.098921
  C      0.278629   -0.750089   -0.055998
  C      0.273352    0.687931   -0.095743
  C     -0.996845    1.510189   -0.159175
  C     -2.231606    0.625255   -0.459173
  C     -2.203068   -0.715845    0.273761
  C     -0.993422   -1.550173   -0.166563
  N     -1.104871    2.281165    1.074098
  C     -2.020840    3.301222    1.211853
  C     -2.483786    3.827562    2.359641
  H      1.808421    2.274448    0.068418
  H      1.848052   -2.300238    0.164179
  H     -0.908975    2.246799   -0.978193
  H     -2.282139    0.437472   -1.546522
  H     -3.133531    1.197580   -0.190019
  H     -3.133044   -1.273191    0.077441
  H     -2.159829   -0.540267    1.363370
  H     -1.141371   -1.865015   -1.216304
  H     -0.913695   -2.476240    0.422901
  H     -0.828476    1.791370    1.918567
  H     -2.346248    3.722083    0.252182
  H     -2.176761    3.433511    3.333334
  H     -3.144247    4.694751    2.342960

 Multiplicity           Mult            ....    1
 Number of Electrons    NEL             ....   96
 Basis Dimension        Dim             ....  237

ORBITAL ENERGIES
----------------

  NO   OCC          E(Eh)            E(eV)
   0   2.0000     -88.872667     -2418.3482
   1   2.0000     -14.330978      -389.9657
   2   2.0000     -10.230653      -278.3902
   3   2.0000     -10.211568      -277.8709
   4   2.0000     -10.208618      -277.7906
   5   2.0000     -10.206446      -277.7315
   6   2.0000     -10.195421      -277.4315
   7   2.0000     -10.195165      -277.4245
   8   2.0000     -10.193218      -277.3716
   9   2.0000     -10.190737      -277.3041
  10   2.0000     -10.187152      -277.2065
  11   2.0000     -10.154470      -276.3172
  12   2.0000      -7.967711      -216.8124
  13   2.0000      -5.935734      -161.5195
  14   2.0000      -5.931591      -161.4068
  15   2.0000      -5.929371      -161.3464
  16   2.0000      -0.923413       -25.1274
  17   2.0000      -0.878037       -23.8926
  18   2.0000      -0.810767       -22.0621
  19   2.0000      -0.761768       -20.7288
  20   2.0000      -0.730743       -19.8845
  21   2.0000      -0.709631       -19.3100
  22   2.0000      -0.686878       -18.6909
  23   2.0000      -0.627849       -17.0846
  24   2.0000      -0.596413       -16.2292
  25   2.0000      -0.577339       -15.7102
  26   2.0000      -0.567372       -15.4390
  27   2.0000      -0.521850       -14.2003
  28   2.0000      -0.503697       -13.7063
  29   2.0000      -0.480236       -13.0679
  30   2.0000      -0.461570       -12.5600
  31   2.0000      -0.456608       -12.4249
  32   2.0000      -0.430776       -11.7220
  33   2.0000      -0.421655       -11.4738
  34   2.0000      -0.405793       -11.0422
  35   2.0000      -0.404058       -10.9950
  36   2.0000      -0.401670       -10.9300
  37   2.0000      -0.394414       -10.7326
  38   2.0000      -0.364866        -9.9285
  39   2.0000      -0.360848        -9.8192
  40   2.0000      -0.353043        -9.6068
  41   2.0000      -0.341697        -9.2980
  42   2.0000      -0.337358        -9.1800
  43   2.0000      -0.328463        -8.9379
  44   2.0000      -0.311520        -8.4769
  45   2.0000      -0.247071        -6.7231
  46   2.0000      -0.235678        -6.4131
  47   2.0000      -0.193998        -5.2790
  48   0.0000      -0.022240        -0.6052
  49   0.0000       0.038407         1.0451
  50   0.0000       0.044440         1.2093
  51   0.0000       0.050671         1.3788
  52   0.0000       0.053586         1.4582

MULLIKEN ATOMIC CHARGES
-----------------------
   0 C :   -0.126192
   1 S :    0.100519
   2 C :   -0.149484
   3 C :   -0.038528
   4 C :   -0.045316
   5 C :    0.134832
   6 C :    0.074968
   7 C :   -0.004023
   8 C :    0.150882
   9 N :   -0.172486
  10 C :    0.054889
  11 C :   -0.095921
  12 H :    0.017984
  13 H :    0.009724
  14 H :   -0.005258
  15 H :   -0.007477
  16 H :   -0.003908
  17 H :   -0.001935
  18 H :    0.001449
  19 H :    0.007559
  20 H :   -0.005091
  21 H :    0.105899
  22 H :   -0.005267
  23 H :   -0.008407
  24 H :    0.010588
Sum of atomic charges:    0.0000000

LOEWDIN ATOMIC CHARGES
----------------------
   0 C :   -0.190328
   1 S :    0.432126
   2 C :   -0.207022
   3 C :   -0.065513
   4 C :   -0.078392
   5 C :    0.038322
   6 C :   -0.037753
   7 C :   -0.030868
   8 C :   -0.022051
   9 N :   -0.033900
  10 C :    0.015388
  11 C :   -0.163656
  12 H :    0.025232
  13 H :    0.021274
  14 H :    0.026126
  15 H :    0.020698
  16 H :    0.024699
  17 H :    0.023806
  18 H :    0.018417
  19 H :    0.030350
  20 H :    0.028016
  21 H :    0.069468
  22 H :    0.020833
  23 H :    0.012758
  24 H :    0.021969

  Mayer bond orders larger than 0.100000
B(  0-C ,  1-S ) :   1.1758 B(  0-C ,  4-C ) :   1.5437 B(  0-C , 12-H ) :   0.9649
B(  1-S ,  2-C ) :   1.1603 B(  2-C ,  3-C ) :   1.5424 B(  2-C , 13-H ) :   0.9646
B(  3-C ,  4-C ) :   1.3041 B(  3-C ,  8-C ) :   1.0430 B(  4-C ,  5-C ) :   0.9806
B(  5-C ,  6-C ) :   1.0490 B(  5-C ,  9-N ) :   1.0287 B(  5-C , 14-H ) :   0.8944
B(  6-C ,  7-C ) :   1.0702 B(  6-C , 15-H ) :   0.9266 B(  6-C , 16-H ) :   0.9220
B(  7-C ,  8-C ) :   1.0903 B(  7-C , 17-H ) :   0.9321 B(  7-C , 18-H ) :   0.9427
B(  8-C , 19-H ) :   0.9110 B(  8-C , 20-H ) :   0.9175 B(  9-N , 10-C ) :   1.1719
B(  9-N , 21-H ) :   0.9335 B( 10-C , 11-C ) :   1.8709 B( 10-C , 22-H ) :   0.9509
B( 11-C , 23-H ) :   0.9555 B( 11-C , 24-H ) :   0.9485

Dispersion correction           -0.050562221
FINAL SINGLE POINT ENERGY      -841.429611551173

DIPOLE MOMENT
-------------
                                X             Y             Z
Electronic contribution:     15.07466      -2.65762      -1.59149
Nuclear contribution   :    -15.14761       2.08756       1.29071
                        -----------------------------------------
Total Dipole Moment    :     -0.07295      -0.57006      -0.30079
                        -----------------------------------------
Magnitude (a.u.)       :      0.64866
Magnitude (Debye)      :      1.64876

Rotational constants in cm-1:     0.043537     0.018796     0.014240
Rotational constants in MHz :  1305.191861   563.478372   426.910942

                             ****ORCA TERMINATED NORMALLY****
TOTAL RUN TIME: 0 days 0 hours 17 minutes 18 seconds 653 msec
