                         Program Version 4.2.0 -  RELEASE  -
|  1> # ORCA input file
|  2> # SCF done        -42.142737895983          0.000698744971
|  3> ! B3LYP/G D3BJ Opt RIJCOSX def2-SVP def2/J
|  4> * xyz 0 1
|  5>    C       -1.63050         1.20025        -0.02467
|  6>    S       -2.76485        -0.06356         0.08247
|  7>    C       -1.53347        -1.28162         0.14702
|  8>    C       -0.27107        -0.69814         0.08463
|  9>    C       -0.33147         0.73599        -0.01243
| 10>    C        0.85804         1.49318        -0.07747
| 11>    C        2.06370         0.84418        -0.04866
| 12>    C        3.34872         1.57547        -0.10525
| 13>    O        4.43576         1.04925        -0.10443
| 14>    O        3.18499         2.90918        -0.15669
| 15>    C        4.37944         3.67292        -0.20619
| 16>    C        2.12369        -0.57474         0.04101
| 17>    C        0.99543        -1.32948         0.10672
| 18>    C       -1.85417        -2.67384         0.25609
| 19>    C       -3.08717        -3.17385         0.32285
| 20>    H       -1.96518         2.21627        -0.08948
| 21>    H        0.80630         2.56814        -0.14756
| 22>    H        4.07355         4.71141        -0.30547
| 23>    H        4.99088         3.36828        -1.05838
| 24>    H        4.95931         3.53025         0.70860
| 25>    H        3.10274        -1.02827         0.05508
| 26>    H        1.05680        -2.40473         0.17478
| 27>    H       -1.00100        -3.33825         0.28768
| 28>    H       -3.95648        -2.53725         0.29504
| 29>    H       -3.26330        -4.23103         0.40511
| 30> *
| 31>
| 32>                          ****END OF INPUT****
 Total Charge           Charge          ....    0
 Multiplicity           Mult            ....    1
 Number of Electrons    NEL             ....  114
Dispersion correction           -0.054304525
FINAL SINGLE POINT ENERGY     -1011.420824760694
Dispersion correction            ... done
Dispersion correction           -0.053973684
FINAL SINGLE POINT ENERGY     -1011.423906362352
Dispersion correction            ... done
Dispersion correction           -0.053914684
FINAL SINGLE POINT ENERGY     -1011.423954087839
Dispersion correction            ... done
FINAL SINGLE POINT ENERGY     -1011.424031994052
FINAL SINGLE POINT ENERGY     -1011.424034007605
FINAL SINGLE POINT ENERGY     -1011.424027924143
FINAL SINGLE POINT ENERGY     -1011.424021784498
FINAL SINGLE POINT ENERGY     -1011.424018786740
FINAL SINGLE POINT ENERGY     -1011.423993177396
Dispersion correction            ... done
Dispersion correction           -0.053915848
FINAL SINGLE POINT ENERGY     -1011.423980865915
Dispersion correction            ... done
Dispersion correction           -0.053916574
FINAL SINGLE POINT ENERGY     -1011.423969580911
Dispersion correction            ... done
                    ***********************HURRAY********************

CARTESIAN COORDINATES (ANGSTROEM)
---------------------------------
  C     -1.650679    1.235069    0.020256
  S     -2.786088   -0.041818    0.095185
  C     -1.563441   -1.275092    0.152911
  C     -0.289026   -0.689309    0.115064
  C     -0.342907    0.759702    0.035730
  C      0.864743    1.513747   -0.020526
  C      2.073425    0.855212   -0.000042
  C      3.366389    1.584362   -0.083748
  O      4.450207    1.047677   -0.113842
  O      3.211484    2.922111   -0.135999
  C      4.408554    3.684477   -0.262926
  C      2.128563   -0.577996    0.085742
  C      0.987363   -1.331628    0.141848
  C     -1.887219   -2.684962    0.232947
  C     -3.113092   -3.236982    0.256052
  H     -1.982087    2.270044   -0.039328
  H      0.834293    2.601744   -0.088931
  H      4.093266    4.720579   -0.439361
  H      5.018446    3.318800   -1.102820
  H      5.012961    3.620632    0.655288
  H      3.115058   -1.043205    0.102870
  H      1.051966   -2.419837    0.209133
  H     -1.014709   -3.344785    0.280787
  H     -4.021957   -2.629892    0.211380
  H     -3.244824   -4.318639    0.322729

 Multiplicity           Mult            ....    1
 Number of Electrons    NEL             ....  114
 Basis Dimension        Dim             ....  264

ORBITAL ENERGIES
----------------

  NO   OCC          E(Eh)            E(eV)
   0   2.0000     -88.892319     -2418.8830
   1   2.0000     -19.177476      -521.8457
   2   2.0000     -19.118982      -520.2539
   3   2.0000     -10.311905      -280.6012
   4   2.0000     -10.246259      -278.8149
   5   2.0000     -10.225580      -278.2522
   6   2.0000     -10.225462      -278.2490
   7   2.0000     -10.209771      -277.8220
   8   2.0000     -10.209687      -277.8197
   9   2.0000     -10.209100      -277.8037
  10   2.0000     -10.209023      -277.8016
  11   2.0000     -10.205073      -277.6942
  12   2.0000     -10.201331      -277.5923
  13   2.0000     -10.196976      -277.4738
  14   2.0000     -10.194297      -277.4009
  15   2.0000      -7.986938      -217.3356
  16   2.0000      -5.954593      -162.0327
  17   2.0000      -5.950586      -161.9237
  18   2.0000      -5.949241      -161.8871
  19   2.0000      -1.096282       -29.8313
  20   2.0000      -1.004333       -27.3293
  21   2.0000      -0.902122       -24.5480
  22   2.0000      -0.841962       -22.9109
  23   2.0000      -0.794516       -21.6199
  24   2.0000      -0.770002       -20.9528
  25   2.0000      -0.746279       -20.3073
  26   2.0000      -0.724492       -19.7144
  27   2.0000      -0.695035       -18.9129
  28   2.0000      -0.636268       -17.3137
  29   2.0000      -0.616019       -16.7627
  30   2.0000      -0.601407       -16.3651
  31   2.0000      -0.560666       -15.2565
  32   2.0000      -0.546945       -14.8831
  33   2.0000      -0.519079       -14.1249
  34   2.0000      -0.511769       -13.9259
  35   2.0000      -0.486384       -13.2352
  36   2.0000      -0.485545       -13.2124
  37   2.0000      -0.471859       -12.8399
  38   2.0000      -0.450345       -12.2545
  39   2.0000      -0.442097       -12.0301
  40   2.0000      -0.436016       -11.8646
  41   2.0000      -0.432474       -11.7682
  42   2.0000      -0.420260       -11.4359
  43   2.0000      -0.413934       -11.2637
  44   2.0000      -0.402098       -10.9416
  45   2.0000      -0.383505       -10.4357
  46   2.0000      -0.378903       -10.3105
  47   2.0000      -0.362706        -9.8697
  48   2.0000      -0.355038        -9.6611
  49   2.0000      -0.346272        -9.4225
  50   2.0000      -0.345086        -9.3903
  51   2.0000      -0.319331        -8.6894
  52   2.0000      -0.306291        -8.3346
  53   2.0000      -0.278851        -7.5879
  54   2.0000      -0.275295        -7.4911
  55   2.0000      -0.260017        -7.0754
  56   2.0000      -0.205000        -5.5783
  57   0.0000      -0.081969        -2.2305
  58   0.0000      -0.038975        -1.0606
  59   0.0000       0.001903         0.0518
  60   0.0000       0.033190         0.9032
  61   0.0000       0.044804         1.2192

MULLIKEN ATOMIC CHARGES
-----------------------
   0 C :   -0.120322
   1 S :    0.146899
   2 C :   -0.148545
   3 C :    0.131996
   4 C :    0.099981
   5 C :   -0.019012
   6 C :   -0.038721
   7 C :    0.214811
   8 O :   -0.223061
   9 O :   -0.311241
  10 C :    0.191589
  11 C :    0.020053
  12 C :   -0.024942
  13 C :    0.009295
  14 C :   -0.042603
  15 H :    0.022643
  16 H :   -0.014329
  17 H :    0.028675
  18 H :    0.031882
  19 H :    0.030226
  20 H :   -0.004802
  21 H :   -0.020924
  22 H :   -0.005252
  23 H :    0.017364
  24 H :    0.028339
Sum of atomic charges:   -0.0000000

LOEWDIN ATOMIC CHARGES
----------------------
   0 C :   -0.190917
   1 S :    0.487865
   2 C :   -0.191151
   3 C :   -0.037961
   4 C :   -0.053623
   5 C :    0.016930
   6 C :   -0.075093
   7 C :    0.087405
   8 O :   -0.180373
   9 O :   -0.098714
  10 C :    0.084264
  11 C :   -0.002913
  12 C :   -0.020510
  13 C :   -0.039312
  14 C :   -0.058390
  15 H :    0.027714
  16 H :    0.032977
  17 H :    0.023111
  18 H :    0.021967
  19 H :    0.021835
  20 H :    0.035071
  21 H :    0.028808
  22 H :    0.034835
  23 H :    0.017805
  24 H :    0.028369

  Mayer bond orders larger than 0.100000
B(  0-C ,  1-S ) :   1.2061 B(  0-C ,  2-C ) :   0.1061 B(  0-C ,  4-C ) :   1.3863
B(  0-C , 15-H ) :   0.9652 B(  1-S ,  2-C ) :   1.1434 B(  2-C ,  3-C ) :   1.3477
B(  2-C , 13-C ) :   1.1600 B(  3-C ,  4-C ) :   1.1899 B(  3-C , 12-C ) :   1.1878
B(  4-C ,  5-C ) :   1.1518 B(  5-C ,  6-C ) :   1.4953 B(  5-C , 16-H ) :   0.9989
B(  6-C ,  7-C ) :   0.9438 B(  6-C , 11-C ) :   1.2099 B(  7-C ,  8-O ) :   2.0723
B(  7-C ,  9-O ) :   1.2045 B(  9-O , 10-C ) :   0.9219 B( 10-C , 17-H ) :   0.9792
B( 10-C , 18-H ) :   0.9710 B( 10-C , 19-H ) :   0.9760 B( 11-C , 12-C ) :   1.5330
B( 11-C , 20-H ) :   0.9815 B( 12-C , 21-H ) :   0.9885 B( 13-C , 14-C ) :   1.8906
B( 13-C , 22-H ) :   0.9486 B( 14-C , 23-H ) :   0.9545 B( 14-C , 24-H ) :   0.9458

Dispersion correction           -0.053916696
FINAL SINGLE POINT ENERGY     -1011.423965525946

DIPOLE MOMENT
-------------
                                X             Y             Z
Electronic contribution:     -4.76981       0.57286       0.18897
Nuclear contribution   :      4.12236      -0.04460      -0.21343
                        -----------------------------------------
Total Dipole Moment    :     -0.64745       0.52826      -0.02446
                        -----------------------------------------
Magnitude (a.u.)       :      0.83597
Magnitude (Debye)      :      2.12487

Rotational constants in cm-1:     0.051991     0.008627     0.007410
Rotational constants in MHz :  1558.660383   258.626657   222.156950

                             ****ORCA TERMINATED NORMALLY****
TOTAL RUN TIME: 0 days 0 hours 22 minutes 40 seconds 673 msec
