                         Program Version 4.2.0 -  RELEASE  -
|  1> # ORCA input file
|  2> # SCF done        -30.421679659995          0.000823521643
|  3> ! B3LYP/G D3BJ Opt RIJCOSX def2-SVP def2/J
|  4> * xyz 0 1
|  5>    C        0.17562         1.23245         0.13726
|  6>    S       -0.83684        -0.17007         0.19116
|  7>    C        0.55097        -1.21511         0.11505
|  8>    O        0.43244        -2.54647         0.12649
|  9>    C       -0.86962        -3.08021         0.20523
| 10>    C        1.72753        -0.49947         0.04985
| 11>    C        3.09626        -1.02745        -0.02670
| 12>    O        4.05294        -0.28251        -0.05222
| 13>    C        3.24442        -2.52544        -0.07085
| 14>    C        1.48013         0.90729         0.06500
| 15>    H       -0.28512         2.19888         0.16255
| 16>    H       -1.47038        -2.77824        -0.65814
| 17>    H       -1.37394        -2.75204         1.11954
| 18>    H       -0.75270        -4.16205         0.21515
| 19>    H        2.70755        -2.92653        -0.92723
| 20>    H        2.81572        -2.96631         0.82596
| 21>    H        4.29817        -2.78278        -0.14126
| 22>    H        2.28624         1.61677         0.02147
| 23> *
| 24>
| 25>                          ****END OF INPUT****
 Total Charge           Charge          ....    0
 Multiplicity           Mult            ....    1
 Number of Electrons    NEL             ....   82
Dispersion correction           -0.034218892
FINAL SINGLE POINT ENERGY      -819.786402979023
Dispersion correction            ... done
Dispersion correction           -0.033908315
FINAL SINGLE POINT ENERGY      -819.788653475221
Dispersion correction            ... done
Dispersion correction           -0.033899256
FINAL SINGLE POINT ENERGY      -819.788748251095
Dispersion correction            ... done
FINAL SINGLE POINT ENERGY      -819.788733413931
FINAL SINGLE POINT ENERGY      -819.788761641845
FINAL SINGLE POINT ENERGY      -819.788754902927
Dispersion correction            ... done
Dispersion correction           -0.033910877
FINAL SINGLE POINT ENERGY      -819.788738285238
Dispersion correction            ... done
Dispersion correction           -0.033909666
FINAL SINGLE POINT ENERGY      -819.788735138314
Dispersion correction            ... done
                    ***********************HURRAY********************

CARTESIAN COORDINATES (ANGSTROEM)
---------------------------------
  C      0.163706    1.268123    0.129774
  S     -0.868077   -0.139677    0.159789
  C      0.525739   -1.200684    0.081557
  O      0.404271   -2.534198    0.055498
  C     -0.886362   -3.097315    0.207505
  C      1.717689   -0.491732    0.037061
  C      3.095083   -1.038537   -0.027150
  O      4.051090   -0.282600   -0.051142
  C      3.280527   -2.540730   -0.057606
  C      1.479972    0.925734    0.065756
  H     -0.288165    2.257566    0.166251
  H     -1.560911   -2.763700   -0.600284
  H     -1.325172   -2.817067    1.181366
  H     -0.763464   -4.186533    0.156139
  H      2.736878   -2.987022   -0.904346
  H      2.856986   -2.999931    0.850001
  H      4.352168   -2.765275   -0.129915
  H      2.307431    1.634288    0.038055

 Multiplicity           Mult            ....    1
 Number of Electrons    NEL             ....   82
 Basis Dimension        Dim             ....  184

ORBITAL ENERGIES
----------------

  NO   OCC          E(Eh)            E(eV)
   0   2.0000     -88.886220     -2418.7170
   1   2.0000     -19.200734      -522.4785
   2   2.0000     -19.106058      -519.9023
   3   2.0000     -10.288216      -279.9566
   4   2.0000     -10.270809      -279.4829
   5   2.0000     -10.264943      -279.3233
   6   2.0000     -10.214351      -277.9466
   7   2.0000     -10.196508      -277.4611
   8   2.0000     -10.191604      -277.3276
   9   2.0000     -10.180827      -277.0344
  10   2.0000      -7.981532      -217.1885
  11   2.0000      -5.949842      -161.9034
  12   2.0000      -5.945671      -161.7899
  13   2.0000      -5.942489      -161.7034
  14   2.0000      -1.096923       -29.8488
  15   2.0000      -1.014045       -27.5936
  16   2.0000      -0.881044       -23.9744
  17   2.0000      -0.773714       -21.0538
  18   2.0000      -0.746125       -20.3031
  19   2.0000      -0.721590       -19.6355
  20   2.0000      -0.691853       -18.8263
  21   2.0000      -0.594052       -16.1650
  22   2.0000      -0.576723       -15.6934
  23   2.0000      -0.561827       -15.2881
  24   2.0000      -0.501090       -13.6353
  25   2.0000      -0.499436       -13.5904
  26   2.0000      -0.473026       -12.8717
  27   2.0000      -0.460910       -12.5420
  28   2.0000      -0.435350       -11.8465
  29   2.0000      -0.434622       -11.8267
  30   2.0000      -0.425993       -11.5919
  31   2.0000      -0.399033       -10.8582
  32   2.0000      -0.398493       -10.8435
  33   2.0000      -0.378871       -10.3096
  34   2.0000      -0.367988       -10.0135
  35   2.0000      -0.357057        -9.7160
  36   2.0000      -0.346324        -9.4239
  37   2.0000      -0.340746        -9.2722
  38   2.0000      -0.262562        -7.1447
  39   2.0000      -0.242474        -6.5980
  40   2.0000      -0.226666        -6.1679
  41   0.0000      -0.037428        -1.0185
  42   0.0000      -0.001012        -0.0275
  43   0.0000       0.013921         0.3788
  44   0.0000       0.054229         1.4756
  45   0.0000       0.077738         2.1153

MULLIKEN ATOMIC CHARGES
-----------------------
   0 C :   -0.075887
   1 S :    0.049195
   2 C :   -0.005391
   3 O :   -0.291990
   4 C :    0.172395
   5 C :    0.030833
   6 C :   -0.011491
   7 O :   -0.208501
   8 C :    0.073202
   9 C :    0.036652
  10 H :    0.030919
  11 H :    0.037047
  12 H :    0.032708
  13 H :    0.052912
  14 H :    0.026449
  15 H :    0.024655
  16 H :    0.018255
  17 H :    0.008039
Sum of atomic charges:   -0.0000000

LOEWDIN ATOMIC CHARGES
----------------------
   0 C :   -0.201282
   1 S :    0.391092
   2 C :   -0.083516
   3 O :   -0.082234
   4 C :    0.075458
   5 C :   -0.148756
   6 C :    0.078335
   7 O :   -0.169288
   8 C :   -0.075768
   9 C :   -0.024101
  10 H :    0.025894
  11 H :    0.016885
  12 H :    0.017514
  13 H :    0.033920
  14 H :    0.036873
  15 H :    0.037874
  16 H :    0.032251
  17 H :    0.038848

  Mayer bond orders larger than 0.100000
B(  0-C ,  1-S ) :   1.0775 B(  0-C ,  9-C ) :   1.5995 B(  0-C , 10-H ) :   0.9696
B(  1-S ,  2-C ) :   1.1385 B(  2-C ,  3-O ) :   1.1511 B(  2-C ,  5-C ) :   1.4281
B(  3-O ,  4-C ) :   0.9356 B(  4-C , 11-H ) :   0.9626 B(  4-C , 12-H ) :   0.9646
B(  4-C , 13-H ) :   0.9795 B(  5-C ,  6-C ) :   0.9575 B(  5-C ,  9-C ) :   1.2268
B(  6-C ,  7-O ) :   2.1494 B(  6-C ,  8-C ) :   1.0798 B(  8-C , 14-H ) :   0.9406
B(  8-C , 15-H ) :   0.9397 B(  8-C , 16-H ) :   0.9429 B(  9-C , 17-H ) :   0.9951

Dispersion correction           -0.033909224
FINAL SINGLE POINT ENERGY      -819.788732051150

DIPOLE MOMENT
-------------
                                X             Y             Z
Electronic contribution:     -1.66376       6.26513      -0.06117
Nuclear contribution   :     -0.00999      -7.10743       0.16752
                        -----------------------------------------
Total Dipole Moment    :     -1.67375      -0.84230       0.10635
                        -----------------------------------------
Magnitude (a.u.)       :      1.87676
Magnitude (Debye)      :      4.77035

Rotational constants in cm-1:     0.054802     0.034759     0.021446
Rotational constants in MHz :  1642.921974  1042.051915   642.934087

                             ****ORCA TERMINATED NORMALLY****
TOTAL RUN TIME: 0 days 0 hours 8 minutes 33 seconds 459 msec
