                         Program Version 4.2.0 -  RELEASE  -
|  1> # ORCA input file
|  2> # SCF done        -42.412921715237          0.000348942815
|  3> ! B3LYP/G D3BJ Opt RIJCOSX def2-SVP def2/J
|  4> * xyz 0 1
|  5>    N        2.21087         1.09613         0.66929
|  6>    C        1.21317         0.71899        -0.31759
|  7>    C       -0.13468         1.34871         0.00475
|  8>    C       -1.27455         0.70079        -0.78054
|  9>    N       -2.51662         1.31490        -0.34595
| 10>    S       -3.05934         0.36868         0.97998
| 11>    N       -2.56207        -1.11795         0.26974
| 12>    C       -1.35625        -0.84753        -0.49947
| 13>    C       -0.13880        -1.34090         0.28336
| 14>    C        1.14166        -0.83689        -0.37984
| 15>    N        2.31571        -1.32867         0.31842
| 16>    S        3.46832        -0.02526         0.51776
| 17>    C        2.76060        -2.61632         0.13860
| 18>    C        4.00628        -3.02528         0.34463
| 19>    H        1.82521         1.08368         1.61080
| 20>    H        1.58165         1.08753        -1.28261
| 21>    H       -0.10873         2.41428        -0.22288
| 22>    H       -0.35645         1.24811         1.06890
| 23>    H       -1.13392         0.88533        -1.84984
| 24>    H       -3.21725         1.35023        -1.08058
| 25>    H       -3.30691        -1.50992        -0.29729
| 26>    H       -1.40815        -1.38967        -1.45052
| 27>    H       -0.15313        -2.43106         0.30684
| 28>    H       -0.19843        -0.99321         1.31467
| 29>    H        1.14563        -1.15948        -1.43342
| 30>    H        1.97865        -3.30852        -0.14644
| 31>    H        4.78362        -2.33033         0.61096
| 32>    H        4.27082        -4.06255         0.26758
| 33> *
| 34>
| 35>                          ****END OF INPUT****
 Total Charge           Charge          ....    0
 Multiplicity           Mult            ....    1
 Number of Electrons    NEL             ....  122
Dispersion correction           -0.066293362
FINAL SINGLE POINT ENERGY     -1328.018576837936
Dispersion correction            ... done
Dispersion correction           -0.065487044
FINAL SINGLE POINT ENERGY     -1328.022768811596
Dispersion correction            ... done
Dispersion correction           -0.065345551
FINAL SINGLE POINT ENERGY     -1328.023393673742
Dispersion correction            ... done
FINAL SINGLE POINT ENERGY     -1328.023664988741
FINAL SINGLE POINT ENERGY     -1328.023740385104
FINAL SINGLE POINT ENERGY     -1328.023776315885
FINAL SINGLE POINT ENERGY     -1328.023779374290
FINAL SINGLE POINT ENERGY     -1328.023758329007
FINAL SINGLE POINT ENERGY     -1328.023666121090
FINAL SINGLE POINT ENERGY     -1328.023448839193
FINAL SINGLE POINT ENERGY     -1328.022928642215
FINAL SINGLE POINT ENERGY     -1328.022894129433
FINAL SINGLE POINT ENERGY     -1328.022957187588
FINAL SINGLE POINT ENERGY     -1328.022970736733
FINAL SINGLE POINT ENERGY     -1328.022969063635
FINAL SINGLE POINT ENERGY     -1328.022992739689
FINAL SINGLE POINT ENERGY     -1328.023026273035
Dispersion correction            ... done
Dispersion correction           -0.065616473
FINAL SINGLE POINT ENERGY     -1328.023035209994
Dispersion correction            ... done
Dispersion correction           -0.065617978
FINAL SINGLE POINT ENERGY     -1328.023045355792
Dispersion correction            ... done
                    ***********************HURRAY********************

CARTESIAN COORDINATES (ANGSTROEM)
---------------------------------
  N      2.385519    1.152245    0.251389
  C      1.198473    0.769833   -0.522067
  C     -0.068094    1.290579    0.142161
  C     -1.332830    0.782029   -0.547238
  N     -2.523794    1.183826    0.216197
  S     -2.920903   -0.177523    1.215397
  N     -2.527756   -1.338677   -0.012845
  C     -1.334470   -0.807206   -0.690290
  C     -0.067655   -1.441868   -0.111425
  C      1.181597   -0.808655   -0.716977
  N      2.429114   -1.283851   -0.134883
  S      3.597957    0.008874   -0.154769
  C      2.661099   -2.514447    0.440544
  C      3.824811   -2.973597    0.935787
  H      2.186367    1.076515    1.252274
  H      1.302647    1.222687   -1.520879
  H     -0.069204    2.390036    0.137391
  H     -0.099033    0.969589    1.197033
  H     -1.402305    1.239455   -1.546491
  H     -3.303952    1.382178   -0.411830
  H     -3.308847   -1.405344   -0.667843
  H     -1.406892   -1.075879   -1.756341
  H     -0.103906   -2.519892   -0.325047
  H     -0.067969   -1.326429    0.982916
  H      1.170137   -1.007008   -1.807526
  H      1.771757   -3.150964    0.470540
  H      4.743012   -2.382741    0.906448
  H      3.862026   -3.959947    1.397687

 Multiplicity           Mult            ....    1
 Number of Electrons    NEL             ....  122
 Basis Dimension        Dim             ....  274

ORBITAL ENERGIES
----------------

  NO   OCC          E(Eh)            E(eV)
   0   2.0000     -88.882545     -2418.6170
   1   2.0000     -88.882174     -2418.6069
   2   2.0000     -14.352880      -390.5617
   3   2.0000     -14.348810      -390.4510
   4   2.0000     -14.348247      -390.4357
   5   2.0000     -14.345760      -390.3680
   6   2.0000     -10.238308      -278.5985
   7   2.0000     -10.237983      -278.5897
   8   2.0000     -10.235454      -278.5209
   9   2.0000     -10.231614      -278.4164
  10   2.0000     -10.216780      -278.0127
  11   2.0000     -10.197597      -277.4907
  12   2.0000     -10.197226      -277.4806
  13   2.0000     -10.153394      -276.2879
  14   2.0000      -7.973523      -216.9706
  15   2.0000      -7.973140      -216.9602
  16   2.0000      -5.945393      -161.7824
  17   2.0000      -5.944747      -161.7648
  18   2.0000      -5.939400      -161.6193
  19   2.0000      -5.939284      -161.6161
  20   2.0000      -5.929626      -161.3533
  21   2.0000      -5.929108      -161.3392
  22   2.0000      -0.973773       -26.4977
  23   2.0000      -0.965820       -26.2813
  24   2.0000      -0.890961       -24.2443
  25   2.0000      -0.872267       -23.7356
  26   2.0000      -0.824628       -22.4393
  27   2.0000      -0.754636       -20.5347
  28   2.0000      -0.741500       -20.1772
  29   2.0000      -0.722913       -19.6715
  30   2.0000      -0.669650       -18.2221
  31   2.0000      -0.651605       -17.7311
  32   2.0000      -0.617925       -16.8146
  33   2.0000      -0.610087       -16.6013
  34   2.0000      -0.567331       -15.4379
  35   2.0000      -0.547894       -14.9090
  36   2.0000      -0.532740       -14.4966
  37   2.0000      -0.516770       -14.0620
  38   2.0000      -0.502386       -13.6706
  39   2.0000      -0.494921       -13.4675
  40   2.0000      -0.467722       -12.7274
  41   2.0000      -0.458733       -12.4828
  42   2.0000      -0.456638       -12.4258
  43   2.0000      -0.436534       -11.8787
  44   2.0000      -0.422246       -11.4899
  45   2.0000      -0.410111       -11.1597
  46   2.0000      -0.401359       -10.9215
  47   2.0000      -0.398194       -10.8354
  48   2.0000      -0.388247       -10.5647
  49   2.0000      -0.370214       -10.0740
  50   2.0000      -0.361882        -9.8473
  51   2.0000      -0.346516        -9.4292
  52   2.0000      -0.342014        -9.3067
  53   2.0000      -0.331569        -9.0224
  54   2.0000      -0.326544        -8.8857
  55   2.0000      -0.300399        -8.1743
  56   2.0000      -0.279353        -7.6016
  57   2.0000      -0.262111        -7.1324
  58   2.0000      -0.238763        -6.4971
  59   2.0000      -0.233664        -6.3583
  60   2.0000      -0.186911        -5.0861
  61   0.0000       0.001461         0.0398
  62   0.0000       0.008273         0.2251
  63   0.0000       0.011916         0.3243
  64   0.0000       0.038082         1.0363
  65   0.0000       0.048709         1.3254

MULLIKEN ATOMIC CHARGES
-----------------------
   0 N :   -0.314872
   1 C :    0.019776
   2 C :    0.207000
   3 C :   -0.015220
   4 N :   -0.303518
   5 S :    0.198283
   6 N :   -0.297128
   7 C :   -0.022829
   8 C :    0.193112
   9 C :    0.128823
  10 N :   -0.418808
  11 S :    0.264864
  12 C :    0.106279
  13 C :   -0.104488
  14 H :    0.132240
  15 H :   -0.006513
  16 H :    0.024092
  17 H :   -0.030434
  18 H :   -0.004802
  19 H :    0.121032
  20 H :    0.120897
  21 H :   -0.006913
  22 H :    0.023374
  23 H :   -0.016949
  24 H :   -0.017470
  25 H :    0.007921
  26 H :    0.005896
  27 H :    0.006356
Sum of atomic charges:   -0.0000000

LOEWDIN ATOMIC CHARGES
----------------------
   0 N :   -0.217189
   1 C :   -0.000398
   2 C :   -0.032828
   3 C :   -0.005873
   4 N :   -0.225912
   5 S :    0.344443
   6 N :   -0.225491
   7 C :   -0.005580
   8 C :   -0.034616
   9 C :    0.013029
  10 N :   -0.195458
  11 S :    0.384258
  12 C :   -0.000865
  13 C :   -0.166825
  14 H :    0.049133
  15 H :    0.018536
  16 H :    0.033719
  17 H :    0.020460
  18 H :    0.018967
  19 H :    0.044714
  20 H :    0.044468
  21 H :    0.018119
  22 H :    0.028502
  23 H :    0.025163
  24 H :    0.009002
  25 H :    0.025543
  26 H :    0.010708
  27 H :    0.022270

  Mayer bond orders larger than 0.100000
B(  0-N ,  1-C ) :   1.0167 B(  0-N , 11-S ) :   1.0269 B(  0-N , 14-H ) :   0.9285
B(  1-C ,  2-C ) :   1.0965 B(  1-C ,  9-C ) :   0.9603 B(  1-C , 15-H ) :   0.8900
B(  2-C ,  3-C ) :   1.0866 B(  2-C ,  8-C ) :   0.1070 B(  2-C , 16-H ) :   0.9349
B(  2-C , 17-H ) :   0.8449 B(  3-C ,  4-N ) :   1.0467 B(  3-C ,  7-C ) :   0.9560
B(  3-C , 18-H ) :   0.9053 B(  4-N ,  5-S ) :   0.9804 B(  4-N , 19-H ) :   0.9392
B(  5-S ,  6-N ) :   0.9792 B(  6-N ,  7-C ) :   1.0551 B(  6-N , 20-H ) :   0.9388
B(  7-C ,  8-C ) :   1.0766 B(  7-C , 21-H ) :   0.9042 B(  8-C ,  9-C ) :   1.1179
B(  8-C , 22-H ) :   0.9247 B(  8-C , 23-H ) :   0.8529 B(  9-C , 10-N ) :   0.9299
B(  9-C , 24-H ) :   0.8922 B( 10-N , 11-S ) :   0.9067 B( 10-N , 12-C ) :   1.0843
B( 10-N , 13-C ) :   0.1018 B( 12-C , 13-C ) :   1.8858 B( 12-C , 25-H ) :   0.9509
B( 13-C , 26-H ) :   0.9521 B( 13-C , 27-H ) :   0.9410

Dispersion correction           -0.065618753
FINAL SINGLE POINT ENERGY     -1328.023048426191

DIPOLE MOMENT
-------------
                                X             Y             Z
Electronic contribution:     -0.74572       3.35306       2.08583
Nuclear contribution   :     -0.56199      -3.09505      -2.97696
                        -----------------------------------------
Total Dipole Moment    :     -1.30771       0.25801      -0.89113
                        -----------------------------------------
Magnitude (a.u.)       :      1.60337
Magnitude (Debye)      :      4.07544

Rotational constants in cm-1:     0.039220     0.011043     0.009463
Rotational constants in MHz :  1175.784415   331.065559   283.683594

                             ****ORCA TERMINATED NORMALLY****
TOTAL RUN TIME: 0 days 1 hours 6 minutes 46 seconds 361 msec
