                         Program Version 4.2.0 -  RELEASE  -
|  1> # ORCA input file
|  2> # SCF done        -28.960565032206          0.000416410034
|  3> ! B3LYP/G D3BJ Opt RIJCOSX def2-SVP def2/J
|  4> * xyz 0 1
|  5>    C       -1.52696         1.37532        -0.11088
|  6>    C       -0.26616         0.83082        -0.04123
|  7>    C       -0.29868        -0.60946        -0.07187
|  8>    N        0.81469        -1.37028        -0.01417
|  9>    C        1.95226        -0.74898         0.07095
| 10>    C        2.10257         0.66112         0.10575
| 11>    C        0.99886         1.45871         0.05068
| 12>    C       -1.59119        -1.11963        -0.16594
| 13>    S       -2.73687         0.17334        -0.21345
| 14>    C       -1.95099        -2.50374        -0.22141
| 15>    C       -3.19392        -2.97206        -0.31549
| 16>    H       -1.80315         2.41103        -0.10771
| 17>    H        2.83017        -1.38086         0.11523
| 18>    H        3.09354         1.08240         0.17549
| 19>    H        1.06580         2.53719         0.07473
| 20>    H       -1.10082        -3.17078        -0.18048
| 21>    H       -4.04419        -2.31067        -0.35511
| 22>    H       -3.39774        -4.02703        -0.35516
| 23> *
| 24>
| 25>                          ****END OF INPUT****
 Total Charge           Charge          ....    0
 Multiplicity           Mult            ....    1
 Number of Electrons    NEL             ....   84
Dispersion correction           -0.039979651
FINAL SINGLE POINT ENERGY      -799.719715571889
Dispersion correction            ... done
Dispersion correction           -0.039772221
FINAL SINGLE POINT ENERGY      -799.722596739626
Dispersion correction            ... done
Dispersion correction           -0.039736144
FINAL SINGLE POINT ENERGY      -799.722682713593
Dispersion correction            ... done
FINAL SINGLE POINT ENERGY      -799.722661013782
Dispersion correction            ... done
Dispersion correction           -0.039723311
FINAL SINGLE POINT ENERGY      -799.722693512046
Dispersion correction            ... done
Dispersion correction           -0.039725590
FINAL SINGLE POINT ENERGY      -799.722695309892
Dispersion correction            ... done
                    ***********************HURRAY********************

CARTESIAN COORDINATES (ANGSTROEM)
---------------------------------
  C     -1.530225    1.412304   -0.138480
  C     -0.263016    0.851869   -0.051884
  C     -0.302864   -0.598983   -0.100718
  N      0.814407   -1.377819   -0.043760
  C      1.964806   -0.761852    0.062854
  C      2.120541    0.663871    0.129684
  C      1.015457    1.473206    0.075121
  C     -1.609622   -1.106657   -0.209296
  S     -2.740932    0.201759   -0.268965
  C     -1.976959   -2.505504   -0.249594
  C     -3.220058   -3.016187   -0.279295
  H     -1.805644    2.465267   -0.127901
  H      2.862012   -1.391572    0.105507
  H      3.122457    1.086980    0.229253
  H      1.099944    2.561700    0.130026
  H     -1.106184   -3.168610   -0.242499
  H     -4.109183   -2.378425   -0.274485
  H     -3.387716   -4.094907   -0.305638

 Multiplicity           Mult            ....    1
 Number of Electrons    NEL             ....   84
 Basis Dimension        Dim             ....  193

ORBITAL ENERGIES
----------------

  NO   OCC          E(Eh)            E(eV)
   0   2.0000     -88.890610     -2418.8365
   1   2.0000     -14.326188      -389.8354
   2   2.0000     -10.229870      -278.3689
   3   2.0000     -10.225808      -278.2584
   4   2.0000     -10.222548      -278.1697
   5   2.0000     -10.219959      -278.0992
   6   2.0000     -10.215869      -277.9879
   7   2.0000     -10.208679      -277.7923
   8   2.0000     -10.203263      -277.6449
   9   2.0000     -10.199362      -277.5387
  10   2.0000     -10.187849      -277.2255
  11   2.0000      -7.985131      -217.2865
  12   2.0000      -5.952762      -161.9829
  13   2.0000      -5.948829      -161.8759
  14   2.0000      -5.947422      -161.8376
  15   2.0000      -0.944376       -25.6978
  16   2.0000      -0.879513       -23.9328
  17   2.0000      -0.810022       -22.0418
  18   2.0000      -0.773720       -21.0540
  19   2.0000      -0.746164       -20.3042
  20   2.0000      -0.705539       -19.1987
  21   2.0000      -0.639565       -17.4034
  22   2.0000      -0.611850       -16.6493
  23   2.0000      -0.601464       -16.3667
  24   2.0000      -0.545028       -14.8310
  25   2.0000      -0.510143       -13.8817
  26   2.0000      -0.495348       -13.4791
  27   2.0000      -0.485196       -13.2029
  28   2.0000      -0.446046       -12.1375
  29   2.0000      -0.432554       -11.7704
  30   2.0000      -0.427493       -11.6327
  31   2.0000      -0.425293       -11.5728
  32   2.0000      -0.405204       -11.0262
  33   2.0000      -0.381474       -10.3804
  34   2.0000      -0.371486       -10.1086
  35   2.0000      -0.363497        -9.8913
  36   2.0000      -0.348230        -9.4758
  37   2.0000      -0.326274        -8.8784
  38   2.0000      -0.285390        -7.7659
  39   2.0000      -0.261153        -7.1063
  40   2.0000      -0.260907        -7.0996
  41   2.0000      -0.206976        -5.6321
  42   0.0000      -0.080825        -2.1994
  43   0.0000      -0.018269        -0.4971
  44   0.0000       0.007936         0.2160
  45   0.0000       0.036817         1.0018
  46   0.0000       0.062518         1.7012

MULLIKEN ATOMIC CHARGES
-----------------------
   0 C :   -0.141891
   1 C :    0.096171
   2 C :    0.031537
   3 N :   -0.072278
   4 C :    0.035975
   5 C :   -0.012820
   6 C :    0.043311
   7 C :   -0.150202
   8 S :    0.147444
   9 C :    0.015456
  10 C :   -0.038469
  11 H :    0.020456
  12 H :    0.000960
  13 H :   -0.010402
  14 H :   -0.014169
  15 H :    0.008056
  16 H :    0.012954
  17 H :    0.027911
Sum of atomic charges:   -0.0000000

LOEWDIN ATOMIC CHARGES
----------------------
   0 C :   -0.202684
   1 C :   -0.068854
   2 C :   -0.028600
   3 N :   -0.076267
   4 C :    0.022216
   5 C :   -0.055164
   6 C :    0.010400
   7 C :   -0.192669
   8 S :    0.489151
   9 C :   -0.031465
  10 C :   -0.058205
  11 H :    0.025669
  12 H :    0.020046
  13 H :    0.030126
  14 H :    0.032017
  15 H :    0.040636
  16 H :    0.016155
  17 H :    0.027492

  Mayer bond orders larger than 0.100000
B(  0-C ,  1-C ) :   1.3837 B(  0-C ,  7-C ) :   0.1148 B(  0-C ,  8-S ) :   1.1939
B(  0-C , 11-H ) :   0.9672 B(  1-C ,  2-C ) :   1.1795 B(  1-C ,  6-C ) :   1.2030
B(  2-C ,  3-N ) :   1.3854 B(  2-C ,  7-C ) :   1.3394 B(  3-N ,  4-C ) :   1.6879
B(  4-C ,  5-C ) :   1.1862 B(  4-C , 12-H ) :   0.9687 B(  5-C ,  6-C ) :   1.5721
B(  5-C , 13-H ) :   0.9673 B(  6-C , 14-H ) :   0.9833 B(  7-C ,  8-S ) :   1.1617
B(  7-C ,  9-C ) :   1.1744 B(  9-C , 10-C ) :   1.8651 B(  9-C , 15-H ) :   0.9490
B( 10-C , 16-H ) :   0.9530 B( 10-C , 17-H ) :   0.9493

Dispersion correction           -0.039725708
FINAL SINGLE POINT ENERGY      -799.722693633054

DIPOLE MOMENT
-------------
                                X             Y             Z
Electronic contribution:     -1.94916       2.99027      -0.26950
Nuclear contribution   :      2.05823      -2.15764       0.31788
                        -----------------------------------------
Total Dipole Moment    :      0.10907       0.83263       0.04838
                        -----------------------------------------
Magnitude (a.u.)       :      0.84114
Magnitude (Debye)      :      2.13801

Rotational constants in cm-1:     0.063199     0.027398     0.019118
Rotational constants in MHz :  1894.665460   821.385225   573.133725

                             ****ORCA TERMINATED NORMALLY****
TOTAL RUN TIME: 0 days 0 hours 7 minutes 51 seconds 100 msec
