                         Program Version 4.2.0 -  RELEASE  -
|  1> # ORCA input file
|  2> # SCF done        -28.368974599806          0.000656998791
|  3> ! B3LYP/G D3BJ Opt RIJCOSX def2-SVP def2/J
|  4> * xyz 0 1
|  5>    C       -1.12830         0.03224         0.13329
|  6>    O       -0.24226         1.03736         0.11214
|  7>    C        0.99632         0.52710        -0.07806
|  8>    C        0.89202        -0.84406        -0.17903
|  9>    C       -0.48097        -1.15646        -0.04171
| 10>    F       -1.03516        -2.36679        -0.07624
| 11>    F        1.88661        -1.71163        -0.36790
| 12>    C        2.11786         1.43121        -0.13775
| 13>    C        3.37763         1.06087        -0.34390
| 14>    H       -2.16340         0.26602         0.27424
| 15>    H        1.84982         2.46919         0.00037
| 16>    H        3.65481         0.03098        -0.48437
| 17>    H        4.17086         1.78578        -0.37820
| 18> *
| 19>
| 20>                          ****END OF INPUT****
 Total Charge           Charge          ....    0
 Multiplicity           Mult            ....    1
 Number of Electrons    NEL             ....   66
Dispersion correction           -0.019576430
FINAL SINGLE POINT ENERGY      -505.521289336951
Dispersion correction            ... done
Dispersion correction           -0.019543326
FINAL SINGLE POINT ENERGY      -505.522730667774
Dispersion correction            ... done
Dispersion correction           -0.019534379
FINAL SINGLE POINT ENERGY      -505.522787320560
Dispersion correction            ... done
FINAL SINGLE POINT ENERGY      -505.522722029624
Dispersion correction            ... done
Dispersion correction           -0.019532103
FINAL SINGLE POINT ENERGY      -505.522720444246
Dispersion correction            ... done
Dispersion correction           -0.019534881
FINAL SINGLE POINT ENERGY      -505.522716794960
Dispersion correction            ... done
                    ***********************HURRAY********************

CARTESIAN COORDINATES (ANGSTROEM)
---------------------------------
  C     -1.149178    0.029880    0.128658
  O     -0.233474    1.029009    0.127640
  C      1.014002    0.500513   -0.054018
  C      0.882297   -0.867285   -0.155049
  C     -0.506445   -1.164600   -0.048728
  F     -1.049137   -2.370324   -0.125365
  F      1.856691   -1.755526   -0.313013
  C      2.126712    1.417846   -0.130173
  C      3.406689    1.082477   -0.358158
  H     -2.191187    0.296700    0.272728
  H      1.845040    2.466726    0.009105
  H      3.713829    0.045509   -0.509665
  H      4.180000    1.850885   -0.411081

 Multiplicity           Mult            ....    1
 Number of Electrons    NEL             ....   66
 Basis Dimension        Dim             ....  146

ORBITAL ENERGIES
----------------

  NO   OCC          E(Eh)            E(eV)
   0   2.0000     -24.722549      -672.7348
   1   2.0000     -24.719986      -672.6650
   2   2.0000     -19.221338      -523.0392
   3   2.0000     -10.285778      -279.8902
   4   2.0000     -10.283298      -279.8228
   5   2.0000     -10.260040      -279.1899
   6   2.0000     -10.257280      -279.1148
   7   2.0000     -10.212809      -277.9047
   8   2.0000     -10.198658      -277.5196
   9   2.0000      -1.235707       -33.6253
  10   2.0000      -1.226955       -33.3872
  11   2.0000      -1.126246       -30.6467
  12   2.0000      -0.819514       -22.3001
  13   2.0000      -0.808516       -22.0008
  14   2.0000      -0.739282       -20.1169
  15   2.0000      -0.640391       -17.4259
  16   2.0000      -0.624967       -17.0062
  17   2.0000      -0.602701       -16.4003
  18   2.0000      -0.561220       -15.2716
  19   2.0000      -0.540143       -14.6980
  20   2.0000      -0.512985       -13.9590
  21   2.0000      -0.501397       -13.6437
  22   2.0000      -0.477537       -12.9944
  23   2.0000      -0.472887       -12.8679
  24   2.0000      -0.456953       -12.4343
  25   2.0000      -0.445018       -12.1095
  26   2.0000      -0.436299       -11.8723
  27   2.0000      -0.433772       -11.8035
  28   2.0000      -0.387399       -10.5417
  29   2.0000      -0.354991        -9.6598
  30   2.0000      -0.321299        -8.7430
  31   2.0000      -0.280037        -7.6202
  32   2.0000      -0.226720        -6.1694
  33   0.0000      -0.046843        -1.2747
  34   0.0000       0.032186         0.8758
  35   0.0000       0.050691         1.3794
  36   0.0000       0.077456         2.1077
  37   0.0000       0.097389         2.6501

MULLIKEN ATOMIC CHARGES
-----------------------
   0 C :    0.055080
   1 O :   -0.213866
   2 C :    0.091311
   3 C :    0.129800
   4 C :    0.215868
   5 F :   -0.169787
   6 F :   -0.170192
   7 C :    0.000481
   8 C :   -0.027630
   9 H :    0.022893
  10 H :    0.005383
  11 H :    0.029028
  12 H :    0.031631
Sum of atomic charges:   -0.0000000

LOEWDIN ATOMIC CHARGES
----------------------
   0 C :    0.005899
   1 O :    0.010213
   2 C :   -0.004471
   3 C :    0.013031
   4 C :    0.008533
   5 F :   -0.041087
   6 F :   -0.039374
   7 C :   -0.039755
   8 C :   -0.038757
   9 H :    0.030543
  10 H :    0.039520
  11 H :    0.025955
  12 H :    0.029750

  Mayer bond orders larger than 0.100000
B(  0-C ,  1-O ) :   1.1118 B(  0-C ,  2-C ) :   0.1183 B(  0-C ,  4-C ) :   1.4700
B(  0-C ,  9-H ) :   1.0048 B(  1-O ,  2-C ) :   1.1087 B(  2-C ,  3-C ) :   1.4079
B(  2-C ,  7-C ) :   1.1266 B(  3-C ,  4-C ) :   1.1943 B(  3-C ,  6-F ) :   1.1411
B(  4-C ,  5-F ) :   1.1317 B(  7-C ,  8-C ) :   1.9125 B(  7-C , 10-H ) :   0.9486
B(  8-C , 11-H ) :   0.9503 B(  8-C , 12-H ) :   0.9443

Dispersion correction           -0.019537089
FINAL SINGLE POINT ENERGY      -505.522726256665

DIPOLE MOMENT
-------------
                                X             Y             Z
Electronic contribution:     -5.13204      -8.36727       0.02720
Nuclear contribution   :      5.02604       8.87522       0.01977
                        -----------------------------------------
Total Dipole Moment    :     -0.10600       0.50796       0.04697
                        -----------------------------------------
Magnitude (a.u.)       :      0.52102
Magnitude (Debye)      :      1.32433

Rotational constants in cm-1:     0.103527     0.043805     0.030798
Rotational constants in MHz :  3103.657090  1313.250728   923.295076

                             ****ORCA TERMINATED NORMALLY****
TOTAL RUN TIME: 0 days 0 hours 3 minutes 46 seconds 571 msec
