                         Program Version 4.2.0 -  RELEASE  -
|  1> # ORCA input file
|  2> # SCF done        -37.297439972709          0.000439671370
|  3> ! B3LYP/G D3BJ Opt RIJCOSX def2-SVP def2/J
|  4> * xyz 0 1
|  5>    C       -2.81466         0.41304         0.00304
|  6>    C       -3.12326        -0.90041         0.00185
|  7>    S       -1.73809        -1.93438         0.00080
|  8>    C       -0.69385        -0.54699         0.00189
|  9>    C       -1.40841         0.66390         0.00312
| 10>    C       -0.72121         1.90136         0.00413
| 11>    C       -1.50143         3.18601         0.00602
| 12>    C        0.66089         1.91206         0.00349
| 13>    C        1.46654         3.17913         0.00406
| 14>    C        1.37370         0.69188         0.00219
| 15>    C        0.69220        -0.53410         0.00156
| 16>    S        1.77979        -1.88864         0.00031
| 17>    C        3.13471        -0.81229         0.00046
| 18>    C        2.78663         0.49154         0.00158
| 19>    H       -3.56982         1.17800         0.00373
| 20>    H       -4.09795        -1.34768         0.00149
| 21>    H       -2.56910         2.99835         0.00647
| 22>    H       -1.26382         3.77860        -0.87679
| 23>    H       -1.26276         3.77650         0.88997
| 24>    H        0.83946         4.06302         0.00620
| 25>    H        2.10556         3.21330        -0.87782
| 26>    H        2.10826         3.21094         0.88405
| 27>    H        4.12145        -1.23235        -0.00024
| 28>    H        3.50537         1.29056         0.00183
| 29> *
| 30>
| 31>                          ****END OF INPUT****
 Total Charge           Charge          ....    0
 Multiplicity           Mult            ....    1
 Number of Electrons    NEL             ....  114
Dispersion correction           -0.061241513
FINAL SINGLE POINT ENERGY     -1259.199727328554
Dispersion correction            ... done
Dispersion correction           -0.060953762
FINAL SINGLE POINT ENERGY     -1259.203488613166
Dispersion correction            ... done
Dispersion correction           -0.060909493
FINAL SINGLE POINT ENERGY     -1259.203619448954
Dispersion correction            ... done
Dispersion correction           -0.060902377
FINAL SINGLE POINT ENERGY     -1259.203649996716
Dispersion correction            ... done
Dispersion correction           -0.060905658
FINAL SINGLE POINT ENERGY     -1259.203656443149
Dispersion correction            ... done
                    ***********************HURRAY********************

CARTESIAN COORDINATES (ANGSTROEM)
---------------------------------
  C     -2.841837    0.402221    0.003420
  C     -3.157628   -0.924167    0.002554
  S     -1.752649   -1.958243    0.000463
  C     -0.700254   -0.565366    0.001579
  C     -1.419115    0.654624    0.002961
  C     -0.725803    1.905952    0.003895
  C     -1.510751    3.198662    0.005354
  C      0.670398    1.915697    0.003492
  C      1.472342    3.193456    0.004577
  C      1.386597    0.681837    0.002008
  C      0.699768   -0.552176    0.001038
  S      1.793681   -1.914078   -0.001092
  C      3.168971   -0.839115    0.000348
  C      2.814788    0.478140    0.001453
  H     -3.602721    1.182096    0.004606
  H     -4.149848   -1.373121    0.002839
  H     -2.593741    3.021681    0.005121
  H     -1.279653    3.813948   -0.879782
  H     -1.279716    3.811963    0.891899
  H      0.841651    4.089754    0.006658
  H      2.128088    3.251411   -0.880765
  H      2.130006    3.248684    0.888660
  H      4.173419   -1.260093   -0.000066
  H      3.544208    1.287584    0.002170

 Multiplicity           Mult            ....    1
 Number of Electrons    NEL             ....  114
 Basis Dimension        Dim             ....  254

ORBITAL ENERGIES
----------------

  NO   OCC          E(Eh)            E(eV)
   0   2.0000     -88.870871     -2418.2993
   1   2.0000     -88.870272     -2418.2830
   2   2.0000     -10.217896      -278.0431
   3   2.0000     -10.217468      -278.0314
   4   2.0000     -10.215898      -277.9887
   5   2.0000     -10.214938      -277.9626
   6   2.0000     -10.197655      -277.4923
   7   2.0000     -10.197356      -277.4842
   8   2.0000     -10.195331      -277.4291
   9   2.0000     -10.195032      -277.4209
  10   2.0000     -10.194904      -277.4174
  11   2.0000     -10.194583      -277.4087
  12   2.0000     -10.190404      -277.2950
  13   2.0000     -10.189327      -277.2657
  14   2.0000      -7.965670      -216.7569
  15   2.0000      -7.965156      -216.7429
  16   2.0000      -5.934091      -161.4748
  17   2.0000      -5.933573      -161.4607
  18   2.0000      -5.930034      -161.3644
  19   2.0000      -5.929532      -161.3508
  20   2.0000      -5.926399      -161.2655
  21   2.0000      -5.925862      -161.2509
  22   2.0000      -0.897328       -24.4175
  23   2.0000      -0.865471       -23.5507
  24   2.0000      -0.821454       -22.3529
  25   2.0000      -0.763127       -20.7657
  26   2.0000      -0.755066       -20.5464
  27   2.0000      -0.729160       -19.8414
  28   2.0000      -0.706412       -19.2224
  29   2.0000      -0.684574       -18.6282
  30   2.0000      -0.655261       -17.8306
  31   2.0000      -0.598437       -16.2843
  32   2.0000      -0.571397       -15.5485
  33   2.0000      -0.556196       -15.1349
  34   2.0000      -0.537622       -14.6294
  35   2.0000      -0.524589       -14.2748
  36   2.0000      -0.468482       -12.7481
  37   2.0000      -0.448575       -12.2063
  38   2.0000      -0.446034       -12.1372
  39   2.0000      -0.437696       -11.9103
  40   2.0000      -0.432410       -11.7665
  41   2.0000      -0.407601       -11.0914
  42   2.0000      -0.406435       -11.0597
  43   2.0000      -0.401719       -10.9313
  44   2.0000      -0.396368       -10.7857
  45   2.0000      -0.386111       -10.5066
  46   2.0000      -0.382742       -10.4149
  47   2.0000      -0.367742       -10.0068
  48   2.0000      -0.363336        -9.8869
  49   2.0000      -0.360869        -9.8198
  50   2.0000      -0.348973        -9.4960
  51   2.0000      -0.327124        -8.9015
  52   2.0000      -0.302937        -8.2433
  53   2.0000      -0.279285        -7.5997
  54   2.0000      -0.260432        -7.0867
  55   2.0000      -0.212702        -5.7879
  56   2.0000      -0.212037        -5.7698
  57   0.0000      -0.039730        -1.0811
  58   0.0000      -0.011483        -0.3125
  59   0.0000       0.017141         0.4664
  60   0.0000       0.018612         0.5065
  61   0.0000       0.056914         1.5487

MULLIKEN ATOMIC CHARGES
-----------------------
   0 C :   -0.006606
   1 C :   -0.065818
   2 S :    0.106709
   3 C :   -0.132000
   4 C :    0.072949
   5 C :   -0.106946
   6 C :    0.059965
   7 C :   -0.114046
   8 C :    0.076898
   9 C :    0.063322
  10 C :   -0.129768
  11 S :    0.107234
  12 C :   -0.059055
  13 C :   -0.000126
  14 H :   -0.013991
  15 H :    0.024011
  16 H :    0.004008
  17 H :    0.030325
  18 H :    0.030316
  19 H :   -0.002993
  20 H :    0.023686
  21 H :    0.023717
  22 H :    0.024568
  23 H :   -0.016356
Sum of atomic charges:   -0.0000000

LOEWDIN ATOMIC CHARGES
----------------------
   0 C :   -0.064244
   1 C :   -0.174137
   2 S :    0.395814
   3 C :   -0.180307
   4 C :   -0.049340
   5 C :   -0.030847
   6 C :   -0.048051
   7 C :   -0.030479
   8 C :   -0.046394
   9 C :   -0.049149
  10 C :   -0.180724
  11 S :    0.395646
  12 C :   -0.171290
  13 C :   -0.063614
  14 H :    0.028372
  15 H :    0.025310
  16 H :    0.026355
  17 H :    0.034302
  18 H :    0.034302
  19 H :    0.026355
  20 H :    0.033769
  21 H :    0.033762
  22 H :    0.025414
  23 H :    0.029175

  Mayer bond orders larger than 0.100000
B(  0-C ,  1-C ) :   1.6170 B(  0-C ,  4-C ) :   1.1889 B(  0-C , 14-H ) :   0.9826
B(  1-C ,  2-S ) :   1.1104 B(  1-C , 15-H ) :   0.9638 B(  2-S ,  3-C ) :   1.0774
B(  3-C ,  4-C ) :   1.3479 B(  3-C , 10-C ) :   1.3972 B(  4-C ,  5-C ) :   1.2401
B(  5-C ,  6-C ) :   1.0936 B(  5-C ,  7-C ) :   1.5018 B(  6-C , 16-H ) :   0.9478
B(  6-C , 17-H ) :   0.9449 B(  6-C , 18-H ) :   0.9449 B(  7-C ,  8-C ) :   1.1059
B(  7-C ,  9-C ) :   1.2489 B(  8-C , 19-H ) :   0.9428 B(  8-C , 20-H ) :   0.9433
B(  8-C , 21-H ) :   0.9433 B(  9-C , 10-C ) :   1.3525 B(  9-C , 13-C ) :   1.2001
B( 10-C , 11-S ) :   1.0744 B( 11-S , 12-C ) :   1.1121 B( 12-C , 13-C ) :   1.6024
B( 12-C , 22-H ) :   0.9632 B( 13-C , 23-H ) :   0.9823

Dispersion correction           -0.060907490
FINAL SINGLE POINT ENERGY     -1259.203656748134

DIPOLE MOMENT
-------------
                                X             Y             Z
Electronic contribution:      0.07750     -18.77532      -0.02041
Nuclear contribution   :     -0.06331      19.37930       0.02112
                        -----------------------------------------
Total Dipole Moment    :      0.01420       0.60398       0.00071
                        -----------------------------------------
Magnitude (a.u.)       :      0.60415
Magnitude (Debye)      :      1.53562

Rotational constants in cm-1:     0.024054     0.020015     0.010970
Rotational constants in MHz :   721.135355   600.041685   328.866471

                             ****ORCA TERMINATED NORMALLY****
TOTAL RUN TIME: 0 days 0 hours 11 minutes 19 seconds 791 msec
