                         Program Version 4.2.0 -  RELEASE  -
|  1> # ORCA input file
|  2> # SCF done        -40.984942459390          0.000628740253
|  3> ! B3LYP/G D3BJ Opt RIJCOSX def2-SVP def2/J
|  4> * xyz 0 1
|  5>    C       -1.75321        -1.35611         0.22026
|  6>    S       -2.90310        -0.13594         0.54756
|  7>    C       -1.78532         1.12406         0.13258
|  8>    C       -0.57485         0.58194        -0.25052
|  9>    C       -0.55930        -0.84014        -0.19454
| 10>    S        0.76766        -1.89363        -0.70654
| 11>    C        2.21685        -1.15370         0.02939
| 12>    O        3.27763        -1.67561        -0.13199
| 13>    C        1.97907         0.13223         0.78221
| 14>    C        1.72614         1.22645        -0.24770
| 15>    O        2.57934         1.94190        -0.67824
| 16>    O        0.46040         1.36811        -0.68064
| 17>    C       -2.20841         2.49938         0.22259
| 18>    C       -1.50080         3.55781        -0.16205
| 19>    H       -2.00559        -2.39099         0.32890
| 20>    H        2.89152         0.37941         1.32695
| 21>    H        1.13168         0.03996         1.46384
| 22>    H       -3.19869         2.62765         0.64010
| 23>    H       -0.52173         3.47065        -0.59715
| 24>    H       -1.89745         4.55199        -0.05450
| 25> *
| 26>
| 27>                          ****END OF INPUT****
 Total Charge           Charge          ....    0
 Multiplicity           Mult            ....    1
 Number of Electrons    NEL             ....  116
Dispersion correction           -0.051313928
FINAL SINGLE POINT ENERGY     -1367.998134524072
Dispersion correction            ... done
Dispersion correction           -0.050931708
FINAL SINGLE POINT ENERGY     -1368.000968585659
Dispersion correction            ... done
Dispersion correction           -0.050790819
FINAL SINGLE POINT ENERGY     -1368.001267955987
Dispersion correction            ... done
FINAL SINGLE POINT ENERGY     -1368.001691837621
FINAL SINGLE POINT ENERGY     -1368.001719905710
FINAL SINGLE POINT ENERGY     -1368.001802086448
FINAL SINGLE POINT ENERGY     -1368.001821492120
FINAL SINGLE POINT ENERGY     -1368.001839741888
Dispersion correction            ... done
Dispersion correction           -0.050871385
FINAL SINGLE POINT ENERGY     -1368.001845076575
Dispersion correction            ... done
Dispersion correction           -0.050872310
FINAL SINGLE POINT ENERGY     -1368.001843010991
Dispersion correction            ... done
                    ***********************HURRAY********************

CARTESIAN COORDINATES (ANGSTROEM)
---------------------------------
  C     -1.757245   -1.386616    0.206141
  S     -2.897012   -0.144654    0.552932
  C     -1.775563    1.120995    0.125313
  C     -0.580881    0.560894   -0.295548
  C     -0.563556   -0.872143   -0.249428
  S      0.768474   -1.903139   -0.785241
  C      2.201860   -1.188686    0.056995
  O      3.260143   -1.743701   -0.026825
  C      1.991488    0.141380    0.775929
  C      1.729620    1.253273   -0.229023
  O      2.558563    2.020173   -0.615104
  O      0.456089    1.338424   -0.734549
  C     -2.187693    2.511606    0.245310
  C     -1.514165    3.591405   -0.185175
  H     -2.013641   -2.434768    0.347569
  H      2.926798    0.376210    1.296019
  H      1.162687    0.055111    1.494999
  H     -3.155451    2.658216    0.736924
  H     -0.553396    3.513548   -0.695090
  H     -1.935280    4.587891   -0.031638

 Multiplicity           Mult            ....    1
 Number of Electrons    NEL             ....  116
 Basis Dimension        Dim             ....  234

ORBITAL ENERGIES
----------------

  NO   OCC          E(Eh)            E(eV)
   0   2.0000     -88.904775     -2419.2219
   1   2.0000     -88.883917     -2418.6543
   2   2.0000     -19.215184      -522.8717
   3   2.0000     -19.158828      -521.3382
   4   2.0000     -19.148264      -521.0508
   5   2.0000     -10.349212      -281.6164
   6   2.0000     -10.323774      -280.9242
   7   2.0000     -10.282552      -279.8025
   8   2.0000     -10.250072      -278.9186
   9   2.0000     -10.245704      -278.7998
  10   2.0000     -10.245647      -278.7982
  11   2.0000     -10.239173      -278.6221
  12   2.0000     -10.220745      -278.1206
  13   2.0000     -10.203368      -277.6477
  14   2.0000      -7.999940      -217.6894
  15   2.0000      -7.979603      -217.1360
  16   2.0000      -5.967988      -162.3972
  17   2.0000      -5.964064      -162.2904
  18   2.0000      -5.961115      -162.2102
  19   2.0000      -5.948412      -161.8645
  20   2.0000      -5.944246      -161.7511
  21   2.0000      -5.939159      -161.6127
  22   2.0000      -1.129858       -30.7450
  23   2.0000      -1.073302       -29.2060
  24   2.0000      -1.049242       -28.5513
  25   2.0000      -0.916461       -24.9382
  26   2.0000      -0.838992       -22.8301
  27   2.0000      -0.800642       -21.7866
  28   2.0000      -0.790085       -21.4993
  29   2.0000      -0.752665       -20.4811
  30   2.0000      -0.721678       -19.6379
  31   2.0000      -0.663395       -18.0519
  32   2.0000      -0.622592       -16.9416
  33   2.0000      -0.598718       -16.2920
  34   2.0000      -0.578460       -15.7407
  35   2.0000      -0.555465       -15.1150
  36   2.0000      -0.526313       -14.3217
  37   2.0000      -0.504208       -13.7202
  38   2.0000      -0.495919       -13.4947
  39   2.0000      -0.479745       -13.0545
  40   2.0000      -0.476481       -12.9657
  41   2.0000      -0.470396       -12.8001
  42   2.0000      -0.461129       -12.5479
  43   2.0000      -0.439659       -11.9637
  44   2.0000      -0.428691       -11.6653
  45   2.0000      -0.419323       -11.4104
  46   2.0000      -0.416666       -11.3380
  47   2.0000      -0.402794       -10.9606
  48   2.0000      -0.390472       -10.6253
  49   2.0000      -0.385046       -10.4776
  50   2.0000      -0.363654        -9.8955
  51   2.0000      -0.344773        -9.3817
  52   2.0000      -0.336108        -9.1460
  53   2.0000      -0.312147        -8.4939
  54   2.0000      -0.298527        -8.1233
  55   2.0000      -0.286644        -7.8000
  56   2.0000      -0.260348        -7.0844
  57   2.0000      -0.239236        -6.5099
  58   0.0000      -0.072684        -1.9778
  59   0.0000      -0.047864        -1.3025
  60   0.0000      -0.017391        -0.4732
  61   0.0000      -0.014908        -0.4057
  62   0.0000       0.008926         0.2429

MULLIKEN ATOMIC CHARGES
-----------------------
   0 C :   -0.098651
   1 S :    0.144550
   2 C :   -0.138852
   3 C :    0.180911
   4 C :   -0.098463
   5 S :    0.081699
   6 C :    0.017222
   7 O :   -0.155185
   8 C :    0.048914
   9 C :    0.168697
  10 O :   -0.150583
  11 O :   -0.245225
  12 C :    0.017320
  13 C :   -0.019191
  14 H :    0.037708
  15 H :    0.051073
  16 H :    0.086184
  17 H :   -0.009520
  18 H :    0.051811
  19 H :    0.029580
Sum of atomic charges:   -0.0000000

LOEWDIN ATOMIC CHARGES
----------------------
   0 C :   -0.196185
   1 S :    0.466007
   2 C :   -0.189274
   3 C :   -0.012753
   4 C :   -0.235795
   5 S :    0.336128
   6 C :   -0.051127
   7 O :   -0.125512
   8 C :   -0.088460
   9 C :    0.100331
  10 O :   -0.118956
  11 O :   -0.047475
  12 C :   -0.050417
  13 C :   -0.026398
  14 H :    0.032734
  15 H :    0.058985
  16 H :    0.057377
  17 H :    0.029744
  18 H :    0.031156
  19 H :    0.029889

  Mayer bond orders larger than 0.100000
B(  0-C ,  1-S ) :   1.1803 B(  0-C ,  4-C ) :   1.5335 B(  0-C , 14-H ) :   0.9664
B(  1-S ,  2-C ) :   1.1374 B(  2-C ,  3-C ) :   1.4920 B(  2-C , 12-C ) :   1.1124
B(  3-C ,  4-C ) :   1.2214 B(  3-C , 11-O ) :   1.0799 B(  4-C ,  5-S ) :   0.9862
B(  5-S ,  6-C ) :   0.9956 B(  5-S ,  7-O ) :   0.1329 B(  6-C ,  7-O ) :   2.1419
B(  6-C ,  8-C ) :   0.9395 B(  8-C ,  9-C ) :   0.9718 B(  8-C , 15-H ) :   0.9060
B(  8-C , 16-H ) :   0.9048 B(  9-C , 10-O ) :   2.2063 B(  9-C , 11-O ) :   1.0248
B( 12-C , 13-C ) :   1.9257 B( 12-C , 17-H ) :   0.9424 B( 13-C , 18-H ) :   0.9470
B( 13-C , 19-H ) :   0.9416

Dispersion correction           -0.050872416
FINAL SINGLE POINT ENERGY     -1368.001839274649

DIPOLE MOMENT
-------------
                                X             Y             Z
Electronic contribution:      1.53525      -7.46627      -2.46893
Nuclear contribution   :     -3.16973       7.35843       3.45882
                        -----------------------------------------
Total Dipole Moment    :     -1.63449      -0.10784       0.98988
                        -----------------------------------------
Magnitude (a.u.)       :      1.91391
Magnitude (Debye)      :      4.86476

Rotational constants in cm-1:     0.028621     0.016195     0.011007
Rotational constants in MHz :   858.049012   485.513053   329.967965

                             ****ORCA TERMINATED NORMALLY****
TOTAL RUN TIME: 0 days 0 hours 16 minutes 56 seconds 26 msec
