                         Program Version 4.2.0 -  RELEASE  -
|  1> # ORCA input file
|  2> # SCF done        -27.077933008487          0.000502777019
|  3> ! B3LYP/G D3BJ Opt RIJCOSX def2-SVP def2/J
|  4> * xyz 0 1
|  5>    C       -1.20041        -1.36315         0.14368
|  6>    S       -2.43971        -0.16780         0.09672
|  7>    C       -1.32917         1.16181        -0.08185
|  8>    C       -0.03465         0.67043        -0.10283
|  9>    C        0.01811        -0.75888         0.02554
| 10>    N        1.33617        -1.09444        -0.01149
| 11>    N        2.10967         0.00005        -0.15165
| 12>    C        1.33349         1.04745        -0.20763
| 13>    C       -1.84346         2.49429        -0.17823
| 14>    C       -1.10366         3.59422        -0.31790
| 15>    H       -1.45275        -2.39741         0.25142
| 16>    H        1.75954        -2.00360         0.04914
| 17>    H        1.76127         2.02285        -0.31845
| 18>    H       -2.92250         2.57013        -0.13013
| 19>    H       -0.03000         3.55503        -0.36867
| 20>    H       -1.55767         4.56685        -0.38425
| 21> *
| 22>
| 23>                          ****END OF INPUT****
 Total Charge           Charge          ....    0
 Multiplicity           Mult            ....    1
 Number of Electrons    NEL             ....   78
Dispersion correction           -0.033530224
FINAL SINGLE POINT ENERGY      -777.632926867709
Dispersion correction            ... done
Dispersion correction           -0.033407733
FINAL SINGLE POINT ENERGY      -777.635410931271
Dispersion correction            ... done
Dispersion correction           -0.033382373
FINAL SINGLE POINT ENERGY      -777.635486319225
Dispersion correction            ... done
FINAL SINGLE POINT ENERGY      -777.635482579181
Dispersion correction            ... done
Dispersion correction           -0.033370556
FINAL SINGLE POINT ENERGY      -777.635495550298
Dispersion correction            ... done
Dispersion correction           -0.033370553
FINAL SINGLE POINT ENERGY      -777.635495412514
Dispersion correction            ... done
                    ***********************HURRAY********************

CARTESIAN COORDINATES (ANGSTROEM)
---------------------------------
  C     -1.215857   -1.385914    0.146803
  S     -2.445364   -0.171815    0.104457
  C     -1.331740    1.155936   -0.077510
  C     -0.027404    0.655628   -0.100544
  C      0.018482   -0.774832    0.025982
  N      1.348691   -1.108558   -0.018224
  N      2.139994   -0.016818   -0.156794
  C      1.354552    1.038970   -0.207636
  C     -1.847738    2.504912   -0.183376
  C     -1.115953    3.625777   -0.313928
  H     -1.474554   -2.434958    0.266190
  H      1.775694   -2.021618    0.045697
  H      1.790198    2.029414   -0.321602
  H     -2.939371    2.594319   -0.151365
  H     -0.024183    3.606403   -0.353989
  H     -1.601177    4.600984   -0.390739

 Multiplicity           Mult            ....    1
 Number of Electrons    NEL             ....   78
 Basis Dimension        Dim             ....  174

ORBITAL ENERGIES
----------------

  NO   OCC          E(Eh)            E(eV)
   0   2.0000     -88.884774     -2418.6777
   1   2.0000     -14.395838      -391.7307
   2   2.0000     -14.354446      -390.6043
   3   2.0000     -10.234365      -278.4912
   4   2.0000     -10.225995      -278.2635
   5   2.0000     -10.218080      -278.0481
   6   2.0000     -10.214773      -277.9581
   7   2.0000     -10.206754      -277.7399
   8   2.0000     -10.197181      -277.4794
   9   2.0000     -10.191161      -277.3156
  10   2.0000      -7.979079      -217.1218
  11   2.0000      -5.947111      -161.8291
  12   2.0000      -5.942976      -161.7166
  13   2.0000      -5.940814      -161.6578
  14   2.0000      -1.039055       -28.2741
  15   2.0000      -0.885498       -24.0956
  16   2.0000      -0.822320       -22.3765
  17   2.0000      -0.782397       -21.2901
  18   2.0000      -0.755900       -20.5691
  19   2.0000      -0.704005       -19.1570
  20   2.0000      -0.616602       -16.7786
  21   2.0000      -0.609946       -16.5975
  22   2.0000      -0.608733       -16.5645
  23   2.0000      -0.550392       -14.9769
  24   2.0000      -0.520994       -14.1770
  25   2.0000      -0.467593       -12.7239
  26   2.0000      -0.463074       -12.6009
  27   2.0000      -0.453449       -12.3390
  28   2.0000      -0.448817       -12.2129
  29   2.0000      -0.403627       -10.9833
  30   2.0000      -0.393528       -10.7084
  31   2.0000      -0.377653       -10.2765
  32   2.0000      -0.368201       -10.0193
  33   2.0000      -0.361139        -9.8271
  34   2.0000      -0.316202        -8.6043
  35   2.0000      -0.291492        -7.9319
  36   2.0000      -0.274224        -7.4620
  37   2.0000      -0.252945        -6.8830
  38   2.0000      -0.201411        -5.4807
  39   0.0000      -0.064526        -1.7558
  40   0.0000       0.021921         0.5965
  41   0.0000       0.022429         0.6103
  42   0.0000       0.047243         1.2856
  43   0.0000       0.054497         1.4829

MULLIKEN ATOMIC CHARGES
-----------------------
   0 C :   -0.203850
   1 S :    0.123027
   2 C :   -0.145826
   3 C :    0.009060
   4 C :    0.186529
   5 N :   -0.065121
   6 N :   -0.084718
   7 C :    0.006241
   8 C :    0.044744
   9 C :   -0.039429
  10 H :    0.013953
  11 H :    0.129151
  12 H :   -0.001889
  13 H :   -0.013137
  14 H :    0.018317
  15 H :    0.022947
Sum of atomic charges:    0.0000000

LOEWDIN ATOMIC CHARGES
----------------------
   0 C :   -0.247100
   1 S :    0.465404
   2 C :   -0.183848
   3 C :   -0.090765
   4 C :   -0.025025
   5 N :    0.075149
   6 N :   -0.062362
   7 C :   -0.041995
   8 C :   -0.043249
   9 C :   -0.053128
  10 H :    0.024565
  11 H :    0.083031
  12 H :    0.020937
  13 H :    0.028662
  14 H :    0.022978
  15 H :    0.026745

  Mayer bond orders larger than 0.100000
B(  0-C ,  1-S ) :   1.1359 B(  0-C ,  2-C ) :   0.1227 B(  0-C ,  4-C ) :   1.3985
B(  0-C , 10-H ) :   0.9895 B(  1-S ,  2-C ) :   1.1652 B(  2-C ,  3-C ) :   1.3458
B(  2-C ,  8-C ) :   1.1418 B(  3-C ,  4-C ) :   1.2342 B(  3-C ,  7-C ) :   1.1611
B(  4-C ,  5-N ) :   1.1061 B(  5-N ,  6-N ) :   1.1288 B(  5-N , 11-H ) :   0.9527
B(  6-N ,  7-C ) :   1.6990 B(  7-C , 12-H ) :   0.9926 B(  8-C ,  9-C ) :   1.8936
B(  8-C , 13-H ) :   0.9477 B(  9-C , 14-H ) :   0.9531 B(  9-C , 15-H ) :   0.9436

Dispersion correction           -0.033369845
FINAL SINGLE POINT ENERGY      -777.635493781957

DIPOLE MOMENT
-------------
                                X             Y             Z
Electronic contribution:     -1.17438      -5.80949       0.60215
Nuclear contribution   :      0.83508       5.27449      -0.53454
                        -----------------------------------------
Total Dipole Moment    :     -0.33929      -0.53500       0.06762
                        -----------------------------------------
Magnitude (a.u.)       :      0.63712
Magnitude (Debye)      :      1.61943

Rotational constants in cm-1:     0.058147     0.039534     0.023534
Rotational constants in MHz :  1743.190450  1185.212159   705.526870

                             ****ORCA TERMINATED NORMALLY****
TOTAL RUN TIME: 0 days 0 hours 5 minutes 33 seconds 885 msec
