                         Program Version 4.2.0 -  RELEASE  -
|  1> # ORCA input file
|  2> # SCF done        -30.279406903870          0.000218312789
|  3> ! B3LYP/G D3BJ Opt RIJCOSX def2-SVP def2/J
|  4> * xyz 0 1
|  5>    C       -1.11359        -1.25160        -0.11535
|  6>    C        0.15365        -0.72528        -0.05661
|  7>    C        0.14036         0.71756         0.04385
|  8>    N        1.29785         1.42184         0.11460
|  9>    C        2.38689         0.71722         0.08783
| 10>    C        2.41235        -0.71151        -0.01628
| 11>    C        3.72127        -1.43832        -0.01645
| 12>    C        4.28592        -1.52293         1.40304
| 13>    N        1.31868        -1.41677        -0.08792
| 14>    C       -1.13531         1.22638         0.05421
| 15>    S       -2.29613        -0.02072        -0.05209
| 16>    H       -1.40007        -2.28040        -0.18966
| 17>    H        3.31661         1.26935         0.14037
| 18>    H        4.42975        -0.91330        -0.66112
| 19>    H        3.56003        -2.44362        -0.40645
| 20>    H        4.43993        -0.52891         1.81787
| 21>    H        5.23822        -2.04741         1.39633
| 22>    H        3.59636        -2.06297         2.04754
| 23>    H       -1.43866         2.25112         0.11878
| 24> *
| 25>
| 26>                          ****END OF INPUT****
 Total Charge           Charge          ....    0
 Multiplicity           Mult            ....    1
 Number of Electrons    NEL             ....   86
Dispersion correction           -0.038844351
FINAL SINGLE POINT ENERGY      -816.965990729596
Dispersion correction            ... done
Dispersion correction           -0.038664672
FINAL SINGLE POINT ENERGY      -816.968622812481
Dispersion correction            ... done
Dispersion correction           -0.038617844
FINAL SINGLE POINT ENERGY      -816.968756772837
Dispersion correction            ... done
FINAL SINGLE POINT ENERGY      -816.968802300200
FINAL SINGLE POINT ENERGY      -816.968818826367
FINAL SINGLE POINT ENERGY      -816.968801653054
FINAL SINGLE POINT ENERGY      -816.968818277009
FINAL SINGLE POINT ENERGY      -816.968802450867
FINAL SINGLE POINT ENERGY      -816.968784994531
Dispersion correction            ... done
Dispersion correction           -0.038614629
FINAL SINGLE POINT ENERGY      -816.968788139550
Dispersion correction            ... done
Dispersion correction           -0.038608131
FINAL SINGLE POINT ENERGY      -816.968787978657
Dispersion correction            ... done
                    ***********************HURRAY********************

CARTESIAN COORDINATES (ANGSTROEM)
---------------------------------
  C     -1.077106   -1.282946    0.061034
  C      0.186720   -0.708843    0.004678
  C      0.130638    0.743789   -0.022546
  N      1.272504    1.491294   -0.080442
  C      2.388290    0.814967   -0.095907
  C      2.459632   -0.633880   -0.059509
  C      3.801219   -1.319950   -0.005972
  C      4.185725   -1.690904    1.434021
  N      1.378298   -1.373431   -0.015052
  C     -1.171751    1.225822    0.019225
  S     -2.290875   -0.070775    0.087533
  H     -1.328306   -2.340771    0.092322
  H      3.325086    1.384142   -0.144034
  H      4.572259   -0.669112   -0.450468
  H      3.743464   -2.232824   -0.618234
  H      4.278469   -0.793214    2.065648
  H      5.145776   -2.229545    1.463236
  H      3.412516   -2.337382    1.876480
  H     -1.498449    2.263293    0.010477

 Multiplicity           Mult            ....    1
 Number of Electrons    NEL             ....   86
 Basis Dimension        Dim             ....  198

ORBITAL ENERGIES
----------------

  NO   OCC          E(Eh)            E(eV)
   0   2.0000     -88.897541     -2419.0251
   1   2.0000     -14.340028      -390.2120
   2   2.0000     -14.334596      -390.0642
   3   2.0000     -10.237663      -278.5810
   4   2.0000     -10.234281      -278.4889
   5   2.0000     -10.229358      -278.3550
   6   2.0000     -10.228990      -278.3450
   7   2.0000     -10.220301      -278.1085
   8   2.0000     -10.218793      -278.0675
   9   2.0000     -10.195789      -277.4415
  10   2.0000     -10.187993      -277.2294
  11   2.0000      -7.991923      -217.4713
  12   2.0000      -5.959491      -162.1660
  13   2.0000      -5.955474      -162.0567
  14   2.0000      -5.954498      -162.0301
  15   2.0000      -0.975411       -26.5423
  16   2.0000      -0.906108       -24.6564
  17   2.0000      -0.883404       -24.0386
  18   2.0000      -0.788437       -21.4545
  19   2.0000      -0.738771       -20.1030
  20   2.0000      -0.724569       -19.7165
  21   2.0000      -0.665636       -18.1129
  22   2.0000      -0.632105       -17.2005
  23   2.0000      -0.591815       -16.1041
  24   2.0000      -0.576185       -15.6788
  25   2.0000      -0.545552       -14.8452
  26   2.0000      -0.493529       -13.4296
  27   2.0000      -0.478011       -13.0073
  28   2.0000      -0.448690       -12.2095
  29   2.0000      -0.441721       -12.0198
  30   2.0000      -0.431729       -11.7480
  31   2.0000      -0.427001       -11.6193
  32   2.0000      -0.414277       -11.2730
  33   2.0000      -0.393554       -10.7091
  34   2.0000      -0.369470       -10.0538
  35   2.0000      -0.360781        -9.8173
  36   2.0000      -0.358981        -9.7684
  37   2.0000      -0.353367        -9.6156
  38   2.0000      -0.338981        -9.2241
  39   2.0000      -0.310361        -8.4454
  40   2.0000      -0.261344        -7.1115
  41   2.0000      -0.244790        -6.6611
  42   2.0000      -0.230987        -6.2855
  43   0.0000      -0.084245        -2.2924
  44   0.0000       0.002203         0.0600
  45   0.0000       0.003165         0.0861
  46   0.0000       0.044724         1.2170
  47   0.0000       0.064142         1.7454

MULLIKEN ATOMIC CHARGES
-----------------------
   0 C :   -0.147020
   1 C :    0.072532
   2 C :    0.048855
   3 N :   -0.035751
   4 C :    0.035234
   5 C :   -0.137334
   6 C :    0.100023
   7 C :    0.001607
   8 N :   -0.049574
   9 C :   -0.138273
  10 S :    0.148900
  11 H :    0.019443
  12 H :   -0.007555
  13 H :   -0.000967
  14 H :    0.014994
  15 H :    0.009113
  16 H :    0.018549
  17 H :    0.027047
  18 H :    0.020175
Sum of atomic charges:    0.0000000

LOEWDIN ATOMIC CHARGES
----------------------
   0 C :   -0.209779
   1 C :   -0.049944
   2 C :   -0.054835
   3 N :   -0.048554
   4 C :    0.001562
   5 C :   -0.005555
   6 C :   -0.035028
   7 C :   -0.047213
   8 N :   -0.062560
   9 C :   -0.204063
  10 S :    0.500590
  11 H :    0.029876
  12 H :    0.020006
  13 H :    0.024459
  14 H :    0.035063
  15 H :    0.022384
  16 H :    0.025222
  17 H :    0.027847
  18 H :    0.030521

  Mayer bond orders larger than 0.100000
B(  0-C ,  1-C ) :   1.3827 B(  0-C ,  9-C ) :   0.1277 B(  0-C , 10-S ) :   1.2051
B(  0-C , 11-H ) :   0.9688 B(  1-C ,  2-C ) :   1.1852 B(  1-C ,  8-N ) :   1.3429
B(  2-C ,  3-N ) :   1.3463 B(  2-C ,  9-C ) :   1.3796 B(  3-N ,  4-C ) :   1.7304
B(  4-C ,  5-C ) :   1.1453 B(  4-C , 12-H ) :   0.9645 B(  5-C ,  6-C ) :   1.0322
B(  5-C ,  8-N ) :   1.6912 B(  6-C ,  7-C ) :   1.1050 B(  6-C , 13-H ) :   0.9296
B(  6-C , 14-H ) :   0.9180 B(  7-C , 15-H ) :   0.9682 B(  7-C , 16-H ) :   0.9666
B(  7-C , 17-H ) :   0.9685 B(  9-C , 10-S ) :   1.2136 B(  9-C , 18-H ) :   0.9709

Dispersion correction           -0.038606059
FINAL SINGLE POINT ENERGY      -816.968786617563

DIPOLE MOMENT
-------------
                                X             Y             Z
Electronic contribution:    -15.03511       4.47735      -2.97076
Nuclear contribution   :     15.08310      -4.61311       3.03137
                        -----------------------------------------
Total Dipole Moment    :      0.04799      -0.13576       0.06061
                        -----------------------------------------
Magnitude (a.u.)       :      0.15623
Magnitude (Debye)      :      0.39711

Rotational constants in cm-1:     0.087474     0.019650     0.016826
Rotational constants in MHz :  2622.400419   589.077504   504.427330

                             ****ORCA TERMINATED NORMALLY****
TOTAL RUN TIME: 0 days 0 hours 13 minutes 33 seconds 521 msec
