                         Program Version 4.2.0 -  RELEASE  -
|  1> # ORCA input file
|  2> # SCF done        -31.664542714277          0.000586148960
|  3> ! B3LYP/G D3BJ Opt RIJCOSX def2-SVP def2/J
|  4> * xyz 0 1
|  5>    C        1.46857         1.20281        -0.23304
|  6>    S        2.69491        -0.00105        -0.17106
|  7>    C        1.51127        -1.23122         0.03296
|  8>    C        0.24635        -0.73596         0.05269
|  9>    C        0.22195         0.67872        -0.10302
| 10>    C       -1.05619         1.45617        -0.15106
| 11>    C       -2.19381         0.65722         0.48246
| 12>    C       -2.24503        -0.75292        -0.11409
| 13>    C       -2.45494        -0.69073        -1.60654
| 14>    O       -1.90011        -1.36603        -2.42460
| 15>    C       -0.99298        -1.55359         0.24933
| 16>    H        1.74417         2.23005        -0.36594
| 17>    H        1.82373        -2.25201         0.12723
| 18>    H       -1.29986         1.66869        -1.19768
| 19>    H       -0.93339         2.41477         0.35755
| 20>    H       -3.14352         1.17048         0.31725
| 21>    H       -2.03327         0.57947         1.55984
| 22>    H       -3.13020        -1.27099         0.27942
| 23>    H       -3.22674         0.04973        -1.90413
| 24>    H       -0.94291        -2.45174        -0.37029
| 25>    H       -1.05291        -1.87086         1.29497
| 26> *
| 27>
| 28>                          ****END OF INPUT****
 Total Charge           Charge          ....    0
 Multiplicity           Mult            ....    1
 Number of Electrons    NEL             ....   88
Dispersion correction           -0.045004139
FINAL SINGLE POINT ENERGY      -822.003560409678
Dispersion correction            ... done
Dispersion correction           -0.044560338
FINAL SINGLE POINT ENERGY      -822.006300751555
Dispersion correction            ... done
Dispersion correction           -0.044376641
FINAL SINGLE POINT ENERGY      -822.006388351027
Dispersion correction            ... done
FINAL SINGLE POINT ENERGY      -822.006199108066
FINAL SINGLE POINT ENERGY      -822.006419445865
FINAL SINGLE POINT ENERGY      -822.006431794276
FINAL SINGLE POINT ENERGY      -822.006426212688
FINAL SINGLE POINT ENERGY      -822.006417147476
FINAL SINGLE POINT ENERGY      -822.006403385991
Dispersion correction            ... done
Dispersion correction           -0.044318603
FINAL SINGLE POINT ENERGY      -822.006397456031
Dispersion correction            ... done
Dispersion correction           -0.044322797
FINAL SINGLE POINT ENERGY      -822.006393135329
Dispersion correction            ... done
                    ***********************HURRAY********************

CARTESIAN COORDINATES (ANGSTROEM)
---------------------------------
  C      1.522607    1.224752   -0.176722
  S      2.739141   -0.002153   -0.182940
  C      1.550765   -1.246560   -0.025532
  C      0.274574   -0.739709    0.034417
  C      0.258012    0.696034   -0.067537
  C     -1.029448    1.479097   -0.118800
  C     -2.214828    0.681117    0.439821
  C     -2.245956   -0.756103   -0.112052
  C     -2.523518   -0.757689   -1.605136
  O     -1.980210   -1.467003   -2.411831
  C     -0.981569   -1.549481    0.244436
  H      1.800977    2.273045   -0.276326
  H      1.856971   -2.290061    0.032287
  H     -1.241903    1.749249   -1.169934
  H     -0.923650    2.433642    0.419966
  H     -3.158000    1.198390    0.196374
  H     -2.156756    0.634167    1.539648
  H     -3.125769   -1.265841    0.327149
  H     -3.326256   -0.036796   -1.923498
  H     -0.945835   -2.470375   -0.354350
  H     -1.044258   -1.856712    1.302810

 Multiplicity           Mult            ....    1
 Number of Electrons    NEL             ....   88
 Basis Dimension        Dim             ....  208

ORBITAL ENERGIES
----------------

  NO   OCC          E(Eh)            E(eV)
   0   2.0000     -88.867094     -2418.1966
   1   2.0000     -19.139874      -520.8225
   2   2.0000     -10.278681      -279.6971
   3   2.0000     -10.208159      -277.7781
   4   2.0000     -10.203306      -277.6461
   5   2.0000     -10.202923      -277.6356
   6   2.0000     -10.201849      -277.6064
   7   2.0000     -10.199604      -277.5453
   8   2.0000     -10.195559      -277.4353
   9   2.0000     -10.191501      -277.3248
  10   2.0000     -10.191002      -277.3113
  11   2.0000      -7.962127      -216.6605
  12   2.0000      -5.930183      -161.3685
  13   2.0000      -5.926077      -161.2568
  14   2.0000      -5.923697      -161.1920
  15   2.0000      -1.043574       -28.3971
  16   2.0000      -0.878520       -23.9057
  17   2.0000      -0.827389       -22.5144
  18   2.0000      -0.763032       -20.7631
  19   2.0000      -0.738760       -20.1027
  20   2.0000      -0.695320       -18.9206
  21   2.0000      -0.649883       -17.6842
  22   2.0000      -0.617293       -16.7974
  23   2.0000      -0.566314       -15.4102
  24   2.0000      -0.558379       -15.1943
  25   2.0000      -0.509884       -13.8746
  26   2.0000      -0.501415       -13.6442
  27   2.0000      -0.477496       -12.9933
  28   2.0000      -0.465537       -12.6679
  29   2.0000      -0.445588       -12.1251
  30   2.0000      -0.428601       -11.6628
  31   2.0000      -0.411653       -11.2017
  32   2.0000      -0.408739       -11.1223
  33   2.0000      -0.402032       -10.9399
  34   2.0000      -0.398666       -10.8483
  35   2.0000      -0.381013       -10.3679
  36   2.0000      -0.368939       -10.0393
  37   2.0000      -0.353083        -9.6079
  38   2.0000      -0.339556        -9.2398
  39   2.0000      -0.337604        -9.1867
  40   2.0000      -0.328268        -8.9326
  41   2.0000      -0.260011        -7.0753
  42   2.0000      -0.238798        -6.4980
  43   2.0000      -0.229149        -6.2355
  44   0.0000      -0.032118        -0.8740
  45   0.0000      -0.015178        -0.4130
  46   0.0000       0.042635         1.1602
  47   0.0000       0.054171         1.4741
  48   0.0000       0.058744         1.5985

MULLIKEN ATOMIC CHARGES
-----------------------
   0 C :   -0.144656
   1 S :    0.094934
   2 C :   -0.137057
   3 C :   -0.047569
   4 C :   -0.038389
   5 C :    0.128719
   6 C :    0.016576
   7 C :   -0.113918
   8 C :    0.141754
   9 O :   -0.179904
  10 C :    0.206035
  11 H :    0.008341
  12 H :    0.010150
  13 H :    0.016475
  14 H :    0.001543
  15 H :    0.000704
  16 H :    0.014639
  17 H :    0.018278
  18 H :   -0.014352
  19 H :    0.010738
  20 H :    0.006957
Sum of atomic charges:   -0.0000000

LOEWDIN ATOMIC CHARGES
----------------------
   0 C :   -0.204805
   1 S :    0.427158
   2 C :   -0.199568
   3 C :   -0.064517
   4 C :   -0.071029
   5 C :   -0.024355
   6 C :   -0.020521
   7 C :   -0.073169
   8 C :    0.116273
   9 O :   -0.123950
  10 C :   -0.012945
  11 H :    0.020620
  12 H :    0.021813
  13 H :    0.030713
  14 H :    0.031122
  15 H :    0.021944
  16 H :    0.026607
  17 H :    0.044384
  18 H :   -0.011085
  19 H :    0.033678
  20 H :    0.031631

  Mayer bond orders larger than 0.100000
B(  0-C ,  1-S ) :   1.1648 B(  0-C ,  4-C ) :   1.5501 B(  0-C , 11-H ) :   0.9657
B(  1-S ,  2-C ) :   1.1632 B(  2-C ,  3-C ) :   1.5547 B(  2-C , 12-H ) :   0.9650
B(  3-C ,  4-C ) :   1.2963 B(  3-C , 10-C ) :   1.0341 B(  4-C ,  5-C ) :   1.0389
B(  5-C ,  6-C ) :   1.0860 B(  5-C , 13-H ) :   0.9148 B(  5-C , 14-H ) :   0.9170
B(  6-C ,  7-C ) :   1.0411 B(  6-C , 15-H ) :   0.9316 B(  6-C , 16-H ) :   0.9409
B(  7-C ,  8-C ) :   0.9132 B(  7-C , 10-C ) :   1.0605 B(  7-C , 17-H ) :   0.8840
B(  8-C ,  9-O ) :   2.1819 B(  8-C , 18-H ) :   0.9335 B( 10-C , 19-H ) :   0.9036
B( 10-C , 20-H ) :   0.9102

Dispersion correction           -0.044323182
FINAL SINGLE POINT ENERGY      -822.006393794628

DIPOLE MOMENT
-------------
                                X             Y             Z
Electronic contribution:      9.81156      -1.81721      -2.70014
Nuclear contribution   :    -10.43379       2.28534       3.49631
                        -----------------------------------------
Total Dipole Moment    :     -0.62223       0.46813       0.79617
                        -----------------------------------------
Magnitude (a.u.)       :      1.11364
Magnitude (Debye)      :      2.83065

Rotational constants in cm-1:     0.061644     0.022893     0.020026
Rotational constants in MHz :  1848.047865   686.302740   600.358629

                             ****ORCA TERMINATED NORMALLY****
TOTAL RUN TIME: 0 days 0 hours 14 minutes 35 seconds 204 msec
