                         Program Version 4.2.0 -  RELEASE  -
|  1> # ORCA input file
|  2> # SCF done        -31.001750879024          0.000462514267
|  3> ! B3LYP/G D3BJ Opt RIJCOSX def2-SVP def2/J
|  4> * xyz 0 1
|  5>    C       -1.26157         0.26723        -0.03257
|  6>    S       -0.42457        -0.34766         1.35630
|  7>    C       -0.62484         0.00994        -1.20782
|  8>    C        0.57130        -0.70172        -0.99790
|  9>    C        1.65978        -1.25474        -1.78941
| 10>    S        1.83268        -1.20463        -3.41403
| 11>    C        0.80830        -0.96527         0.35145
| 12>    C        2.04123        -1.68450         0.46045
| 13>    S        3.04073        -2.36770         1.66272
| 14>    C        2.56077        -1.86256        -0.82200
| 15>    C        3.78266        -2.56131        -0.81814
| 16>    C        4.15916        -2.89492         0.44671
| 17>    H       -2.18593         0.78786         0.11902
| 18>    H       -0.99139         0.31331        -2.17115
| 19>    H        4.34849        -2.80258        -1.69905
| 20>    H        5.03675        -3.42569         0.75759
| 21> *
| 22>
| 23>                          ****END OF INPUT****
 Total Charge           Charge          ....    0
 Multiplicity           Mult            ....    1
 Number of Electrons    NEL             ....  106
Dispersion correction           -0.045972595
FINAL SINGLE POINT ENERGY     -1539.358640536149
Dispersion correction            ... done
Dispersion correction           -0.045938798
FINAL SINGLE POINT ENERGY     -1539.361779240725
Dispersion correction            ... done
Dispersion correction           -0.045930341
FINAL SINGLE POINT ENERGY     -1539.361937988830
Dispersion correction            ... done
FINAL SINGLE POINT ENERGY     -1539.361952996604
Dispersion correction            ... done
Dispersion correction           -0.045925406
FINAL SINGLE POINT ENERGY     -1539.361968959594
Dispersion correction            ... done
Dispersion correction           -0.045925864
FINAL SINGLE POINT ENERGY     -1539.361970878484
Dispersion correction            ... done
                    ***********************HURRAY********************

CARTESIAN COORDINATES (ANGSTROEM)
---------------------------------
  C     -1.298283    0.291986   -0.028766
  S     -0.440288   -0.330869    1.361893
  C     -0.650367    0.022322   -1.212525
  C      0.557041   -0.691611   -0.992917
  C      1.662807   -1.251976   -1.802726
  S      1.836145   -1.199548   -3.429234
  C      0.799249   -0.954789    0.356460
  C      2.052361   -1.690593    0.467341
  S      3.056243   -2.384165    1.670423
  C      2.575062   -1.870967   -0.814191
  C      3.806919   -2.576442   -0.817719
  C      4.195157   -2.921447    0.456942
  H     -2.241203    0.814356    0.122776
  H     -1.021593    0.321401   -2.192777
  H      4.375520   -2.816167   -1.715906
  H      5.088780   -3.456431    0.773095

 Multiplicity           Mult            ....    1
 Number of Electrons    NEL             ....  106
 Basis Dimension        Dim             ....  200

ORBITAL ENERGIES
----------------

  NO   OCC          E(Eh)            E(eV)
   0   2.0000     -88.897746     -2419.0306
   1   2.0000     -88.897593     -2419.0265
   2   2.0000     -88.827568     -2417.1210
   3   2.0000     -10.257930      -279.1325
   4   2.0000     -10.237134      -278.5666
   5   2.0000     -10.237041      -278.5641
   6   2.0000     -10.225045      -278.2376
   7   2.0000     -10.224963      -278.2354
   8   2.0000     -10.210795      -277.8499
   9   2.0000     -10.210760      -277.8489
  10   2.0000     -10.203239      -277.6443
  11   2.0000     -10.203157      -277.6420
  12   2.0000      -7.991943      -217.4718
  13   2.0000      -7.991836      -217.4689
  14   2.0000      -7.922818      -215.5908
  15   2.0000      -5.960008      -162.1801
  16   2.0000      -5.959905      -162.1772
  17   2.0000      -5.955843      -162.0667
  18   2.0000      -5.955740      -162.0639
  19   2.0000      -5.953574      -162.0050
  20   2.0000      -5.953483      -162.0025
  21   2.0000      -5.890920      -160.3001
  22   2.0000      -5.890053      -160.2765
  23   2.0000      -5.881006      -160.0303
  24   2.0000      -0.924054       -25.1448
  25   2.0000      -0.884412       -24.0661
  26   2.0000      -0.829412       -22.5694
  27   2.0000      -0.772298       -21.0153
  28   2.0000      -0.745597       -20.2887
  29   2.0000      -0.738291       -20.0899
  30   2.0000      -0.695335       -18.9210
  31   2.0000      -0.626528       -17.0487
  32   2.0000      -0.605191       -16.4681
  33   2.0000      -0.549673       -14.9574
  34   2.0000      -0.543903       -14.8004
  35   2.0000      -0.540072       -14.6961
  36   2.0000      -0.483275       -13.1506
  37   2.0000      -0.465082       -12.6555
  38   2.0000      -0.436820       -11.8865
  39   2.0000      -0.436652       -11.8819
  40   2.0000      -0.416343       -11.3293
  41   2.0000      -0.410452       -11.1690
  42   2.0000      -0.385457       -10.4888
  43   2.0000      -0.385057       -10.4779
  44   2.0000      -0.382068       -10.3966
  45   2.0000      -0.363525        -9.8920
  46   2.0000      -0.359317        -9.7775
  47   2.0000      -0.340236        -9.2583
  48   2.0000      -0.290976        -7.9179
  49   2.0000      -0.270834        -7.3698
  50   2.0000      -0.257134        -6.9970
  51   2.0000      -0.225335        -6.1317
  52   2.0000      -0.214404        -5.8342
  53   0.0000      -0.117265        -3.1910
  54   0.0000      -0.031925        -0.8687
  55   0.0000       0.002663         0.0725
  56   0.0000       0.019373         0.5272
  57   0.0000       0.041468         1.1284

MULLIKEN ATOMIC CHARGES
-----------------------
   0 C :   -0.099599
   1 S :    0.157507
   2 C :    0.050041
   3 C :    0.027150
   4 C :    0.003942
   5 S :   -0.111316
   6 C :   -0.110434
   7 C :   -0.113827
   8 S :    0.158156
   9 C :    0.033031
  10 C :    0.048179
  11 C :   -0.102992
  12 H :    0.033826
  13 H :   -0.005533
  14 H :   -0.002794
  15 H :    0.034664
Sum of atomic charges:    0.0000000

LOEWDIN ATOMIC CHARGES
----------------------
   0 C :   -0.188356
   1 S :    0.457901
   2 C :   -0.030312
   3 C :   -0.091207
   4 C :   -0.125944
   5 S :    0.079439
   6 C :   -0.189554
   7 C :   -0.190156
   8 S :    0.458163
   9 C :   -0.090687
  10 C :   -0.030840
  11 C :   -0.188690
  12 H :    0.026813
  13 H :    0.038095
  14 H :    0.038473
  15 H :    0.026862

  Mayer bond orders larger than 0.100000
B(  0-C ,  1-S ) :   1.1372 B(  0-C ,  2-C ) :   1.5293 B(  0-C , 12-H ) :   0.9635
B(  1-S ,  6-C ) :   1.1382 B(  2-C ,  3-C ) :   1.2751 B(  2-C , 13-H ) :   0.9930
B(  3-C ,  4-C ) :   1.0412 B(  3-C ,  6-C ) :   1.4580 B(  4-C ,  5-S ) :   1.7161
B(  4-C ,  9-C ) :   1.0376 B(  6-C ,  7-C ) :   1.1470 B(  7-C ,  8-S ) :   1.1373
B(  7-C ,  9-C ) :   1.4616 B(  8-S , 11-C ) :   1.1380 B(  9-C , 10-C ) :   1.2748
B( 10-C , 11-C ) :   1.5265 B( 10-C , 14-H ) :   0.9929 B( 11-C , 15-H ) :   0.9646

Dispersion correction           -0.045925999
FINAL SINGLE POINT ENERGY     -1539.361969635597

DIPOLE MOMENT
-------------
                                X             Y             Z
Electronic contribution:     -0.25864      -0.08061       2.41686
Nuclear contribution   :      0.17162       0.05484      -1.61017
                        -----------------------------------------
Total Dipole Moment    :     -0.08702      -0.02576       0.80670
                        -----------------------------------------
Magnitude (a.u.)       :      0.81179
Magnitude (Debye)      :      2.06340

Rotational constants in cm-1:     0.027817     0.021821     0.012228
Rotational constants in MHz :   833.935084   654.162902   366.595878

                             ****ORCA TERMINATED NORMALLY****
TOTAL RUN TIME: 0 days 0 hours 7 minutes 18 seconds 494 msec
