                         Program Version 4.2.0 -  RELEASE  -
|  1> # ORCA input file
|  2> # SCF done        -29.613977032114          0.000402724441
|  3> ! B3LYP/G D3BJ Opt RIJCOSX def2-SVP def2/J
|  4> * xyz 0 1
|  5>    C        1.25282         0.49965        -0.06336
|  6>    S        1.15985        -1.17372        -0.07511
|  7>    C       -0.55590        -1.11524        -0.03992
|  8>    C       -0.98925         0.23293        -0.02470
|  9>    O        0.09491         1.11194        -0.02800
| 10>    N       -2.20611         0.62073        -0.08377
| 11>    C       -2.65640         1.87230         0.17749
| 12>    O       -3.66021         2.34813        -0.27975
| 13>    C       -1.42144        -2.24818        -0.04082
| 14>    C       -1.02331        -3.52136        -0.04400
| 15>    H        2.15667         1.07457        -0.09871
| 16>    H       -2.04390         2.42960         0.93096
| 17>    H       -2.46870        -1.98055        -0.04016
| 18>    H        0.02145        -3.78931        -0.04570
| 19>    H       -1.73160        -4.32894        -0.04522
| 20> *
| 21>
| 22>                          ****END OF INPUT****
 Total Charge           Charge          ....    0
 Multiplicity           Mult            ....    1
 Number of Electrons    NEL             ....   80
Dispersion correction           -0.028843222
FINAL SINGLE POINT ENERGY      -834.534921214827
Dispersion correction            ... done
Dispersion correction           -0.028699291
FINAL SINGLE POINT ENERGY      -834.537168846309
Dispersion correction            ... done
Dispersion correction           -0.028468594
FINAL SINGLE POINT ENERGY      -834.535563072692
Dispersion correction            ... done
FINAL SINGLE POINT ENERGY      -834.538939267489
FINAL SINGLE POINT ENERGY      -834.539174142140
FINAL SINGLE POINT ENERGY      -834.539293427801
FINAL SINGLE POINT ENERGY      -834.539397407297
FINAL SINGLE POINT ENERGY      -834.539407959955
FINAL SINGLE POINT ENERGY      -834.539407215199
FINAL SINGLE POINT ENERGY      -834.539419374791
FINAL SINGLE POINT ENERGY      -834.539442871819
FINAL SINGLE POINT ENERGY      -834.539391782202
FINAL SINGLE POINT ENERGY      -834.539467085513
FINAL SINGLE POINT ENERGY      -834.539474126152
FINAL SINGLE POINT ENERGY      -834.539485563550
Dispersion correction            ... done
Dispersion correction           -0.028686313
FINAL SINGLE POINT ENERGY      -834.539489065923
Dispersion correction            ... done
Dispersion correction           -0.028684661
FINAL SINGLE POINT ENERGY      -834.539489999401
Dispersion correction            ... done
                    ***********************HURRAY********************

CARTESIAN COORDINATES (ANGSTROEM)
---------------------------------
  C      1.241212    0.522808    0.030566
  S      1.162566   -1.147806   -0.050721
  C     -0.563391   -1.124876   -0.020703
  C     -1.054600    0.206909    0.049671
  O      0.076076    1.112191    0.081347
  N     -2.270728    0.610704    0.084779
  C     -2.644014    1.937398    0.129294
  O     -3.792690    2.315037    0.174970
  C     -1.400511   -2.298391   -0.060319
  C     -1.010120   -3.585378   -0.099795
  H      2.150604    1.122160    0.048729
  H     -1.800042    2.676076    0.117948
  H     -2.465128   -2.042077   -0.052645
  H      0.044307   -3.880695   -0.104256
  H     -1.744660   -4.391511   -0.129632

 Multiplicity           Mult            ....    1
 Number of Electrons    NEL             ....   80
 Basis Dimension        Dim             ....  169

ORBITAL ENERGIES
----------------

  NO   OCC          E(Eh)            E(eV)
   0   2.0000     -88.950327     -2420.4614
   1   2.0000     -19.260112      -524.0943
   2   2.0000     -19.091038      -519.4936
   3   2.0000     -14.304849      -389.2547
   4   2.0000     -10.337124      -281.2874
   5   2.0000     -10.315391      -280.6961
   6   2.0000     -10.267706      -279.3985
   7   2.0000     -10.247499      -278.8486
   8   2.0000     -10.217342      -278.0280
   9   2.0000     -10.201246      -277.5900
  10   2.0000      -8.045300      -218.9237
  11   2.0000      -6.012563      -163.6101
  12   2.0000      -6.008623      -163.5029
  13   2.0000      -6.008130      -163.4895
  14   2.0000      -1.160092       -31.5677
  15   2.0000      -1.005977       -27.3740
  16   2.0000      -0.918302       -24.9883
  17   2.0000      -0.896365       -24.3913
  18   2.0000      -0.800436       -21.7810
  19   2.0000      -0.757216       -20.6049
  20   2.0000      -0.683232       -18.5917
  21   2.0000      -0.640626       -17.4323
  22   2.0000      -0.593762       -16.1571
  23   2.0000      -0.581186       -15.8149
  24   2.0000      -0.550968       -14.9926
  25   2.0000      -0.517945       -14.0940
  26   2.0000      -0.506614       -13.7857
  27   2.0000      -0.482193       -13.1211
  28   2.0000      -0.465268       -12.6606
  29   2.0000      -0.426907       -11.6167
  30   2.0000      -0.414371       -11.2756
  31   2.0000      -0.402043       -10.9401
  32   2.0000      -0.400746       -10.9049
  33   2.0000      -0.386952       -10.5295
  34   2.0000      -0.376569       -10.2470
  35   2.0000      -0.342459        -9.3188
  36   2.0000      -0.294037        -8.0012
  37   2.0000      -0.280823        -7.6416
  38   2.0000      -0.235639        -6.4121
  39   2.0000      -0.209560        -5.7024
  40   0.0000      -0.112762        -3.0684
  41   0.0000      -0.037668        -1.0250
  42   0.0000      -0.013741        -0.3739
  43   0.0000       0.034641         0.9426
  44   0.0000       0.036645         0.9972

MULLIKEN ATOMIC CHARGES
-----------------------
   0 C :    0.126862
   1 S :    0.219739
   2 C :   -0.176204
   3 C :    0.125488
   4 O :   -0.199005
   5 N :   -0.119552
   6 C :    0.137332
   7 O :   -0.211845
   8 C :    0.014947
   9 C :   -0.043815
  10 H :    0.086769
  11 H :   -0.038402
  12 H :    0.033059
  13 H :    0.007037
  14 H :    0.037592
Sum of atomic charges:    0.0000000

LOEWDIN ATOMIC CHARGES
----------------------
   0 C :   -0.085913
   1 S :    0.556518
   2 C :   -0.255907
   3 C :    0.068583
   4 O :   -0.008884
   5 N :   -0.184206
   6 C :    0.072883
   7 O :   -0.169456
   8 C :   -0.029318
   9 C :   -0.065102
  10 H :    0.038159
  11 H :   -0.034780
  12 H :    0.051795
  13 H :    0.013396
  14 H :    0.032231

  Mayer bond orders larger than 0.100000
B(  0-C ,  1-S ) :   1.3688 B(  0-C ,  2-C ) :   0.1250 B(  0-C ,  4-O ) :   1.2511
B(  0-C , 10-H ) :   0.9674 B(  1-S ,  2-C ) :   1.1117 B(  1-S ,  4-O ) :   0.1074
B(  2-C ,  3-C ) :   1.2154 B(  2-C ,  8-C ) :   1.2006 B(  3-C ,  4-O ) :   0.8980
B(  3-C ,  5-N ) :   1.7833 B(  5-N ,  6-C ) :   1.1290 B(  6-C ,  7-O ) :   2.0855
B(  6-C , 11-H ) :   0.9283 B(  8-C ,  9-C ) :   1.8718 B(  8-C , 12-H ) :   0.9468
B(  9-C , 13-H ) :   0.9539 B(  9-C , 14-H ) :   0.9496

Dispersion correction           -0.028683561
FINAL SINGLE POINT ENERGY      -834.539490501592

DIPOLE MOMENT
-------------
                                X             Y             Z
Electronic contribution:      3.08902       4.05352       0.12360
Nuclear contribution   :      0.04539      -5.05345      -0.22436
                        -----------------------------------------
Total Dipole Moment    :      3.13441      -0.99994      -0.10075
                        -----------------------------------------
Magnitude (a.u.)       :      3.29159
Magnitude (Debye)      :      8.36656

Rotational constants in cm-1:     0.064093     0.026570     0.018784
Rotational constants in MHz :  1921.469949   796.548736   563.128238

                             ****ORCA TERMINATED NORMALLY****
TOTAL RUN TIME: 0 days 0 hours 14 minutes 4 seconds 877 msec
