                         Program Version 4.2.0 -  RELEASE  -
|  1> # ORCA input file
|  2> # SCF done        -29.300058252184          0.000886572462
|  3> ! B3LYP/G D3BJ Opt RIJCOSX def2-SVP def2/J
|  4> * xyz 0 1
|  5>    C       -1.30968        -1.22992        -0.00063
|  6>    S       -2.48301         0.03230        -0.00038
|  7>    C       -1.28073         1.26699        -0.00132
|  8>    C       -0.03920         0.71565         0.00205
|  9>    C       -0.05571        -0.70745         0.00247
| 10>    C        1.34241        -1.16341         0.00587
| 11>    O        1.80882        -2.25841         0.00646
| 12>    O        2.12190        -0.02110         0.00661
| 13>    C        1.36918         1.13897         0.00525
| 14>    O        1.86090         2.22283         0.00536
| 15>    H       -1.61663        -2.25671        -0.00115
| 16>    H       -1.56390         2.30059        -0.00242
| 17> *
| 18>
| 19>                          ****END OF INPUT****
 Total Charge           Charge          ....    0
 Multiplicity           Mult            ....    1
 Number of Electrons    NEL             ....   78
Dispersion correction           -0.026031559
FINAL SINGLE POINT ENERGY      -853.281005894547
Dispersion correction            ... done
Dispersion correction           -0.026004784
FINAL SINGLE POINT ENERGY      -853.282265412209
Dispersion correction            ... done
Dispersion correction           -0.025999476
FINAL SINGLE POINT ENERGY      -853.282371929868
Dispersion correction            ... done
FINAL SINGLE POINT ENERGY      -853.282412846443
Dispersion correction            ... done
Dispersion correction           -0.025999332
FINAL SINGLE POINT ENERGY      -853.282436734093
Dispersion correction            ... done
Dispersion correction           -0.025999628
FINAL SINGLE POINT ENERGY      -853.282435476215
Dispersion correction            ... done
                    ***********************HURRAY********************

CARTESIAN COORDINATES (ANGSTROEM)
---------------------------------
  C     -1.317372   -1.243319   -0.000140
  S     -2.493628    0.032349   -0.002692
  C     -1.288398    1.280662   -0.000588
  C     -0.041783    0.714227    0.002010
  C     -0.058204   -0.705531    0.002308
  C      1.346703   -1.174571    0.005452
  O      1.820759   -2.266852    0.006869
  O      2.136074   -0.021304    0.006710
  C      1.374009    1.150218    0.004681
  O      1.874465    2.230573    0.005159
  H     -1.625134   -2.287720   -0.000401
  H     -1.573140    2.331598   -0.001197

 Multiplicity           Mult            ....    1
 Number of Electrons    NEL             ....   78
 Basis Dimension        Dim             ....  154

ORBITAL ENERGIES
----------------

  NO   OCC          E(Eh)            E(eV)
   0   2.0000     -88.925488     -2419.7855
   1   2.0000     -19.203749      -522.5606
   2   2.0000     -19.154742      -521.2270
   3   2.0000     -19.154717      -521.2264
   4   2.0000     -10.347982      -281.5829
   5   2.0000     -10.347900      -281.5807
   6   2.0000     -10.265807      -279.3468
   7   2.0000     -10.265702      -279.3440
   8   2.0000     -10.238832      -278.6128
   9   2.0000     -10.238570      -278.6057
  10   2.0000      -8.020125      -218.2387
  11   2.0000      -5.988154      -162.9460
  12   2.0000      -5.983672      -162.8240
  13   2.0000      -5.982034      -162.7794
  14   2.0000      -1.134912       -30.8825
  15   2.0000      -1.074565       -29.2404
  16   2.0000      -1.035095       -28.1664
  17   2.0000      -0.930151       -25.3107
  18   2.0000      -0.806361       -21.9422
  19   2.0000      -0.772449       -21.0194
  20   2.0000      -0.689925       -18.7738
  21   2.0000      -0.654469       -17.8090
  22   2.0000      -0.612911       -16.6782
  23   2.0000      -0.592061       -16.1108
  24   2.0000      -0.509412       -13.8618
  25   2.0000      -0.507426       -13.8078
  26   2.0000      -0.493483       -13.4283
  27   2.0000      -0.461348       -12.5539
  28   2.0000      -0.451027       -12.2731
  29   2.0000      -0.442805       -12.0493
  30   2.0000      -0.428899       -11.6709
  31   2.0000      -0.428862       -11.6699
  32   2.0000      -0.423171       -11.5151
  33   2.0000      -0.388927       -10.5832
  34   2.0000      -0.340493        -9.2653
  35   2.0000      -0.318341        -8.6625
  36   2.0000      -0.304542        -8.2870
  37   2.0000      -0.299305        -8.1445
  38   2.0000      -0.290889        -7.9155
  39   0.0000      -0.084550        -2.3007
  40   0.0000      -0.083086        -2.2609
  41   0.0000      -0.001675        -0.0456
  42   0.0000       0.051303         1.3960
  43   0.0000       0.051617         1.4046

MULLIKEN ATOMIC CHARGES
-----------------------
   0 C :   -0.114406
   1 S :    0.150985
   2 C :   -0.115289
   3 C :   -0.024775
   4 C :   -0.025082
   5 C :    0.261985
   6 O :   -0.118028
   7 O :   -0.270099
   8 C :    0.262179
   9 O :   -0.117791
  10 H :    0.054943
  11 H :    0.055378
Sum of atomic charges:    0.0000000

LOEWDIN ATOMIC CHARGES
----------------------
   0 C :   -0.141593
   1 S :    0.490323
   2 C :   -0.141809
   3 C :   -0.107018
   4 C :   -0.107025
   5 C :    0.107348
   6 O :   -0.104210
   7 O :   -0.084213
   8 C :    0.107442
   9 O :   -0.104098
  10 H :    0.042400
  11 H :    0.042455

  Mayer bond orders larger than 0.100000
B(  0-C ,  1-S ) :   1.1943 B(  0-C ,  4-C ) :   1.5247 B(  0-C , 10-H ) :   0.9660
B(  1-S ,  2-C ) :   1.1945 B(  2-C ,  3-C ) :   1.5245 B(  2-C , 11-H ) :   0.9659
B(  3-C ,  4-C ) :   1.2677 B(  3-C ,  8-C ) :   0.9130 B(  4-C ,  5-C ) :   0.9131
B(  5-C ,  6-O ) :   2.2610 B(  5-C ,  7-O ) :   1.0185 B(  7-O ,  8-C ) :   1.0183
B(  8-C ,  9-O ) :   2.2614

Dispersion correction           -0.025999496
FINAL SINGLE POINT ENERGY      -853.282437926449

DIPOLE MOMENT
-------------
                                X             Y             Z
Electronic contribution:      0.84459      -0.00922       0.00155
Nuclear contribution   :     -2.96859       0.03422      -0.00577
                        -----------------------------------------
Total Dipole Moment    :     -2.12400       0.02499      -0.00422
                        -----------------------------------------
Magnitude (a.u.)       :      2.12415
Magnitude (Debye)      :      5.39916

Rotational constants in cm-1:     0.066001     0.035760     0.023194
Rotational constants in MHz :  1978.657322  1072.059679   695.324655

                             ****ORCA TERMINATED NORMALLY****
TOTAL RUN TIME: 0 days 0 hours 4 minutes 7 seconds 835 msec
