                         Program Version 4.2.0 -  RELEASE  -
|  1> # ORCA input file
|  2> # SCF done        -28.276314940911          0.000487705802
|  3> ! B3LYP/G D3BJ Opt RIJCOSX def2-SVP def2/J
|  4> * xyz 0 1
|  5>    C       -2.04335        -0.03112         0.06419
|  6>    O       -1.30904         1.10281         0.19367
|  7>    C       -0.02649         0.71230         0.08623
|  8>    C        1.29392         1.19522         0.10044
|  9>    C        2.07927         0.07425        -0.09013
| 10>    O        1.32397        -1.06123        -0.21939
| 11>    C        0.04722        -0.66495        -0.11086
| 12>    C       -1.27855        -1.14832        -0.12453
| 13>    C        3.51307        -0.01425        -0.16302
| 14>    C        4.18688        -1.14425        -0.36244
| 15>    H       -3.10762         0.08070         0.12338
| 16>    H        1.63914         2.19973         0.22786
| 17>    H       -1.62485        -2.15217        -0.25144
| 18>    H        4.02568         0.92962        -0.04205
| 19>    H        3.67567        -2.08358        -0.48385
| 20>    H        5.26112        -1.16026        -0.41004
| 21> *
| 22>
| 23>                          ****END OF INPUT****
 Total Charge           Charge          ....    0
 Multiplicity           Mult            ....    1
 Number of Electrons    NEL             ....   70
Dispersion correction           -0.026001328
FINAL SINGLE POINT ENERGY      -458.522436762709
Dispersion correction            ... done
Dispersion correction           -0.026037145
FINAL SINGLE POINT ENERGY      -458.525055950817
Dispersion correction            ... done
Dispersion correction           -0.026036974
FINAL SINGLE POINT ENERGY      -458.525285739892
Dispersion correction            ... done
FINAL SINGLE POINT ENERGY      -458.525320040406
Dispersion correction            ... done
Dispersion correction           -0.026029181
FINAL SINGLE POINT ENERGY      -458.525329448731
Dispersion correction            ... done
Dispersion correction           -0.026030040
FINAL SINGLE POINT ENERGY      -458.525327031156
Dispersion correction            ... done
                    ***********************HURRAY********************

CARTESIAN COORDINATES (ANGSTROEM)
---------------------------------
  C     -2.067988   -0.048208    0.080880
  O     -1.321005    1.096057    0.227795
  C     -0.032582    0.707825    0.090997
  C      1.290465    1.221407    0.099208
  C      2.088409    0.107134   -0.119419
  O      1.324021   -1.038619   -0.266592
  C      0.037635   -0.648054   -0.134785
  C     -1.290716   -1.162327   -0.142822
  C      3.524003   -0.015875   -0.188570
  C      4.204872   -1.164925   -0.337872
  H     -3.143334    0.081756    0.167475
  H      1.648564    2.235669    0.252743
  H     -1.647260   -2.178075   -0.291730
  H      4.059832    0.934045   -0.094510
  H      3.685057   -2.121121   -0.428879
  H      5.296068   -1.172187   -0.375901

 Multiplicity           Mult            ....    1
 Number of Electrons    NEL             ....   70
 Basis Dimension        Dim             ....  170

ORBITAL ENERGIES
----------------

  NO   OCC          E(Eh)            E(eV)
   0   2.0000     -19.209379      -522.7138
   1   2.0000     -19.205376      -522.6048
   2   2.0000     -10.251332      -278.9529
   3   2.0000     -10.250717      -278.9362
   4   2.0000     -10.239588      -278.6333
   5   2.0000     -10.237907      -278.5876
   6   2.0000     -10.206319      -277.7281
   7   2.0000     -10.205099      -277.6949
   8   2.0000     -10.203139      -277.6415
   9   2.0000     -10.189601      -277.2731
  10   2.0000      -1.117152       -30.3993
  11   2.0000      -1.099073       -29.9073
  12   2.0000      -0.811643       -22.0859
  13   2.0000      -0.807308       -21.9680
  14   2.0000      -0.778668       -21.1886
  15   2.0000      -0.714943       -19.4546
  16   2.0000      -0.643169       -17.5015
  17   2.0000      -0.606676       -16.5085
  18   2.0000      -0.598082       -16.2746
  19   2.0000      -0.542286       -14.7564
  20   2.0000      -0.516510       -14.0549
  21   2.0000      -0.489337       -13.3155
  22   2.0000      -0.485571       -13.2131
  23   2.0000      -0.479473       -13.0471
  24   2.0000      -0.441355       -12.0099
  25   2.0000      -0.434623       -11.8267
  26   2.0000      -0.425734       -11.5848
  27   2.0000      -0.417666       -11.3653
  28   2.0000      -0.398222       -10.8362
  29   2.0000      -0.370842       -10.0911
  30   2.0000      -0.353456        -9.6180
  31   2.0000      -0.321896        -8.7592
  32   2.0000      -0.280894        -7.6435
  33   2.0000      -0.271840        -7.3971
  34   2.0000      -0.203112        -5.5270
  35   0.0000      -0.045643        -1.2420
  36   0.0000       0.020883         0.5683
  37   0.0000       0.064893         1.7658
  38   0.0000       0.079138         2.1535
  39   0.0000       0.085594         2.3291

MULLIKEN ATOMIC CHARGES
-----------------------
   0 C :    0.133566
   1 O :   -0.217827
   2 C :    0.169013
   3 C :   -0.110397
   4 C :    0.151491
   5 O :   -0.230478
   6 C :    0.165137
   7 C :   -0.080456
   8 C :   -0.017047
   9 C :   -0.014770
  10 H :    0.019338
  11 H :   -0.008866
  12 H :   -0.001187
  13 H :   -0.009214
  14 H :    0.026216
  15 H :    0.025479
Sum of atomic charges:   -0.0000000

LOEWDIN ATOMIC CHARGES
----------------------
   0 C :    0.048314
   1 O :   -0.007070
   2 C :   -0.011167
   3 C :   -0.072955
   4 C :    0.041784
   5 O :   -0.010916
   6 C :   -0.003289
   7 C :   -0.083512
   8 C :   -0.043509
   9 C :   -0.045806
  10 H :    0.025175
  11 H :    0.036265
  12 H :    0.037491
  13 H :    0.035896
  14 H :    0.026481
  15 H :    0.026815

  Mayer bond orders larger than 0.100000
B(  0-C ,  1-O ) :   1.1025 B(  0-C ,  7-C ) :   1.5249 B(  0-C , 10-H ) :   0.9995
B(  1-O ,  2-C ) :   1.1272 B(  2-C ,  3-C ) :   1.1896 B(  2-C ,  6-C ) :   1.3933
B(  3-C ,  4-C ) :   1.4392 B(  3-C , 11-H ) :   1.0240 B(  4-C ,  5-O ) :   1.0933
B(  4-C ,  8-C ) :   1.1543 B(  5-O ,  6-C ) :   1.1223 B(  6-C ,  7-C ) :   1.2039
B(  7-C , 12-H ) :   1.0177 B(  8-C ,  9-C ) :   1.8847 B(  8-C , 13-H ) :   0.9499
B(  9-C , 14-H ) :   0.9528 B(  9-C , 15-H ) :   0.9433

Dispersion correction           -0.026031664
FINAL SINGLE POINT ENERGY      -458.525326640604

DIPOLE MOMENT
-------------
                                X             Y             Z
Electronic contribution:     -5.06898       1.53389       0.35521
Nuclear contribution   :      4.93499      -1.51795      -0.33419
                        -----------------------------------------
Total Dipole Moment    :     -0.13398       0.01594       0.02102
                        -----------------------------------------
Magnitude (a.u.)       :      0.13655
Magnitude (Debye)      :      0.34709

Rotational constants in cm-1:     0.155447     0.029805     0.025015
Rotational constants in MHz :  4660.194840   893.519421   749.925209

                             ****ORCA TERMINATED NORMALLY****
TOTAL RUN TIME: 0 days 0 hours 5 minutes 2 seconds 172 msec
