                         Program Version 4.2.0 -  RELEASE  -
|  1> # ORCA input file
|  2> # SCF done        -29.383528358884          0.000270404898
|  3> ! B3LYP/G D3BJ Opt RIJCOSX def2-SVP def2/J
|  4> * xyz 0 1
|  5>    C        0.12308         1.19489        -0.12019
|  6>    S       -1.06870        -0.02980        -0.21838
|  7>    C        0.14080        -1.27581        -0.05719
|  8>    C       -0.24458        -2.69238        -0.06429
|  9>    O        0.53983        -3.59900         0.04456
| 10>    O       -1.55827        -2.95575        -0.20168
| 11>    C        1.41003        -0.73045         0.06700
| 12>    C        1.37100         0.69017         0.02742
| 13>    C        2.61721        -1.51766         0.21646
| 14>    C        3.83984        -1.01437         0.35742
| 15>    H       -0.17998         2.22184        -0.17871
| 16>    H       -2.10585        -2.16359        -0.28159
| 17>    H        2.24333         1.31199         0.10516
| 18>    H        2.46719        -2.58678         0.20953
| 19>    H        4.04447         0.04305         0.37437
| 20>    H        4.69314        -1.66128         0.46319
| 21> *
| 22>
| 23>                          ****END OF INPUT****
 Total Charge           Charge          ....    0
 Multiplicity           Mult            ....    1
 Number of Electrons    NEL             ....   80
Dispersion correction           -0.032999777
FINAL SINGLE POINT ENERGY      -818.588746077324
Dispersion correction            ... done
Dispersion correction           -0.032785980
FINAL SINGLE POINT ENERGY      -818.590801827079
Dispersion correction            ... done
Dispersion correction           -0.032762981
FINAL SINGLE POINT ENERGY      -818.590866838964
Dispersion correction            ... done
FINAL SINGLE POINT ENERGY      -818.590839161291
FINAL SINGLE POINT ENERGY      -818.590926188426
FINAL SINGLE POINT ENERGY      -818.591005316447
FINAL SINGLE POINT ENERGY      -818.591016122162
Dispersion correction            ... done
Dispersion correction           -0.032775553
FINAL SINGLE POINT ENERGY      -818.591010682016
Dispersion correction            ... done
Dispersion correction           -0.032776022
FINAL SINGLE POINT ENERGY      -818.591013129260
Dispersion correction            ... done
                    ***********************HURRAY********************

CARTESIAN COORDINATES (ANGSTROEM)
---------------------------------
  C      0.115834    1.213578   -0.165326
  S     -1.063455   -0.026575   -0.361076
  C      0.134619   -1.279725   -0.137770
  C     -0.262113   -2.711082   -0.150049
  O      0.519520   -3.627718   -0.179090
  O     -1.593690   -2.971640   -0.126583
  C      1.407826   -0.736487    0.049129
  C      1.367149    0.699174    0.035130
  C      2.629119   -1.523693    0.232269
  C      3.858495   -1.009487    0.398722
  H     -0.181862    2.259660   -0.223996
  H     -2.115017   -2.174231    0.045611
  H      2.246263    1.327583    0.172695
  H      2.488733   -2.605642    0.209612
  H      4.057515    0.066014    0.421946
  H      4.723605   -1.664659    0.521855

 Multiplicity           Mult            ....    1
 Number of Electrons    NEL             ....   80
 Basis Dimension        Dim             ....  174

ORBITAL ENERGIES
----------------

  NO   OCC          E(Eh)            E(eV)
   0   2.0000     -88.900242     -2419.0986
   1   2.0000     -19.182028      -521.9695
   2   2.0000     -19.121612      -520.3255
   3   2.0000     -10.328435      -281.0510
   4   2.0000     -10.241570      -278.6873
   5   2.0000     -10.236729      -278.5556
   6   2.0000     -10.226721      -278.2832
   7   2.0000     -10.216249      -277.9983
   8   2.0000     -10.201875      -277.6071
   9   2.0000     -10.199881      -277.5529
  10   2.0000      -7.995521      -217.5692
  11   2.0000      -5.963675      -162.2798
  12   2.0000      -5.959505      -162.1664
  13   2.0000      -5.956864      -162.0945
  14   2.0000      -1.094170       -29.7739
  15   2.0000      -1.011488       -27.5240
  16   2.0000      -0.904355       -24.6088
  17   2.0000      -0.799470       -21.7547
  18   2.0000      -0.758316       -20.6348
  19   2.0000      -0.730258       -19.8713
  20   2.0000      -0.647509       -17.6196
  21   2.0000      -0.607922       -16.5424
  22   2.0000      -0.605912       -16.4877
  23   2.0000      -0.567111       -15.4319
  24   2.0000      -0.520743       -14.1701
  25   2.0000      -0.477116       -12.9830
  26   2.0000      -0.460514       -12.5312
  27   2.0000      -0.457707       -12.4549
  28   2.0000      -0.445256       -12.1160
  29   2.0000      -0.439742       -11.9660
  30   2.0000      -0.412370       -11.2212
  31   2.0000      -0.404266       -11.0006
  32   2.0000      -0.384699       -10.4682
  33   2.0000      -0.377473       -10.2716
  34   2.0000      -0.361868        -9.8469
  35   2.0000      -0.327835        -8.9208
  36   2.0000      -0.318733        -8.6732
  37   2.0000      -0.282840        -7.6965
  38   2.0000      -0.270884        -7.3711
  39   2.0000      -0.244377        -6.6498
  40   0.0000      -0.076463        -2.0807
  41   0.0000      -0.019793        -0.5386
  42   0.0000      -0.002168        -0.0590
  43   0.0000       0.037061         1.0085
  44   0.0000       0.061129         1.6634

MULLIKEN ATOMIC CHARGES
-----------------------
   0 C :   -0.050320
   1 S :    0.084826
   2 C :   -0.236214
   3 C :    0.210568
   4 O :   -0.185113
   5 O :   -0.171505
   6 C :    0.077962
   7 C :    0.012140
   8 C :   -0.005711
   9 C :   -0.015356
  10 H :    0.041142
  11 H :    0.171099
  12 H :   -0.002179
  13 H :    0.025788
  14 H :    0.011444
  15 H :    0.031429
Sum of atomic charges:   -0.0000000

LOEWDIN ATOMIC CHARGES
----------------------
   0 C :   -0.165515
   1 S :    0.425374
   2 C :   -0.238875
   3 C :    0.070950
   4 O :   -0.156339
   5 O :   -0.041137
   6 C :   -0.022510
   7 C :   -0.046487
   8 C :   -0.020196
   9 C :   -0.029686
  10 H :    0.032233
  11 H :    0.070432
  12 H :    0.034145
  13 H :    0.038612
  14 H :    0.018517
  15 H :    0.030483

  Mayer bond orders larger than 0.100000
B(  0-C ,  1-S ) :   1.1645 B(  0-C ,  7-C ) :   1.5664 B(  0-C , 10-H ) :   0.9656
B(  1-S ,  2-C ) :   1.0982 B(  2-C ,  3-C ) :   0.9621 B(  2-C ,  6-C ) :   1.4777
B(  3-C ,  4-O ) :   2.0969 B(  3-C ,  5-O ) :   1.2163 B(  5-O , 11-H ) :   0.9483
B(  6-C ,  7-C ) :   1.2409 B(  6-C ,  8-C ) :   1.1265 B(  7-C , 12-H ) :   0.9875
B(  8-C ,  9-C ) :   1.8950 B(  8-C , 13-H ) :   0.9489 B(  9-C , 14-H ) :   0.9490
B(  9-C , 15-H ) :   0.9459

Dispersion correction           -0.032776509
FINAL SINGLE POINT ENERGY      -818.591015395005

DIPOLE MOMENT
-------------
                                X             Y             Z
Electronic contribution:     -8.08804      -1.80474      -1.35092
Nuclear contribution   :      7.94292       3.61875       1.52675
                        -----------------------------------------
Total Dipole Moment    :     -0.14513       1.81401       0.17583
                        -----------------------------------------
Magnitude (a.u.)       :      1.82828
Magnitude (Debye)      :      4.64712

Rotational constants in cm-1:     0.048902     0.038901     0.021737
Rotational constants in MHz :  1466.039493  1166.234780   651.671686

                             ****ORCA TERMINATED NORMALLY****
TOTAL RUN TIME: 0 days 0 hours 7 minutes 51 seconds 89 msec
