                         Program Version 4.2.0 -  RELEASE  -
|  1> # ORCA input file
|  2> # SCF done        -26.060125150896          0.000923950567
|  3> ! B3LYP/G D3BJ Opt RIJCOSX def2-SVP def2/J
|  4> * xyz 0 1
|  5>    C       -1.19148        -1.26052        -0.00292
|  6>    S       -2.38594        -0.01447        -0.00256
|  7>    C       -1.22331         1.24869        -0.00049
|  8>    C        0.04751         0.73839        -0.00024
|  9>    C        0.05086        -0.70341        -0.00163
| 10>    N        1.35011        -1.12157        -0.00118
| 11>    C        2.16192         0.00136         0.00057
| 12>    C        3.55879        -0.10662         0.00181
| 13>    N        4.70367        -0.19495         0.00243
| 14>    C        1.40781         1.14983         0.00109
| 15>    H       -1.48953        -2.28816        -0.00407
| 16>    H       -1.54840         2.26842         0.00031
| 17>    H        1.67734        -2.07147        -0.00172
| 18>    H        1.78473         2.15265         0.00233
| 19> *
| 20>
| 21>                          ****END OF INPUT****
 Total Charge           Charge          ....    0
 Multiplicity           Mult            ....    1
 Number of Electrons    NEL             ....   76
Dispersion correction           -0.030014966
FINAL SINGLE POINT ENERGY      -776.446044933523
Dispersion correction            ... done
Dispersion correction           -0.029972986
FINAL SINGLE POINT ENERGY      -776.448622887797
Dispersion correction            ... done
Dispersion correction           -0.029968121
FINAL SINGLE POINT ENERGY      -776.448696430702
Dispersion correction            ... done
FINAL SINGLE POINT ENERGY      -776.448710922097
Dispersion correction            ... done
Dispersion correction           -0.029962275
FINAL SINGLE POINT ENERGY      -776.448715172077
Dispersion correction            ... done
Dispersion correction           -0.029961992
FINAL SINGLE POINT ENERGY      -776.448715670363
Dispersion correction            ... done
                    ***********************HURRAY********************

CARTESIAN COORDINATES (ANGSTROEM)
---------------------------------
  C     -1.211101   -1.275986   -0.002963
  S     -2.406470   -0.021187   -0.002826
  C     -1.249792    1.255626   -0.000771
  C      0.038016    0.745080   -0.000075
  C      0.041375   -0.703009   -0.001423
  N      1.354602   -1.118200   -0.000816
  C      2.173780    0.012485    0.000819
  C      3.589370   -0.114010    0.001553
  N      4.746546   -0.223492    0.001804
  C      1.412814    1.165486    0.001433
  H     -1.506263   -2.322177   -0.004229
  H     -1.581202    2.291838    0.000026
  H      1.690887   -2.070316   -0.001576
  H      1.811520    2.176033    0.002776

 Multiplicity           Mult            ....    1
 Number of Electrons    NEL             ....   76
 Basis Dimension        Dim             ....  164

ORBITAL ENERGIES
----------------

  NO   OCC          E(Eh)            E(eV)
   0   2.0000     -88.889767     -2418.8135
   1   2.0000     -14.393323      -391.6622
   2   2.0000     -14.338468      -390.1695
   3   2.0000     -10.268574      -279.4221
   4   2.0000     -10.243053      -278.7276
   5   2.0000     -10.238862      -278.6136
   6   2.0000     -10.223641      -278.1994
   7   2.0000     -10.220582      -278.1162
   8   2.0000     -10.212130      -277.8862
   9   2.0000     -10.209334      -277.8101
  10   2.0000      -7.984007      -217.2559
  11   2.0000      -5.952070      -161.9641
  12   2.0000      -5.947814      -161.8483
  13   2.0000      -5.945851      -161.7948
  14   2.0000      -0.996969       -27.1289
  15   2.0000      -0.905048       -24.6276
  16   2.0000      -0.881325       -23.9821
  17   2.0000      -0.800492       -21.7825
  18   2.0000      -0.755901       -20.5691
  19   2.0000      -0.718156       -19.5420
  20   2.0000      -0.653547       -17.7839
  21   2.0000      -0.615867       -16.7586
  22   2.0000      -0.576718       -15.6933
  23   2.0000      -0.551188       -14.9986
  24   2.0000      -0.507153       -13.8003
  25   2.0000      -0.463955       -12.6249
  26   2.0000      -0.460422       -12.5287
  27   2.0000      -0.455377       -12.3914
  28   2.0000      -0.418624       -11.3913
  29   2.0000      -0.391722       -10.6593
  30   2.0000      -0.385379       -10.4867
  31   2.0000      -0.371053       -10.0969
  32   2.0000      -0.357904        -9.7391
  33   2.0000      -0.349540        -9.5115
  34   2.0000      -0.348313        -9.4781
  35   2.0000      -0.299553        -8.1513
  36   2.0000      -0.247813        -6.7433
  37   2.0000      -0.216344        -5.8870
  38   0.0000      -0.066655        -1.8138
  39   0.0000       0.002635         0.0717
  40   0.0000       0.006872         0.1870
  41   0.0000       0.041781         1.1369
  42   0.0000       0.047594         1.2951

MULLIKEN ATOMIC CHARGES
-----------------------
   0 C :   -0.191308
   1 S :    0.116589
   2 C :   -0.148023
   3 C :    0.104694
   4 C :    0.143202
   5 N :   -0.072516
   6 C :   -0.083921
   7 C :   -0.121030
   8 N :    0.107305
   9 C :   -0.000470
  10 H :    0.012585
  11 H :    0.025401
  12 H :    0.123589
  13 H :   -0.016097
Sum of atomic charges:   -0.0000000

LOEWDIN ATOMIC CHARGES
----------------------
   0 C :   -0.248246
   1 S :    0.465800
   2 C :   -0.205348
   3 C :   -0.072083
   4 C :   -0.011299
   5 N :    0.051458
   6 C :   -0.028757
   7 C :   -0.041954
   8 N :   -0.055603
   9 C :   -0.035756
  10 H :    0.025130
  11 H :    0.027486
  12 H :    0.092897
  13 H :    0.036275

  Mayer bond orders larger than 0.100000
B(  0-C ,  1-S ) :   1.1421 B(  0-C ,  2-C ) :   0.1270 B(  0-C ,  4-C ) :   1.4335
B(  0-C , 10-H ) :   0.9857 B(  1-S ,  2-C ) :   1.2026 B(  2-C ,  3-C ) :   1.3905
B(  2-C , 11-H ) :   0.9691 B(  3-C ,  4-C ) :   1.2247 B(  3-C ,  9-C ) :   1.1434
B(  4-C ,  5-N ) :   1.1246 B(  5-N ,  6-C ) :   1.1773 B(  5-N , 12-H ) :   0.9418
B(  6-C ,  7-C ) :   1.0688 B(  6-C ,  9-C ) :   1.5552 B(  7-C ,  8-N ) :   3.0120
B(  9-C , 13-H ) :   1.0149

Dispersion correction           -0.029962866
FINAL SINGLE POINT ENERGY      -776.448716919145

DIPOLE MOMENT
-------------
                                X             Y             Z
Electronic contribution:     -0.07752      -0.58106      -0.00069
Nuclear contribution   :     -1.17876       0.22415      -0.00029
                        -----------------------------------------
Total Dipole Moment    :     -1.25628      -0.35691      -0.00097
                        -----------------------------------------
Magnitude (a.u.)       :      1.30599
Magnitude (Debye)      :      3.31957

Rotational constants in cm-1:     0.160625     0.021597     0.019037
Rotational constants in MHz :  4815.401372   647.466081   570.727575

                             ****ORCA TERMINATED NORMALLY****
TOTAL RUN TIME: 0 days 0 hours 4 minutes 51 seconds 163 msec
