                         Program Version 4.2.0 -  RELEASE  -
|  1> # ORCA input file
|  2> # SCF done        -40.482585486003          0.000360680499
|  3> ! B3LYP/G D3BJ Opt RIJCOSX def2-SVP def2/J
|  4> * xyz 0 1
|  5>    C        0.11842         0.98448        -1.09225
|  6>    C       -0.79030         0.01694        -1.24279
|  7>    C       -0.75359        -1.02344        -0.26063
|  8>    S        0.52639        -0.71043         0.90994
|  9>    C        1.03222         0.83246         0.07149
| 10>    C       -1.55847        -2.12032        -0.19126
| 11>    C       -1.53102        -3.16158         0.77454
| 12>    C       -2.45298        -4.13347         0.57623
| 13>    C       -3.27900        -3.93553        -0.56239
| 14>    S       -2.82975        -2.43416        -1.37489
| 15>    C       -4.27693        -4.74134        -1.02125
| 16>    S       -4.72231        -6.24797        -0.22252
| 17>    C       -6.02040        -6.61637        -1.45482
| 18>    C       -6.00471        -5.48230        -2.41738
| 19>    C       -5.09878        -4.53105        -2.17398
| 20>    H        0.22913         1.83732        -1.73874
| 21>    H       -1.52269        -0.02369        -2.03151
| 22>    H        2.07851         0.73894        -0.22849
| 23>    H        0.94932         1.65870         0.78118
| 24>    H       -0.81695        -3.13656         1.57929
| 25>    H       -2.58607        -5.00101         1.19909
| 26>    H       -6.97699        -6.71397        -0.93669
| 27>    H       -5.78686        -7.57174        -1.93106
| 28>    H       -6.69944        -5.48123        -3.23908
| 29>    H       -4.95612        -3.64757        -2.77340
| 30> *
| 31>
| 32>                          ****END OF INPUT****
 Total Charge           Charge          ....    0
 Multiplicity           Mult            ....    1
 Number of Electrons    NEL             ....  130
Dispersion correction           -0.064255174
FINAL SINGLE POINT ENERGY     -1657.214544560038
Dispersion correction            ... done
Dispersion correction           -0.063825164
FINAL SINGLE POINT ENERGY     -1657.218684071887
Dispersion correction            ... done
Dispersion correction           -0.063733844
FINAL SINGLE POINT ENERGY     -1657.218822625027
Dispersion correction            ... done
FINAL SINGLE POINT ENERGY     -1657.218737321962
FINAL SINGLE POINT ENERGY     -1657.218601472904
FINAL SINGLE POINT ENERGY     -1657.218448700620
Dispersion correction            ... done
Dispersion correction           -0.063721963
FINAL SINGLE POINT ENERGY     -1657.218377895572
Dispersion correction            ... done
Dispersion correction           -0.063720583
FINAL SINGLE POINT ENERGY     -1657.218422881776
Dispersion correction            ... done
                    ***********************HURRAY********************

CARTESIAN COORDINATES (ANGSTROEM)
---------------------------------
  C      0.091037    1.015064   -1.098583
  C     -0.694013   -0.058538   -1.315251
  C     -0.654866   -1.083783   -0.290476
  S      0.498312   -0.621825    0.984304
  C      0.874305    0.995698    0.179540
  C     -1.395974   -2.234363   -0.261706
  C     -1.409972   -3.267189    0.743355
  C     -2.323820   -4.256838    0.527397
  C     -3.123706   -4.085976   -0.659552
  S     -2.580501   -2.630849   -1.532150
  C     -4.185058   -4.839918   -1.084022
  S     -4.739206   -6.307912   -0.243853
  C     -6.184020   -6.515094   -1.369942
  C     -6.077144   -5.418794   -2.386918
  C     -5.042546   -4.571059   -2.222472
  H      0.168630    1.862075   -1.784082
  H     -1.326936   -0.177140   -2.197520
  H      1.962373    1.080458    0.011831
  H      0.580253    1.814598    0.859981
  H     -0.749302   -3.225555    1.611288
  H     -2.480926   -5.100614    1.201501
  H     -7.117592   -6.449319   -0.782670
  H     -6.152816   -7.519613   -1.826938
  H     -6.815038   -5.330086   -3.187645
  H     -4.850845   -3.718317   -2.876786

 Multiplicity           Mult            ....    1
 Number of Electrons    NEL             ....  130
 Basis Dimension        Dim             ....  272

ORBITAL ENERGIES
----------------

  NO   OCC          E(Eh)            E(eV)
   0   2.0000     -88.853787     -2417.8345
   1   2.0000     -88.848508     -2417.6908
   2   2.0000     -88.848014     -2417.6774
   3   2.0000     -10.229558      -278.3604
   4   2.0000     -10.229508      -278.3591
   5   2.0000     -10.220446      -278.1125
   6   2.0000     -10.220188      -278.1055
   7   2.0000     -10.217632      -278.0359
   8   2.0000     -10.217257      -278.0257
   9   2.0000     -10.206100      -277.7221
  10   2.0000     -10.205984      -277.7190
  11   2.0000     -10.204729      -277.6848
  12   2.0000     -10.204442      -277.6770
  13   2.0000     -10.199613      -277.5456
  14   2.0000     -10.199020      -277.5294
  15   2.0000      -7.948744      -216.2963
  16   2.0000      -7.943547      -216.1549
  17   2.0000      -7.943167      -216.1446
  18   2.0000      -5.917521      -161.0239
  19   2.0000      -5.913939      -160.9265
  20   2.0000      -5.912750      -160.8941
  21   2.0000      -5.912311      -160.8822
  22   2.0000      -5.908958      -160.7909
  23   2.0000      -5.908594      -160.7810
  24   2.0000      -5.908178      -160.7697
  25   2.0000      -5.902303      -160.6098
  26   2.0000      -5.901933      -160.5998
  27   2.0000      -0.881420       -23.9846
  28   2.0000      -0.864744       -23.5309
  29   2.0000      -0.847419       -23.0594
  30   2.0000      -0.774277       -21.0691
  31   2.0000      -0.745788       -20.2939
  32   2.0000      -0.733089       -19.9484
  33   2.0000      -0.732553       -19.9338
  34   2.0000      -0.717465       -19.5232
  35   2.0000      -0.676888       -18.4191
  36   2.0000      -0.619382       -16.8542
  37   2.0000      -0.600103       -16.3296
  38   2.0000      -0.570614       -15.5272
  39   2.0000      -0.545372       -14.8403
  40   2.0000      -0.520854       -14.1732
  41   2.0000      -0.519612       -14.1394
  42   2.0000      -0.516517       -14.0552
  43   2.0000      -0.481636       -13.1060
  44   2.0000      -0.454416       -12.3653
  45   2.0000      -0.452644       -12.3171
  46   2.0000      -0.452452       -12.3119
  47   2.0000      -0.424459       -11.5501
  48   2.0000      -0.412829       -11.2336
  49   2.0000      -0.398827       -10.8526
  50   2.0000      -0.396295       -10.7837
  51   2.0000      -0.394198       -10.7267
  52   2.0000      -0.388897       -10.5824
  53   2.0000      -0.382096       -10.3974
  54   2.0000      -0.360874        -9.8199
  55   2.0000      -0.352539        -9.5931
  56   2.0000      -0.341528        -9.2934
  57   2.0000      -0.327119        -8.9014
  58   2.0000      -0.322604        -8.7785
  59   2.0000      -0.313030        -8.5180
  60   2.0000      -0.267226        -7.2716
  61   2.0000      -0.260476        -7.0879
  62   2.0000      -0.254507        -6.9255
  63   2.0000      -0.230575        -6.2743
  64   2.0000      -0.161756        -4.4016
  65   0.0000      -0.073725        -2.0062
  66   0.0000      -0.015299        -0.4163
  67   0.0000       0.022078         0.6008
  68   0.0000       0.022966         0.6249
  69   0.0000       0.025942         0.7059

MULLIKEN ATOMIC CHARGES
-----------------------
   0 C :   -0.069899
   1 C :    0.047670
   2 C :   -0.090805
   3 S :   -0.017850
   4 C :    0.013010
   5 C :   -0.046097
   6 C :    0.015400
   7 C :    0.016368
   8 C :   -0.044715
   9 S :    0.032877
  10 C :   -0.093513
  11 S :   -0.020438
  12 C :    0.022393
  13 C :   -0.075880
  14 C :    0.054065
  15 H :    0.007308
  16 H :    0.002553
  17 H :    0.063345
  18 H :    0.063938
  19 H :   -0.004148
  20 H :   -0.006773
  21 H :    0.063261
  22 H :    0.060300
  23 H :    0.008355
  24 H :   -0.000727
Sum of atomic charges:   -0.0000000

LOEWDIN ATOMIC CHARGES
----------------------
   0 C :   -0.042960
   1 C :   -0.039034
   2 C :   -0.181411
   3 S :    0.274543
   4 C :   -0.113910
   5 C :   -0.182859
   6 C :   -0.038621
   7 C :   -0.037424
   8 C :   -0.183136
   9 S :    0.330476
  10 C :   -0.181221
  11 S :    0.274856
  12 C :   -0.112700
  13 C :   -0.043521
  14 C :   -0.038294
  15 H :    0.030360
  16 H :    0.031130
  17 H :    0.032645
  18 H :    0.033228
  19 H :    0.031281
  20 H :    0.030507
  21 H :    0.032752
  22 H :    0.032225
  23 H :    0.030415
  24 H :    0.030673

  Mayer bond orders larger than 0.100000
B(  0-C ,  1-C ) :   1.7728 B(  0-C ,  4-C ) :   1.0282 B(  0-C , 15-H ) :   0.9694
B(  1-C ,  2-C ) :   1.1051 B(  1-C , 16-H ) :   0.9765 B(  2-C ,  3-S ) :   1.0350
B(  2-C ,  5-C ) :   1.6184 B(  3-S ,  4-C ) :   0.9972 B(  4-C , 17-H ) :   0.9314
B(  4-C , 18-H ) :   0.9275 B(  5-C ,  6-C ) :   1.1475 B(  5-C ,  9-S ) :   1.0256
B(  6-C ,  7-C ) :   1.6016 B(  6-C , 19-H ) :   0.9828 B(  7-C ,  8-C ) :   1.1469
B(  7-C , 20-H ) :   0.9827 B(  8-C ,  9-S ) :   1.0273 B(  8-C , 10-C ) :   1.6065
B( 10-C , 11-S ) :   1.0388 B( 10-C , 14-C ) :   1.1036 B( 11-S , 12-C ) :   0.9964
B( 12-C , 13-C ) :   1.0271 B( 12-C , 21-H ) :   0.9279 B( 12-C , 22-H ) :   0.9320
B( 13-C , 14-C ) :   1.7709 B( 13-C , 23-H ) :   0.9702 B( 14-C , 24-H ) :   0.9786

Dispersion correction           -0.063720888
FINAL SINGLE POINT ENERGY     -1657.218429041684

DIPOLE MOMENT
-------------
                                X             Y             Z
Electronic contribution:      2.03304      -2.43886       2.56009
Nuclear contribution   :     -2.37651       2.84998      -2.99641
                        -----------------------------------------
Total Dipole Moment    :     -0.34347       0.41112      -0.43632
                        -----------------------------------------
Magnitude (a.u.)       :      0.69092
Magnitude (Debye)      :      1.75618

Rotational constants in cm-1:     0.053047     0.006041     0.005455
Rotational constants in MHz :  1590.310384   181.091055   163.524280

                             ****ORCA TERMINATED NORMALLY****
TOTAL RUN TIME: 0 days 0 hours 17 minutes 42 seconds 570 msec
