                         Program Version 4.2.0 -  RELEASE  -
|  1> # ORCA input file
|  2> # SCF done        -29.567753454189          0.000644849575
|  3> ! B3LYP/G D3BJ Opt RIJCOSX def2-SVP def2/J
|  4> * xyz 0 1
|  5>    C        1.30185        -1.24367         0.30156
|  6>    S        2.50890        -0.00293         0.15299
|  7>    C        1.31408         1.20800        -0.17118
|  8>    C        0.07198         0.67391        -0.16321
|  9>    C        0.06117        -0.73503         0.10790
| 10>    C       -1.31048        -1.18071         0.08400
| 11>    C       -2.13699        -0.13475        -0.18474
| 12>    C       -1.32554         1.12026        -0.35801
| 13>    O       -1.71553         2.23735        -0.59839
| 14>    C       -3.57184        -0.21299        -0.29028
| 15>    C       -4.37493         0.81411        -0.55968
| 16>    H        1.60727        -2.24756         0.51912
| 17>    H        1.62047         2.22052        -0.34368
| 18>    H       -1.61915        -2.19742         0.25501
| 19>    H       -3.98569        -1.20245        -0.13215
| 20>    H       -3.98840         1.80448        -0.72038
| 21>    H       -5.44217         0.68771        -0.62618
| 22> *
| 23>
| 24>                          ****END OF INPUT****
 Total Charge           Charge          ....    0
 Multiplicity           Mult            ....    1
 Number of Electrons    NEL             ....   84
Dispersion correction           -0.036677102
FINAL SINGLE POINT ENERGY      -819.550887159762
Dispersion correction            ... done
Dispersion correction           -0.036545471
FINAL SINGLE POINT ENERGY      -819.553669222860
Dispersion correction            ... done
Dispersion correction           -0.036538819
FINAL SINGLE POINT ENERGY      -819.553782602532
Dispersion correction            ... done
FINAL SINGLE POINT ENERGY      -819.553803334985
Dispersion correction            ... done
Dispersion correction           -0.036544582
FINAL SINGLE POINT ENERGY      -819.553812822001
Dispersion correction            ... done
Dispersion correction           -0.036544253
FINAL SINGLE POINT ENERGY      -819.553815965505
Dispersion correction            ... done
                    ***********************HURRAY********************

CARTESIAN COORDINATES (ANGSTROEM)
---------------------------------
  C      1.330607   -1.256820    0.300768
  S      2.547859   -0.004875    0.152841
  C      1.347994    1.218195   -0.167342
  C      0.098067    0.675383   -0.159064
  C      0.080796   -0.735458    0.110645
  C     -1.312012   -1.183379    0.085137
  C     -2.148454   -0.136702   -0.185804
  C     -1.313210    1.127667   -0.358325
  O     -1.708879    2.246930   -0.600926
  C     -3.592560   -0.208469   -0.295624
  C     -4.414932    0.821240   -0.561783
  H      1.629824   -2.278763    0.529159
  H      1.646976    2.249613   -0.348065
  H     -1.638448   -2.209538    0.262772
  H     -4.019489   -1.206427   -0.139492
  H     -4.024826    1.827163   -0.723580
  H     -5.494313    0.663071   -0.628616

 Multiplicity           Mult            ....    1
 Number of Electrons    NEL             ....   84
 Basis Dimension        Dim             ....  188

ORBITAL ENERGIES
----------------

  NO   OCC          E(Eh)            E(eV)
   0   2.0000     -88.889200     -2418.7981
   1   2.0000     -19.136339      -520.7263
   2   2.0000     -10.284969      -279.8682
   3   2.0000     -10.237573      -278.5785
   4   2.0000     -10.231435      -278.4115
   5   2.0000     -10.221107      -278.1305
   6   2.0000     -10.211575      -277.8711
   7   2.0000     -10.208976      -277.8004
   8   2.0000     -10.201024      -277.5840
   9   2.0000     -10.200182      -277.5611
  10   2.0000     -10.189303      -277.2650
  11   2.0000      -7.984088      -217.2581
  12   2.0000      -5.952453      -161.9745
  13   2.0000      -5.948050      -161.8547
  14   2.0000      -5.945209      -161.7774
  15   2.0000      -1.039318       -28.2813
  16   2.0000      -0.904224       -24.6052
  17   2.0000      -0.842112       -22.9150
  18   2.0000      -0.775313       -21.0973
  19   2.0000      -0.743462       -20.2306
  20   2.0000      -0.710995       -19.3471
  21   2.0000      -0.651598       -17.7309
  22   2.0000      -0.618017       -16.8171
  23   2.0000      -0.568967       -15.4824
  24   2.0000      -0.552978       -15.0473
  25   2.0000      -0.527780       -14.3616
  26   2.0000      -0.490061       -13.3352
  27   2.0000      -0.470785       -12.8107
  28   2.0000      -0.451975       -12.2989
  29   2.0000      -0.438050       -11.9199
  30   2.0000      -0.424451       -11.5499
  31   2.0000      -0.419271       -11.4089
  32   2.0000      -0.409930       -11.1548
  33   2.0000      -0.394086       -10.7236
  34   2.0000      -0.385363       -10.4863
  35   2.0000      -0.370186       -10.0733
  36   2.0000      -0.359942        -9.7945
  37   2.0000      -0.339334        -9.2337
  38   2.0000      -0.289883        -7.8881
  39   2.0000      -0.264168        -7.1884
  40   2.0000      -0.258940        -7.0461
  41   2.0000      -0.223582        -6.0840
  42   0.0000      -0.091816        -2.4984
  43   0.0000      -0.051443        -1.3998
  44   0.0000       0.012770         0.3475
  45   0.0000       0.024088         0.6555
  46   0.0000       0.068406         1.8614

MULLIKEN ATOMIC CHARGES
-----------------------
   0 C :   -0.143161
   1 S :    0.099845
   2 C :   -0.114487
   3 C :   -0.002977
   4 C :    0.106713
   5 C :   -0.002735
   6 C :   -0.022947
   7 C :    0.172756
   8 O :   -0.149254
   9 C :   -0.031861
  10 C :   -0.002022
  11 H :    0.022974
  12 H :    0.036178
  13 H :   -0.013742
  14 H :   -0.022527
  15 H :    0.044394
  16 H :    0.022855
Sum of atomic charges:   -0.0000000

LOEWDIN ATOMIC CHARGES
----------------------
   0 C :   -0.176880
   1 S :    0.425114
   2 C :   -0.135440
   3 C :   -0.097332
   4 C :   -0.062183
   5 C :    0.019662
   6 C :   -0.054228
   7 C :    0.092366
   8 O :   -0.126549
   9 C :   -0.035719
  10 C :   -0.023387
  11 H :    0.027780
  12 H :    0.035709
  13 H :    0.029114
  14 H :    0.027050
  15 H :    0.029518
  16 H :    0.025407

  Mayer bond orders larger than 0.100000
B(  0-C ,  1-S ) :   1.1223 B(  0-C ,  4-C ) :   1.5273 B(  0-C , 11-H ) :   0.9631
B(  1-S ,  2-C ) :   1.1549 B(  2-C ,  3-C ) :   1.5731 B(  2-C , 12-H ) :   0.9631
B(  3-C ,  4-C ) :   1.2217 B(  3-C ,  7-C ) :   0.9315 B(  4-C ,  5-C ) :   1.0127
B(  5-C ,  6-C ) :   1.5957 B(  5-C , 10-C ) :   0.1034 B(  5-C , 13-H ) :   1.0100
B(  6-C ,  7-C ) :   0.9368 B(  6-C ,  9-C ) :   1.1282 B(  7-C ,  8-O ) :   2.1801
B(  9-C , 10-C ) :   1.8913 B(  9-C , 14-H ) :   0.9604 B( 10-C , 15-H ) :   0.9354
B( 10-C , 16-H ) :   0.9416

Dispersion correction           -0.036544465
FINAL SINGLE POINT ENERGY      -819.553815321290

DIPOLE MOMENT
-------------
                                X             Y             Z
Electronic contribution:      9.02054       1.23097       0.49992
Nuclear contribution   :     -8.60353      -2.20187      -0.28463
                        -----------------------------------------
Total Dipole Moment    :      0.41701      -0.97090       0.21529
                        -----------------------------------------
Magnitude (a.u.)       :      1.07838
Magnitude (Debye)      :      2.74101

Rotational constants in cm-1:     0.094572     0.020153     0.016613
Rotational constants in MHz :  2835.195531   604.168112   498.045119

                             ****ORCA TERMINATED NORMALLY****
TOTAL RUN TIME: 0 days 0 hours 6 minutes 21 seconds 716 msec
