                         Program Version 4.2.0 -  RELEASE  -
|  1> # ORCA input file
|  2> # SCF done        -23.322206061811          0.000878428220
|  3> ! B3LYP/G D3BJ Opt RIJCOSX def2-SVP def2/J
|  4> * xyz 0 1
|  5>    C       -1.21777        -0.08038        -0.16977
|  6>    S       -0.44564         1.43006        -0.43758
|  7>    C        1.11355         0.72234        -0.09613
|  8>    C        0.99344        -0.61086         0.20150
|  9>    C       -0.33788        -1.06332         0.15836
| 10>    C        2.27278         1.49019        -0.14542
| 11>    C        3.26398         2.18341        -0.19945
| 12>    C        4.43454         2.95485        -0.25735
| 13>    C        4.45240         4.23087        -0.63472
| 14>    H       -2.28275        -0.14815        -0.27195
| 15>    H        1.83748        -1.23247         0.44120
| 16>    H       -0.62957        -2.07804         0.36284
| 17>    H        5.34540         2.44286         0.02929
| 18>    H        3.55144         4.74378        -0.92542
| 19>    H        5.36868         4.79428        -0.66941
| 20> *
| 21>
| 22>                          ****END OF INPUT****
 Total Charge           Charge          ....    0
 Multiplicity           Mult            ....    1
 Number of Electrons    NEL             ....   70
Dispersion correction           -0.027581095
FINAL SINGLE POINT ENERGY      -706.256826095078
Dispersion correction            ... done
Dispersion correction           -0.027376606
FINAL SINGLE POINT ENERGY      -706.259772789961
Dispersion correction            ... done
Dispersion correction           -0.027335531
FINAL SINGLE POINT ENERGY      -706.259856528039
Dispersion correction            ... done
FINAL SINGLE POINT ENERGY      -706.259759771560
FINAL SINGLE POINT ENERGY      -706.259539991664
FINAL SINGLE POINT ENERGY      -706.259593424782
FINAL SINGLE POINT ENERGY      -706.259666964224
Dispersion correction            ... done
Dispersion correction           -0.027316695
FINAL SINGLE POINT ENERGY      -706.259617082630
Dispersion correction            ... done
Dispersion correction           -0.027315150
FINAL SINGLE POINT ENERGY      -706.259610088635
Dispersion correction            ... done
                    ***********************HURRAY********************

CARTESIAN COORDINATES (ANGSTROEM)
---------------------------------
  C     -1.261412   -0.165108   -0.236186
  S     -0.508318    1.334554   -0.642077
  C      1.067922    0.731675   -0.158470
  C      0.968484   -0.577609    0.289464
  C     -0.358610   -1.083177    0.245499
  C      2.223942    1.533363   -0.244029
  C      3.236046    2.214581   -0.312742
  C      4.445314    2.954259   -0.393421
  C      4.532874    4.291853   -0.512074
  H     -2.333805   -0.296145   -0.374767
  H      1.835169   -1.138350    0.638450
  H     -0.641481   -2.087019    0.564504
  H      5.367186    2.360739   -0.351757
  H      3.640654    4.921311   -0.552901
  H      5.506115    4.784492   -0.573502

 Multiplicity           Mult            ....    1
 Number of Electrons    NEL             ....   70
 Basis Dimension        Dim             ....  160

ORBITAL ENERGIES
----------------

  NO   OCC          E(Eh)            E(eV)
   0   2.0000     -88.880393     -2418.5584
   1   2.0000     -10.235780      -278.5297
   2   2.0000     -10.220221      -278.1063
   3   2.0000     -10.217021      -278.0193
   4   2.0000     -10.202529      -277.6249
   5   2.0000     -10.200691      -277.5749
   6   2.0000     -10.200376      -277.5663
   7   2.0000     -10.198829      -277.5243
   8   2.0000     -10.195794      -277.4417
   9   2.0000      -7.975309      -217.0192
  10   2.0000      -5.943439      -161.7292
  11   2.0000      -5.939320      -161.6171
  12   2.0000      -5.936640      -161.5442
  13   2.0000      -0.885607       -24.0986
  14   2.0000      -0.799920       -21.7669
  15   2.0000      -0.761908       -20.7326
  16   2.0000      -0.739013       -20.1096
  17   2.0000      -0.706541       -19.2259
  18   2.0000      -0.623238       -16.9592
  19   2.0000      -0.583537       -15.8789
  20   2.0000      -0.561426       -15.2772
  21   2.0000      -0.525665       -14.3041
  22   2.0000      -0.500003       -13.6058
  23   2.0000      -0.451786       -12.2937
  24   2.0000      -0.439927       -11.9710
  25   2.0000      -0.411721       -11.2035
  26   2.0000      -0.404289       -11.0013
  27   2.0000      -0.398112       -10.8332
  28   2.0000      -0.382764       -10.4155
  29   2.0000      -0.354869        -9.6565
  30   2.0000      -0.343250        -9.3403
  31   2.0000      -0.289655        -7.8819
  32   2.0000      -0.271652        -7.3920
  33   2.0000      -0.262270        -7.1367
  34   2.0000      -0.216511        -5.8916
  35   0.0000      -0.060716        -1.6522
  36   0.0000      -0.005533        -0.1506
  37   0.0000       0.018030         0.4906
  38   0.0000       0.041365         1.1256
  39   0.0000       0.051879         1.4117

MULLIKEN ATOMIC CHARGES
-----------------------
   0 C :   -0.082637
   1 S :    0.142344
   2 C :   -0.186237
   3 C :    0.061532
   4 C :    0.035990
   5 C :    0.070778
   6 C :   -0.060932
   7 C :   -0.087113
   8 C :   -0.005077
   9 H :    0.035713
  10 H :   -0.007946
  11 H :   -0.005839
  12 H :    0.028653
  13 H :    0.031845
  14 H :    0.028924
Sum of atomic charges:   -0.0000000

LOEWDIN ATOMIC CHARGES
----------------------
   0 C :   -0.185996
   1 S :    0.442180
   2 C :   -0.191151
   3 C :   -0.040237
   4 C :   -0.065201
   5 C :   -0.056079
   6 C :   -0.032207
   7 C :   -0.042971
   8 C :   -0.022942
   9 H :    0.027643
  10 H :    0.034260
  11 H :    0.031883
  12 H :    0.043723
  13 H :    0.029341
  14 H :    0.027756

  Mayer bond orders larger than 0.100000
B(  0-C ,  1-S ) :   1.1695 B(  0-C ,  4-C ) :   1.5425 B(  0-C ,  9-H ) :   0.9672
B(  1-S ,  2-C ) :   1.1160 B(  2-C ,  3-C ) :   1.5019 B(  2-C ,  5-C ) :   1.0357
B(  3-C ,  4-C ) :   1.2651 B(  3-C , 10-H ) :   0.9919 B(  4-C , 11-H ) :   0.9846
B(  5-C ,  6-C ) :   2.3437 B(  5-C ,  8-C ) :   0.1048 B(  6-C ,  7-C ) :   1.0468
B(  7-C ,  8-C ) :   1.9070 B(  7-C , 12-H ) :   0.9549 B(  8-C , 13-H ) :   0.9586
B(  8-C , 14-H ) :   0.9487

Dispersion correction           -0.027314916
FINAL SINGLE POINT ENERGY      -706.259609394906

DIPOLE MOMENT
-------------
                                X             Y             Z
Electronic contribution:     -5.29926      -1.08667      -0.89523
Nuclear contribution   :      5.23371       0.87110       0.95777
                        -----------------------------------------
Total Dipole Moment    :     -0.06555      -0.21558       0.06255
                        -----------------------------------------
Magnitude (a.u.)       :      0.23384
Magnitude (Debye)      :      0.59438

Rotational constants in cm-1:     0.155694     0.020544     0.018189
Rotational constants in MHz :  4667.602584   615.899943   545.290661

                             ****ORCA TERMINATED NORMALLY****
TOTAL RUN TIME: 0 days 0 hours 6 minutes 11 seconds 900 msec
