                         Program Version 4.2.0 -  RELEASE  -
|  1> # ORCA input file
|  2> # SCF done        -26.420520651346          0.000582801650
|  3> ! B3LYP/G D3BJ Opt RIJCOSX def2-SVP def2/J
|  4> * xyz 0 1
|  5>    N        0.04051         0.85233         0.14384
|  6>    C       -1.11681         0.18204        -0.23680
|  7>    O       -2.16725         0.70633        -0.49521
|  8>    C       -0.74515        -1.24599        -0.23985
|  9>    C        0.54616        -1.38213         0.11871
| 10>    C        1.09452        -0.00207         0.37797
| 11>    O        2.19819         0.33624         0.71452
| 12>    C        1.29802        -2.60365         0.24299
| 13>    C        2.56935        -2.66605         0.63588
| 14>    H        0.10382         1.85523         0.23549
| 15>    H       -1.44435        -2.01967        -0.49680
| 16>    H        0.75059        -3.50414        -0.00747
| 17>    H        3.12405        -1.77870         0.88751
| 18>    H        3.08529        -3.60768         0.71333
| 19> *
| 20>
| 21>                          ****END OF INPUT****
 Total Charge           Charge          ....    0
 Multiplicity           Mult            ....    1
 Number of Electrons    NEL             ....   64
Dispersion correction           -0.024039630
FINAL SINGLE POINT ENERGY      -436.544245396571
Dispersion correction            ... done
Dispersion correction           -0.023891644
FINAL SINGLE POINT ENERGY      -436.545977107595
Dispersion correction            ... done
Dispersion correction           -0.023879440
FINAL SINGLE POINT ENERGY      -436.546027550673
Dispersion correction            ... done
FINAL SINGLE POINT ENERGY      -436.546037680483
Dispersion correction            ... done
Dispersion correction           -0.023879399
FINAL SINGLE POINT ENERGY      -436.546037653911
Dispersion correction            ... done
Dispersion correction           -0.023880357
FINAL SINGLE POINT ENERGY      -436.546041032559
Dispersion correction            ... done
                    ***********************HURRAY********************

CARTESIAN COORDINATES (ANGSTROEM)
---------------------------------
  N      0.035961    0.882750    0.125257
  C     -1.132090    0.196742   -0.239238
  O     -2.202798    0.699821   -0.478802
  C     -0.749636   -1.244091   -0.249118
  C      0.546951   -1.378215    0.112667
  C      1.094128    0.019939    0.372566
  O      2.204245    0.344102    0.721995
  C      1.308710   -2.605357    0.246483
  C      2.591190   -2.686505    0.641126
  H      0.092640    1.888511    0.239091
  H     -1.457807   -2.027923   -0.513821
  H      0.758397   -3.519332   -0.001602
  H      3.160493   -1.791183    0.895818
  H      3.086555   -3.657169    0.721687

 Multiplicity           Mult            ....    1
 Number of Electrons    NEL             ....   64
 Basis Dimension        Dim             ....  151

ORBITAL ENERGIES
----------------

  NO   OCC          E(Eh)            E(eV)
   0   2.0000     -19.144431      -520.9465
   1   2.0000     -19.138878      -520.7953
   2   2.0000     -14.380215      -391.3055
   3   2.0000     -10.322465      -280.8885
   4   2.0000     -10.317594      -280.7560
   5   2.0000     -10.236991      -278.5627
   6   2.0000     -10.223933      -278.2073
   7   2.0000     -10.219433      -278.0849
   8   2.0000     -10.211466      -277.8681
   9   2.0000      -1.071699       -29.1624
  10   2.0000      -1.053116       -28.6567
  11   2.0000      -0.957837       -26.0641
  12   2.0000      -0.837021       -22.7765
  13   2.0000      -0.771862       -21.0034
  14   2.0000      -0.678470       -18.4621
  15   2.0000      -0.643896       -17.5213
  16   2.0000      -0.611497       -16.6397
  17   2.0000      -0.562972       -15.3193
  18   2.0000      -0.517627       -14.0853
  19   2.0000      -0.481449       -13.1009
  20   2.0000      -0.480799       -13.0832
  21   2.0000      -0.471180       -12.8215
  22   2.0000      -0.457989       -12.4625
  23   2.0000      -0.435576       -11.8526
  24   2.0000      -0.431019       -11.7286
  25   2.0000      -0.410675       -11.1750
  26   2.0000      -0.389785       -10.6066
  27   2.0000      -0.351175        -9.5560
  28   2.0000      -0.305151        -8.3036
  29   2.0000      -0.303992        -8.2720
  30   2.0000      -0.275956        -7.5091
  31   2.0000      -0.266534        -7.2528
  32   0.0000      -0.107421        -2.9231
  33   0.0000      -0.017157        -0.4669
  34   0.0000       0.056282         1.5315
  35   0.0000       0.062927         1.7123
  36   0.0000       0.064473         1.7544

MULLIKEN ATOMIC CHARGES
-----------------------
   0 N :   -0.155447
   1 C :    0.189270
   2 O :   -0.161953
   3 C :   -0.103888
   4 C :    0.004474
   5 C :    0.183001
   6 O :   -0.164744
   7 C :   -0.029377
   8 C :    0.013674
   9 H :    0.135368
  10 H :    0.005287
  11 H :   -0.005999
  12 H :    0.058056
  13 H :    0.032277
Sum of atomic charges:   -0.0000000

LOEWDIN ATOMIC CHARGES
----------------------
   0 N :   -0.011461
   1 C :    0.078633
   2 O :   -0.147728
   3 C :   -0.033138
   4 C :   -0.030281
   5 C :    0.092775
   6 O :   -0.150255
   7 C :   -0.034007
   8 C :    0.005228
   9 H :    0.093711
  10 H :    0.038067
  11 H :    0.033417
  12 H :    0.034732
  13 H :    0.030306

  Mayer bond orders larger than 0.100000
B(  0-N ,  1-C ) :   1.0442 B(  0-N ,  5-C ) :   1.1072 B(  0-N ,  9-H ) :   0.9179
B(  1-C ,  2-O ) :   2.1702 B(  1-C ,  3-C ) :   0.9462 B(  3-C ,  4-C ) :   1.6329
B(  3-C ,  8-C ) :   0.1141 B(  3-C , 10-H ) :   1.0125 B(  4-C ,  5-C ) :   0.8862
B(  4-C ,  7-C ) :   1.1339 B(  5-C ,  6-O ) :   2.1524 B(  7-C ,  8-C ) :   1.8885
B(  7-C , 11-H ) :   0.9672 B(  8-C , 12-H ) :   0.9350 B(  8-C , 13-H ) :   0.9436

Dispersion correction           -0.023880570
FINAL SINGLE POINT ENERGY      -436.546040435035

DIPOLE MOMENT
-------------
                                X             Y             Z
Electronic contribution:     -3.08233       5.02936      -0.56101
Nuclear contribution   :      3.36612      -5.73803       0.58612
                        -----------------------------------------
Total Dipole Moment    :      0.28380      -0.70867       0.02511
                        -----------------------------------------
Magnitude (a.u.)       :      0.76380
Magnitude (Debye)      :      1.94143

Rotational constants in cm-1:     0.121310     0.041630     0.030998
Rotational constants in MHz :  3636.787809  1248.049798   929.304073

                             ****ORCA TERMINATED NORMALLY****
TOTAL RUN TIME: 0 days 0 hours 4 minutes 2 seconds 486 msec
