                         Program Version 4.2.0 -  RELEASE  -
|  1> # ORCA input file
|  2> # SCF done        -44.618023331147          0.000441801743
|  3> ! B3LYP/G D3BJ Opt RIJCOSX def2-SVP def2/J
|  4> * xyz 0 1
|  5>    C        2.54141         1.19377        -0.00123
|  6>    S        3.69342        -0.06491        -0.00657
|  7>    C        2.48440        -1.26894        -0.00610
|  8>    C        1.21858        -0.73139        -0.00343
|  9>    C        1.25208         0.71536        -0.00054
| 10>    C        0.04420         1.46214         0.00395
| 11>    C       -1.11922         0.76115         0.00521
| 12>    C       -2.51706         1.24037         0.01411
| 13>    O       -2.94218         2.36915         0.02201
| 14>    N       -3.30367         0.09702         0.02254
| 15>    C       -4.74976         0.13078         0.00301
| 16>    C       -5.28256         0.15984        -1.42522
| 17>    C       -2.57084        -1.08148         0.00903
| 18>    O       -3.04777        -2.18939         0.01194
| 19>    C       -1.15231        -0.66744         0.00220
| 20>    C       -0.02256        -1.42150        -0.00195
| 21>    H        2.86366         2.21570         0.00049
| 22>    H        2.75903        -2.30468        -0.00843
| 23>    H        0.06157         2.54057         0.00757
| 24>    H       -5.06306         1.02724         0.54376
| 25>    H       -5.10374        -0.76270         0.52311
| 26>    H       -4.91668         1.04312        -1.94380
| 27>    H       -6.36852         0.18587        -1.41241
| 28>    H       -4.95930        -0.72778        -1.96432
| 29>    H       -0.05509        -2.49959        -0.00275
| 30> *
| 31>
| 32>                          ****END OF INPUT****
 Total Charge           Charge          ....    0
 Multiplicity           Mult            ....    1
 Number of Electrons    NEL             ....  120
Dispersion correction           -0.057734800
FINAL SINGLE POINT ENERGY     -1065.583174744718
Dispersion correction            ... done
Dispersion correction           -0.057489803
FINAL SINGLE POINT ENERGY     -1065.586201225505
Dispersion correction            ... done
Dispersion correction           -0.057451344
FINAL SINGLE POINT ENERGY     -1065.586310916238
Dispersion correction            ... done
FINAL SINGLE POINT ENERGY     -1065.586237521615
FINAL SINGLE POINT ENERGY     -1065.586182625419
Dispersion correction            ... done
Dispersion correction           -0.057536559
FINAL SINGLE POINT ENERGY     -1065.586066076989
Dispersion correction            ... done
Dispersion correction           -0.057517543
FINAL SINGLE POINT ENERGY     -1065.586119760638
Dispersion correction            ... done
                    ***********************HURRAY********************

CARTESIAN COORDINATES (ANGSTROEM)
---------------------------------
  C      2.557641    1.206969   -0.071469
  S      3.700872   -0.067792   -0.152271
  C      2.497587   -1.285915   -0.076359
  C      1.222902   -0.739718    0.006077
  C      1.257911    0.723139    0.009005
  C      0.037752    1.473874    0.066821
  C     -1.128157    0.765988    0.103941
  C     -2.535783    1.255474    0.107292
  O     -2.952122    2.391705    0.098439
  N     -3.336227    0.101576    0.105834
  C     -4.783127    0.131399   -0.022238
  C     -5.226494    0.155307   -1.484197
  C     -2.589967   -1.087949    0.098272
  O     -3.059771   -2.202554    0.078747
  C     -1.161773   -0.666640    0.099963
  C     -0.031714   -1.430488    0.060337
  H      2.881488    2.245763   -0.090210
  H      2.771772   -2.338889   -0.099373
  H      0.039008    2.566143    0.065803
  H     -5.140023    1.024681    0.509827
  H     -5.171608   -0.761224    0.488417
  H     -4.831159    1.046690   -1.994087
  H     -6.325162    0.177024   -1.558084
  H     -4.866050   -0.740740   -2.012238
  H     -0.083765   -2.521544    0.053932

 Multiplicity           Mult            ....    1
 Number of Electrons    NEL             ....  120
 Basis Dimension        Dim             ....  273

ORBITAL ENERGIES
----------------

  NO   OCC          E(Eh)            E(eV)
   0   2.0000     -88.906425     -2419.2668
   1   2.0000     -19.125984      -520.4445
   2   2.0000     -19.125913      -520.4425
   3   2.0000     -14.373904      -391.1338
   4   2.0000     -10.304480      -280.3992
   5   2.0000     -10.304204      -280.3917
   6   2.0000     -10.233846      -278.4771
   7   2.0000     -10.233741      -278.4743
   8   2.0000     -10.228472      -278.3309
   9   2.0000     -10.223649      -278.1996
  10   2.0000     -10.223538      -278.1966
  11   2.0000     -10.223165      -278.1865
  12   2.0000     -10.223068      -278.1838
  13   2.0000     -10.211959      -277.8815
  14   2.0000     -10.211688      -277.8742
  15   2.0000     -10.186168      -277.1797
  16   2.0000      -8.001073      -217.7203
  17   2.0000      -5.968717      -162.4170
  18   2.0000      -5.964531      -162.3031
  19   2.0000      -5.963589      -162.2775
  20   2.0000      -1.058299       -28.7978
  21   2.0000      -1.038178       -28.2503
  22   2.0000      -0.950886       -25.8749
  23   2.0000      -0.912187       -24.8219
  24   2.0000      -0.858385       -23.3579
  25   2.0000      -0.790801       -21.5188
  26   2.0000      -0.786616       -21.4049
  27   2.0000      -0.740994       -20.1635
  28   2.0000      -0.724436       -19.7129
  29   2.0000      -0.675284       -18.3754
  30   2.0000      -0.655667       -17.8416
  31   2.0000      -0.617033       -16.7903
  32   2.0000      -0.599488       -16.3129
  33   2.0000      -0.595777       -16.2119
  34   2.0000      -0.545340       -14.8395
  35   2.0000      -0.524979       -14.2854
  36   2.0000      -0.524056       -14.2603
  37   2.0000      -0.484855       -13.1936
  38   2.0000      -0.471498       -12.8301
  39   2.0000      -0.467569       -12.7232
  40   2.0000      -0.456319       -12.4171
  41   2.0000      -0.451331       -12.2813
  42   2.0000      -0.433347       -11.7920
  43   2.0000      -0.432570       -11.7708
  44   2.0000      -0.428201       -11.6519
  45   2.0000      -0.424303       -11.5459
  46   2.0000      -0.413128       -11.2418
  47   2.0000      -0.400640       -10.9020
  48   2.0000      -0.399636       -10.8747
  49   2.0000      -0.380987       -10.3672
  50   2.0000      -0.375069       -10.2061
  51   2.0000      -0.370828       -10.0907
  52   2.0000      -0.355330        -9.6690
  53   2.0000      -0.350741        -9.5441
  54   2.0000      -0.310026        -8.4362
  55   2.0000      -0.289130        -7.8676
  56   2.0000      -0.281825        -7.6688
  57   2.0000      -0.267931        -7.2908
  58   2.0000      -0.265978        -7.2376
  59   2.0000      -0.230709        -6.2779
  60   0.0000      -0.087361        -2.3772
  61   0.0000      -0.068067        -1.8522
  62   0.0000      -0.005497        -0.1496
  63   0.0000       0.031055         0.8450
  64   0.0000       0.048888         1.3303

MULLIKEN ATOMIC CHARGES
-----------------------
   0 C :   -0.133777
   1 S :    0.157754
   2 C :   -0.134927
   3 C :    0.100313
   4 C :    0.098011
   5 C :   -0.062031
   6 C :    0.009519
   7 C :    0.199083
   8 O :   -0.184398
   9 N :   -0.311571
  10 C :    0.155937
  11 C :   -0.025677
  12 C :    0.198817
  13 O :   -0.184323
  14 C :    0.006816
  15 C :   -0.060560
  16 H :    0.029227
  17 H :    0.029680
  18 H :   -0.007880
  19 H :    0.024129
  20 H :    0.024250
  21 H :    0.026985
  22 H :    0.025230
  23 H :    0.027186
  24 H :   -0.007792
Sum of atomic charges:   -0.0000000

LOEWDIN ATOMIC CHARGES
----------------------
   0 C :   -0.196993
   1 S :    0.500713
   2 C :   -0.197447
   3 C :   -0.047336
   4 C :   -0.047400
   5 C :    0.023297
   6 C :   -0.063919
   7 C :    0.085665
   8 O :   -0.170926
   9 N :   -0.034376
  10 C :    0.046906
  11 C :   -0.060261
  12 C :    0.085382
  13 O :   -0.170669
  14 C :   -0.064283
  15 C :    0.023557
  16 H :    0.030056
  17 H :    0.030212
  18 H :    0.040321
  19 H :    0.030313
  20 H :    0.030395
  21 H :    0.027800
  22 H :    0.030622
  23 H :    0.027934
  24 H :    0.040438

  Mayer bond orders larger than 0.100000
B(  0-C ,  1-S ) :   1.2096 B(  0-C ,  2-C ) :   0.1038 B(  0-C ,  4-C ) :   1.4098
B(  0-C , 16-H ) :   0.9649 B(  1-S ,  2-C ) :   1.2099 B(  2-C ,  3-C ) :   1.4091
B(  2-C , 17-H ) :   0.9646 B(  3-C ,  4-C ) :   1.1896 B(  3-C , 15-C ) :   1.1446
B(  4-C ,  5-C ) :   1.1436 B(  5-C ,  6-C ) :   1.5356 B(  5-C , 18-H ) :   1.0096
B(  6-C ,  7-C ) :   0.8943 B(  6-C , 14-C ) :   1.1842 B(  7-C ,  8-O ) :   2.1705
B(  7-C ,  9-N ) :   1.0503 B(  9-N , 10-C ) :   0.9286 B(  9-N , 12-C ) :   1.0501
B( 10-C , 11-C ) :   1.1219 B( 10-C , 19-H ) :   0.9387 B( 10-C , 20-H ) :   0.9381
B( 11-C , 21-H ) :   0.9686 B( 11-C , 22-H ) :   0.9677 B( 11-C , 23-H ) :   0.9684
B( 12-C , 13-O ) :   2.1705 B( 12-C , 14-C ) :   0.8958 B( 14-C , 15-C ) :   1.5339
B( 15-C , 24-H ) :   1.0092

Dispersion correction           -0.057518890
FINAL SINGLE POINT ENERGY     -1065.586118746870

DIPOLE MOMENT
-------------
                                X             Y             Z
Electronic contribution:     14.93433      -0.36462       3.52532
Nuclear contribution   :    -13.67162       0.33118      -3.66658
                        -----------------------------------------
Total Dipole Moment    :      1.26271      -0.03344      -0.14126
                        -----------------------------------------
Magnitude (a.u.)       :      1.27103
Magnitude (Debye)      :      3.23070

Rotational constants in cm-1:     0.044593     0.008658     0.007482
Rotational constants in MHz :  1336.854504   259.554023   224.299873

                             ****ORCA TERMINATED NORMALLY****
TOTAL RUN TIME: 0 days 0 hours 22 minutes 1 seconds 427 msec
