                         Program Version 4.2.0 -  RELEASE  -
|  1> # ORCA input file
|  2> # SCF done        -27.586402014987          0.000386002878
|  3> ! B3LYP/G D3BJ Opt RIJCOSX def2-SVP def2/J
|  4> * xyz 0 1
|  5>    C       -0.80737         1.22487        -0.18552
|  6>    S       -1.97053        -0.04959        -0.26905
|  7>    C       -0.74021        -1.28183        -0.04984
|  8>    C        0.48377        -0.68605         0.06585
|  9>    C        0.43955         0.72978        -0.00820
| 10>    C        1.80805         1.31085         0.14009
| 11>    C        2.71742         0.09819        -0.13324
| 12>    C        1.89362        -1.15071         0.23962
| 13>    C       -1.14498        -2.66203        -0.02088
| 14>    C       -0.36605        -3.68988         0.30524
| 15>    H       -1.13553         2.24103        -0.27551
| 16>    H        1.94442         1.67902         1.16076
| 17>    H        1.99779         2.13692        -0.54469
| 18>    H        3.65367         0.15261         0.42041
| 19>    H        2.95508         0.06314        -1.19757
| 20>    H        2.06772        -1.43720         1.28086
| 21>    H        2.13826        -2.00351        -0.39404
| 22>    H       -2.18170        -2.83459        -0.28039
| 23>    H        0.66224        -3.56286         0.59178
| 24>    H       -0.74378        -4.69729         0.30037
| 25> *
| 26>
| 27>                          ****END OF INPUT****
 Total Charge           Charge          ....    0
 Multiplicity           Mult            ....    1
 Number of Electrons    NEL             ....   80
Dispersion correction           -0.040158953
FINAL SINGLE POINT ENERGY      -746.818286751160
Dispersion correction            ... done
Dispersion correction           -0.039928905
FINAL SINGLE POINT ENERGY      -746.821113816029
Dispersion correction            ... done
Dispersion correction           -0.039897361
FINAL SINGLE POINT ENERGY      -746.821219538253
Dispersion correction            ... done
FINAL SINGLE POINT ENERGY      -746.821207410611
Dispersion correction            ... done
Dispersion correction           -0.039892831
FINAL SINGLE POINT ENERGY      -746.821238972053
Dispersion correction            ... done
Dispersion correction           -0.039896209
FINAL SINGLE POINT ENERGY      -746.821242607001
Dispersion correction            ... done
                    ***********************HURRAY********************

CARTESIAN COORDINATES (ANGSTROEM)
---------------------------------
  C     -0.831508    1.241443   -0.199262
  S     -1.988301   -0.048421   -0.276388
  C     -0.756632   -1.279280   -0.048738
  C      0.481506   -0.676306    0.065766
  C      0.435225    0.748009   -0.013895
  C      1.817339    1.331787    0.140539
  C      2.736974    0.108760   -0.120816
  C      1.900393   -1.152387    0.235268
  C     -1.159044   -2.674724   -0.003570
  C     -0.373077   -3.721559    0.300258
  H     -1.162348    2.274205   -0.298002
  H      1.956403    1.719089    1.166279
  H      2.022038    2.169327   -0.543279
  H      3.682646    0.163412    0.436954
  H      2.993737    0.074642   -1.191515
  H      2.084049   -1.478814    1.275685
  H      2.143806   -2.012196   -0.408027
  H     -2.210838   -2.868911   -0.241621
  H      0.678206   -3.601278    0.569922
  H     -0.779134   -4.735928    0.300492

 Multiplicity           Mult            ....    1
 Number of Electrons    NEL             ....   80
 Basis Dimension        Dim             ....  194

ORBITAL ENERGIES
----------------

  NO   OCC          E(Eh)            E(eV)
   0   2.0000     -88.866140     -2418.1706
   1   2.0000     -10.211252      -277.8623
   2   2.0000     -10.206621      -277.7363
   3   2.0000     -10.200865      -277.5796
   4   2.0000     -10.194529      -277.4072
   5   2.0000     -10.194295      -277.4009
   6   2.0000     -10.190710      -277.3033
   7   2.0000     -10.187662      -277.2204
   8   2.0000     -10.186187      -277.1802
   9   2.0000     -10.185865      -277.1715
  10   2.0000      -7.961019      -216.6304
  11   2.0000      -5.929150      -161.3404
  12   2.0000      -5.925146      -161.2314
  13   2.0000      -5.922308      -161.1542
  14   2.0000      -0.882965       -24.0267
  15   2.0000      -0.814219       -22.1560
  16   2.0000      -0.778376       -21.1807
  17   2.0000      -0.720688       -19.6109
  18   2.0000      -0.701247       -19.0819
  19   2.0000      -0.671377       -18.2691
  20   2.0000      -0.593529       -16.1507
  21   2.0000      -0.586573       -15.9615
  22   2.0000      -0.553231       -15.0542
  23   2.0000      -0.509186       -13.8557
  24   2.0000      -0.483701       -13.1622
  25   2.0000      -0.471876       -12.8404
  26   2.0000      -0.453482       -12.3399
  27   2.0000      -0.411797       -11.2056
  28   2.0000      -0.407544       -11.0898
  29   2.0000      -0.393378       -10.7044
  30   2.0000      -0.383138       -10.4257
  31   2.0000      -0.379569       -10.3286
  32   2.0000      -0.373277       -10.1574
  33   2.0000      -0.355552        -9.6751
  34   2.0000      -0.345213        -9.3937
  35   2.0000      -0.337487        -9.1835
  36   2.0000      -0.321348        -8.7443
  37   2.0000      -0.298025        -8.1097
  38   2.0000      -0.237578        -6.4648
  39   2.0000      -0.212479        -5.7819
  40   0.0000      -0.040862        -1.1119
  41   0.0000       0.026617         0.7243
  42   0.0000       0.034090         0.9276
  43   0.0000       0.056964         1.5501
  44   0.0000       0.078481         2.1356

MULLIKEN ATOMIC CHARGES
-----------------------
   0 C :   -0.154483
   1 S :    0.089414
   2 C :   -0.164400
   3 C :   -0.064862
   4 C :   -0.031321
   5 C :    0.127730
   6 C :   -0.000462
   7 C :    0.119759
   8 C :    0.037421
   9 C :   -0.039838
  10 H :    0.010808
  11 H :    0.012957
  12 H :    0.005760
  13 H :   -0.005785
  14 H :    0.012036
  15 H :    0.013729
  16 H :    0.015031
  17 H :   -0.016573
  18 H :    0.011904
  19 H :    0.021177
Sum of atomic charges:   -0.0000000

LOEWDIN ATOMIC CHARGES
----------------------
   0 C :   -0.200775
   1 S :    0.417422
   2 C :   -0.185570
   3 C :   -0.056893
   4 C :   -0.064389
   5 C :   -0.022165
   6 C :   -0.019079
   7 C :   -0.024396
   8 C :   -0.038946
   9 C :   -0.058882
  10 H :    0.021857
  11 H :    0.030033
  12 H :    0.027333
  13 H :    0.019118
  14 H :    0.024502
  15 H :    0.029139
  16 H :    0.028006
  17 H :    0.027199
  18 H :    0.021038
  19 H :    0.025447

  Mayer bond orders larger than 0.100000
B(  0-C ,  1-S ) :   1.1424 B(  0-C ,  4-C ) :   1.5294 B(  0-C , 10-H ) :   0.9728
B(  1-S ,  2-C ) :   1.1149 B(  2-C ,  3-C ) :   1.5072 B(  2-C ,  8-C ) :   1.1182
B(  3-C ,  4-C ) :   1.3276 B(  3-C ,  7-C ) :   1.0629 B(  4-C ,  5-C ) :   1.0232
B(  5-C ,  6-C ) :   1.0935 B(  5-C , 11-H ) :   0.9140 B(  5-C , 12-H ) :   0.9279
B(  6-C ,  7-C ) :   1.0811 B(  6-C , 13-H ) :   0.9389 B(  6-C , 14-H ) :   0.9447
B(  7-C , 15-H ) :   0.9053 B(  7-C , 16-H ) :   0.9183 B(  8-C ,  9-C ) :   1.9170
B(  8-C , 17-H ) :   0.9448 B(  9-C , 18-H ) :   0.9470 B(  9-C , 19-H ) :   0.9429

Dispersion correction           -0.039895824
FINAL SINGLE POINT ENERGY      -746.821242991919

DIPOLE MOMENT
-------------
                                X             Y             Z
Electronic contribution:    -10.40858       2.78158      -1.18717
Nuclear contribution   :     10.83453      -2.62304       1.22775
                        -----------------------------------------
Total Dipole Moment    :      0.42594       0.15854       0.04058
                        -----------------------------------------
Magnitude (a.u.)       :      0.45630
Magnitude (Debye)      :      1.15982

Rotational constants in cm-1:     0.053943     0.037662     0.022584
Rotational constants in MHz :  1617.176102  1129.087338   677.061156

                             ****ORCA TERMINATED NORMALLY****
TOTAL RUN TIME: 0 days 0 hours 9 minutes 26 seconds 738 msec
