                         Program Version 4.2.0 -  RELEASE  -
|  1> # ORCA input file
|  2> # SCF done        -32.117325041418          0.000848323221
|  3> ! B3LYP/G D3BJ Opt RIJCOSX def2-SVP def2/J
|  4> * xyz 0 1
|  5>    C       -1.43101        -1.27368         0.15101
|  6>    S       -2.65748        -0.08496         0.26735
|  7>    C       -1.52319         1.18759         0.19593
|  8>    C       -0.23591         0.72038         0.08252
|  9>    C       -0.17720        -0.71763         0.04918
| 10>    C        1.07739        -1.38938        -0.05163
| 11>    C        2.22249        -0.61984        -0.15156
| 12>    C        2.14453         0.80489        -0.11167
| 13>    C        0.96657         1.46497         0.00669
| 14>    N        3.45654        -1.17037        -0.40537
| 15>    C        1.08012        -2.85305        -0.07137
| 16>    C        1.87729        -3.64124         0.63859
| 17>    H       -1.70722        -2.30813         0.16909
| 18>    H       -1.85543         2.20531         0.24265
| 19>    H        3.07200         1.35555        -0.18504
| 20>    H        0.92597         2.54326         0.04006
| 21>    H        3.54849        -2.16683        -0.31938
| 22>    H        4.26945        -0.61887        -0.19791
| 23>    H        0.32396        -3.30263        -0.70457
| 24>    H        2.60238        -3.25206         1.33537
| 25>    H        1.80977        -4.71448         0.57905
| 26> *
| 27>
| 28>                          ****END OF INPUT****
 Total Charge           Charge          ....    0
 Multiplicity           Mult            ....    1
 Number of Electrons    NEL             ....   92
Dispersion correction           -0.047402400
FINAL SINGLE POINT ENERGY      -839.011867241594
Dispersion correction            ... done
Dispersion correction           -0.047140104
FINAL SINGLE POINT ENERGY      -839.015230549855
Dispersion correction            ... done
Dispersion correction           -0.047106365
FINAL SINGLE POINT ENERGY      -839.015379064295
Dispersion correction            ... done
FINAL SINGLE POINT ENERGY      -839.015454942257
FINAL SINGLE POINT ENERGY      -839.015491090861
FINAL SINGLE POINT ENERGY      -839.015503934007
FINAL SINGLE POINT ENERGY      -839.015521513524
FINAL SINGLE POINT ENERGY      -839.015551007908
FINAL SINGLE POINT ENERGY      -839.015590528620
FINAL SINGLE POINT ENERGY      -839.015649182437
FINAL SINGLE POINT ENERGY      -839.017941445955
FINAL SINGLE POINT ENERGY      -839.018191355259
FINAL SINGLE POINT ENERGY      -839.018224311915
FINAL SINGLE POINT ENERGY      -839.018266935198
FINAL SINGLE POINT ENERGY      -839.018274502748
FINAL SINGLE POINT ENERGY      -839.018281384186
FINAL SINGLE POINT ENERGY      -839.018286010148
Dispersion correction            ... done
Dispersion correction           -0.047179523
FINAL SINGLE POINT ENERGY      -839.018286841599
Dispersion correction            ... done
Dispersion correction           -0.047179810
FINAL SINGLE POINT ENERGY      -839.018285869121
Dispersion correction            ... done
                    ***********************HURRAY********************

CARTESIAN COORDINATES (ANGSTROEM)
---------------------------------
  C     -1.473598   -1.260132    0.168635
  S     -2.695248   -0.048808    0.200126
  C     -1.559434    1.228514    0.105053
  C     -0.258460    0.743813    0.048623
  C     -0.200157   -0.707073    0.082137
  C      1.069236   -1.397427    0.048775
  C      2.232762   -0.623754   -0.001432
  C      2.151208    0.815661   -0.041384
  C      0.961228    1.484011   -0.022923
  N      3.503031   -1.177758   -0.013518
  C      1.060835   -2.860364    0.024333
  C      1.977321   -3.721397    0.507246
  H     -1.754794   -2.307560    0.247381
  H     -1.884070    2.267246    0.095030
  H      3.089536    1.375155   -0.094084
  H      0.933471    2.575521   -0.064187
  H      3.556192   -2.140524   -0.334494
  H      4.223334   -0.586540   -0.413093
  H      0.173368   -3.296925   -0.450205
  H      2.857975   -3.393725    1.063998
  H      1.825774   -4.799133    0.402971

 Multiplicity           Mult            ....    1
 Number of Electrons    NEL             ....   92
 Basis Dimension        Dim             ....  217

ORBITAL ENERGIES
----------------

  NO   OCC          E(Eh)            E(eV)
   0   2.0000     -88.876041     -2418.4400
   1   2.0000     -14.338177      -390.1616
   2   2.0000     -10.231496      -278.4132
   3   2.0000     -10.207263      -277.7538
   4   2.0000     -10.199964      -277.5551
   5   2.0000     -10.196761      -277.4680
   6   2.0000     -10.193608      -277.3822
   7   2.0000     -10.193219      -277.3716
   8   2.0000     -10.192426      -277.3500
   9   2.0000     -10.192409      -277.3495
  10   2.0000     -10.184433      -277.1325
  11   2.0000     -10.182189      -277.0714
  12   2.0000      -7.970683      -216.8933
  13   2.0000      -5.938473      -161.5941
  14   2.0000      -5.934331      -161.4813
  15   2.0000      -5.932942      -161.4435
  16   2.0000      -0.917100       -24.9556
  17   2.0000      -0.880273       -23.9535
  18   2.0000      -0.811588       -22.0844
  19   2.0000      -0.784574       -21.3493
  20   2.0000      -0.730743       -19.8845
  21   2.0000      -0.718541       -19.5525
  22   2.0000      -0.685231       -18.6461
  23   2.0000      -0.622265       -16.9327
  24   2.0000      -0.593590       -16.1524
  25   2.0000      -0.572980       -15.5916
  26   2.0000      -0.544840       -14.8258
  27   2.0000      -0.527252       -14.3473
  28   2.0000      -0.499676       -13.5969
  29   2.0000      -0.483488       -13.1564
  30   2.0000      -0.457077       -12.4377
  31   2.0000      -0.450171       -12.2498
  32   2.0000      -0.426314       -11.6006
  33   2.0000      -0.420390       -11.4394
  34   2.0000      -0.407497       -11.0886
  35   2.0000      -0.398933       -10.8555
  36   2.0000      -0.379134       -10.3168
  37   2.0000      -0.370856       -10.0915
  38   2.0000      -0.362255        -9.8575
  39   2.0000      -0.345684        -9.4065
  40   2.0000      -0.332961        -9.0603
  41   2.0000      -0.304209        -8.2780
  42   2.0000      -0.296031        -8.0554
  43   2.0000      -0.252631        -6.8744
  44   2.0000      -0.226593        -6.1659
  45   2.0000      -0.184808        -5.0289
  46   0.0000      -0.055365        -1.5066
  47   0.0000      -0.006022        -0.1639
  48   0.0000       0.030371         0.8264
  49   0.0000       0.051369         1.3978
  50   0.0000       0.058657         1.5961

MULLIKEN ATOMIC CHARGES
-----------------------
   0 C :   -0.182309
   1 S :    0.125540
   2 C :   -0.139095
   3 C :    0.097795
   4 C :    0.066801
   5 C :    0.080221
   6 C :   -0.033263
   7 C :    0.004151
   8 C :   -0.011073
   9 N :   -0.070885
  10 C :   -0.078769
  11 C :   -0.062769
  12 H :    0.013924
  13 H :    0.012128
  14 H :   -0.045125
  15 H :   -0.026982
  16 H :    0.107449
  17 H :    0.103179
  18 H :   -0.005448
  19 H :    0.024100
  20 H :    0.020428
Sum of atomic charges:   -0.0000000

LOEWDIN ATOMIC CHARGES
----------------------
   0 C :   -0.230767
   1 S :    0.468016
   2 C :   -0.208349
   3 C :   -0.062355
   4 C :   -0.035392
   5 C :   -0.084301
   6 C :    0.030126
   7 C :   -0.050120
   8 C :   -0.009075
   9 N :   -0.022655
  10 C :   -0.015510
  11 C :   -0.081846
  12 H :    0.019664
  13 H :    0.022907
  14 H :    0.022812
  15 H :    0.029260
  16 H :    0.067846
  17 H :    0.070045
  18 H :    0.027132
  19 H :    0.019288
  20 H :    0.023274

  Mayer bond orders larger than 0.100000
B(  0-C ,  1-S ) :   1.1719 B(  0-C ,  2-C ) :   0.1135 B(  0-C ,  4-C ) :   1.4451
B(  0-C , 12-H ) :   0.9499 B(  1-S ,  2-C ) :   1.2108 B(  2-C ,  3-C ) :   1.4062
B(  2-C , 13-H ) :   0.9648 B(  3-C ,  4-C ) :   1.1947 B(  3-C ,  8-C ) :   1.1567
B(  4-C ,  5-C ) :   1.1649 B(  5-C ,  6-C ) :   1.4229 B(  5-C , 10-C ) :   1.0900
B(  6-C ,  7-C ) :   1.1615 B(  6-C ,  9-N ) :   1.2488 B(  7-C ,  8-C ) :   1.5445
B(  7-C , 14-H ) :   0.9777 B(  8-C , 15-H ) :   0.9936 B(  9-N , 16-H ) :   0.9261
B(  9-N , 17-H ) :   0.9431 B( 10-C , 11-C ) :   1.9019 B( 10-C , 18-H ) :   0.9420
B( 11-C , 19-H ) :   0.9507 B( 11-C , 20-H ) :   0.9412

Dispersion correction           -0.047179370
FINAL SINGLE POINT ENERGY      -839.018284886695

DIPOLE MOMENT
-------------
                                X             Y             Z
Electronic contribution:     -9.43653       4.84694       0.04318
Nuclear contribution   :     10.03670      -4.67282      -0.43209
                        -----------------------------------------
Total Dipole Moment    :      0.60016       0.17412      -0.38890
                        -----------------------------------------
Magnitude (a.u.)       :      0.73604
Magnitude (Debye)      :      1.87087

Rotational constants in cm-1:     0.050631     0.021373     0.015114
Rotational constants in MHz :  1517.871389   640.745351   453.094385

                             ****ORCA TERMINATED NORMALLY****
TOTAL RUN TIME: 0 days 0 hours 51 minutes 18 seconds 337 msec
