                         Program Version 4.2.0 -  RELEASE  -
|  1> # ORCA input file
|  2> # SCF done        -37.743849475381          0.000523887636
|  3> ! B3LYP/G D3BJ Opt RIJCOSX def2-SVP def2/J
|  4> * xyz 0 1
|  5>    C       -3.07445         0.11510         0.00364
|  6>    N       -2.38365        -1.06040        -0.13461
|  7>    C       -1.06502        -0.73035        -0.06671
|  8>    N       -0.00248        -1.52242        -0.14776
|  9>    C        1.10409        -0.80144        -0.03161
| 10>    N        2.39687        -1.21187        -0.05636
| 11>    C        3.17464        -0.08059         0.11013
| 12>    N        2.46341         1.00782         0.23521
| 13>    C        1.16105         0.62455         0.15509
| 14>    N        0.08279         1.38929         0.23097
| 15>    C       -1.03672         0.69270         0.11742
| 16>    N       -2.32463         1.15674         0.15221
| 17>    C        4.61377        -0.15006         0.13780
| 18>    C        5.37696         0.92347         0.31790
| 19>    H       -4.14677         0.14714        -0.01249
| 20>    H       -2.75974        -1.98527        -0.25982
| 21>    H        2.71895        -2.15848        -0.17133
| 22>    H        5.04169        -1.13518         0.00489
| 23>    H        4.92221         1.88948         0.44978
| 24>    H        6.45067         0.86103         0.33980
| 25> *
| 26>
| 27>                          ****END OF INPUT****
 Total Charge           Charge          ....    0
 Multiplicity           Mult            ....    1
 Number of Electrons    NEL             ....   96
Dispersion correction           -0.039476737
FINAL SINGLE POINT ENERGY      -636.547185759708
Dispersion correction            ... done
Dispersion correction           -0.039621697
FINAL SINGLE POINT ENERGY      -636.549974355280
Dispersion correction            ... done
Dispersion correction           -0.039620347
FINAL SINGLE POINT ENERGY      -636.550061768051
Dispersion correction            ... done
FINAL SINGLE POINT ENERGY      -636.550062372618
Dispersion correction            ... done
Dispersion correction           -0.039609752
FINAL SINGLE POINT ENERGY      -636.550052533227
Dispersion correction            ... done
Dispersion correction           -0.039609867
FINAL SINGLE POINT ENERGY      -636.550045724154
Dispersion correction            ... done
                    ***********************HURRAY********************

CARTESIAN COORDINATES (ANGSTROEM)
---------------------------------
  C     -3.113677    0.117403   -0.012463
  N     -2.407867   -1.062049   -0.170464
  C     -1.076829   -0.734513   -0.074464
  N     -0.010022   -1.521769   -0.160550
  C      1.093985   -0.801681   -0.013468
  N      2.403150   -1.207343   -0.034381
  C      3.185531   -0.073596    0.156808
  N      2.467401    1.018554    0.306013
  C      1.155162    0.624006    0.208511
  N      0.063934    1.382547    0.292930
  C     -1.062748    0.688223    0.148509
  N     -2.359788    1.164820    0.177808
  C      4.640206   -0.152313    0.166002
  C      5.424823    0.929675    0.262872
  H     -4.204402    0.127714   -0.053484
  H     -2.784586   -1.987771   -0.333243
  H      2.731217   -2.153982   -0.181036
  H      5.077554   -1.152548    0.079656
  H      4.976993    1.923388    0.342366
  H      6.513604    0.842496    0.266228

 Multiplicity           Mult            ....    1
 Number of Electrons    NEL             ....   96
 Basis Dimension        Dim             ....  226

ORBITAL ENERGIES
----------------

  NO   OCC          E(Eh)            E(eV)
   0   2.0000     -14.396989      -391.7620
   1   2.0000     -14.395610      -391.7245
   2   2.0000     -14.350921      -390.5084
   3   2.0000     -14.330880      -389.9631
   4   2.0000     -14.316578      -389.5739
   5   2.0000     -14.313642      -389.4940
   6   2.0000     -10.269386      -279.4442
   7   2.0000     -10.267557      -279.3944
   8   2.0000     -10.266597      -279.3683
   9   2.0000     -10.266331      -279.3611
  10   2.0000     -10.245145      -278.7846
  11   2.0000     -10.244064      -278.7552
  12   2.0000     -10.214231      -277.9434
  13   2.0000     -10.205948      -277.7180
  14   2.0000      -1.041725       -28.3468
  15   2.0000      -1.025034       -27.8926
  16   2.0000      -0.953868       -25.9561
  17   2.0000      -0.933801       -25.4100
  18   2.0000      -0.886999       -24.1365
  19   2.0000      -0.856734       -23.3129
  20   2.0000      -0.800251       -21.7759
  21   2.0000      -0.741869       -20.1873
  22   2.0000      -0.688768       -18.7423
  23   2.0000      -0.649077       -17.6623
  24   2.0000      -0.641722       -17.4621
  25   2.0000      -0.623043       -16.9539
  26   2.0000      -0.602146       -16.3852
  27   2.0000      -0.562860       -15.3162
  28   2.0000      -0.544499       -14.8166
  29   2.0000      -0.537256       -14.6195
  30   2.0000      -0.491098       -13.3634
  31   2.0000      -0.486794       -13.2463
  32   2.0000      -0.482287       -13.1237
  33   2.0000      -0.468693       -12.7538
  34   2.0000      -0.452810       -12.3216
  35   2.0000      -0.439411       -11.9570
  36   2.0000      -0.434283       -11.8174
  37   2.0000      -0.381541       -10.3823
  38   2.0000      -0.372575       -10.1383
  39   2.0000      -0.371934       -10.1208
  40   2.0000      -0.338348        -9.2069
  41   2.0000      -0.314433        -8.5562
  42   2.0000      -0.303302        -8.2533
  43   2.0000      -0.297473        -8.0947
  44   2.0000      -0.285151        -7.7594
  45   2.0000      -0.252912        -6.8821
  46   2.0000      -0.245290        -6.6747
  47   2.0000      -0.225841        -6.1454
  48   0.0000      -0.075496        -2.0544
  49   0.0000      -0.025128        -0.6838
  50   0.0000       0.014215         0.3868
  51   0.0000       0.040077         1.0905
  52   0.0000       0.041256         1.1226

MULLIKEN ATOMIC CHARGES
-----------------------
   0 C :    0.117828
   1 N :   -0.083915
   2 C :   -0.007811
   3 N :   -0.015647
   4 C :   -0.005601
   5 N :   -0.067346
   6 C :    0.045786
   7 N :   -0.079625
   8 C :   -0.083530
   9 N :    0.020784
  10 C :   -0.091285
  11 N :   -0.098003
  12 C :   -0.011197
  13 C :    0.017768
  14 H :    0.024753
  15 H :    0.130477
  16 H :    0.124529
  17 H :   -0.021529
  18 H :    0.051938
  19 H :    0.031625
Sum of atomic charges:    0.0000000

LOEWDIN ATOMIC CHARGES
----------------------
   0 C :    0.052892
   1 N :    0.047734
   2 C :   -0.008134
   3 N :   -0.099167
   4 C :   -0.003008
   5 N :    0.053361
   6 C :    0.038070
   7 N :   -0.120773
   8 C :   -0.030068
   9 N :   -0.037960
  10 C :   -0.034705
  11 N :   -0.114925
  12 C :   -0.055445
  13 C :    0.007130
  14 H :    0.023279
  15 H :    0.093368
  16 H :    0.091661
  17 H :    0.026985
  18 H :    0.039348
  19 H :    0.030356

  Mayer bond orders larger than 0.100000
B(  0-C ,  1-N ) :   1.1533 B(  0-C , 11-N ) :   1.6890 B(  0-C , 14-H ) :   0.9753
B(  1-N ,  2-C ) :   1.1867 B(  1-N , 15-H ) :   0.9273 B(  2-C ,  3-N ) :   1.5105
B(  2-C , 10-C ) :   1.1457 B(  3-N ,  4-C ) :   1.5257 B(  4-C ,  5-N ) :   1.1799
B(  4-C ,  8-C ) :   1.1239 B(  5-N ,  6-C ) :   1.1422 B(  5-N , 16-H ) :   0.9195
B(  6-C ,  7-N ) :   1.6487 B(  6-C , 12-C ) :   1.0839 B(  7-N ,  8-C ) :   1.3535
B(  8-C ,  9-N ) :   1.5063 B(  9-N , 10-C ) :   1.5008 B( 10-C , 11-N ) :   1.3452
B( 12-C , 13-C ) :   1.9316 B( 12-C , 17-H ) :   0.9448 B( 13-C , 18-H ) :   0.9454
B( 13-C , 19-H ) :   0.9403

Dispersion correction           -0.039610900
FINAL SINGLE POINT ENERGY      -636.550044823848

DIPOLE MOMENT
-------------
                                X             Y             Z
Electronic contribution:     -7.17073      -0.19420      -0.04429
Nuclear contribution   :      7.36315      -2.30213      -0.37130
                        -----------------------------------------
Total Dipole Moment    :      0.19242      -2.49632      -0.41559
                        -----------------------------------------
Magnitude (a.u.)       :      2.53799
Magnitude (Debye)      :      6.45105

Rotational constants in cm-1:     0.093173     0.013359     0.011686
Rotational constants in MHz :  2793.244019   400.486809   350.335265

                             ****ORCA TERMINATED NORMALLY****
TOTAL RUN TIME: 0 days 0 hours 10 minutes 9 seconds 83 msec
