                         Program Version 4.2.0 -  RELEASE  -
|  1> # ORCA input file
|  2> # SCF done        -48.552890567244          0.000488139292
|  3> ! B3LYP/G D3BJ Opt RIJCOSX def2-SVP def2/J
|  4> * xyz 0 1
|  5>    C        1.82187         1.13181         0.71487
|  6>    S        2.72887        -0.32267         0.66214
|  7>    C        1.32609        -1.21835         0.23507
|  8>    C        0.21887        -0.43447         0.14074
|  9>    C        0.50865         0.93080         0.42020
| 10>    C       -0.55198         1.99554         0.44508
| 11>    C       -0.73601         2.46765         1.88772
| 12>    F        0.35132         3.11477         2.34168
| 13>    F       -1.75738         3.33021         2.01847
| 14>    F       -0.96784         1.47453         2.75683
| 15>    C       -1.87169         1.49268        -0.15373
| 16>    C       -2.20026         0.06612         0.28021
| 17>    C       -1.14986        -0.89476        -0.27816
| 18>    O       -1.29545        -0.88531        -1.69275
| 19>    C       -0.56036        -1.86903        -2.36932
| 20>    H        2.30951         2.05152         0.96967
| 21>    H        1.40104        -2.27851         0.09494
| 22>    H       -0.21169         2.88323        -0.10158
| 23>    H       -1.77949         1.49668        -1.24034
| 24>    H       -2.68084         2.16886         0.12602
| 25>    H       -3.17400        -0.21340        -0.12149
| 26>    H       -2.22998        -0.02240         1.36581
| 27>    H       -1.32525        -1.91832         0.09396
| 28>    H       -0.83769        -1.78578        -3.41830
| 29>    H       -0.81058        -2.87299        -2.00381
| 30>    H        0.51986        -1.71370        -2.26729
| 31> *
| 32>
| 33>                          ****END OF INPUT****
 Total Charge           Charge          ....    0
 Multiplicity           Mult            ....    1
 Number of Electrons    NEL             ....  122
Dispersion correction           -0.054917578
FINAL SINGLE POINT ENERGY     -1160.004895421300
Dispersion correction            ... done
Dispersion correction           -0.054482315
FINAL SINGLE POINT ENERGY     -1160.007698384005
Dispersion correction            ... done
Dispersion correction           -0.054484534
FINAL SINGLE POINT ENERGY     -1160.007854139843
Dispersion correction            ... done
FINAL SINGLE POINT ENERGY     -1160.007743500362
FINAL SINGLE POINT ENERGY     -1160.007746382622
FINAL SINGLE POINT ENERGY     -1160.007837764692
Dispersion correction            ... done
Dispersion correction           -0.054352928
FINAL SINGLE POINT ENERGY     -1160.007813150246
Dispersion correction            ... done
Dispersion correction           -0.054344972
FINAL SINGLE POINT ENERGY     -1160.007821925648
Dispersion correction            ... done
                    ***********************HURRAY********************

CARTESIAN COORDINATES (ANGSTROEM)
---------------------------------
  C      1.863296    1.133505    0.722320
  S      2.772480   -0.333981    0.639804
  C      1.363694   -1.238063    0.215480
  C      0.242763   -0.445020    0.136776
  C      0.532745    0.932507    0.442229
  C     -0.545763    1.996053    0.490544
  C     -0.763328    2.520474    1.911353
  F      0.354876    3.061965    2.430252
  F     -1.701369    3.487785    1.926462
  F     -1.172069    1.561960    2.763891
  C     -1.868620    1.489875   -0.125173
  C     -2.198237    0.045416    0.270808
  C     -1.139167   -0.907672   -0.274672
  O     -1.314467   -0.912298   -1.688008
  C     -0.583949   -1.878243   -2.390657
  H      2.353600    2.064750    0.999142
  H      1.435902   -2.311496    0.045895
  H     -0.208541    2.883401   -0.069702
  H     -1.775488    1.528837   -1.220514
  H     -2.684338    2.170579    0.154502
  H     -3.170665   -0.247153   -0.152143
  H     -2.256834   -0.059199    1.363812
  H     -1.306280   -1.934523    0.106969
  H     -0.943528   -1.868624   -3.430147
  H     -0.744634   -2.894354   -1.973123
  H      0.503649   -1.671771   -2.389459

 Multiplicity           Mult            ....    1
 Number of Electrons    NEL             ....  122
 Basis Dimension        Dim             ....  269

ORBITAL ENERGIES
----------------

  NO   OCC          E(Eh)            E(eV)
   0   2.0000     -88.880267     -2418.5550
   1   2.0000     -24.716472      -672.5694
   2   2.0000     -24.716403      -672.5675
   3   2.0000     -24.715928      -672.5546
   4   2.0000     -19.137549      -520.7592
   5   2.0000     -10.427133      -283.7367
   6   2.0000     -10.246103      -278.8106
   7   2.0000     -10.233953      -278.4800
   8   2.0000     -10.223472      -278.1948
   9   2.0000     -10.217345      -278.0281
  10   2.0000     -10.215985      -277.9911
  11   2.0000     -10.206108      -277.7223
  12   2.0000     -10.199039      -277.5300
  13   2.0000     -10.196525      -277.4615
  14   2.0000     -10.188667      -277.2477
  15   2.0000      -7.975457      -217.0232
  16   2.0000      -5.943423      -161.7288
  17   2.0000      -5.939396      -161.6192
  18   2.0000      -5.937015      -161.5544
  19   2.0000      -1.294538       -35.2262
  20   2.0000      -1.202569       -32.7236
  21   2.0000      -1.201555       -32.6960
  22   2.0000      -1.030422       -28.0392
  23   2.0000      -0.890334       -24.2272
  24   2.0000      -0.831823       -22.6350
  25   2.0000      -0.782230       -21.2856
  26   2.0000      -0.737607       -20.0713
  27   2.0000      -0.717860       -19.5340
  28   2.0000      -0.698181       -18.9985
  29   2.0000      -0.662772       -18.0350
  30   2.0000      -0.631469       -17.1831
  31   2.0000      -0.598916       -16.2973
  32   2.0000      -0.592234       -16.1155
  33   2.0000      -0.587798       -15.9948
  34   2.0000      -0.578936       -15.7536
  35   2.0000      -0.558224       -15.1900
  36   2.0000      -0.522034       -14.2053
  37   2.0000      -0.505314       -13.7503
  38   2.0000      -0.489491       -13.3197
  39   2.0000      -0.470215       -12.7952
  40   2.0000      -0.468721       -12.7546
  41   2.0000      -0.463943       -12.6245
  42   2.0000      -0.455553       -12.3962
  43   2.0000      -0.445699       -12.1281
  44   2.0000      -0.431869       -11.7518
  45   2.0000      -0.422728       -11.5030
  46   2.0000      -0.418092       -11.3769
  47   2.0000      -0.410270       -11.1640
  48   2.0000      -0.407854       -11.0983
  49   2.0000      -0.407251       -11.0819
  50   2.0000      -0.404363       -11.0033
  51   2.0000      -0.390257       -10.6194
  52   2.0000      -0.379452       -10.3254
  53   2.0000      -0.356377        -9.6975
  54   2.0000      -0.347833        -9.4650
  55   2.0000      -0.345091        -9.3904
  56   2.0000      -0.335745        -9.1361
  57   2.0000      -0.316519        -8.6129
  58   2.0000      -0.267355        -7.2751
  59   2.0000      -0.254484        -6.9249
  60   2.0000      -0.245316        -6.6754
  61   0.0000      -0.028605        -0.7784
  62   0.0000       0.029935         0.8146
  63   0.0000       0.041953         1.1416
  64   0.0000       0.058346         1.5877
  65   0.0000       0.069157         1.8819

MULLIKEN ATOMIC CHARGES
-----------------------
   0 C :   -0.136779
   1 S :    0.108434
   2 C :   -0.143622
   3 C :   -0.022502
   4 C :    0.006453
   5 C :   -0.058347
   6 C :    0.510162
   7 F :   -0.172345
   8 F :   -0.175716
   9 F :   -0.175459
  10 C :    0.032787
  11 C :    0.078815
  12 C :    0.225801
  13 O :   -0.383471
  14 C :    0.190167
  15 H :    0.021391
  16 H :    0.018003
  17 H :    0.024976
  18 H :    0.024925
  19 H :    0.011505
  20 H :   -0.000091
  21 H :    0.013154
  22 H :   -0.021643
  23 H :    0.022241
  24 H :   -0.012342
  25 H :    0.013504
Sum of atomic charges:   -0.0000000

LOEWDIN ATOMIC CHARGES
----------------------
   0 C :   -0.189062
   1 S :    0.439486
   2 C :   -0.196029
   3 C :   -0.075889
   4 C :   -0.064604
   5 C :   -0.056927
   6 C :    0.174518
   7 F :   -0.065544
   8 F :   -0.068086
   9 F :   -0.064167
  10 C :   -0.020518
  11 C :   -0.030341
  12 C :    0.077617
  13 O :   -0.166868
  14 C :    0.064877
  15 H :    0.024313
  16 H :    0.023292
  17 H :    0.046433
  18 H :    0.032276
  19 H :    0.025682
  20 H :    0.028384
  21 H :    0.023964
  22 H :    0.010238
  23 H :    0.021468
  24 H :    0.000571
  25 H :    0.004913

  Mayer bond orders larger than 0.100000
B(  0-C ,  1-S ) :   1.1734 B(  0-C ,  4-C ) :   1.5490 B(  0-C , 15-H ) :   0.9612
B(  1-S ,  2-C ) :   1.1666 B(  2-C ,  3-C ) :   1.5467 B(  2-C , 16-H ) :   0.9615
B(  3-C ,  4-C ) :   1.3146 B(  3-C , 12-C ) :   0.9743 B(  4-C ,  5-C ) :   0.9632
B(  5-C ,  6-C ) :   0.9829 B(  5-C , 10-C ) :   1.0595 B(  5-C , 17-H ) :   0.8818
B(  6-C ,  7-F ) :   1.1286 B(  6-C ,  8-F ) :   1.1233 B(  6-C ,  9-F ) :   1.1233
B( 10-C , 11-C ) :   1.0765 B( 10-C , 18-H ) :   0.9253 B( 10-C , 19-H ) :   0.9295
B( 11-C , 12-C ) :   1.0534 B( 11-C , 20-H ) :   0.9164 B( 11-C , 21-H ) :   0.9346
B( 12-C , 13-O ) :   1.0093 B( 12-C , 22-H ) :   0.9115 B( 13-O , 14-C ) :   0.9982
B( 14-C , 23-H ) :   0.9767 B( 14-C , 24-H ) :   0.9570 B( 14-C , 25-H ) :   0.9616

Dispersion correction           -0.054337806
FINAL SINGLE POINT ENERGY     -1160.007818497543

DIPOLE MOMENT
-------------
                                X             Y             Z
Electronic contribution:      5.41143      14.55793      16.61738
Nuclear contribution   :     -5.18951     -15.13878     -17.22698
                        -----------------------------------------
Total Dipole Moment    :      0.22192      -0.58085      -0.60959
                        -----------------------------------------
Magnitude (a.u.)       :      0.87077
Magnitude (Debye)      :      2.21332

Rotational constants in cm-1:     0.024714     0.015308     0.010547
Rotational constants in MHz :   740.904019   458.912191   316.204401

                             ****ORCA TERMINATED NORMALLY****
TOTAL RUN TIME: 0 days 0 hours 19 minutes 14 seconds 886 msec
