                         Program Version 4.2.0 -  RELEASE  -
|  1> # ORCA input file
|  2> # SCF done        -36.679301947014          0.000466280399
|  3> ! B3LYP/G D3BJ Opt RIJCOSX def2-SVP def2/J
|  4> * xyz 0 1
|  5>    C       -0.25089         1.03302        -0.22270
|  6>    O       -1.09618         0.02271        -0.33615
|  7>    C       -0.40786        -1.12140        -0.14636
|  8>    C        0.89911        -0.85868         0.09502
|  9>    C        1.02082         0.56632         0.04673
| 10>    C        2.24548         1.30940         0.24438
| 11>    O        3.32993         0.85093         0.48689
| 12>    C        2.06703         2.85342         0.11234
| 13>    F        1.17509         3.32436         1.00228
| 14>    F        3.20349         3.51307         0.30155
| 15>    F        1.60310         3.19019        -1.10459
| 16>    H       -0.63912         2.02564        -0.34585
| 17>    H       -0.95659        -2.03978        -0.20831
| 18>    H        1.69438        -1.54830         0.28326
| 19> *
| 20>
| 21>                          ****END OF INPUT****
 Total Charge           Charge          ....    0
 Multiplicity           Mult            ....    1
 Number of Electrons    NEL             ....   82
Dispersion correction           -0.022797201
FINAL SINGLE POINT ENERGY      -679.900626253176
Dispersion correction            ... done
Dispersion correction           -0.022741717
FINAL SINGLE POINT ENERGY      -679.902767667687
Dispersion correction            ... done
Dispersion correction           -0.022710435
FINAL SINGLE POINT ENERGY      -679.902761917077
Dispersion correction            ... done
FINAL SINGLE POINT ENERGY      -679.903045465959
FINAL SINGLE POINT ENERGY      -679.903049026539
Dispersion correction            ... done
Dispersion correction           -0.022723772
FINAL SINGLE POINT ENERGY      -679.903058542187
Dispersion correction            ... done
Dispersion correction           -0.022722787
FINAL SINGLE POINT ENERGY      -679.903056967045
Dispersion correction            ... done
                    ***********************HURRAY********************

CARTESIAN COORDINATES (ANGSTROEM)
---------------------------------
  C     -0.273389    1.023638   -0.260611
  O     -1.120472   -0.012576   -0.345958
  C     -0.407645   -1.159172   -0.122034
  C      0.898993   -0.862410    0.103506
  C      0.999289    0.573744    0.017878
  C      2.229367    1.345336    0.206443
  O      3.315478    0.855966    0.412783
  C      2.094563    2.891078    0.135143
  F      1.205373    3.333241    1.045448
  F      3.256775    3.486688    0.356411
  F      1.641792    3.263525   -1.076513
  H     -0.689165    2.013667   -0.425382
  H     -0.977402   -2.083359   -0.154654
  H      1.714232   -1.548467    0.316030

 Multiplicity           Mult            ....    1
 Number of Electrons    NEL             ....   82
 Basis Dimension        Dim             ....  169

ORBITAL ENERGIES
----------------

  NO   OCC          E(Eh)            E(eV)
   0   2.0000     -24.733814      -673.0413
   1   2.0000     -24.733368      -673.0292
   2   2.0000     -24.732366      -673.0019
   3   2.0000     -19.236353      -523.4478
   4   2.0000     -19.157107      -521.2914
   5   2.0000     -10.441625      -284.1311
   6   2.0000     -10.308454      -280.5073
   7   2.0000     -10.280015      -279.7334
   8   2.0000     -10.265693      -279.3437
   9   2.0000     -10.222744      -278.1750
  10   2.0000     -10.216356      -278.0012
  11   2.0000      -1.313435       -35.7404
  12   2.0000      -1.223143       -33.2834
  13   2.0000      -1.219372       -33.1808
  14   2.0000      -1.140201       -31.0264
  15   2.0000      -1.064710       -28.9722
  16   2.0000      -0.835332       -22.7305
  17   2.0000      -0.782174       -21.2840
  18   2.0000      -0.743291       -20.2260
  19   2.0000      -0.671973       -18.2853
  20   2.0000      -0.622246       -16.9322
  21   2.0000      -0.607665       -16.5354
  22   2.0000      -0.606858       -16.5135
  23   2.0000      -0.604881       -16.4596
  24   2.0000      -0.580008       -15.7828
  25   2.0000      -0.506939       -13.7945
  26   2.0000      -0.492660       -13.4060
  27   2.0000      -0.485826       -13.2200
  28   2.0000      -0.480754       -13.0820
  29   2.0000      -0.470364       -12.7993
  30   2.0000      -0.459536       -12.5046
  31   2.0000      -0.452571       -12.3151
  32   2.0000      -0.443790       -12.0761
  33   2.0000      -0.438898       -11.9430
  34   2.0000      -0.423829       -11.5330
  35   2.0000      -0.423241       -11.5170
  36   2.0000      -0.418072       -11.3763
  37   2.0000      -0.397427       -10.8145
  38   2.0000      -0.312017        -8.4904
  39   2.0000      -0.289671        -7.8824
  40   2.0000      -0.268531        -7.3071
  41   0.0000      -0.080750        -2.1973
  42   0.0000      -0.013560        -0.3690
  43   0.0000       0.063684         1.7329
  44   0.0000       0.072520         1.9734
  45   0.0000       0.092524         2.5177

MULLIKEN ATOMIC CHARGES
-----------------------
   0 C :    0.145781
   1 O :   -0.190726
   2 C :    0.145684
   3 C :   -0.016335
   4 C :   -0.062588
   5 C :    0.047721
   6 O :   -0.155505
   7 C :    0.504214
   8 F :   -0.177911
   9 F :   -0.134310
  10 F :   -0.177581
  11 H :    0.031743
  12 H :    0.024712
  13 H :    0.015102
Sum of atomic charges:    0.0000000

LOEWDIN ATOMIC CHARGES
----------------------
   0 C :    0.076496
   1 O :    0.022224
   2 C :    0.046517
   3 C :   -0.038719
   4 C :   -0.120063
   5 C :    0.033721
   6 O :   -0.109699
   7 C :    0.142099
   8 F :   -0.065051
   9 F :   -0.028160
  10 F :   -0.064263
  11 H :    0.031571
  12 H :    0.029769
  13 H :    0.043558

  Mayer bond orders larger than 0.100000
B(  0-C ,  1-O ) :   1.2040 B(  0-C ,  4-C ) :   1.4775 B(  0-C , 11-H ) :   0.9838
B(  1-O ,  2-C ) :   1.0954 B(  2-C ,  3-C ) :   1.5769 B(  2-C , 12-H ) :   0.9992
B(  3-C ,  4-C ) :   1.2106 B(  3-C , 13-H ) :   1.0106 B(  4-C ,  5-C ) :   0.9784
B(  5-C ,  6-O ) :   2.1856 B(  5-C ,  7-C ) :   0.8728 B(  7-C ,  8-F ) :   1.1146
B(  7-C ,  9-F ) :   1.1851 B(  7-C , 10-F ) :   1.1123

Dispersion correction           -0.022723032
FINAL SINGLE POINT ENERGY      -679.903055453396

DIPOLE MOMENT
-------------
                                X             Y             Z
Electronic contribution:      4.64519      10.31006       0.40450
Nuclear contribution   :     -5.66390     -10.94628      -0.55127
                        -----------------------------------------
Total Dipole Moment    :     -1.01871      -0.63622      -0.14676
                        -----------------------------------------
Magnitude (a.u.)       :      1.21000
Magnitude (Debye)      :      3.07557

Rotational constants in cm-1:     0.078481     0.025442     0.021394
Rotational constants in MHz :  2352.799978   762.745964   641.365131

                             ****ORCA TERMINATED NORMALLY****
TOTAL RUN TIME: 0 days 0 hours 6 minutes 2 seconds 641 msec
