                         Program Version 4.2.0 -  RELEASE  -
|  1> # ORCA input file
|  2> # SCF done        -24.576330688383          0.000919293214
|  3> ! B3LYP/G D3BJ Opt RIJCOSX def2-SVP def2/J
|  4> * xyz 0 1
|  5>    C        1.15945         0.00737        -0.19965
|  6>    S        1.77678         1.63733        -0.37316
|  7>    C        2.82609         1.82217         1.03088
|  8>    C        3.48801         2.98898         1.25267
|  9>    S        4.44959         2.94164         2.67705
| 10>    C        3.95267         1.32454         2.98302
| 11>    C        3.09575         0.85413         2.03765
| 12>    S        2.45173        -0.78326         2.14340
| 13>    C        1.41114        -0.89526         0.73845
| 14>    H        0.48507        -0.22166        -1.00878
| 15>    H        3.45733         3.87353         0.65007
| 16>    H        4.31533         0.80109         3.84384
| 17>    H        0.94380        -1.86594         0.69950
| 18> *
| 19>
| 20>                          ****END OF INPUT****
 Total Charge           Charge          ....    0
 Multiplicity           Mult            ....    1
 Number of Electrons    NEL             ....   88
Dispersion correction           -0.036905426
FINAL SINGLE POINT ENERGY     -1425.114824359229
Dispersion correction            ... done
Dispersion correction           -0.036807691
FINAL SINGLE POINT ENERGY     -1425.116780699294
Dispersion correction            ... done
Dispersion correction           -0.036783789
FINAL SINGLE POINT ENERGY     -1425.116847823570
Dispersion correction            ... done
FINAL SINGLE POINT ENERGY     -1425.116850350337
FINAL SINGLE POINT ENERGY     -1425.116855662155
FINAL SINGLE POINT ENERGY     -1425.116856369476
FINAL SINGLE POINT ENERGY     -1425.116853386067
FINAL SINGLE POINT ENERGY     -1425.116801143982
FINAL SINGLE POINT ENERGY     -1425.116853288593
FINAL SINGLE POINT ENERGY     -1425.116849405304
FINAL SINGLE POINT ENERGY     -1425.116855613515
Dispersion correction            ... done
Dispersion correction           -0.036786172
FINAL SINGLE POINT ENERGY     -1425.116861731668
Dispersion correction            ... done
Dispersion correction           -0.036783736
FINAL SINGLE POINT ENERGY     -1425.116865547882
Dispersion correction            ... done
                    ***********************HURRAY********************

CARTESIAN COORDINATES (ANGSTROEM)
---------------------------------
  C      1.156239    0.004764   -0.210840
  S      1.727311    1.661462   -0.355566
  C      2.803179    1.839861    1.041364
  C      3.497021    3.007533    1.247773
  S      4.487948    2.939574    2.663961
  C      3.975678    1.319463    2.992791
  C      3.079154    0.857271    2.059411
  S      2.385679   -0.769079    2.192261
  C      1.406181   -0.905391    0.739190
  H      0.509820   -0.265332   -1.049611
  H      3.470698    3.906639    0.634477
  H      4.359448    0.785217    3.860364
  H      0.954384   -1.897322    0.659365

 Multiplicity           Mult            ....    1
 Number of Electrons    NEL             ....   88
 Basis Dimension        Dim             ....  158

ORBITAL ENERGIES
----------------

  NO   OCC          E(Eh)            E(eV)
   0   2.0000     -88.883812     -2418.6515
   1   2.0000     -88.866924     -2418.1919
   2   2.0000     -88.866833     -2418.1895
   3   2.0000     -10.234054      -278.4828
   4   2.0000     -10.233867      -278.4777
   5   2.0000     -10.224310      -278.2176
   6   2.0000     -10.223604      -278.1984
   7   2.0000     -10.222872      -278.1785
   8   2.0000     -10.222829      -278.1773
   9   2.0000      -7.978875      -217.1162
  10   2.0000      -7.961844      -216.6528
  11   2.0000      -7.961755      -216.6504
  12   2.0000      -5.947052      -161.8275
  13   2.0000      -5.943101      -161.7200
  14   2.0000      -5.939923      -161.6335
  15   2.0000      -5.931087      -161.3931
  16   2.0000      -5.930975      -161.3900
  17   2.0000      -5.926889      -161.2789
  18   2.0000      -5.926820      -161.2770
  19   2.0000      -5.920854      -161.1146
  20   2.0000      -5.920789      -161.1129
  21   2.0000      -0.901491       -24.5308
  22   2.0000      -0.839471       -22.8432
  23   2.0000      -0.798058       -21.7163
  24   2.0000      -0.755797       -20.5663
  25   2.0000      -0.716542       -19.4981
  26   2.0000      -0.668560       -18.1924
  27   2.0000      -0.588773       -16.0213
  28   2.0000      -0.583500       -15.8779
  29   2.0000      -0.513700       -13.9785
  30   2.0000      -0.499953       -13.6044
  31   2.0000      -0.474574       -12.9138
  32   2.0000      -0.450644       -12.2626
  33   2.0000      -0.418061       -11.3760
  34   2.0000      -0.413685       -11.2569
  35   2.0000      -0.374777       -10.1982
  36   2.0000      -0.365358        -9.9419
  37   2.0000      -0.354734        -9.6528
  38   2.0000      -0.353248        -9.6124
  39   2.0000      -0.336904        -9.1676
  40   2.0000      -0.315533        -8.5861
  41   2.0000      -0.281024        -7.6471
  42   2.0000      -0.236902        -6.4464
  43   2.0000      -0.189366        -5.1529
  44   0.0000      -0.028045        -0.7631
  45   0.0000      -0.013925        -0.3789
  46   0.0000       0.027227         0.7409
  47   0.0000       0.034411         0.9364
  48   0.0000       0.043224         1.1762

MULLIKEN ATOMIC CHARGES
-----------------------
   0 C :   -0.063899
   1 S :    0.067504
   2 C :   -0.013759
   3 C :   -0.123575
   4 S :    0.114424
   5 C :   -0.120626
   6 C :   -0.013552
   7 S :    0.066988
   8 C :   -0.058034
   9 H :    0.044674
  10 H :    0.030165
  11 H :    0.027182
  12 H :    0.042507
Sum of atomic charges:    0.0000000

LOEWDIN ATOMIC CHARGES
----------------------
   0 C :   -0.209738
   1 S :    0.345575
   2 C :   -0.206072
   3 C :   -0.211653
   4 S :    0.435681
   5 C :   -0.210253
   6 C :   -0.206226
   7 S :    0.345145
   8 C :   -0.208607
   9 H :    0.035588
  10 H :    0.027828
  11 H :    0.027369
  12 H :    0.035362

  Mayer bond orders larger than 0.100000
B(  0-C ,  1-S ) :   1.0418 B(  0-C ,  8-C ) :   1.8574 B(  0-C ,  9-H ) :   0.9332
B(  1-S ,  2-C ) :   0.9846 B(  2-C ,  3-C ) :   1.5894 B(  2-C ,  6-C ) :   1.2587
B(  3-C ,  4-S ) :   1.1606 B(  3-C , 10-H ) :   0.9630 B(  4-S ,  5-C ) :   1.1616
B(  5-C ,  6-C ) :   1.5854 B(  5-C , 11-H ) :   0.9643 B(  6-C ,  7-S ) :   0.9853
B(  7-S ,  8-C ) :   1.0420 B(  8-C , 12-H ) :   0.9317

Dispersion correction           -0.036783214
FINAL SINGLE POINT ENERGY     -1425.116865601433

DIPOLE MOMENT
-------------
                                X             Y             Z
Electronic contribution:      1.64654       1.91764       1.40200
Nuclear contribution   :     -1.66430      -1.97153      -1.44915
                        -----------------------------------------
Total Dipole Moment    :     -0.01776      -0.05388      -0.04715
                        -----------------------------------------
Magnitude (a.u.)       :      0.07377
Magnitude (Debye)      :      0.18751

Rotational constants in cm-1:     0.060351     0.029794     0.019953
Rotational constants in MHz :  1809.268353   893.201535   598.181140

                             ****ORCA TERMINATED NORMALLY****
TOTAL RUN TIME: 0 days 0 hours 8 minutes 37 seconds 917 msec
