                         Program Version 4.2.0 -  RELEASE  -
|  1> # ORCA input file
|  2> # SCF done        -42.570700663928          0.000544085250
|  3> ! B3LYP/G D3BJ Opt RIJCOSX def2-SVP def2/J
|  4> * xyz 0 1
|  5>    C       -2.86917         0.27691         0.16781
|  6>    C       -3.07826        -1.05554         0.13556
|  7>    S       -1.62517        -1.98041        -0.02091
|  8>    C       -0.68863        -0.51764        -0.04085
|  9>    C       -1.48923         0.63027         0.06582
| 10>    C       -0.89289         1.90836         0.01080
| 11>    C       -1.76552         3.12829         0.07793
| 12>    C        0.47877         2.03062        -0.13515
| 13>    C        1.07701         3.38872        -0.35850
| 14>    C        1.29508         0.87374        -0.13430
| 15>    C        0.68805        -0.39530        -0.13891
| 16>    S        1.83177        -1.69155        -0.29828
| 17>    C        3.12120        -0.54860        -0.31813
| 18>    C        2.72908         0.74637        -0.19322
| 19>    C        3.74288         1.79064        -0.01560
| 20>    C        3.79058         2.59440         1.03545
| 21>    H       -3.67232         0.98613         0.25290
| 22>    H       -4.01387        -1.57682         0.19182
| 23>    H       -2.71977         2.89609         0.53977
| 24>    H       -1.95938         3.51499        -0.92353
| 25>    H       -1.28902         3.91394         0.65919
| 26>    H        0.42077         3.98692        -0.98656
| 27>    H        2.04065         3.30727        -0.85022
| 28>    H        1.22047         3.91893         0.58313
| 29>    H        4.12959        -0.91108        -0.37501
| 30>    H        4.53079         1.81147        -0.75931
| 31>    H        3.03722         2.55987         1.80493
| 32>    H        4.57845         3.31720         1.16231
| 33> *
| 34>
| 35>                          ****END OF INPUT****
 Total Charge           Charge          ....    0
 Multiplicity           Mult            ....    1
 Number of Electrons    NEL             ....  128
Dispersion correction           -0.072737460
FINAL SINGLE POINT ENERGY     -1336.541616412871
Dispersion correction            ... done
Dispersion correction           -0.072061210
FINAL SINGLE POINT ENERGY     -1336.546511838957
Dispersion correction            ... done
Dispersion correction           -0.072282623
FINAL SINGLE POINT ENERGY     -1336.546349031475
Dispersion correction            ... done
FINAL SINGLE POINT ENERGY     -1336.546924968805
FINAL SINGLE POINT ENERGY     -1336.547048383677
FINAL SINGLE POINT ENERGY     -1336.547127509360
FINAL SINGLE POINT ENERGY     -1336.547198599614
FINAL SINGLE POINT ENERGY     -1336.547235128986
Dispersion correction            ... done
Dispersion correction           -0.072148729
FINAL SINGLE POINT ENERGY     -1336.547228932543
Dispersion correction            ... done
Dispersion correction           -0.072149569
FINAL SINGLE POINT ENERGY     -1336.547232851456
Dispersion correction            ... done
                    ***********************HURRAY********************

CARTESIAN COORDINATES (ANGSTROEM)
---------------------------------
  C     -2.902272    0.258313    0.163331
  C     -3.116677   -1.086607    0.111473
  S     -1.642806   -2.007839   -0.053759
  C     -0.700519   -0.537256   -0.056114
  C     -1.505707    0.615606    0.070299
  C     -0.904903    1.905833    0.037545
  C     -1.790241    3.126445    0.110193
  C      0.482544    2.036513   -0.102269
  C      1.052501    3.417802   -0.333892
  C      1.309364    0.864323   -0.121877
  C      0.687940   -0.410959   -0.156335
  S      1.822262   -1.718126   -0.373467
  C      3.138171   -0.592286   -0.369514
  C      2.766161    0.718751   -0.186450
  C      3.828759    1.710338    0.059596
  C      3.826314    2.696847    0.966975
  H     -3.714110    0.978563    0.259493
  H     -4.069284   -1.611992    0.162870
  H     -2.751976    2.897439    0.588044
  H     -2.011948    3.529950   -0.893725
  H     -1.323299    3.936686    0.686751
  H      0.385924    4.000476   -0.985246
  H      2.034741    3.380078   -0.813131
  H      1.167987    3.994225    0.599895
  H      4.160030   -0.964522   -0.434533
  H      4.750247    1.536412   -0.508771
  H      2.963580    2.899340    1.604930
  H      4.706345    3.329836    1.106630

 Multiplicity           Mult            ....    1
 Number of Electrons    NEL             ....  128
 Basis Dimension        Dim             ....  292

ORBITAL ENERGIES
----------------

  NO   OCC          E(Eh)            E(eV)
   0   2.0000     -88.872916     -2418.3550
   1   2.0000     -88.871508     -2418.3167
   2   2.0000     -10.219502      -278.0868
   3   2.0000     -10.217752      -278.0392
   4   2.0000     -10.216728      -278.0113
   5   2.0000     -10.215002      -277.9643
   6   2.0000     -10.204142      -277.6688
   7   2.0000     -10.202261      -277.6176
   8   2.0000     -10.199982      -277.5556
   9   2.0000     -10.198245      -277.5083
  10   2.0000     -10.197013      -277.4748
  11   2.0000     -10.196149      -277.4513
  12   2.0000     -10.196038      -277.4483
  13   2.0000     -10.188924      -277.2547
  14   2.0000     -10.187213      -277.2082
  15   2.0000     -10.182161      -277.0707
  16   2.0000      -7.967976      -216.8196
  17   2.0000      -7.966436      -216.7777
  18   2.0000      -5.936276      -161.5343
  19   2.0000      -5.934902      -161.4969
  20   2.0000      -5.932332      -161.4270
  21   2.0000      -5.930805      -161.3854
  22   2.0000      -5.928781      -161.3303
  23   2.0000      -5.927064      -161.2836
  24   2.0000      -0.899638       -24.4804
  25   2.0000      -0.869031       -23.6475
  26   2.0000      -0.822633       -22.3850
  27   2.0000      -0.790180       -21.5019
  28   2.0000      -0.759157       -20.6577
  29   2.0000      -0.744408       -20.2564
  30   2.0000      -0.727240       -19.7892
  31   2.0000      -0.705093       -19.1866
  32   2.0000      -0.685006       -18.6400
  33   2.0000      -0.652943       -17.7675
  34   2.0000      -0.605761       -16.4836
  35   2.0000      -0.586670       -15.9641
  36   2.0000      -0.571439       -15.5496
  37   2.0000      -0.547526       -14.8989
  38   2.0000      -0.529574       -14.4104
  39   2.0000      -0.517970       -14.0947
  40   2.0000      -0.468858       -12.7583
  41   2.0000      -0.463895       -12.6232
  42   2.0000      -0.448973       -12.2172
  43   2.0000      -0.439647       -11.9634
  44   2.0000      -0.437389       -11.9020
  45   2.0000      -0.425322       -11.5736
  46   2.0000      -0.407210       -11.0807
  47   2.0000      -0.407002       -11.0751
  48   2.0000      -0.402253       -10.9459
  49   2.0000      -0.399877       -10.8812
  50   2.0000      -0.387943       -10.5565
  51   2.0000      -0.384155       -10.4534
  52   2.0000      -0.373493       -10.1633
  53   2.0000      -0.369618       -10.0578
  54   2.0000      -0.362665        -9.8686
  55   2.0000      -0.355229        -9.6663
  56   2.0000      -0.347470        -9.4551
  57   2.0000      -0.328889        -8.9495
  58   2.0000      -0.304725        -8.2920
  59   2.0000      -0.298617        -8.1258
  60   2.0000      -0.269051        -7.3212
  61   2.0000      -0.250838        -6.8257
  62   2.0000      -0.213195        -5.8013
  63   2.0000      -0.207232        -5.6391
  64   0.0000      -0.043063        -1.1718
  65   0.0000      -0.023105        -0.6287
  66   0.0000      -0.005198        -0.1414
  67   0.0000       0.013636         0.3711
  68   0.0000       0.031235         0.8499

MULLIKEN ATOMIC CHARGES
-----------------------
   0 C :   -0.000229
   1 C :   -0.063826
   2 S :    0.105747
   3 C :   -0.122414
   4 C :    0.074655
   5 C :   -0.131900
   6 C :    0.089026
   7 C :   -0.143636
   8 C :    0.090925
   9 C :    0.096189
  10 C :   -0.145229
  11 S :    0.117283
  12 C :   -0.106906
  13 C :    0.041196
  14 C :   -0.044096
  15 C :   -0.024116
  16 H :   -0.016480
  17 H :    0.024839
  18 H :    0.009033
  19 H :    0.025269
  20 H :    0.013039
  21 H :    0.007868
  22 H :    0.022620
  23 H :    0.018269
  24 H :    0.018402
  25 H :   -0.003270
  26 H :    0.025497
  27 H :    0.022247
Sum of atomic charges:   -0.0000000

LOEWDIN ATOMIC CHARGES
----------------------
   0 C :   -0.063573
   1 C :   -0.170802
   2 S :    0.393847
   3 C :   -0.181673
   4 C :   -0.049186
   5 C :   -0.029988
   6 C :   -0.043300
   7 C :   -0.028536
   8 C :   -0.046177
   9 C :   -0.042639
  10 C :   -0.177910
  11 S :    0.407339
  12 C :   -0.172709
  13 C :   -0.060986
  14 C :   -0.024926
  15 C :   -0.049134
  16 H :    0.028681
  17 H :    0.025754
  18 H :    0.027080
  19 H :    0.034883
  20 H :    0.030370
  21 H :    0.028863
  22 H :    0.031133
  23 H :    0.030139
  24 H :    0.024560
  25 H :    0.029891
  26 H :    0.023631
  27 H :    0.025368

  Mayer bond orders larger than 0.100000
B(  0-C ,  1-C ) :   1.6162 B(  0-C ,  4-C ) :   1.1852 B(  0-C , 16-H ) :   0.9829
B(  1-C ,  2-S ) :   1.1099 B(  1-C , 17-H ) :   0.9639 B(  2-S ,  3-C ) :   1.0755
B(  3-C ,  4-C ) :   1.3493 B(  3-C , 10-C ) :   1.3973 B(  4-C ,  5-C ) :   1.2550
B(  5-C ,  6-C ) :   1.1176 B(  5-C ,  7-C ) :   1.4821 B(  6-C , 18-H ) :   0.9425
B(  6-C , 19-H ) :   0.9391 B(  6-C , 20-H ) :   0.9389 B(  7-C ,  8-C ) :   1.1329
B(  7-C ,  9-C ) :   1.2558 B(  8-C , 21-H ) :   0.9333 B(  8-C , 22-H ) :   0.9366
B(  8-C , 23-H ) :   0.9322 B(  9-C , 10-C ) :   1.3415 B(  9-C , 13-C ) :   1.1419
B( 10-C , 11-S ) :   1.0779 B( 11-S , 12-C ) :   1.1133 B( 12-C , 13-C ) :   1.5749
B( 12-C , 24-H ) :   0.9631 B( 13-C , 14-C ) :   1.0541 B( 14-C , 15-C ) :   1.9520
B( 14-C , 25-H ) :   0.9487 B( 15-C , 26-H ) :   0.9493 B( 15-C , 27-H ) :   0.9448

Dispersion correction           -0.072149105
FINAL SINGLE POINT ENERGY     -1336.547233785274

DIPOLE MOMENT
-------------
                                X             Y             Z
Electronic contribution:     -2.06198     -21.88532      -1.75635
Nuclear contribution   :      1.95161      22.36938       1.75878
                        -----------------------------------------
Total Dipole Moment    :     -0.11036       0.48406       0.00243
                        -----------------------------------------
Magnitude (a.u.)       :      0.49649
Magnitude (Debye)      :      1.26198

Rotational constants in cm-1:     0.022315     0.012936     0.008385
Rotational constants in MHz :   668.973535   387.806156   251.361215

                             ****ORCA TERMINATED NORMALLY****
TOTAL RUN TIME: 0 days 0 hours 28 minutes 27 seconds 918 msec
