                         Program Version 4.2.0 -  RELEASE  -
|  1> # ORCA input file
|  2> # SCF done        -27.450619813488          0.000399833353
|  3> ! B3LYP/G D3BJ Opt RIJCOSX def2-SVP def2/J
|  4> * xyz 0 1
|  5>    C       -1.17574        -1.34707         0.15445
|  6>    S       -2.42734        -0.16644         0.08488
|  7>    C       -1.32041         1.17645        -0.07661
|  8>    C       -0.02677         0.69567        -0.07536
|  9>    C        0.03174        -0.72777         0.05574
| 10>    O        1.31465        -1.15884         0.05278
| 11>    C        2.07326        -0.03424        -0.07791
| 12>    C        1.34321         1.10139        -0.15975
| 13>    C       -1.85053         2.50396        -0.18104
| 14>    C       -1.12757         3.61576        -0.30708
| 15>    H       -1.41144        -2.38533         0.25945
| 16>    H        3.13547        -0.18573        -0.09910
| 17>    H        1.73013         2.09324        -0.26548
| 18>    H       -2.93089         2.56255        -0.14960
| 19>    H       -0.05304         3.59683        -0.34153
| 20>    H       -1.59710         4.58055        -0.37909
| 21> *
| 22>
| 23>                          ****END OF INPUT****
 Total Charge           Charge          ....    0
 Multiplicity           Mult            ....    1
 Number of Electrons    NEL             ....   78
Dispersion correction           -0.032768190
FINAL SINGLE POINT ENERGY      -781.460500769855
Dispersion correction            ... done
Dispersion correction           -0.032623598
FINAL SINGLE POINT ENERGY      -781.462834012516
Dispersion correction            ... done
Dispersion correction           -0.032584197
FINAL SINGLE POINT ENERGY      -781.462925659804
Dispersion correction            ... done
FINAL SINGLE POINT ENERGY      -781.462931201181
Dispersion correction            ... done
Dispersion correction           -0.032556267
FINAL SINGLE POINT ENERGY      -781.462937426660
Dispersion correction            ... done
Dispersion correction           -0.032563192
FINAL SINGLE POINT ENERGY      -781.462946639729
Dispersion correction            ... done
                    ***********************HURRAY********************

CARTESIAN COORDINATES (ANGSTROEM)
---------------------------------
  C     -1.182366   -1.366997    0.154556
  S     -2.430902   -0.169751    0.086139
  C     -1.318092    1.176771   -0.076735
  C     -0.013714    0.690947   -0.075200
  C      0.028087   -0.730562    0.057820
  O      1.313368   -1.178646    0.058056
  C      2.097071   -0.059020   -0.076726
  C      1.374023    1.092507   -0.160243
  C     -1.858463    2.516852   -0.185063
  C     -1.156971    3.657862   -0.304261
  H     -1.411477   -2.423274    0.268479
  H      3.168589   -0.247384   -0.100145
  H      1.785058    2.091580   -0.274430
  H     -2.952517    2.579401   -0.162502
  H     -0.064753    3.671469   -0.334768
  H     -1.669313    4.619226   -0.380226

 Multiplicity           Mult            ....    1
 Number of Electrons    NEL             ....   78
 Basis Dimension        Dim             ....  174

ORBITAL ENERGIES
----------------

  NO   OCC          E(Eh)            E(eV)
   0   2.0000     -88.880139     -2418.5515
   1   2.0000     -19.201488      -522.4991
   2   2.0000     -10.255647      -279.0703
   3   2.0000     -10.248931      -278.8876
   4   2.0000     -10.222671      -278.1730
   5   2.0000     -10.217163      -278.0231
   6   2.0000     -10.205395      -277.7029
   7   2.0000     -10.201632      -277.6005
   8   2.0000     -10.200893      -277.5804
   9   2.0000     -10.189478      -277.2698
  10   2.0000      -7.974553      -216.9986
  11   2.0000      -5.942675      -161.7084
  12   2.0000      -5.938682      -161.5998
  13   2.0000      -5.935900      -161.5240
  14   2.0000      -1.105836       -30.0913
  15   2.0000      -0.885483       -24.0952
  16   2.0000      -0.798349       -21.7242
  17   2.0000      -0.781939       -21.2776
  18   2.0000      -0.736744       -20.0478
  19   2.0000      -0.698236       -19.0000
  20   2.0000      -0.624120       -16.9832
  21   2.0000      -0.608100       -16.5472
  22   2.0000      -0.568395       -15.4668
  23   2.0000      -0.548261       -14.9189
  24   2.0000      -0.498728       -13.5711
  25   2.0000      -0.471873       -12.8403
  26   2.0000      -0.466469       -12.6933
  27   2.0000      -0.461537       -12.5591
  28   2.0000      -0.445483       -12.1222
  29   2.0000      -0.413992       -11.2653
  30   2.0000      -0.397811       -10.8250
  31   2.0000      -0.380410       -10.3515
  32   2.0000      -0.379696       -10.3321
  33   2.0000      -0.359330        -9.7779
  34   2.0000      -0.346230        -9.4214
  35   2.0000      -0.312644        -8.5075
  36   2.0000      -0.285809        -7.7772
  37   2.0000      -0.244126        -6.6430
  38   2.0000      -0.204990        -5.5781
  39   0.0000      -0.057982        -1.5778
  40   0.0000       0.021380         0.5818
  41   0.0000       0.023781         0.6471
  42   0.0000       0.038245         1.0407
  43   0.0000       0.069005         1.8777

MULLIKEN ATOMIC CHARGES
-----------------------
   0 C :   -0.181050
   1 S :    0.111385
   2 C :   -0.179604
   3 C :    0.091488
   4 C :    0.211647
   5 O :   -0.231707
   6 C :    0.157005
   7 C :   -0.048668
   8 C :    0.053175
   9 C :   -0.042964
  10 H :    0.026753
  11 H :    0.017296
  12 H :   -0.006785
  13 H :   -0.013133
  14 H :    0.013432
  15 H :    0.021729
Sum of atomic charges:    0.0000000

LOEWDIN ATOMIC CHARGES
----------------------
   0 C :   -0.226143
   1 S :    0.447397
   2 C :   -0.187985
   3 C :   -0.072292
   4 C :    0.010695
   5 O :   -0.029358
   6 C :    0.067984
   7 C :   -0.075462
   8 C :   -0.042020
   9 C :   -0.058021
  10 H :    0.031021
  11 H :    0.026832
  12 H :    0.031722
  13 H :    0.028490
  14 H :    0.020941
  15 H :    0.026199

  Mayer bond orders larger than 0.100000
B(  0-C ,  1-S ) :   1.1377 B(  0-C ,  2-C ) :   0.1132 B(  0-C ,  4-C ) :   1.4749
B(  0-C , 10-H ) :   0.9790 B(  1-S ,  2-C ) :   1.1357 B(  2-C ,  3-C ) :   1.3968
B(  2-C ,  8-C ) :   1.1365 B(  3-C ,  4-C ) :   1.2308 B(  3-C ,  7-C ) :   1.1298
B(  4-C ,  5-O ) :   1.0963 B(  5-O ,  6-C ) :   1.0837 B(  6-C ,  7-C ) :   1.6008
B(  6-C , 11-H ) :   0.9955 B(  7-C , 12-H ) :   1.0019 B(  8-C ,  9-C ) :   1.8999
B(  8-C , 13-H ) :   0.9461 B(  9-C , 14-H ) :   0.9539 B(  9-C , 15-H ) :   0.9429

Dispersion correction           -0.032564621
FINAL SINGLE POINT ENERGY      -781.462947607248

DIPOLE MOMENT
-------------
                                X             Y             Z
Electronic contribution:     -1.83798      -6.88521       0.69950
Nuclear contribution   :      2.09894       7.02946      -0.72634
                        -----------------------------------------
Total Dipole Moment    :      0.26096       0.14425      -0.02683
                        -----------------------------------------
Magnitude (a.u.)       :      0.29939
Magnitude (Debye)      :      0.76098

Rotational constants in cm-1:     0.058892     0.039083     0.023493
Rotational constants in MHz :  1765.546405  1171.684871   704.293479

                             ****ORCA TERMINATED NORMALLY****
TOTAL RUN TIME: 0 days 0 hours 7 minutes 35 seconds 812 msec
