                         Program Version 4.2.0 -  RELEASE  -
|  1> # ORCA input file
|  2> # SCF done        -24.425306794709          0.000222056738
|  3> ! B3LYP/G D3BJ Opt RIJCOSX def2-SVP def2/J
|  4> * xyz 0 1
|  5>    C        2.16781         0.65952        -0.08524
|  6>    C        2.16061        -0.66204        -0.08506
|  7>    C        0.93714        -1.50955         0.08017
|  8>    C       -0.31901        -0.69887         0.04552
|  9>    C       -1.57916        -1.20535         0.00620
| 10>    S       -2.78036         0.02572        -0.02958
| 11>    C       -1.56580         1.24361         0.00578
| 12>    C       -0.31125         0.72342         0.04531
| 13>    C        0.95368         1.52035         0.07991
| 14>    H        3.09908         1.19750        -0.20005
| 15>    H        3.08595        -1.21018        -0.19971
| 16>    H        1.00348        -2.04902         1.03357
| 17>    H        0.91057        -2.27210        -0.70582
| 18>    H       -1.88083        -2.23402        -0.00522
| 19>    H       -1.85620         2.27552        -0.00601
| 20>    H        1.02588         2.05904         1.03332
| 21>    H        0.93543         2.28315        -0.70606
| 22> *
| 23>
| 24>                          ****END OF INPUT****
 Total Charge           Charge          ....    0
 Multiplicity           Mult            ....    1
 Number of Electrons    NEL             ....   72
Dispersion correction           -0.034663721
FINAL SINGLE POINT ENERGY      -707.535148946288
Dispersion correction            ... done
Dispersion correction           -0.034487837
FINAL SINGLE POINT ENERGY      -707.537634558410
Dispersion correction            ... done
Dispersion correction           -0.034458328
FINAL SINGLE POINT ENERGY      -707.537767272981
Dispersion correction            ... done
FINAL SINGLE POINT ENERGY      -707.537827309855
FINAL SINGLE POINT ENERGY      -707.537860476416
FINAL SINGLE POINT ENERGY      -707.537881911724
FINAL SINGLE POINT ENERGY      -707.537899100421
FINAL SINGLE POINT ENERGY      -707.537907335576
Dispersion correction            ... done
Dispersion correction           -0.034458890
FINAL SINGLE POINT ENERGY      -707.537911074664
Dispersion correction            ... done
Dispersion correction           -0.034453351
FINAL SINGLE POINT ENERGY      -707.537927076619
Dispersion correction            ... done
                    ***********************HURRAY********************

CARTESIAN COORDINATES (ANGSTROEM)
---------------------------------
  C      2.187275    0.667430    0.000455
  C      2.180029   -0.670074    0.000641
  C      0.938215   -1.519400   -0.011591
  C     -0.329744   -0.706269    0.025897
  C     -1.605146   -1.218281    0.067956
  S     -2.802931    0.025976    0.107905
  C     -1.591491    1.256852    0.067967
  C     -0.321878    0.730740    0.025870
  C      0.954730    1.530085   -0.011986
  H      3.147428    1.193667    0.006891
  H      3.134434   -1.206568    0.007218
  H      0.965323   -2.221343    0.843098
  H      0.949375   -2.166614   -0.909454
  H     -1.903226   -2.265803    0.076948
  H     -1.878043    2.307591    0.076905
  H      0.989722    2.231973    0.842432
  H      0.972948    2.176738   -0.910122

 Multiplicity           Mult            ....    1
 Number of Electrons    NEL             ....   72
 Basis Dimension        Dim             ....  170

ORBITAL ENERGIES
----------------

  NO   OCC          E(Eh)            E(eV)
   0   2.0000     -88.866768     -2418.1877
   1   2.0000     -10.201783      -277.6046
   2   2.0000     -10.201728      -277.6031
   3   2.0000     -10.197101      -277.4772
   4   2.0000     -10.197047      -277.4758
   5   2.0000     -10.190375      -277.2942
   6   2.0000     -10.190178      -277.2888
   7   2.0000     -10.186747      -277.1955
   8   2.0000     -10.186052      -277.1766
   9   2.0000      -7.961776      -216.6509
  10   2.0000      -5.929809      -161.3583
  11   2.0000      -5.925743      -161.2477
  12   2.0000      -5.923376      -161.1833
  13   2.0000      -0.876787       -23.8586
  14   2.0000      -0.811091       -22.0709
  15   2.0000      -0.757327       -20.6079
  16   2.0000      -0.724511       -19.7150
  17   2.0000      -0.686549       -18.6819
  18   2.0000      -0.635618       -17.2960
  19   2.0000      -0.564587       -15.3632
  20   2.0000      -0.555153       -15.1065
  21   2.0000      -0.503066       -13.6891
  22   2.0000      -0.479025       -13.0349
  23   2.0000      -0.446555       -12.1514
  24   2.0000      -0.441798       -12.0219
  25   2.0000      -0.418215       -11.3802
  26   2.0000      -0.417279       -11.3547
  27   2.0000      -0.402535       -10.9535
  28   2.0000      -0.397540       -10.8176
  29   2.0000      -0.362719        -9.8701
  30   2.0000      -0.349483        -9.5099
  31   2.0000      -0.334550        -9.1036
  32   2.0000      -0.334337        -9.0978
  33   2.0000      -0.255989        -6.9658
  34   2.0000      -0.233137        -6.3440
  35   2.0000      -0.229254        -6.2383
  36   0.0000      -0.015190        -0.4133
  37   0.0000       0.019002         0.5171
  38   0.0000       0.054933         1.4948
  39   0.0000       0.056198         1.5292
  40   0.0000       0.061607         1.6764

MULLIKEN ATOMIC CHARGES
-----------------------
   0 C :   -0.098884
   1 C :   -0.098336
   2 C :    0.227003
   3 C :   -0.060000
   4 C :   -0.144030
   5 S :    0.095277
   6 C :   -0.144286
   7 C :   -0.059295
   8 C :    0.227059
   9 H :   -0.014945
  10 H :   -0.014823
  11 H :    0.017131
  12 H :    0.018084
  13 H :    0.007426
  14 H :    0.007524
  15 H :    0.017060
  16 H :    0.018035
Sum of atomic charges:    0.0000000

LOEWDIN ATOMIC CHARGES
----------------------
   0 C :   -0.040335
   1 C :   -0.040291
   2 C :   -0.026423
   3 C :   -0.063485
   4 C :   -0.204383
   5 S :    0.425944
   6 C :   -0.204452
   7 C :   -0.063456
   8 C :   -0.026399
   9 H :    0.023748
  10 H :    0.023772
  11 H :    0.038375
  12 H :    0.038971
  13 H :    0.020526
  14 H :    0.020557
  15 H :    0.038364
  16 H :    0.038968

  Mayer bond orders larger than 0.100000
B(  0-C ,  1-C ) :   1.9358 B(  0-C ,  8-C ) :   1.0229 B(  0-C ,  9-H ) :   0.9653
B(  1-C ,  2-C ) :   1.0228 B(  1-C , 10-H ) :   0.9653 B(  2-C ,  3-C ) :   1.0353
B(  2-C , 11-H ) :   0.8973 B(  2-C , 12-H ) :   0.8925 B(  3-C ,  4-C ) :   1.5506
B(  3-C ,  7-C ) :   1.3156 B(  4-C ,  5-S ) :   1.1656 B(  4-C , 13-H ) :   0.9674
B(  5-S ,  6-C ) :   1.1656 B(  6-C ,  7-C ) :   1.5506 B(  6-C , 14-H ) :   0.9673
B(  7-C ,  8-C ) :   1.0354 B(  8-C , 15-H ) :   0.8973 B(  8-C , 16-H ) :   0.8925

Dispersion correction           -0.034451434
FINAL SINGLE POINT ENERGY      -707.537929245670

DIPOLE MOMENT
-------------
                                X             Y             Z
Electronic contribution:     -8.77694       0.04795       0.25502
Nuclear contribution   :      9.05416      -0.04950      -0.27198
                        -----------------------------------------
Total Dipole Moment    :      0.27722      -0.00155      -0.01696
                        -----------------------------------------
Magnitude (a.u.)       :      0.27774
Magnitude (Debye)      :      0.70596

Rotational constants in cm-1:     0.110999     0.036302     0.027637
Rotational constants in MHz :  3327.662853  1088.299168   828.524099

                             ****ORCA TERMINATED NORMALLY****
TOTAL RUN TIME: 0 days 0 hours 11 minutes 29 seconds 656 msec
