                         Program Version 4.2.0 -  RELEASE  -
|  1> # ORCA input file
|  2> # SCF done        -31.560558680644          0.000320868933
|  3> ! B3LYP/G D3BJ Opt RIJCOSX def2-SVP def2/J
|  4> * xyz 0 1
|  5>    C       -1.19794         1.35857        -0.17574
|  6>    C       -2.31317         0.56638        -0.09879
|  7>    N       -2.27785        -0.75417         0.08715
|  8>    C       -1.13061        -1.39058         0.21290
|  9>    C        0.10983        -0.67763         0.14814
| 10>    C        0.05637         0.73177        -0.05200
| 11>    N        1.18838         1.46728        -0.12476
| 12>    C        2.32085         0.83352        -0.00404
| 13>    C        2.37710        -0.56174         0.19363
| 14>    N        1.30063        -1.29615         0.26689
| 15>    C       -1.25997        -2.82513         0.41219
| 16>    C       -0.27749        -3.69981         0.60071
| 17>    H       -1.24597         2.42456        -0.32550
| 18>    H       -3.30804         0.98338        -0.18681
| 19>    H        3.22204         1.42952        -0.06432
| 20>    H        3.32308        -1.07800         0.29150
| 21>    H       -2.29310        -3.14827         0.40141
| 22>    H        0.75443        -3.39820         0.61828
| 23>    H       -0.49165        -4.74622         0.74246
| 24> *
| 25>
| 26>                          ****END OF INPUT****
 Total Charge           Charge          ....    0
 Multiplicity           Mult            ....    1
 Number of Electrons    NEL             ....   82
Dispersion correction           -0.040127819
FINAL SINGLE POINT ENERGY      -511.062334806937
Dispersion correction            ... done
Dispersion correction           -0.039707622
FINAL SINGLE POINT ENERGY      -511.065370110735
Dispersion correction            ... done
Dispersion correction           -0.039765575
FINAL SINGLE POINT ENERGY      -511.065554589902
Dispersion correction            ... done
Dispersion correction           -0.039770655
FINAL SINGLE POINT ENERGY      -511.065594626887
Dispersion correction            ... done
Dispersion correction           -0.039765466
FINAL SINGLE POINT ENERGY      -511.065598623444
Dispersion correction            ... done
                    ***********************HURRAY********************

CARTESIAN COORDINATES (ANGSTROEM)
---------------------------------
  C     -1.208739    1.372496   -0.188582
  C     -2.328457    0.574988   -0.097984
  N     -2.289433   -0.759530    0.102515
  C     -1.128970   -1.391857    0.233775
  C      0.114358   -0.657319    0.167742
  C      0.057811    0.754461   -0.059608
  N      1.194606    1.498674   -0.153581
  C      2.333399    0.862409   -0.016803
  C      2.394459   -0.538804    0.223453
  N      1.311949   -1.276038    0.313355
  C     -1.247176   -2.844372    0.435619
  C     -0.285724   -3.770248    0.570171
  H     -1.261230    2.447823   -0.364865
  H     -3.328235    1.012013   -0.195619
  H      3.258063    1.446803   -0.094324
  H      3.363628   -1.037058    0.342512
  H     -2.297701   -3.149627    0.463935
  H      0.771572   -3.507941    0.550734
  H     -0.567262   -4.817793    0.710856

 Multiplicity           Mult            ....    1
 Number of Electrons    NEL             ....   82
 Basis Dimension        Dim             ....  203

ORBITAL ENERGIES
----------------

  NO   OCC          E(Eh)            E(eV)
   0   2.0000     -14.356570      -390.6621
   1   2.0000     -14.353761      -390.5857
   2   2.0000     -14.330576      -389.9548
   3   2.0000     -10.251864      -278.9674
   4   2.0000     -10.250587      -278.9326
   5   2.0000     -10.249685      -278.9081
   6   2.0000     -10.246964      -278.8341
   7   2.0000     -10.245636      -278.7979
   8   2.0000     -10.233791      -278.4756
   9   2.0000     -10.206374      -277.7296
  10   2.0000     -10.192899      -277.3629
  11   2.0000     -10.189416      -277.2681
  12   2.0000      -0.994940       -27.0737
  13   2.0000      -0.943622       -25.6773
  14   2.0000      -0.920823       -25.0569
  15   2.0000      -0.806194       -21.9376
  16   2.0000      -0.794075       -21.6079
  17   2.0000      -0.742058       -20.1924
  18   2.0000      -0.690237       -18.7823
  19   2.0000      -0.674537       -18.3551
  20   2.0000      -0.636616       -17.3232
  21   2.0000      -0.575208       -15.6522
  22   2.0000      -0.555831       -15.1249
  23   2.0000      -0.550673       -14.9846
  24   2.0000      -0.523945       -14.2573
  25   2.0000      -0.479419       -13.0456
  26   2.0000      -0.466307       -12.6889
  27   2.0000      -0.458619       -12.4797
  28   2.0000      -0.457924       -12.4607
  29   2.0000      -0.437816       -11.9136
  30   2.0000      -0.427882       -11.6433
  31   2.0000      -0.397186       -10.8080
  32   2.0000      -0.391102       -10.6424
  33   2.0000      -0.364794        -9.9265
  34   2.0000      -0.363969        -9.9041
  35   2.0000      -0.321055        -8.7364
  36   2.0000      -0.304928        -8.2975
  37   2.0000      -0.292834        -7.9684
  38   2.0000      -0.270919        -7.3721
  39   2.0000      -0.255955        -6.9649
  40   2.0000      -0.243430        -6.6241
  41   0.0000      -0.097167        -2.6441
  42   0.0000      -0.049632        -1.3505
  43   0.0000      -0.033081        -0.9002
  44   0.0000       0.038438         1.0459
  45   0.0000       0.068368         1.8604

MULLIKEN ATOMIC CHARGES
-----------------------
   0 C :   -0.005414
   1 C :    0.056480
   2 N :   -0.087627
   3 C :   -0.016192
   4 C :   -0.030319
   5 C :    0.025576
   6 N :   -0.049043
   7 C :    0.039923
   8 C :    0.041639
   9 N :   -0.044188
  10 C :   -0.001301
  11 C :    0.011083
  12 H :   -0.013311
  13 H :    0.004868
  14 H :    0.013347
  15 H :    0.008825
  16 H :   -0.011776
  17 H :    0.035147
  18 H :    0.022283
Sum of atomic charges:    0.0000000

LOEWDIN ATOMIC CHARGES
----------------------
   0 C :   -0.038099
   1 C :    0.024236
   2 N :   -0.075269
   3 C :    0.022143
   4 C :   -0.020238
   5 C :    0.003460
   6 N :   -0.047459
   7 C :    0.014136
   8 C :    0.005618
   9 N :   -0.032345
  10 C :   -0.035055
  11 C :   -0.017428
  12 H :    0.037139
  13 H :    0.024697
  14 H :    0.026993
  15 H :    0.025792
  16 H :    0.032507
  17 H :    0.023166
  18 H :    0.026007

  Mayer bond orders larger than 0.100000
B(  0-C ,  1-C ) :   1.4469 B(  0-C ,  5-C ) :   1.2779 B(  0-C , 12-H ) :   0.9711
B(  1-C ,  2-N ) :   1.4130 B(  1-C , 13-H ) :   0.9686 B(  2-N ,  3-C ) :   1.6152
B(  3-C ,  4-C ) :   1.1378 B(  3-C , 10-C ) :   1.1181 B(  4-C ,  5-C ) :   1.2300
B(  4-C ,  9-N ) :   1.4554 B(  5-C ,  6-N ) :   1.4051 B(  6-N ,  7-C ) :   1.6536
B(  7-C ,  8-C ) :   1.2264 B(  7-C , 14-H ) :   0.9657 B(  8-C ,  9-N ) :   1.6297
B(  8-C , 15-H ) :   0.9658 B( 10-C , 11-C ) :   1.8984 B( 10-C , 16-H ) :   0.9403
B( 11-C , 17-H ) :   0.9260 B( 11-C , 18-H ) :   0.9368

Dispersion correction           -0.039764883
FINAL SINGLE POINT ENERGY      -511.065599841036

DIPOLE MOMENT
-------------
                                X             Y             Z
Electronic contribution:      0.25930       3.87819      -0.49229
Nuclear contribution   :      0.47257      -3.66569       0.47590
                        -----------------------------------------
Total Dipole Moment    :      0.73187       0.21249      -0.01639
                        -----------------------------------------
Magnitude (a.u.)       :      0.76227
Magnitude (Debye)      :      1.93753

Rotational constants in cm-1:     0.048119     0.034739     0.020177
Rotational constants in MHz :  1442.573791  1041.457789   604.884495

                             ****ORCA TERMINATED NORMALLY****
TOTAL RUN TIME: 0 days 0 hours 6 minutes 55 seconds 594 msec
