                         Program Version 4.2.0 -  RELEASE  -
|  1> # ORCA input file
|  2> # SCF done        -28.098080808648          0.000500619281
|  3> ! B3LYP/G D3BJ Opt RIJCOSX def2-SVP def2/J
|  4> * xyz 0 1
|  5>    C       -0.33077         0.98691        -0.07111
|  6>    O       -1.09144        -0.10516        -0.03844
|  7>    C       -0.26850        -1.16754         0.05466
|  8>    C        1.02899        -0.77083         0.08282
|  9>    C        0.99758         0.65179         0.00071
| 10>    C        2.12344         1.58993        -0.01141
| 11>    O        2.01673         2.78844        -0.10185
| 12>    O        3.30011         0.95362         0.09581
| 13>    C        4.45546         1.77764         0.08995
| 14>    H       -0.80826         1.94360        -0.14396
| 15>    H       -0.72276        -2.13769         0.09164
| 16>    H        1.90319        -1.38281         0.15160
| 17>    H        5.28542         1.14408         0.39293
| 18>    H        4.33092         2.61093         0.78449
| 19>    H        4.62834         2.17806        -0.91145
| 20> *
| 21>
| 22>                          ****END OF INPUT****
 Total Charge           Charge          ....    0
 Multiplicity           Mult            ....    1
 Number of Electrons    NEL             ....   66
Dispersion correction           -0.021996894
FINAL SINGLE POINT ENERGY      -457.588160491417
Dispersion correction            ... done
Dispersion correction           -0.022007573
FINAL SINGLE POINT ENERGY      -457.589717847475
Dispersion correction            ... done
Dispersion correction           -0.022012490
FINAL SINGLE POINT ENERGY      -457.589826654093
Dispersion correction            ... done
FINAL SINGLE POINT ENERGY      -457.589852024784
FINAL SINGLE POINT ENERGY      -457.589866029967
FINAL SINGLE POINT ENERGY      -457.589900394076
FINAL SINGLE POINT ENERGY      -457.589914799141
FINAL SINGLE POINT ENERGY      -457.589929215087
Dispersion correction            ... done
Dispersion correction           -0.022018126
FINAL SINGLE POINT ENERGY      -457.589937012212
Dispersion correction            ... done
Dispersion correction           -0.022018126
FINAL SINGLE POINT ENERGY      -457.589940734363
Dispersion correction            ... done
                    ***********************HURRAY********************

CARTESIAN COORDINATES (ANGSTROEM)
---------------------------------
  C     -0.322790    0.997028   -0.078909
  O     -1.098607   -0.101652   -0.029774
  C     -0.278535   -1.188267    0.066111
  C      1.025084   -0.793575    0.082971
  C      1.001177    0.642476   -0.012915
  C      2.126120    1.590647   -0.038373
  O      2.026194    2.786046   -0.193960
  O      3.305637    0.961331    0.140179
  C      4.463144    1.791781    0.110890
  H     -0.820371    1.959116   -0.158661
  H     -0.774138   -2.153686    0.114854
  H      1.909089   -1.420540    0.152638
  H      5.315677    1.133664    0.317943
  H      4.394162    2.586699    0.868052
  H      4.576607    2.269904   -0.874655

 Multiplicity           Mult            ....    1
 Number of Electrons    NEL             ....   66
 Basis Dimension        Dim             ....  156

ORBITAL ENERGIES
----------------

  NO   OCC          E(Eh)            E(eV)
   0   2.0000     -19.217724      -522.9409
   1   2.0000     -19.178377      -521.8702
   2   2.0000     -19.118742      -520.2474
   3   2.0000     -10.316024      -280.7133
   4   2.0000     -10.255831      -279.0754
   5   2.0000     -10.249249      -278.8963
   6   2.0000     -10.245906      -278.8053
   7   2.0000     -10.202818      -277.6328
   8   2.0000     -10.200837      -277.5789
   9   2.0000      -1.121159       -30.5083
  10   2.0000      -1.096034       -29.8246
  11   2.0000      -1.004652       -27.3380
  12   2.0000      -0.816558       -22.2197
  13   2.0000      -0.759605       -20.6699
  14   2.0000      -0.729678       -19.8556
  15   2.0000      -0.635759       -17.2999
  16   2.0000      -0.589645       -16.0451
  17   2.0000      -0.570266       -15.5177
  18   2.0000      -0.546938       -14.8829
  19   2.0000      -0.488116       -13.2823
  20   2.0000      -0.483342       -13.1524
  21   2.0000      -0.469107       -12.7650
  22   2.0000      -0.468495       -12.7484
  23   2.0000      -0.452021       -12.3001
  24   2.0000      -0.421934       -11.4814
  25   2.0000      -0.416911       -11.3447
  26   2.0000      -0.401461       -10.9243
  27   2.0000      -0.384335       -10.4583
  28   2.0000      -0.360294        -9.8041
  29   2.0000      -0.306330        -8.3357
  30   2.0000      -0.294735        -8.0202
  31   2.0000      -0.280522        -7.6334
  32   2.0000      -0.248666        -6.7666
  33   0.0000      -0.034229        -0.9314
  34   0.0000       0.009880         0.2688
  35   0.0000       0.073235         1.9928
  36   0.0000       0.084397         2.2966
  37   0.0000       0.105869         2.8808

MULLIKEN ATOMIC CHARGES
-----------------------
   0 C :    0.122443
   1 O :   -0.198266
   2 C :    0.138849
   3 C :   -0.009933
   4 C :   -0.045633
   5 C :    0.205417
   6 O :   -0.221980
   7 O :   -0.312464
   8 C :    0.201088
   9 H :    0.023793
  10 H :    0.014507
  11 H :   -0.000523
  12 H :    0.026096
  13 H :    0.031597
  14 H :    0.025008
Sum of atomic charges:   -0.0000000

LOEWDIN ATOMIC CHARGES
----------------------
   0 C :    0.076252
   1 O :    0.015509
   2 C :    0.035646
   3 C :   -0.053286
   4 C :   -0.117946
   5 C :    0.084180
   6 O :   -0.185189
   7 O :   -0.100262
   8 C :    0.084876
   9 H :    0.032672
  10 H :    0.025043
  11 H :    0.036651
  12 H :    0.023017
  13 H :    0.021824
  14 H :    0.021013

  Mayer bond orders larger than 0.100000
B(  0-C ,  1-O ) :   1.1806 B(  0-C ,  4-C ) :   1.5090 B(  0-C ,  9-H ) :   1.0027
B(  1-O ,  2-C ) :   1.1120 B(  2-C ,  3-C ) :   1.5579 B(  2-C , 10-H ) :   0.9981
B(  3-C ,  4-C ) :   1.2133 B(  3-C , 11-H ) :   1.0093 B(  4-C ,  5-C ) :   0.9650
B(  5-C ,  6-O ) :   2.1047 B(  5-C ,  7-O ) :   1.2148 B(  7-O ,  8-C ) :   0.9260
B(  8-C , 12-H ) :   0.9790 B(  8-C , 13-H ) :   0.9727 B(  8-C , 14-H ) :   0.9741

Dispersion correction           -0.022018093
FINAL SINGLE POINT ENERGY      -457.589942724732

DIPOLE MOMENT
-------------
                                X             Y             Z
Electronic contribution:     -5.39662      -0.38907      -0.26583
Nuclear contribution   :      5.72150      -0.30655       0.36392
                        -----------------------------------------
Total Dipole Moment    :      0.32488      -0.69562       0.09809
                        -----------------------------------------
Magnitude (a.u.)       :      0.77399
Magnitude (Debye)      :      1.96732

Rotational constants in cm-1:     0.154870     0.034257     0.028216
Rotational constants in MHz :  4642.874533  1026.992046   845.887896

                             ****ORCA TERMINATED NORMALLY****
TOTAL RUN TIME: 0 days 0 hours 6 minutes 55 seconds 983 msec
