                         Program Version 4.2.0 -  RELEASE  -
|  1> # ORCA input file
|  2> # SCF done        -41.330617452028          0.000313754525
|  3> ! B3LYP/G D3BJ Opt RIJCOSX def2-SVP def2/J
|  4> * xyz 0 1
|  5>    C        1.58125         1.16455         0.08973
|  6>    S        2.68741        -0.12104         0.35847
|  7>    C        1.40598        -1.26513         0.33134
|  8>    C        0.19531        -0.68354         0.12515
|  9>    C        0.29816         0.72861        -0.01654
| 10>    C       -0.88369         1.60790        -0.29338
| 11>    C       -2.20309         0.89358         0.01984
| 12>    C       -2.47856         0.92761         1.51856
| 13>    F       -2.78618         2.17631         1.91928
| 14>    F       -3.52801         0.15927         1.86020
| 15>    F       -1.45915         0.53716         2.29196
| 16>    C       -2.20233        -0.53322        -0.53912
| 17>    C       -1.11776        -1.40177         0.09637
| 18>    H        1.94445         2.17070         0.02397
| 19>    H        1.62247        -2.30468         0.47565
| 20>    H       -0.88446         1.88180        -1.35274
| 21>    H       -0.80887         2.53341         0.28272
| 22>    H       -3.03325         1.45287        -0.42712
| 23>    H       -2.02884        -0.46249        -1.61471
| 24>    H       -3.18001        -0.99221        -0.38266
| 25>    H       -1.02266        -2.33685        -0.45938
| 26>    H       -1.40206        -1.66386         1.11970
| 27> *
| 28>
| 29>                          ****END OF INPUT****
 Total Charge           Charge          ....    0
 Multiplicity           Mult            ....    1
 Number of Electrons    NEL             ....  106
Dispersion correction           -0.046538213
FINAL SINGLE POINT ENERGY     -1045.564215881615
Dispersion correction            ... done
Dispersion correction           -0.046028550
FINAL SINGLE POINT ENERGY     -1045.567130526954
Dispersion correction            ... done
Dispersion correction           -0.045973723
FINAL SINGLE POINT ENERGY     -1045.567308862586
Dispersion correction            ... done
FINAL SINGLE POINT ENERGY     -1045.567330587771
FINAL SINGLE POINT ENERGY     -1045.567337970104
FINAL SINGLE POINT ENERGY     -1045.567345754522
FINAL SINGLE POINT ENERGY     -1045.567334662545
FINAL SINGLE POINT ENERGY     -1045.567321837447
FINAL SINGLE POINT ENERGY     -1045.567304340538
FINAL SINGLE POINT ENERGY     -1045.567286770496
FINAL SINGLE POINT ENERGY     -1045.567247501545
FINAL SINGLE POINT ENERGY     -1045.567191599972
FINAL SINGLE POINT ENERGY     -1045.566904910018
FINAL SINGLE POINT ENERGY     -1045.567055936770
FINAL SINGLE POINT ENERGY     -1045.566950852101
Dispersion correction            ... done
Dispersion correction           -0.045686365
FINAL SINGLE POINT ENERGY     -1045.566813331102
Dispersion correction            ... done
Dispersion correction           -0.045708291
FINAL SINGLE POINT ENERGY     -1045.566919658238
Dispersion correction            ... done
                    ***********************HURRAY********************

CARTESIAN COORDINATES (ANGSTROEM)
---------------------------------
  C      1.612278    1.196201    0.147415
  S      2.747675   -0.089171    0.356368
  C      1.493408   -1.273804    0.258116
  C      0.254575   -0.703401    0.082257
  C      0.327665    0.730420    0.003432
  C     -0.880784    1.583267   -0.281133
  C     -2.209885    0.878628    0.049248
  C     -2.568298    1.006201    1.520376
  F     -2.594524    2.299219    1.900292
  F     -3.793294    0.501596    1.767345
  F     -1.705402    0.374678    2.337800
  C     -2.222162   -0.575978   -0.456223
  C     -1.060358   -1.441191    0.059891
  H      1.951647    2.230914    0.124376
  H      1.734790   -2.331224    0.357927
  H     -0.902254    1.830340   -1.356865
  H     -0.818433    2.544018    0.248899
  H     -3.020474    1.423934   -0.458887
  H     -2.182345   -0.527967   -1.557025
  H     -3.181263   -1.050132   -0.197936
  H     -0.979804   -2.348672   -0.559365
  H     -1.286651   -1.788895    1.080981

 Multiplicity           Mult            ....    1
 Number of Electrons    NEL             ....  106
 Basis Dimension        Dim             ....  231

ORBITAL ENERGIES
----------------

  NO   OCC          E(Eh)            E(eV)
   0   2.0000     -88.869711     -2418.2678
   1   2.0000     -24.716541      -672.5713
   2   2.0000     -24.715900      -672.5538
   3   2.0000     -24.714898      -672.5266
   4   2.0000     -10.425575      -283.6943
   5   2.0000     -10.220031      -278.1012
   6   2.0000     -10.206497      -277.7329
   7   2.0000     -10.205567      -277.7076
   8   2.0000     -10.205051      -277.6936
   9   2.0000     -10.204671      -277.6832
  10   2.0000     -10.197946      -277.5002
  11   2.0000     -10.194709      -277.4121
  12   2.0000     -10.193528      -277.3800
  13   2.0000      -7.964781      -216.7327
  14   2.0000      -5.932873      -161.4417
  15   2.0000      -5.928722      -161.3287
  16   2.0000      -5.926298      -161.2628
  17   2.0000      -1.293994       -35.2114
  18   2.0000      -1.202312       -32.7166
  19   2.0000      -1.201275       -32.6883
  20   2.0000      -0.882224       -24.0065
  21   2.0000      -0.836930       -22.7740
  22   2.0000      -0.770128       -20.9562
  23   2.0000      -0.748261       -20.3612
  24   2.0000      -0.706241       -19.2178
  25   2.0000      -0.682483       -18.5713
  26   2.0000      -0.640182       -17.4202
  27   2.0000      -0.615992       -16.7620
  28   2.0000      -0.591126       -16.0854
  29   2.0000      -0.587198       -15.9785
  30   2.0000      -0.568817       -15.4783
  31   2.0000      -0.546425       -14.8690
  32   2.0000      -0.504616       -13.7313
  33   2.0000      -0.490436       -13.3455
  34   2.0000      -0.469590       -12.7782
  35   2.0000      -0.465822       -12.6757
  36   2.0000      -0.463682       -12.6174
  37   2.0000      -0.451197       -12.2777
  38   2.0000      -0.435376       -11.8472
  39   2.0000      -0.421244       -11.4626
  40   2.0000      -0.419821       -11.4239
  41   2.0000      -0.411282       -11.1915
  42   2.0000      -0.405885       -11.0447
  43   2.0000      -0.402946       -10.9647
  44   2.0000      -0.401425       -10.9233
  45   2.0000      -0.397465       -10.8156
  46   2.0000      -0.357211        -9.7202
  47   2.0000      -0.347771        -9.4633
  48   2.0000      -0.344946        -9.3865
  49   2.0000      -0.342637        -9.3236
  50   2.0000      -0.333175        -9.0661
  51   2.0000      -0.241206        -6.5635
  52   2.0000      -0.232395        -6.3238
  53   0.0000      -0.018980        -0.5165
  54   0.0000       0.036417         0.9909
  55   0.0000       0.051294         1.3958
  56   0.0000       0.057094         1.5536
  57   0.0000       0.077731         2.1152

MULLIKEN ATOMIC CHARGES
-----------------------
   0 C :   -0.141719
   1 S :    0.096676
   2 C :   -0.145726
   3 C :   -0.028533
   4 C :   -0.043887
   5 C :    0.157124
   6 C :   -0.151008
   7 C :    0.512088
   8 F :   -0.178510
   9 F :   -0.176965
  10 F :   -0.171521
  11 C :    0.022355
  12 C :    0.135851
  13 H :    0.010196
  14 H :    0.010347
  15 H :    0.018405
  16 H :    0.009054
  17 H :    0.017842
  18 H :    0.013377
  19 H :    0.009538
  20 H :    0.003310
  21 H :    0.021705
Sum of atomic charges:   -0.0000000

LOEWDIN ATOMIC CHARGES
----------------------
   0 C :   -0.202723
   1 S :    0.428003
   2 C :   -0.202285
   3 C :   -0.067695
   4 C :   -0.071597
   5 C :   -0.014090
   6 C :   -0.066463
   7 C :    0.172142
   8 F :   -0.068972
   9 F :   -0.069536
  10 F :   -0.062043
  11 C :   -0.020653
  12 C :   -0.025872
  13 H :    0.021518
  14 H :    0.021378
  15 H :    0.037106
  16 H :    0.031445
  17 H :    0.041225
  18 H :    0.028912
  19 H :    0.027032
  20 H :    0.031775
  21 H :    0.031391

  Mayer bond orders larger than 0.100000
B(  0-C ,  1-S ) :   1.1622 B(  0-C ,  4-C ) :   1.5520 B(  0-C , 13-H ) :   0.9663
B(  1-S ,  2-C ) :   1.1650 B(  2-C ,  3-C ) :   1.5536 B(  2-C , 14-H ) :   0.9664
B(  3-C ,  4-C ) :   1.2929 B(  3-C , 12-C ) :   1.0381 B(  4-C ,  5-C ) :   1.0341
B(  5-C ,  6-C ) :   1.0481 B(  5-C , 15-H ) :   0.9111 B(  5-C , 16-H ) :   0.9150
B(  6-C ,  7-C ) :   0.9819 B(  6-C , 11-C ) :   1.0471 B(  6-C , 17-H ) :   0.8925
B(  7-C ,  8-F ) :   1.1193 B(  7-C ,  9-F ) :   1.1273 B(  7-C , 10-F ) :   1.1332
B( 11-C , 12-C ) :   1.0869 B( 11-C , 18-H ) :   0.9380 B( 11-C , 19-H ) :   0.9315
B( 12-C , 20-H ) :   0.9157 B( 12-C , 21-H ) :   0.9149

Dispersion correction           -0.045706271
FINAL SINGLE POINT ENERGY     -1045.566912587713

DIPOLE MOMENT
-------------
                                X             Y             Z
Electronic contribution:     -3.10854       4.85628      10.75804
Nuclear contribution   :      3.02891      -4.98564     -11.56903
                        -----------------------------------------
Total Dipole Moment    :     -0.07962      -0.12936      -0.81098
                        -----------------------------------------
Magnitude (a.u.)       :      0.82509
Magnitude (Debye)      :      2.09721

Rotational constants in cm-1:     0.049667     0.014994     0.013738
Rotational constants in MHz :  1488.980124   449.494331   411.860325

                             ****ORCA TERMINATED NORMALLY****
TOTAL RUN TIME: 0 days 0 hours 25 minutes 51 seconds 652 msec
