                         Program Version 4.2.0 -  RELEASE  -
|  1> # ORCA input file
|  2> # SCF done        -21.539241962616          0.000550081273
|  3> ! B3LYP/G D3BJ Opt RIJCOSX def2-SVP def2/J
|  4> * xyz 0 1
|  5>    C       -1.28839        -1.24128        -0.00329
|  6>    S       -2.44259         0.03729        -0.00174
|  7>    C       -1.22941         1.26748        -0.00069
|  8>    C        0.00455         0.69438        -0.00152
|  9>    C       -0.01658        -0.74528        -0.00301
| 10>    C        1.34929        -1.16545        -0.00374
| 11>    C        2.10348        -0.03701        -0.00264
| 12>    N        1.31284         1.09097        -0.00137
| 13>    H       -1.62851        -2.25635        -0.00429
| 14>    H       -1.51795         2.29814         0.00043
| 15>    H        1.70653        -2.17512        -0.00490
| 16>    H        3.17326         0.05878        -0.00271
| 17>    H        1.64682         2.03773        -0.00037
| 18> *
| 19>
| 20>                          ****END OF INPUT****
 Total Charge           Charge          ....    0
 Multiplicity           Mult            ....    1
 Number of Electrons    NEL             ....   64
Dispersion correction           -0.025697418
FINAL SINGLE POINT ENERGY      -684.269406669265
Dispersion correction            ... done
Dispersion correction           -0.025715466
FINAL SINGLE POINT ENERGY      -684.271706757766
Dispersion correction            ... done
Dispersion correction           -0.025721635
FINAL SINGLE POINT ENERGY      -684.271777243810
Dispersion correction            ... done
Dispersion correction           -0.025720305
FINAL SINGLE POINT ENERGY      -684.271788964912
Dispersion correction            ... done
Dispersion correction           -0.025717505
FINAL SINGLE POINT ENERGY      -684.271792932634
Dispersion correction            ... done
                    ***********************HURRAY********************

CARTESIAN COORDINATES (ANGSTROEM)
---------------------------------
  C     -1.310920   -1.247893   -0.003195
  S     -2.463158    0.042432   -0.001932
  C     -1.249701    1.282791   -0.000710
  C     -0.004833    0.695157   -0.001544
  C     -0.020027   -0.752379   -0.003037
  C      1.362510   -1.179021   -0.003729
  C      2.122625   -0.037968   -0.002704
  N      1.318007    1.093789   -0.001349
  H     -1.655044   -2.280148   -0.004228
  H     -1.532779    2.332533    0.000559
  H      1.744892   -2.196626   -0.004914
  H      3.207047    0.066688   -0.002795
  H      1.654722    2.044925   -0.000262

 Multiplicity           Mult            ....    1
 Number of Electrons    NEL             ....   64
 Basis Dimension        Dim             ....  141

ORBITAL ENERGIES
----------------

  NO   OCC          E(Eh)            E(eV)
   0   2.0000     -88.865508     -2418.1534
   1   2.0000     -14.367890      -390.9702
   2   2.0000     -10.222459      -278.1673
   3   2.0000     -10.218238      -278.0524
   4   2.0000     -10.199918      -277.5539
   5   2.0000     -10.199527      -277.5432
   6   2.0000     -10.184341      -277.1300
   7   2.0000     -10.176153      -276.9072
   8   2.0000      -7.959800      -216.5972
   9   2.0000      -5.928006      -161.3092
  10   2.0000      -5.923782      -161.1943
  11   2.0000      -5.921361      -161.1284
  12   2.0000      -0.967105       -26.3163
  13   2.0000      -0.856697       -23.3119
  14   2.0000      -0.768125       -20.9017
  15   2.0000      -0.715608       -19.4727
  16   2.0000      -0.688445       -18.7335
  17   2.0000      -0.598681       -16.2909
  18   2.0000      -0.584319       -15.9001
  19   2.0000      -0.542510       -14.7624
  20   2.0000      -0.521082       -14.1794
  21   2.0000      -0.448912       -12.2155
  22   2.0000      -0.433296       -11.7906
  23   2.0000      -0.422849       -11.5063
  24   2.0000      -0.419051       -11.4030
  25   2.0000      -0.394751       -10.7417
  26   2.0000      -0.366764        -9.9801
  27   2.0000      -0.343360        -9.3433
  28   2.0000      -0.333061        -9.0630
  29   2.0000      -0.274936        -7.4814
  30   2.0000      -0.225705        -6.1418
  31   2.0000      -0.191644        -5.2149
  32   0.0000      -0.022668        -0.6168
  33   0.0000       0.045158         1.2288
  34   0.0000       0.058052         1.5797
  35   0.0000       0.059333         1.6145
  36   0.0000       0.090027         2.4498

MULLIKEN ATOMIC CHARGES
-----------------------
   0 C :   -0.155874
   1 S :    0.086036
   2 C :   -0.198236
   3 C :    0.133743
   4 C :    0.095012
   5 C :   -0.043690
   6 C :    0.073320
   7 N :   -0.095544
   8 H :    0.013195
   9 H :    0.001799
  10 H :   -0.027292
  11 H :    0.001640
  12 H :    0.115891
Sum of atomic charges:   -0.0000000

LOEWDIN ATOMIC CHARGES
----------------------
   0 C :   -0.217565
   1 S :    0.432865
   2 C :   -0.254247
   3 C :   -0.019968
   4 C :   -0.070271
   5 C :   -0.093612
   6 C :    0.016291
   7 N :    0.035135
   8 H :    0.021632
   9 H :    0.019808
  10 H :    0.024590
  11 H :    0.021847
  12 H :    0.083497

  Mayer bond orders larger than 0.100000
B(  0-C ,  1-S ) :   1.1762 B(  0-C ,  2-C ) :   0.1248 B(  0-C ,  4-C ) :   1.4295
B(  0-C ,  8-H ) :   0.9709 B(  1-S ,  2-C ) :   1.1341 B(  2-C ,  3-C ) :   1.4412
B(  2-C ,  9-H ) :   0.9873 B(  3-C ,  4-C ) :   1.2301 B(  3-C ,  7-N ) :   1.1354
B(  4-C ,  5-C ) :   1.1541 B(  5-C ,  6-C ) :   1.5755 B(  5-C , 10-H ) :   1.0108
B(  6-C ,  7-N ) :   1.1461 B(  6-C , 11-H ) :   0.9822 B(  7-N , 12-H ) :   0.9468

Dispersion correction           -0.025716503
FINAL SINGLE POINT ENERGY      -684.271793375841

DIPOLE MOMENT
-------------
                                X             Y             Z
Electronic contribution:     -4.34836       0.67828       0.00111
Nuclear contribution   :      5.03882      -0.09261      -0.00057
                        -----------------------------------------
Total Dipole Moment    :      0.69046       0.58567       0.00054
                        -----------------------------------------
Magnitude (a.u.)       :      0.90539
Magnitude (Debye)      :      2.30133

Rotational constants in cm-1:     0.161530     0.049780     0.038053
Rotational constants in MHz :  4842.541813  1492.379825  1140.805229

                             ****ORCA TERMINATED NORMALLY****
TOTAL RUN TIME: 0 days 0 hours 3 minutes 14 seconds 594 msec
