                         Program Version 4.2.0 -  RELEASE  -
|  1> # ORCA input file
|  2> # SCF done        -40.291518202003          0.000290823068
|  3> ! B3LYP/G D3BJ Opt RIJCOSX def2-SVP def2/J
|  4> * xyz 0 1
|  5>    C        0.77897        -0.91467        -0.00215
|  6>    O        1.94775        -0.27838        -0.06592
|  7>    C        1.71801         1.05110        -0.07962
|  8>    C        0.35709         1.27293        -0.02284
|  9>    C       -0.25714        -0.01822         0.02815
| 10>    C       -1.63377        -0.30068         0.09476
| 11>    N       -2.75310        -0.53303         0.14875
| 12>    C       -0.41676         2.54382        -0.01085
| 13>    F        0.35435         3.63960        -0.06476
| 14>    F       -1.26227         2.62628        -1.05187
| 15>    F       -1.16605         2.66437         1.09797
| 16>    C        2.83542         1.96419        -0.14621
| 17>    C        4.09957         1.55494        -0.19518
| 18>    H        0.78271        -1.98663         0.01695
| 19>    H        2.58430         3.01295        -0.15483
| 20>    H        4.35580         0.50899        -0.18855
| 21>    H        4.91139         2.25787        -0.24583
| 22> *
| 23>
| 24>                          ****END OF INPUT****
 Total Charge           Charge          ....    0
 Multiplicity           Mult            ....    1
 Number of Electrons    NEL             ....   94
Dispersion correction           -0.030462674
FINAL SINGLE POINT ENERGY      -736.190241436596
Dispersion correction            ... done
Dispersion correction           -0.030407357
FINAL SINGLE POINT ENERGY      -736.192926512871
Dispersion correction            ... done
Dispersion correction           -0.030376135
FINAL SINGLE POINT ENERGY      -736.193092850234
Dispersion correction            ... done
FINAL SINGLE POINT ENERGY      -736.193134673951
FINAL SINGLE POINT ENERGY      -736.193141811202
Dispersion correction            ... done
Dispersion correction           -0.030361126
FINAL SINGLE POINT ENERGY      -736.193140318102
Dispersion correction            ... done
Dispersion correction           -0.030362387
FINAL SINGLE POINT ENERGY      -736.193140172624
Dispersion correction            ... done
                    ***********************HURRAY********************

CARTESIAN COORDINATES (ANGSTROEM)
---------------------------------
  C      0.765862   -0.917917   -0.017393
  O      1.938551   -0.265565   -0.098504
  C      1.701138    1.080070   -0.101427
  C      0.340867    1.287050   -0.025223
  C     -0.271893   -0.020828    0.031134
  C     -1.656084   -0.335650    0.129602
  N     -2.783532   -0.597801    0.210521
  C     -0.425218    2.572122   -0.014588
  F      0.379905    3.650701   -0.009296
  F     -1.218915    2.668610   -1.093483
  F     -1.213325    2.653251    1.068820
  C      2.845127    1.967245   -0.163507
  C      4.119743    1.548003   -0.185141
  H      0.797321   -2.004203    0.000646
  H      2.601386    3.030006   -0.187042
  H      4.373670    0.485900   -0.157408
  H      4.941667    2.264436   -0.229742

 Multiplicity           Mult            ....    1
 Number of Electrons    NEL             ....   94
 Basis Dimension        Dim             ....  202

ORBITAL ENERGIES
----------------

  NO   OCC          E(Eh)            E(eV)
   0   2.0000     -24.737492      -673.1414
   1   2.0000     -24.728937      -672.9086
   2   2.0000     -24.728448      -672.8953
   3   2.0000     -19.249461      -523.8045
   4   2.0000     -14.342179      -390.2705
   5   2.0000     -10.455816      -284.5172
   6   2.0000     -10.294675      -280.1323
   7   2.0000     -10.294082      -280.1162
   8   2.0000     -10.259993      -279.1886
   9   2.0000     -10.244541      -278.7681
  10   2.0000     -10.244351      -278.7630
  11   2.0000     -10.229059      -278.3468
  12   2.0000     -10.220328      -278.1093
  13   2.0000      -1.312267       -35.7086
  14   2.0000      -1.221730       -33.2450
  15   2.0000      -1.216364       -33.0990
  16   2.0000      -1.156939       -31.4819
  17   2.0000      -0.912599       -24.8331
  18   2.0000      -0.863242       -23.4900
  19   2.0000      -0.837290       -22.7838
  20   2.0000      -0.771879       -21.0039
  21   2.0000      -0.728854       -19.8331
  22   2.0000      -0.681968       -18.5573
  23   2.0000      -0.650381       -17.6978
  24   2.0000      -0.641226       -17.4486
  25   2.0000      -0.608360       -16.5543
  26   2.0000      -0.604625       -16.4527
  27   2.0000      -0.569251       -15.4901
  28   2.0000      -0.543867       -14.7994
  29   2.0000      -0.511803       -13.9269
  30   2.0000      -0.510208       -13.8835
  31   2.0000      -0.489143       -13.3102
  32   2.0000      -0.482412       -13.1271
  33   2.0000      -0.478885       -13.0311
  34   2.0000      -0.460471       -12.5300
  35   2.0000      -0.444825       -12.1043
  36   2.0000      -0.443881       -12.0786
  37   2.0000      -0.428977       -11.6731
  38   2.0000      -0.421470       -11.4688
  39   2.0000      -0.409827       -11.1520
  40   2.0000      -0.394748       -10.7416
  41   2.0000      -0.391174       -10.6444
  42   2.0000      -0.372384       -10.1331
  43   2.0000      -0.349967        -9.5231
  44   2.0000      -0.345789        -9.4094
  45   2.0000      -0.311265        -8.4699
  46   2.0000      -0.257875        -7.0171
  47   0.0000      -0.075402        -2.0518
  48   0.0000      -0.048422        -1.3176
  49   0.0000       0.010197         0.2775
  50   0.0000       0.044616         1.2141
  51   0.0000       0.064065         1.7433

MULLIKEN ATOMIC CHARGES
-----------------------
   0 C :    0.126042
   1 O :   -0.195325
   2 C :    0.095299
   3 C :   -0.088720
   4 C :   -0.103682
   5 C :   -0.133523
   6 N :    0.117415
   7 C :    0.558869
   8 F :   -0.163909
   9 F :   -0.159445
  10 F :   -0.159296
  11 C :   -0.036905
  12 C :    0.015081
  13 H :    0.035721
  14 H :    0.019140
  15 H :    0.035215
  16 H :    0.038023
Sum of atomic charges:   -0.0000000

LOEWDIN ATOMIC CHARGES
----------------------
   0 C :    0.088416
   1 O :    0.027972
   2 C :    0.057344
   3 C :   -0.104954
   4 C :   -0.094880
   5 C :   -0.032663
   6 N :   -0.043201
   7 C :    0.176942
   8 F :   -0.056478
   9 F :   -0.055214
  10 F :   -0.053270
  11 C :   -0.046035
  12 C :   -0.008874
  13 H :    0.040369
  14 H :    0.040061
  15 H :    0.029989
  16 H :    0.034475

  Mayer bond orders larger than 0.100000
B(  0-C ,  1-O ) :   1.1607 B(  0-C ,  4-C ) :   1.5093 B(  0-C , 13-H ) :   1.0109
B(  1-O ,  2-C ) :   1.1249 B(  2-C ,  3-C ) :   1.5002 B(  2-C , 11-C ) :   1.1382
B(  3-C ,  4-C ) :   1.2550 B(  3-C ,  7-C ) :   0.9449 B(  4-C ,  5-C ) :   1.1098
B(  5-C ,  6-N ) :   3.0090 B(  7-C ,  8-F ) :   1.1331 B(  7-C ,  9-F ) :   1.1736
B(  7-C , 10-F ) :   1.1649 B( 11-C , 12-C ) :   1.8965 B( 11-C , 14-H ) :   0.9472
B( 12-C , 15-H ) :   0.9545 B( 12-C , 16-H ) :   0.9410

Dispersion correction           -0.030362309
FINAL SINGLE POINT ENERGY      -736.193139539975

DIPOLE MOMENT
-------------
                                X             Y             Z
Electronic contribution:    -11.54674       5.80810       0.38153
Nuclear contribution   :     13.55110      -6.09391      -0.48562
                        -----------------------------------------
Total Dipole Moment    :      2.00435      -0.28581      -0.10409
                        -----------------------------------------
Magnitude (a.u.)       :      2.02730
Magnitude (Debye)      :      5.15300

Rotational constants in cm-1:     0.036544     0.024383     0.015848
Rotational constants in MHz :  1095.553287   730.980450   475.106548

                             ****ORCA TERMINATED NORMALLY****
TOTAL RUN TIME: 0 days 0 hours 8 minutes 41 seconds 507 msec
