                         Program Version 4.2.0 -  RELEASE  -
|  1> # ORCA input file
|  2> # SCF done        -34.287617618520          0.000825464787
|  3> ! B3LYP/G D3BJ Opt RIJCOSX def2-SVP def2/J
|  4> * xyz 0 1
|  5>    C       -0.80133         0.15243         0.23871
|  6>    O        0.21002         1.04096         0.32755
|  7>    C        1.37360         0.37453         0.33026
|  8>    C        1.12070        -0.99295         0.25226
|  9>    C       -0.30721        -1.12144         0.17634
| 10>    O       -0.99233        -2.26117         0.07706
| 11>    C        1.96721        -2.18184         0.28118
| 12>    O        1.51677        -3.27791         0.02807
| 13>    O        3.25388        -2.04524         0.63238
| 14>    C        2.60397         1.12986         0.35678
| 15>    C        2.65885         2.42929         0.63980
| 16>    H       -1.80133         0.53146         0.21798
| 17>    H       -0.33783        -2.98900         0.00895
| 18>    H        3.47444        -1.14210         0.89331
| 19>    H        3.50654         0.59401         0.09262
| 20>    H        1.77040         2.98280         0.89000
| 21>    H        3.58871         2.96887         0.62858
| 22> *
| 23>
| 24>                          ****END OF INPUT****
 Total Charge           Charge          ....    0
 Multiplicity           Mult            ....    1
 Number of Electrons    NEL             ....   80
Dispersion correction           -0.029635406
FINAL SINGLE POINT ENERGY      -570.831518029425
Dispersion correction            ... done
Dispersion correction           -0.029631531
FINAL SINGLE POINT ENERGY      -570.833247437757
Dispersion correction            ... done
Dispersion correction           -0.029611451
FINAL SINGLE POINT ENERGY      -570.833487057337
Dispersion correction            ... done
FINAL SINGLE POINT ENERGY      -570.833589091334
FINAL SINGLE POINT ENERGY      -570.833581910911
FINAL SINGLE POINT ENERGY      -570.833582672986
Dispersion correction            ... done
Dispersion correction           -0.029619612
FINAL SINGLE POINT ENERGY      -570.833596159712
Dispersion correction            ... done
Dispersion correction           -0.029620553
FINAL SINGLE POINT ENERGY      -570.833594275738
Dispersion correction            ... done
                    ***********************HURRAY********************

CARTESIAN COORDINATES (ANGSTROEM)
---------------------------------
  C     -0.828556    0.139233    0.268408
  O      0.206052    1.033417    0.368687
  C      1.373814    0.366240    0.364769
  C      1.115341   -0.998498    0.271805
  C     -0.322104   -1.132000    0.190588
  O     -0.992851   -2.277775    0.071539
  C      1.974415   -2.187325    0.252223
  O      1.525277   -3.282066   -0.030905
  O      3.273674   -2.063417    0.579263
  C      2.599602    1.133840    0.413041
  C      2.666814    2.463160    0.596675
  H     -1.833143    0.546938    0.253336
  H     -0.313303   -2.979597   -0.041843
  H      3.450767   -1.180954    0.933622
  H      3.521847    0.571231    0.238775
  H      1.761496    3.056453    0.744518
  H      3.625917    2.983680    0.597329

 Multiplicity           Mult            ....    1
 Number of Electrons    NEL             ....   80
 Basis Dimension        Dim             ....  184

ORBITAL ENERGIES
----------------

  NO   OCC          E(Eh)            E(eV)
   0   2.0000     -19.224248      -523.1184
   1   2.0000     -19.198618      -522.4209
   2   2.0000     -19.163267      -521.4590
   3   2.0000     -19.140158      -520.8302
   4   2.0000     -10.341689      -281.4117
   5   2.0000     -10.279905      -279.7304
   6   2.0000     -10.262840      -279.2661
   7   2.0000     -10.245297      -278.7887
   8   2.0000     -10.232230      -278.4331
   9   2.0000     -10.219006      -278.0733
  10   2.0000     -10.217857      -278.0420
  11   2.0000      -1.130127       -30.7523
  12   2.0000      -1.111226       -30.2380
  13   2.0000      -1.058277       -28.7972
  14   2.0000      -1.025057       -27.8932
  15   2.0000      -0.829846       -22.5813
  16   2.0000      -0.812698       -22.1146
  17   2.0000      -0.745898       -20.2969
  18   2.0000      -0.671737       -18.2789
  19   2.0000      -0.639915       -17.4130
  20   2.0000      -0.637096       -17.3363
  21   2.0000      -0.597675       -16.2636
  22   2.0000      -0.550014       -14.9666
  23   2.0000      -0.529037       -14.3958
  24   2.0000      -0.505398       -13.7526
  25   2.0000      -0.494058       -13.4440
  26   2.0000      -0.471026       -12.8173
  27   2.0000      -0.468828       -12.7575
  28   2.0000      -0.463158       -12.6032
  29   2.0000      -0.456908       -12.4331
  30   2.0000      -0.417708       -11.3664
  31   2.0000      -0.409003       -11.1295
  32   2.0000      -0.400102       -10.8873
  33   2.0000      -0.393764       -10.7149
  34   2.0000      -0.362432        -9.8623
  35   2.0000      -0.341040        -9.2802
  36   2.0000      -0.333560        -9.0766
  37   2.0000      -0.302588        -8.2338
  38   2.0000      -0.275690        -7.5019
  39   2.0000      -0.225625        -6.1396
  40   0.0000      -0.080859        -2.2003
  41   0.0000      -0.004694        -0.1277
  42   0.0000       0.029993         0.8162
  43   0.0000       0.040895         1.1128
  44   0.0000       0.070168         1.9094

MULLIKEN ATOMIC CHARGES
-----------------------
   0 C :    0.040050
   1 O :   -0.206239
   2 C :    0.126511
   3 C :   -0.123396
   4 C :    0.156279
   5 O :   -0.181686
   6 C :    0.195886
   7 O :   -0.242627
   8 O :   -0.144583
   9 C :   -0.079258
  10 C :    0.012348
  11 H :    0.007310
  12 H :    0.194000
  13 H :    0.175127
  14 H :   -0.006236
  15 H :    0.043813
  16 H :    0.032700
Sum of atomic charges:    0.0000000

LOEWDIN ATOMIC CHARGES
----------------------
   0 C :   -0.002668
   1 O :    0.018050
   2 C :    0.041653
   3 C :   -0.159498
   4 C :    0.025722
   5 O :   -0.042647
   6 C :    0.096651
   7 O :   -0.174382
   8 O :   -0.018598
   9 C :   -0.062033
  10 C :   -0.010454
  11 H :    0.027125
  12 H :    0.080235
  13 H :    0.084670
  14 H :    0.029361
  15 H :    0.034236
  16 H :    0.032576

  Mayer bond orders larger than 0.100000
B(  0-C ,  1-O ) :   1.0572 B(  0-C ,  4-C ) :   1.4811 B(  0-C , 11-H ) :   1.0125
B(  1-O ,  2-C ) :   1.2110 B(  2-C ,  3-C ) :   1.3538 B(  2-C ,  9-C ) :   1.1253
B(  3-C ,  4-C ) :   1.1687 B(  3-C ,  6-C ) :   0.9605 B(  4-C ,  5-O ) :   1.2834
B(  5-O , 12-H ) :   0.9042 B(  6-C ,  7-O ) :   1.9886 B(  6-C ,  8-O ) :   1.2651
B(  7-O , 12-H ) :   0.1157 B(  8-O , 13-H ) :   0.9478 B(  9-C , 10-C ) :   1.9020
B(  9-C , 14-H ) :   0.9405 B( 10-C , 15-H ) :   0.9545 B( 10-C , 16-H ) :   0.9382

Dispersion correction           -0.029620327
FINAL SINGLE POINT ENERGY      -570.833591729822

DIPOLE MOMENT
-------------
                                X             Y             Z
Electronic contribution:     -2.53535      -5.13435      -0.53229
Nuclear contribution   :      3.08922       6.59009       0.84162
                        -----------------------------------------
Total Dipole Moment    :      0.55388       1.45574       0.30933
                        -----------------------------------------
Magnitude (a.u.)       :      1.58797
Magnitude (Debye)      :      4.03630

Rotational constants in cm-1:     0.053361     0.034326     0.020989
Rotational constants in MHz :  1599.731237  1029.080276   629.238826

                             ****ORCA TERMINATED NORMALLY****
TOTAL RUN TIME: 0 days 0 hours 8 minutes 10 seconds 27 msec
