                         Program Version 4.2.0 -  RELEASE  -
|  1> # ORCA input file
|  2> # SCF done        -32.833200123615          0.000636500471
|  3> ! B3LYP/G D3BJ Opt RIJCOSX def2-SVP def2/J
|  4> * xyz 0 1
|  5>    C        0.04019        -1.20100        -0.10167
|  6>    S       -1.24061        -0.10762         0.33723
|  7>    C       -0.07357         1.17694         0.37006
|  8>    C        1.17343         0.66128         0.04848
|  9>    N        1.19579        -0.67119        -0.20836
| 10>    C        2.42368         1.43765        -0.03055
| 11>    O        2.51620         2.62976         0.15314
| 12>    O        3.46019         0.65487        -0.33185
| 13>    C        4.71822         1.30036        -0.43907
| 14>    C       -0.41155         2.53484         0.69145
| 15>    C       -1.64030         2.95071         0.98567
| 16>    H       -0.16159        -2.24089        -0.26328
| 17>    H        5.46075         0.50938        -0.50483
| 18>    H        4.89952         1.93046         0.43455
| 19>    H        4.74803         1.92641        -1.33392
| 20>    H        0.42658         3.21763         0.67464
| 21>    H       -2.48020         2.27374         1.00233
| 22>    H       -1.84272         3.98085         1.21933
| 23> *
| 24>
| 25>                          ****END OF INPUT****
 Total Charge           Charge          ....    0
 Multiplicity           Mult            ....    1
 Number of Electrons    NEL             ....   88
Dispersion correction           -0.034506674
FINAL SINGLE POINT ENERGY      -873.901983276084
Dispersion correction            ... done
Dispersion correction           -0.034322611
FINAL SINGLE POINT ENERGY      -873.904578158951
Dispersion correction            ... done
Dispersion correction           -0.034293804
FINAL SINGLE POINT ENERGY      -873.904659286149
Dispersion correction            ... done
FINAL SINGLE POINT ENERGY      -873.904639672744
FINAL SINGLE POINT ENERGY      -873.904697879814
FINAL SINGLE POINT ENERGY      -873.904721389769
FINAL SINGLE POINT ENERGY      -873.904652304000
FINAL SINGLE POINT ENERGY      -873.904666545271
FINAL SINGLE POINT ENERGY      -873.904598564079
FINAL SINGLE POINT ENERGY      -873.904639031300
FINAL SINGLE POINT ENERGY      -873.904632790328
Dispersion correction            ... done
Dispersion correction           -0.034290272
FINAL SINGLE POINT ENERGY      -873.904625456639
Dispersion correction            ... done
Dispersion correction           -0.034290417
FINAL SINGLE POINT ENERGY      -873.904627021441
Dispersion correction            ... done
                    ***********************HURRAY********************

CARTESIAN COORDINATES (ANGSTROEM)
---------------------------------
  C      0.017755   -1.254730   -0.055248
  S     -1.251039   -0.122976    0.339758
  C     -0.064220    1.153550    0.398230
  C      1.186848    0.605652    0.113259
  N      1.203533   -0.745125   -0.141196
  C      2.447835    1.394585    0.057740
  O      2.543300    2.569764    0.344175
  O      3.483191    0.657859   -0.362722
  C      4.725935    1.344651   -0.492513
  C     -0.413251    2.532687    0.702004
  C     -1.659306    2.998113    0.888668
  H     -0.217900   -2.309752   -0.213404
  H      5.448038    0.599421   -0.847436
  H      5.047784    1.765441    0.472246
  H      4.641346    2.171016   -1.214447
  H      0.448347    3.199435    0.771254
  H     -2.541360    2.353747    0.822214
  H     -1.834797    4.050844    1.120769

 Multiplicity           Mult            ....    1
 Number of Electrons    NEL             ....   88
 Basis Dimension        Dim             ....  193

ORBITAL ENERGIES
----------------

  NO   OCC          E(Eh)            E(eV)
   0   2.0000     -88.892802     -2418.8961
   1   2.0000     -19.177447      -521.8449
   2   2.0000     -19.123161      -520.3677
   3   2.0000     -14.339599      -390.2003
   4   2.0000     -10.318879      -280.7910
   5   2.0000     -10.258379      -279.1447
   6   2.0000     -10.244627      -278.7705
   7   2.0000     -10.243781      -278.7475
   8   2.0000     -10.237690      -278.5817
   9   2.0000     -10.208909      -277.7985
  10   2.0000     -10.203750      -277.6581
  11   2.0000      -7.988620      -217.3814
  12   2.0000      -5.956345      -162.0804
  13   2.0000      -5.952532      -161.9766
  14   2.0000      -5.950216      -161.9136
  15   2.0000      -1.099672       -29.9236
  16   2.0000      -1.007062       -27.4035
  17   2.0000      -0.973140       -26.4805
  18   2.0000      -0.830716       -22.6049
  19   2.0000      -0.784675       -21.3521
  20   2.0000      -0.754598       -20.5337
  21   2.0000      -0.718792       -19.5593
  22   2.0000      -0.634421       -17.2635
  23   2.0000      -0.613048       -16.6819
  24   2.0000      -0.569675       -15.5016
  25   2.0000      -0.549221       -14.9451
  26   2.0000      -0.522605       -14.2208
  27   2.0000      -0.488403       -13.2901
  28   2.0000      -0.483954       -13.1691
  29   2.0000      -0.470214       -12.7952
  30   2.0000      -0.449188       -12.2230
  31   2.0000      -0.439026       -11.9465
  32   2.0000      -0.434738       -11.8298
  33   2.0000      -0.425005       -11.5650
  34   2.0000      -0.393974       -10.7206
  35   2.0000      -0.390156       -10.6167
  36   2.0000      -0.368740       -10.0339
  37   2.0000      -0.357563        -9.7298
  38   2.0000      -0.333781        -9.0826
  39   2.0000      -0.305987        -8.3263
  40   2.0000      -0.289744        -7.8843
  41   2.0000      -0.287965        -7.8359
  42   2.0000      -0.276538        -7.5250
  43   2.0000      -0.243926        -6.6376
  44   0.0000      -0.076893        -2.0924
  45   0.0000      -0.016287        -0.4432
  46   0.0000       0.014282         0.3886
  47   0.0000       0.029203         0.7947
  48   0.0000       0.073127         1.9899

MULLIKEN ATOMIC CHARGES
-----------------------
   0 C :    0.005352
   1 S :    0.098224
   2 C :   -0.112288
   3 C :    0.005599
   4 N :   -0.076537
   5 C :    0.180481
   6 O :   -0.230972
   7 O :   -0.280297
   8 C :    0.196340
   9 C :    0.007038
  10 C :   -0.020702
  11 H :    0.049366
  12 H :    0.033091
  13 H :    0.026590
  14 H :    0.029204
  15 H :    0.032967
  16 H :    0.021958
  17 H :    0.034587
Sum of atomic charges:   -0.0000000

LOEWDIN ATOMIC CHARGES
----------------------
   0 C :   -0.125620
   1 S :    0.420141
   2 C :   -0.150380
   3 C :   -0.082405
   4 N :   -0.081451
   5 C :    0.081237
   6 O :   -0.186193
   7 O :   -0.075330
   8 C :    0.085667
   9 C :   -0.037628
  10 C :   -0.032683
  11 H :    0.023607
  12 H :    0.025551
  13 H :    0.021323
  14 H :    0.021474
  15 H :    0.043045
  16 H :    0.017930
  17 H :    0.031715

  Mayer bond orders larger than 0.100000
B(  0-C ,  1-S ) :   1.1296 B(  0-C ,  4-N ) :   1.7081 B(  0-C , 11-H ) :   0.9586
B(  1-S ,  2-C ) :   1.1373 B(  1-S ,  4-N ) :   0.1064 B(  2-C ,  3-C ) :   1.4901
B(  2-C ,  9-C ) :   1.1538 B(  3-C ,  4-N ) :   1.3377 B(  3-C ,  5-C ) :   0.9596
B(  5-C ,  6-O ) :   2.0217 B(  5-C ,  7-O ) :   1.2590 B(  7-O ,  8-C ) :   0.9257
B(  8-C , 12-H ) :   0.9790 B(  8-C , 13-H ) :   0.9720 B(  8-C , 14-H ) :   0.9731
B(  9-C , 10-C ) :   1.8820 B(  9-C , 15-H ) :   0.9363 B( 10-C , 16-H ) :   0.9526
B( 10-C , 17-H ) :   0.9463

Dispersion correction           -0.034289657
FINAL SINGLE POINT ENERGY      -873.904627400939

DIPOLE MOMENT
-------------
                                X             Y             Z
Electronic contribution:     -4.65219      -5.35301       0.21147
Nuclear contribution   :      4.25838       5.14071      -0.27880
                        -----------------------------------------
Total Dipole Moment    :     -0.39381      -0.21229      -0.06733
                        -----------------------------------------
Magnitude (a.u.)       :      0.45242
Magnitude (Debye)      :      1.14997

Rotational constants in cm-1:     0.055776     0.023356     0.016539
Rotational constants in MHz :  1672.107573   700.206020   495.817203

                             ****ORCA TERMINATED NORMALLY****
TOTAL RUN TIME: 0 days 0 hours 13 minutes 25 seconds 175 msec
