                         Program Version 4.2.0 -  RELEASE  -
|  1> # ORCA input file
|  2> # SCF done        -27.714884213708          0.000851612292
|  3> ! B3LYP/G D3BJ Opt RIJCOSX def2-SVP def2/J
|  4> * xyz 0 1
|  5>    N        2.10848         0.15939        -0.00430
|  6>    C        0.75856         0.27700        -0.01613
|  7>    S       -0.25194        -1.12032        -0.18112
|  8>    C       -1.66190        -0.11144        -0.01964
|  9>    N       -2.90825        -0.72394        -0.07267
| 10>    O       -3.89716        -0.01870         0.03770
| 11>    O       -2.92297        -1.93584        -0.22871
| 12>    C       -1.34773         1.21580         0.14954
| 13>    C        0.02692         1.43926         0.15015
| 14>    H        2.52227        -0.70642        -0.30267
| 15>    H        2.66060         0.99352        -0.10742
| 16>    H       -2.09855         1.97614         0.26396
| 17>    H        0.48171         2.40524         0.26991
| 18> *
| 19>
| 20>                          ****END OF INPUT****
 Total Charge           Charge          ....    0
 Multiplicity           Mult            ....    1
 Number of Electrons    NEL             ....   74
Dispersion correction           -0.025537662
FINAL SINGLE POINT ENERGY      -812.468366030245
Dispersion correction            ... done
Dispersion correction           -0.025406387
FINAL SINGLE POINT ENERGY      -812.470367170682
Dispersion correction            ... done
Dispersion correction           -0.025387466
FINAL SINGLE POINT ENERGY      -812.470413668663
Dispersion correction            ... done
FINAL SINGLE POINT ENERGY      -812.470536200609
FINAL SINGLE POINT ENERGY      -812.470541983813
FINAL SINGLE POINT ENERGY      -812.470593343693
FINAL SINGLE POINT ENERGY      -812.470604021439
Dispersion correction            ... done
Dispersion correction           -0.025398675
FINAL SINGLE POINT ENERGY      -812.470605729445
Dispersion correction            ... done
Dispersion correction           -0.025398648
FINAL SINGLE POINT ENERGY      -812.470603600379
Dispersion correction            ... done
                    ***********************HURRAY********************

CARTESIAN COORDINATES (ANGSTROEM)
---------------------------------
  N      2.142162    0.149288    0.029050
  C      0.781212    0.278823    0.005440
  S     -0.235260   -1.134087   -0.156532
  C     -1.656954   -0.125238   -0.020463
  N     -2.943950   -0.728202   -0.074058
  O     -3.923479    0.000758    0.029258
  O     -2.978305   -1.949396   -0.220175
  C     -1.355841    1.206936    0.140516
  C      0.036638    1.446275    0.152824
  H      2.556464   -0.683021   -0.372736
  H      2.685973    0.994527   -0.098323
  H     -2.131740    1.964186    0.246947
  H      0.493121    2.428842    0.276851

 Multiplicity           Mult            ....    1
 Number of Electrons    NEL             ....   74
 Basis Dimension        Dim             ....  150

ORBITAL ENERGIES
----------------

  NO   OCC          E(Eh)            E(eV)
   0   2.0000     -88.897025     -2419.0110
   1   2.0000     -19.144327      -520.9436
   2   2.0000     -19.144272      -520.9421
   3   2.0000     -14.549468      -395.9112
   4   2.0000     -14.382682      -391.3727
   5   2.0000     -10.285257      -279.8761
   6   2.0000     -10.251375      -278.9541
   7   2.0000     -10.223784      -278.2033
   8   2.0000     -10.208654      -277.7916
   9   2.0000      -7.992183      -217.4784
  10   2.0000      -5.960755      -162.2004
  11   2.0000      -5.956612      -162.0876
  12   2.0000      -5.952449      -161.9744
  13   2.0000      -1.205468       -32.8025
  14   2.0000      -1.030858       -28.0511
  15   2.0000      -0.960078       -26.1251
  16   2.0000      -0.889408       -24.2020
  17   2.0000      -0.784599       -21.3500
  18   2.0000      -0.759641       -20.6709
  19   2.0000      -0.678041       -18.4504
  20   2.0000      -0.600984       -16.3536
  21   2.0000      -0.572855       -15.5882
  22   2.0000      -0.545843       -14.8531
  23   2.0000      -0.533805       -14.5256
  24   2.0000      -0.529196       -14.4002
  25   2.0000      -0.498046       -13.5525
  26   2.0000      -0.483336       -13.1522
  27   2.0000      -0.444291       -12.0898
  28   2.0000      -0.424805       -11.5595
  29   2.0000      -0.412711       -11.2304
  30   2.0000      -0.375711       -10.2236
  31   2.0000      -0.345066        -9.3897
  32   2.0000      -0.298597        -8.1252
  33   2.0000      -0.298045        -8.1102
  34   2.0000      -0.279964        -7.6182
  35   2.0000      -0.278328        -7.5737
  36   2.0000      -0.227658        -6.1949
  37   0.0000      -0.080004        -2.1770
  38   0.0000      -0.003379        -0.0920
  39   0.0000       0.005077         0.1381
  40   0.0000       0.030420         0.8278
  41   0.0000       0.054972         1.4959

MULLIKEN ATOMIC CHARGES
-----------------------
   0 N :   -0.060029
   1 C :   -0.083912
   2 S :    0.143372
   3 C :   -0.014078
   4 N :    0.260446
   5 O :   -0.266679
   6 O :   -0.282518
   7 C :    0.044556
   8 C :    0.005230
   9 H :    0.131700
  10 H :    0.129672
  11 H :    0.013585
  12 H :   -0.021344
Sum of atomic charges:   -0.0000000

LOEWDIN ATOMIC CHARGES
----------------------
   0 N :   -0.013546
   1 C :   -0.100281
   2 S :    0.425222
   3 C :   -0.214580
   4 N :    0.265769
   5 O :   -0.230182
   6 O :   -0.245624
   7 C :   -0.008963
   8 C :   -0.120745
   9 H :    0.081952
  10 H :    0.086386
  11 H :    0.045954
  12 H :    0.028639

  Mayer bond orders larger than 0.100000
B(  0-N ,  1-C ) :   1.2661 B(  0-N ,  9-H ) :   0.9416 B(  0-N , 10-H ) :   0.9494
B(  1-C ,  2-S ) :   1.1343 B(  1-C ,  8-C ) :   1.4020 B(  2-S ,  3-C ) :   1.0626
B(  3-C ,  4-N ) :   0.9752 B(  3-C ,  7-C ) :   1.4759 B(  4-N ,  5-O ) :   1.5050
B(  4-N ,  6-O ) :   1.4784 B(  5-O ,  6-O ) :   0.2577 B(  7-C ,  8-C ) :   1.2699
B(  7-C , 11-H ) :   0.9869 B(  8-C , 12-H ) :   0.9947

Dispersion correction           -0.025398495
FINAL SINGLE POINT ENERGY      -812.470601728880

DIPOLE MOMENT
-------------
                                X             Y             Z
Electronic contribution:     -4.49189      -4.39403      -0.38906
Nuclear contribution   :      7.24880       5.38569       0.18954
                        -----------------------------------------
Total Dipole Moment    :      2.75690       0.99165      -0.19952
                        -----------------------------------------
Magnitude (a.u.)       :      2.93661
Magnitude (Debye)      :      7.46428

Rotational constants in cm-1:     0.121074     0.032733     0.025777
Rotational constants in MHz :  3629.692603   981.307224   772.766963

                             ****ORCA TERMINATED NORMALLY****
TOTAL RUN TIME: 0 days 0 hours 6 minutes 15 seconds 661 msec
