                         Program Version 4.2.0 -  RELEASE  -
|  1> # ORCA input file
|  2> # SCF done        -51.294366070298          0.000817344781
|  3> ! B3LYP/G D3BJ Opt RIJCOSX def2-SVP def2/J
|  4> * xyz 0 1
|  5>    C        0.02494         1.45304        -0.06048
|  6>    C        1.18122         0.68578        -0.03486
|  7>    C        2.53549         1.28510        -0.05118
|  8>    O        2.81205         2.44354        -0.09512
|  9>    S        3.74672        -0.03350         0.00517
| 10>    C        2.49560        -1.32916         0.02996
| 11>    O        2.77678        -2.48840         0.05293
| 12>    C        1.15349        -0.70862         0.01420
| 13>    C       -0.05051        -1.43994         0.02633
| 14>    C       -1.20976        -0.65046         0.01773
| 15>    C       -1.16171         0.74315        -0.02141
| 16>    C       -2.55910         1.24715         0.02216
| 17>    O       -2.96698         2.36284        -0.00851
| 18>    O       -3.37223         0.14645         0.11827
| 19>    C       -2.64660        -1.02452         0.13037
| 20>    O       -3.16881        -2.08738         0.23699
| 21>    C       -0.06087        -2.89403         0.06527
| 22>    C       -0.87373        -3.65810        -0.65392
| 23>    H        0.05782         2.52997        -0.09582
| 24>    H        0.69968        -3.34392         0.68810
| 25>    H       -1.59767        -3.25170        -1.33832
| 26>    H       -0.81966        -4.73063        -0.59326
| 27> *
| 28>
| 29>                          ****END OF INPUT****
 Total Charge           Charge          ....    0
 Multiplicity           Mult            ....    1
 Number of Electrons    NEL             ....  132
Dispersion correction           -0.058172420
FINAL SINGLE POINT ENERGY     -1233.337310195984
Dispersion correction            ... done
Dispersion correction           -0.057847076
FINAL SINGLE POINT ENERGY     -1233.340266975416
Dispersion correction            ... done
Dispersion correction           -0.057846708
FINAL SINGLE POINT ENERGY     -1233.340456932529
Dispersion correction            ... done
FINAL SINGLE POINT ENERGY     -1233.340333973147
FINAL SINGLE POINT ENERGY     -1233.340606145187
FINAL SINGLE POINT ENERGY     -1233.340629209084
FINAL SINGLE POINT ENERGY     -1233.340718466385
FINAL SINGLE POINT ENERGY     -1233.340718522205
FINAL SINGLE POINT ENERGY     -1233.340752837089
FINAL SINGLE POINT ENERGY     -1233.340771328574
FINAL SINGLE POINT ENERGY     -1233.340783960940
Dispersion correction            ... done
Dispersion correction           -0.057787635
FINAL SINGLE POINT ENERGY     -1233.340781408521
Dispersion correction            ... done
Dispersion correction           -0.057788900
FINAL SINGLE POINT ENERGY     -1233.340786241682
Dispersion correction            ... done
                    ***********************HURRAY********************

CARTESIAN COORDINATES (ANGSTROEM)
---------------------------------
  C      0.026677    1.461152   -0.053201
  C      1.187818    0.692835   -0.012966
  C      2.553022    1.309845    0.005479
  O      2.792654    2.485142   -0.009268
  S      3.803747    0.005208    0.054604
  C      2.539612   -1.310426    0.035729
  O      2.836111   -2.473307    0.043485
  C      1.163315   -0.711703    0.012479
  C     -0.049045   -1.455820   -0.003056
  C     -1.218355   -0.655303   -0.008606
  C     -1.161974    0.742060   -0.039733
  C     -2.552581    1.272052   -0.021106
  O     -2.946366    2.395264   -0.078831
  O     -3.391986    0.179182    0.082719
  C     -2.671693   -1.012017    0.120267
  O     -3.226990   -2.058046    0.252958
  C     -0.030261   -2.923736   -0.012458
  C     -0.941758   -3.718096   -0.592570
  H      0.058139    2.551601   -0.077145
  H      0.854885   -3.377426    0.432353
  H     -1.823241   -3.339151   -1.108370
  H     -0.805571   -4.802649   -0.568162

 Multiplicity           Mult            ....    1
 Number of Electrons    NEL             ....  132
 Basis Dimension        Dim             ....  276

ORBITAL ENERGIES
----------------

  NO   OCC          E(Eh)            E(eV)
   0   2.0000     -88.892509     -2418.8881
   1   2.0000     -19.223938      -523.1100
   2   2.0000     -19.182534      -521.9833
   3   2.0000     -19.179884      -521.9112
   4   2.0000     -19.174279      -521.7587
   5   2.0000     -19.172995      -521.7237
   6   2.0000     -10.366351      -282.0828
   7   2.0000     -10.361845      -281.9602
   8   2.0000     -10.342772      -281.4411
   9   2.0000     -10.339030      -281.3393
  10   2.0000     -10.277882      -279.6754
  11   2.0000     -10.267388      -279.3898
  12   2.0000     -10.266617      -279.3689
  13   2.0000     -10.266464      -279.3647
  14   2.0000     -10.264163      -279.3021
  15   2.0000     -10.261139      -279.2198
  16   2.0000     -10.225024      -278.2371
  17   2.0000     -10.223861      -278.2054
  18   2.0000      -7.990071      -217.4209
  19   2.0000      -5.957664      -162.1163
  20   2.0000      -5.954766      -162.0374
  21   2.0000      -5.950366      -161.9177
  22   2.0000      -1.158276       -31.5183
  23   2.0000      -1.094699       -29.7883
  24   2.0000      -1.093133       -29.7457
  25   2.0000      -1.089926       -29.6584
  26   2.0000      -1.054720       -28.7004
  27   2.0000      -0.934903       -25.4400
  28   2.0000      -0.871300       -23.7093
  29   2.0000      -0.842566       -22.9274
  30   2.0000      -0.804697       -21.8969
  31   2.0000      -0.775832       -21.1115
  32   2.0000      -0.725390       -19.7389
  33   2.0000      -0.705885       -19.2081
  34   2.0000      -0.686707       -18.6863
  35   2.0000      -0.646543       -17.5933
  36   2.0000      -0.622004       -16.9256
  37   2.0000      -0.576636       -15.6911
  38   2.0000      -0.569306       -15.4916
  39   2.0000      -0.560600       -15.2547
  40   2.0000      -0.547082       -14.8869
  41   2.0000      -0.530221       -14.4281
  42   2.0000      -0.507433       -13.8079
  43   2.0000      -0.506159       -13.7733
  44   2.0000      -0.488677       -13.2976
  45   2.0000      -0.487636       -13.2693
  46   2.0000      -0.486234       -13.2311
  47   2.0000      -0.476751       -12.9730
  48   2.0000      -0.469017       -12.7626
  49   2.0000      -0.458640       -12.4802
  50   2.0000      -0.448746       -12.2110
  51   2.0000      -0.445969       -12.1354
  52   2.0000      -0.437195       -11.8967
  53   2.0000      -0.434770       -11.8307
  54   2.0000      -0.421149       -11.4600
  55   2.0000      -0.416532       -11.3344
  56   2.0000      -0.395550       -10.7635
  57   2.0000      -0.358514        -9.7557
  58   2.0000      -0.350776        -9.5451
  59   2.0000      -0.337933        -9.1956
  60   2.0000      -0.330723        -8.9994
  61   2.0000      -0.316733        -8.6187
  62   2.0000      -0.315822        -8.5940
  63   2.0000      -0.302739        -8.2379
  64   2.0000      -0.296877        -8.0784
  65   2.0000      -0.281819        -7.6687
  66   0.0000      -0.145156        -3.9499
  67   0.0000      -0.115436        -3.1412
  68   0.0000      -0.084907        -2.3104
  69   0.0000      -0.020341        -0.5535
  70   0.0000      -0.009950        -0.2707

MULLIKEN ATOMIC CHARGES
-----------------------
   0 C :   -0.076203
   1 C :    0.044525
   2 C :    0.062583
   3 O :   -0.130842
   4 S :    0.029138
   5 C :    0.046990
   6 O :   -0.138035
   7 C :    0.054428
   8 C :    0.029972
   9 C :   -0.077198
  10 C :   -0.013471
  11 C :    0.250299
  12 O :   -0.108471
  13 O :   -0.245007
  14 C :    0.250701
  15 O :   -0.108262
  16 C :   -0.042733
  17 C :    0.025895
  18 H :    0.028451
  19 H :    0.028866
  20 H :    0.041413
  21 H :    0.046961
Sum of atomic charges:    0.0000000

LOEWDIN ATOMIC CHARGES
----------------------
   0 C :    0.037663
   1 C :   -0.044443
   2 C :   -0.047164
   3 O :   -0.110096
   4 S :    0.303761
   5 C :   -0.037715
   6 O :   -0.108353
   7 C :   -0.051488
   8 C :    0.038738
   9 C :   -0.048204
  10 C :   -0.040167
  11 C :    0.102719
  12 O :   -0.092996
  13 O :   -0.065579
  14 C :    0.112073
  15 O :   -0.089222
  16 C :   -0.039736
  17 C :    0.021883
  18 H :    0.054859
  19 H :    0.038143
  20 H :    0.027670
  21 H :    0.037656

  Mayer bond orders larger than 0.100000
B(  0-C ,  1-C ) :   1.3372 B(  0-C , 10-C ) :   1.3021 B(  0-C , 18-H ) :   1.0249
B(  1-C ,  2-C ) :   0.8473 B(  1-C ,  7-C ) :   1.3266 B(  2-C ,  3-O ) :   2.1773
B(  2-C ,  4-S ) :   1.0178 B(  3-O ,  4-S ) :   0.1236 B(  4-S ,  5-C ) :   1.0163
B(  4-S ,  6-O ) :   0.1165 B(  5-C ,  6-O ) :   2.1224 B(  5-C ,  7-C ) :   0.8618
B(  7-C ,  8-C ) :   1.3533 B(  8-C ,  9-C ) :   1.3069 B(  8-C , 16-C ) :   1.1234
B(  9-C , 10-C ) :   1.3676 B(  9-C , 14-C ) :   0.9099 B( 10-C , 11-C ) :   0.8927
B( 11-C , 12-O ) :   2.2639 B( 11-C , 13-O ) :   1.0358 B( 13-O , 14-C ) :   1.0320
B( 14-C , 15-O ) :   2.2190 B( 16-C , 17-C ) :   1.9106 B( 16-C , 19-H ) :   0.9323
B( 17-C , 20-H ) :   0.9504 B( 17-C , 21-H ) :   0.9433

Dispersion correction           -0.057789639
FINAL SINGLE POINT ENERGY     -1233.340785422786

DIPOLE MOMENT
-------------
                                X             Y             Z
Electronic contribution:      2.91774       6.68937       1.04369
Nuclear contribution   :     -2.41088      -7.29346      -1.21111
                        -----------------------------------------
Total Dipole Moment    :      0.50686      -0.60410      -0.16742
                        -----------------------------------------
Magnitude (a.u.)       :      0.80615
Magnitude (Debye)      :      2.04906

Rotational constants in cm-1:     0.020839     0.010461     0.007007
Rotational constants in MHz :   624.751407   313.615209   210.070551

                             ****ORCA TERMINATED NORMALLY****
TOTAL RUN TIME: 0 days 0 hours 28 minutes 22 seconds 571 msec
