                         Program Version 4.2.0 -  RELEASE  -
|  1> # ORCA input file
|  2> # SCF done        -31.664709223900          0.000920735950
|  3> ! B3LYP/G D3BJ Opt RIJCOSX def2-SVP def2/J
|  4> * xyz 0 1
|  5>    C        1.55339         1.22596         0.03641
|  6>    S        2.77409         0.01686        -0.05313
|  7>    C        1.58519        -1.22253        -0.05919
|  8>    C        0.32335        -0.72361         0.00920
|  9>    C        0.30171         0.69896         0.05838
| 10>    C       -0.97393         1.47600         0.15691
| 11>    C       -2.15465         0.62597        -0.30782
| 12>    C       -2.14157        -0.72373         0.40628
| 13>    C       -0.93067        -1.54235        -0.04809
| 14>    C       -1.13633        -2.09759        -1.44317
| 15>    O       -0.28453        -2.26114        -2.26604
| 16>    H        1.83628         2.25941         0.06523
| 17>    H        1.88909        -2.24806        -0.12177
| 18>    H       -0.90252         2.39049        -0.43495
| 19>    H       -1.13020         1.77200         1.19983
| 20>    H       -2.08802         0.46318        -1.38639
| 21>    H       -3.08879         1.15140        -0.10115
| 22>    H       -3.05944        -1.27622         0.19338
| 23>    H       -2.08763        -0.56194         1.48484
| 24>    H       -0.82523        -2.43145         0.58966
| 25>    H       -2.19182        -2.37722        -1.64616
| 26> *
| 27>
| 28>                          ****END OF INPUT****
 Total Charge           Charge          ....    0
 Multiplicity           Mult            ....    1
 Number of Electrons    NEL             ....   88
Dispersion correction           -0.044918644
FINAL SINGLE POINT ENERGY      -822.002058519694
Dispersion correction            ... done
Dispersion correction           -0.044493866
FINAL SINGLE POINT ENERGY      -822.004936181165
Dispersion correction            ... done
Dispersion correction           -0.044401871
FINAL SINGLE POINT ENERGY      -822.004854502071
Dispersion correction            ... done
FINAL SINGLE POINT ENERGY      -822.005056473009
FINAL SINGLE POINT ENERGY      -822.005084127862
FINAL SINGLE POINT ENERGY      -822.005030039967
FINAL SINGLE POINT ENERGY      -822.004960431426
FINAL SINGLE POINT ENERGY      -822.004993135956
FINAL SINGLE POINT ENERGY      -822.005042331878
FINAL SINGLE POINT ENERGY      -822.005082102975
Dispersion correction            ... done
Dispersion correction           -0.044304675
FINAL SINGLE POINT ENERGY      -822.005110937674
Dispersion correction            ... done
Dispersion correction           -0.044296941
FINAL SINGLE POINT ENERGY      -822.005127838065
Dispersion correction            ... done
                    ***********************HURRAY********************

CARTESIAN COORDINATES (ANGSTROEM)
---------------------------------
  C      1.594404    1.241003    0.021069
  S      2.811422    0.013206   -0.024018
  C      1.619756   -1.235330   -0.016892
  C      0.343606   -0.727326    0.017129
  C      0.326448    0.711118    0.046259
  C     -0.958894    1.494050    0.149519
  C     -2.176585    0.662278   -0.276540
  C     -2.162332   -0.728485    0.364563
  C     -0.921381   -1.539082   -0.064071
  C     -1.140819   -2.144964   -1.453234
  O     -0.343653   -2.166973   -2.351345
  H      1.880120    2.291764    0.041225
  H      1.920629   -2.279971   -0.073176
  H     -0.893938    2.416741   -0.447603
  H     -1.097933    1.819580    1.196927
  H     -2.188262    0.556603   -1.376000
  H     -3.100973    1.193838    0.000975
  H     -3.074382   -1.286828    0.093087
  H     -2.169231   -0.630462    1.462814
  H     -0.846082   -2.427269    0.593453
  H     -2.154149   -2.619102   -1.571883

 Multiplicity           Mult            ....    1
 Number of Electrons    NEL             ....   88
 Basis Dimension        Dim             ....  208

ORBITAL ENERGIES
----------------

  NO   OCC          E(Eh)            E(eV)
   0   2.0000     -88.867535     -2418.2086
   1   2.0000     -19.139176      -520.8035
   2   2.0000     -10.278938      -279.7041
   3   2.0000     -10.211127      -277.8589
   4   2.0000     -10.204092      -277.6675
   5   2.0000     -10.202444      -277.6226
   6   2.0000     -10.202398      -277.6214
   7   2.0000     -10.195852      -277.4432
   8   2.0000     -10.195693      -277.4389
   9   2.0000     -10.191893      -277.3355
  10   2.0000     -10.191662      -277.3292
  11   2.0000      -7.962556      -216.6722
  12   2.0000      -5.930605      -161.3800
  13   2.0000      -5.926488      -161.2679
  14   2.0000      -5.924162      -161.2046
  15   2.0000      -1.043597       -28.3977
  16   2.0000      -0.879542       -23.9336
  17   2.0000      -0.824256       -22.4291
  18   2.0000      -0.771046       -20.9812
  19   2.0000      -0.730329       -19.8733
  20   2.0000      -0.698405       -19.0046
  21   2.0000      -0.651297       -17.7227
  22   2.0000      -0.595724       -16.2105
  23   2.0000      -0.582484       -15.8502
  24   2.0000      -0.564170       -15.3519
  25   2.0000      -0.509440       -13.8626
  26   2.0000      -0.495866       -13.4932
  27   2.0000      -0.476182       -12.9576
  28   2.0000      -0.466568       -12.6960
  29   2.0000      -0.441725       -12.0199
  30   2.0000      -0.432901       -11.7798
  31   2.0000      -0.420102       -11.4315
  32   2.0000      -0.409765       -11.1503
  33   2.0000      -0.398982       -10.8569
  34   2.0000      -0.396453       -10.7880
  35   2.0000      -0.381909       -10.3923
  36   2.0000      -0.362531        -9.8650
  37   2.0000      -0.346428        -9.4268
  38   2.0000      -0.339292        -9.2326
  39   2.0000      -0.337244        -9.1769
  40   2.0000      -0.328710        -8.9446
  41   2.0000      -0.262850        -7.1525
  42   2.0000      -0.238425        -6.4879
  43   2.0000      -0.230224        -6.2647
  44   0.0000      -0.029938        -0.8147
  45   0.0000      -0.015500        -0.4218
  46   0.0000       0.045622         1.2414
  47   0.0000       0.049511         1.3473
  48   0.0000       0.054167         1.4740

MULLIKEN ATOMIC CHARGES
-----------------------
   0 C :   -0.144603
   1 S :    0.096963
   2 C :   -0.125447
   3 C :    0.015794
   4 C :   -0.042019
   5 C :    0.143758
   6 C :    0.007739
   7 C :    0.026565
   8 C :    0.008543
   9 C :    0.124863
  10 O :   -0.164414
  11 H :    0.008053
  12 H :    0.010559
  13 H :    0.000012
  14 H :    0.008449
  15 H :    0.013367
  16 H :   -0.001118
  17 H :   -0.003037
  18 H :    0.009463
  19 H :    0.020198
  20 H :   -0.013690
Sum of atomic charges:    0.0000000

LOEWDIN ATOMIC CHARGES
----------------------
   0 C :   -0.204516
   1 S :    0.431104
   2 C :   -0.188893
   3 C :   -0.065716
   4 C :   -0.064337
   5 C :   -0.021400
   6 C :   -0.030499
   7 C :   -0.020211
   8 C :   -0.065953
   9 C :    0.113894
  10 O :   -0.117522
  11 H :    0.020800
  12 H :    0.022544
  13 H :    0.030249
  14 H :    0.030290
  15 H :    0.023312
  16 H :    0.024337
  17 H :    0.020538
  18 H :    0.025332
  19 H :    0.048117
  20 H :   -0.011470

  Mayer bond orders larger than 0.100000
B(  0-C ,  1-S ) :   1.1611 B(  0-C ,  4-C ) :   1.5517 B(  0-C , 11-H ) :   0.9653
B(  1-S ,  2-C ) :   1.1712 B(  2-C ,  3-C ) :   1.5471 B(  2-C , 12-H ) :   0.9654
B(  3-C ,  4-C ) :   1.3097 B(  3-C ,  8-C ) :   0.9766 B(  4-C ,  5-C ) :   1.0413
B(  5-C ,  6-C ) :   1.0906 B(  5-C , 13-H ) :   0.9172 B(  5-C , 14-H ) :   0.9154
B(  6-C ,  7-C ) :   1.0705 B(  6-C , 15-H ) :   0.9444 B(  6-C , 16-H ) :   0.9323
B(  7-C ,  8-C ) :   1.0577 B(  7-C , 17-H ) :   0.9320 B(  7-C , 18-H ) :   0.9368
B(  8-C ,  9-C ) :   0.8994 B(  8-C , 19-H ) :   0.8692 B(  9-C , 10-O ) :   2.2107
B(  9-C , 20-H ) :   0.9287

Dispersion correction           -0.044299530
FINAL SINGLE POINT ENERGY      -822.005126782952

DIPOLE MOMENT
-------------
                                X             Y             Z
Electronic contribution:     12.04392      -2.39770      -2.09601
Nuclear contribution   :    -12.83667       2.58092       2.87895
                        -----------------------------------------
Total Dipole Moment    :     -0.79275       0.18322       0.78294
                        -----------------------------------------
Magnitude (a.u.)       :      1.12916
Magnitude (Debye)      :      2.87011

Rotational constants in cm-1:     0.048816     0.028660     0.020619
Rotational constants in MHz :  1463.458338   859.202549   618.142922

                             ****ORCA TERMINATED NORMALLY****
TOTAL RUN TIME: 0 days 0 hours 16 minutes 42 seconds 427 msec
