                         Program Version 4.2.0 -  RELEASE  -
|  1> # ORCA input file
|  2> # SCF done        -26.330109502009          0.000623592724
|  3> ! B3LYP/G D3BJ Opt RIJCOSX def2-SVP def2/J
|  4> * xyz 0 1
|  5>    C       -0.03705         1.44922         0.47638
|  6>    S       -1.20451         0.19627         0.49079
|  7>    C       -0.08815        -0.90677        -0.22662
|  8>    C        1.11740        -0.32234        -0.45799
|  9>    C        1.15973         1.05753        -0.05052
| 10>    C        2.35494         1.86073        -0.20936
| 11>    C        2.48116         3.14124         0.11886
| 12>    O        2.22123        -0.88803        -1.00870
| 13>    C        2.12105        -2.23851        -1.38529
| 14>    H       -0.30501         2.41118         0.86311
| 15>    H       -0.40903        -1.90904        -0.42383
| 16>    H        3.18923         1.32254        -0.63871
| 17>    H        1.67184         3.70910         0.54491
| 18>    H        3.40712         3.66848        -0.03079
| 19>    H        3.08868        -2.50629        -1.80597
| 20>    H        1.34124        -2.38420        -2.13945
| 21>    H        1.90832        -2.87671        -0.52195
| 22> *
| 23>
| 24>                          ****END OF INPUT****
 Total Charge           Charge          ....    0
 Multiplicity           Mult            ....    1
 Number of Electrons    NEL             ....   74
Dispersion correction           -0.030909539
FINAL SINGLE POINT ENERGY      -744.594739401923
Dispersion correction            ... done
Dispersion correction           -0.030762351
FINAL SINGLE POINT ENERGY      -744.597034474352
Dispersion correction            ... done
Dispersion correction           -0.030746704
FINAL SINGLE POINT ENERGY      -744.597107166337
Dispersion correction            ... done
FINAL SINGLE POINT ENERGY      -744.597109932506
FINAL SINGLE POINT ENERGY      -744.597120598035
Dispersion correction            ... done
Dispersion correction           -0.030750726
FINAL SINGLE POINT ENERGY      -744.597126103904
Dispersion correction            ... done
Dispersion correction           -0.030750780
FINAL SINGLE POINT ENERGY      -744.597127181520
Dispersion correction            ... done
                    ***********************HURRAY********************

CARTESIAN COORDINATES (ANGSTROEM)
---------------------------------
  C     -0.065453    1.457474    0.459214
  S     -1.226406    0.185275    0.496225
  C     -0.107146   -0.933307   -0.216043
  C      1.103043   -0.327158   -0.465676
  C      1.146054    1.064371   -0.069264
  C      2.350545    1.881123   -0.229279
  C      2.508447    3.158581    0.148725
  O      2.199829   -0.884846   -1.025985
  C      2.129194   -2.246870   -1.380817
  H     -0.329165    2.443149    0.838156
  H     -0.411947   -1.954438   -0.426437
  H      3.186510    1.360138   -0.705308
  H      1.708891    3.729470    0.630413
  H      3.453861    3.680468   -0.017005
  H      3.100573   -2.516347   -1.816272
  H      1.335867   -2.430680   -2.127830
  H      1.935491   -2.882004   -0.497947

 Multiplicity           Mult            ....    1
 Number of Electrons    NEL             ....   74
 Basis Dimension        Dim             ....  170

ORBITAL ENERGIES
----------------

  NO   OCC          E(Eh)            E(eV)
   0   2.0000     -88.872248     -2418.3368
   1   2.0000     -19.170699      -521.6612
   2   2.0000     -10.249987      -278.9163
   3   2.0000     -10.249002      -278.8895
   4   2.0000     -10.210301      -277.8364
   5   2.0000     -10.202625      -277.6276
   6   2.0000     -10.195310      -277.4285
   7   2.0000     -10.190990      -277.3109
   8   2.0000     -10.181627      -277.0562
   9   2.0000      -7.967095      -216.7957
  10   2.0000      -5.935290      -161.5075
  11   2.0000      -5.931231      -161.3970
  12   2.0000      -5.928343      -161.3184
  13   2.0000      -1.066133       -29.0110
  14   2.0000      -0.875644       -23.8275
  15   2.0000      -0.780836       -21.2476
  16   2.0000      -0.742608       -20.2074
  17   2.0000      -0.703804       -19.1515
  18   2.0000      -0.683689       -18.6041
  19   2.0000      -0.600308       -16.3352
  20   2.0000      -0.562226       -15.2990
  21   2.0000      -0.549976       -14.9656
  22   2.0000      -0.507429       -13.8078
  23   2.0000      -0.476869       -12.9763
  24   2.0000      -0.472183       -12.8488
  25   2.0000      -0.452282       -12.3072
  26   2.0000      -0.438172       -11.9233
  27   2.0000      -0.399112       -10.8604
  28   2.0000      -0.394513       -10.7352
  29   2.0000      -0.384667       -10.4673
  30   2.0000      -0.379230       -10.3194
  31   2.0000      -0.341633        -9.2963
  32   2.0000      -0.336852        -9.1662
  33   2.0000      -0.330847        -9.0028
  34   2.0000      -0.301224        -8.1967
  35   2.0000      -0.224425        -6.1069
  36   2.0000      -0.216606        -5.8941
  37   0.0000      -0.036044        -0.9808
  38   0.0000       0.024154         0.6573
  39   0.0000       0.045287         1.2323
  40   0.0000       0.059932         1.6308
  41   0.0000       0.081708         2.2234

MULLIKEN ATOMIC CHARGES
-----------------------
   0 C :   -0.138536
   1 S :    0.103874
   2 C :   -0.207802
   3 C :    0.202911
   4 C :    0.051833
   5 C :    0.014719
   6 C :   -0.027898
   7 O :   -0.309935
   8 C :    0.189184
   9 H :    0.018850
  10 H :    0.012111
  11 H :   -0.006513
  12 H :    0.008285
  13 H :    0.019998
  14 H :    0.031737
  15 H :    0.017437
  16 H :    0.019745
Sum of atomic charges:    0.0000000

LOEWDIN ATOMIC CHARGES
----------------------
   0 C :   -0.180826
   1 S :    0.430379
   2 C :   -0.264685
   3 C :    0.016183
   4 C :   -0.083620
   5 C :   -0.019054
   6 C :   -0.054456
   7 O :   -0.097601
   8 C :    0.083563
   9 H :    0.023399
  10 H :    0.020417
  11 H :    0.030657
  12 H :    0.017971
  13 H :    0.024695
  14 H :    0.026315
  15 H :    0.012762
  16 H :    0.013900

  Mayer bond orders larger than 0.100000
B(  0-C ,  1-S ) :   1.1831 B(  0-C ,  4-C ) :   1.5177 B(  0-C ,  9-H ) :   0.9577
B(  1-S ,  2-C ) :   1.1095 B(  2-C ,  3-C ) :   1.4833 B(  2-C , 10-H ) :   0.9694
B(  3-C ,  4-C ) :   1.2167 B(  3-C ,  7-O ) :   1.1588 B(  4-C ,  5-C ) :   1.1051
B(  5-C ,  6-C ) :   1.9292 B(  5-C , 11-H ) :   0.9527 B(  6-C , 12-H ) :   0.9458
B(  6-C , 13-H ) :   0.9457 B(  7-O ,  8-C ) :   0.9633 B(  8-C , 14-H ) :   0.9787
B(  8-C , 15-H ) :   0.9636 B(  8-C , 16-H ) :   0.9645

Dispersion correction           -0.030750112
FINAL SINGLE POINT ENERGY      -744.597126235322

DIPOLE MOMENT
-------------
                                X             Y             Z
Electronic contribution:     -6.82068       0.34262       2.35184
Nuclear contribution   :      6.83366      -0.91696      -2.52274
                        -----------------------------------------
Total Dipole Moment    :      0.01298      -0.57434      -0.17090
                        -----------------------------------------
Magnitude (a.u.)       :      0.59937
Magnitude (Debye)      :      1.52347

Rotational constants in cm-1:     0.051996     0.046234     0.024591
Rotational constants in MHz :  1558.793000  1386.047035   737.229129

                             ****ORCA TERMINATED NORMALLY****
TOTAL RUN TIME: 0 days 0 hours 6 minutes 29 seconds 820 msec
