                         Program Version 4.2.0 -  RELEASE  -
|  1> # ORCA input file
|  2> # SCF done        -32.553922515129          0.000996785757
|  3> ! B3LYP/G D3BJ Opt RIJCOSX def2-SVP def2/J
|  4> * xyz 0 1
|  5>    C       -1.11851         1.19979         0.03761
|  6>    S       -2.27547        -0.06750         0.03748
|  7>    C       -1.04197        -1.29676         0.03068
|  8>    C        0.20290        -0.71084         0.03910
|  9>    C        0.15275         0.71193         0.03332
| 10>    O        1.27463         1.49310         0.01468
| 11>    C        2.42491         0.75272        -0.34218
| 12>    C        2.47347        -0.56828         0.42568
| 13>    O        1.38566        -1.39682         0.06616
| 14>    C       -1.41916        -2.68441         0.01583
| 15>    C       -0.56858        -3.70516        -0.04718
| 16>    H       -1.42617         2.22433         0.04291
| 17>    H        3.28199         1.38127        -0.09766
| 18>    H        2.41544         0.54373        -1.42104
| 19>    H        2.44361        -0.36049         1.50432
| 20>    H        3.37759        -1.12904         0.18496
| 21>    H       -2.48625        -2.85861         0.05543
| 22>    H        0.49485        -3.54949        -0.09484
| 23>    H       -0.92019        -4.72226        -0.05044
| 24> *
| 25>
| 26>                          ****END OF INPUT****
 Total Charge           Charge          ....    0
 Multiplicity           Mult            ....    1
 Number of Electrons    NEL             ....   88
Dispersion correction           -0.037549947
FINAL SINGLE POINT ENERGY      -857.838374950376
Dispersion correction            ... done
Dispersion correction           -0.037348450
FINAL SINGLE POINT ENERGY      -857.840616552028
Dispersion correction            ... done
Dispersion correction           -0.037304713
FINAL SINGLE POINT ENERGY      -857.840732874581
Dispersion correction            ... done
FINAL SINGLE POINT ENERGY      -857.840667848424
Dispersion correction            ... done
Dispersion correction           -0.037282343
FINAL SINGLE POINT ENERGY      -857.840662388611
Dispersion correction            ... done
Dispersion correction           -0.037284932
FINAL SINGLE POINT ENERGY      -857.840685170572
Dispersion correction            ... done
                    ***********************HURRAY********************

CARTESIAN COORDINATES (ANGSTROEM)
---------------------------------
  C     -1.142308    1.219783    0.019234
  S     -2.295678   -0.070100    0.002101
  C     -1.049252   -1.300897    0.000181
  C      0.197940   -0.700049    0.008771
  C      0.142031    0.732866    0.024247
  O      1.265987    1.500099    0.058913
  C      2.446638    0.792499   -0.301605
  C      2.498264   -0.571558    0.369448
  O      1.381346   -1.374403   -0.005495
  C     -1.425293   -2.702211    0.011331
  C     -0.590893   -3.756139    0.014371
  H     -1.454054    2.261367    0.023861
  H      3.294580    1.412610    0.023272
  H      2.493736    0.674377   -1.400340
  H      2.517191   -0.449917    1.468240
  H      3.396873   -1.122484    0.057153
  H     -2.505418   -2.889481    0.026795
  H      0.492882   -3.627346   -0.000814
  H     -0.993072   -4.771804    0.035153

 Multiplicity           Mult            ....    1
 Number of Electrons    NEL             ....   88
 Basis Dimension        Dim             ....  198

ORBITAL ENERGIES
----------------

  NO   OCC          E(Eh)            E(eV)
   0   2.0000     -88.870108     -2418.2786
   1   2.0000     -19.176397      -521.8163
   2   2.0000     -19.172153      -521.7008
   3   2.0000     -10.261171      -279.2206
   4   2.0000     -10.260450      -279.2011
   5   2.0000     -10.249792      -278.9110
   6   2.0000     -10.248126      -278.8657
   7   2.0000     -10.211664      -277.8735
   8   2.0000     -10.206164      -277.7238
   9   2.0000     -10.196875      -277.4711
  10   2.0000     -10.177949      -276.9561
  11   2.0000      -7.964667      -216.7296
  12   2.0000      -5.932862      -161.4414
  13   2.0000      -5.929210      -161.3420
  14   2.0000      -5.925520      -161.2416
  15   2.0000      -1.087687       -29.5975
  16   2.0000      -1.051792       -28.6207
  17   2.0000      -0.878770       -23.9125
  18   2.0000      -0.781662       -21.2701
  19   2.0000      -0.775499       -21.1024
  20   2.0000      -0.716306       -19.4917
  21   2.0000      -0.704360       -19.1666
  22   2.0000      -0.655323       -17.8323
  23   2.0000      -0.598388       -16.2830
  24   2.0000      -0.573243       -15.5987
  25   2.0000      -0.552035       -15.0216
  26   2.0000      -0.539528       -14.6813
  27   2.0000      -0.500332       -13.6147
  28   2.0000      -0.479360       -13.0441
  29   2.0000      -0.453488       -12.3400
  30   2.0000      -0.452060       -12.3012
  31   2.0000      -0.447785       -12.1848
  32   2.0000      -0.433272       -11.7899
  33   2.0000      -0.410556       -11.1718
  34   2.0000      -0.406612       -11.0645
  35   2.0000      -0.385730       -10.4962
  36   2.0000      -0.363488        -9.8910
  37   2.0000      -0.351947        -9.5770
  38   2.0000      -0.344570        -9.3762
  39   2.0000      -0.336302        -9.1512
  40   2.0000      -0.311666        -8.4809
  41   2.0000      -0.287028        -7.8104
  42   2.0000      -0.220321        -5.9952
  43   2.0000      -0.204464        -5.5637
  44   0.0000      -0.036426        -0.9912
  45   0.0000       0.033504         0.9117
  46   0.0000       0.036567         0.9950
  47   0.0000       0.053208         1.4479
  48   0.0000       0.073485         1.9996

MULLIKEN ATOMIC CHARGES
-----------------------
   0 C :   -0.162218
   1 S :    0.102381
   2 C :   -0.181966
   3 C :    0.152952
   4 C :    0.188679
   5 O :   -0.310923
   6 C :    0.191769
   7 C :    0.198171
   8 O :   -0.315828
   9 C :    0.031884
  10 C :   -0.033639
  11 H :    0.016760
  12 H :    0.022654
  13 H :    0.025510
  14 H :    0.027624
  15 H :    0.021185
  16 H :   -0.017591
  17 H :    0.028583
  18 H :    0.014013
Sum of atomic charges:    0.0000000

LOEWDIN ATOMIC CHARGES
----------------------
   0 C :   -0.225530
   1 S :    0.426074
   2 C :   -0.208590
   3 C :   -0.014413
   4 C :   -0.019370
   5 O :   -0.109804
   6 C :    0.075421
   7 C :    0.077146
   8 O :   -0.101550
   9 C :   -0.044086
  10 C :   -0.057660
  11 H :    0.027706
  12 H :    0.031086
  13 H :    0.019891
  14 H :    0.021050
  15 H :    0.030649
  16 H :    0.026566
  17 H :    0.022705
  18 H :    0.022710

  Mayer bond orders larger than 0.100000
B(  0-C ,  1-S ) :   1.1233 B(  0-C ,  4-C ) :   1.5158 B(  0-C , 11-H ) :   0.9712
B(  1-S ,  2-C ) :   1.1164 B(  2-C ,  3-C ) :   1.4742 B(  2-C ,  9-C ) :   1.1278
B(  3-C ,  4-C ) :   1.1891 B(  3-C ,  8-O ) :   1.1177 B(  4-C ,  5-O ) :   1.1071
B(  5-O ,  6-C ) :   0.9633 B(  6-C ,  7-C ) :   1.0783 B(  6-C , 12-H ) :   0.9460
B(  6-C , 13-H ) :   0.9376 B(  7-C ,  8-O ) :   0.9524 B(  7-C , 14-H ) :   0.9384
B(  7-C , 15-H ) :   0.9464 B(  9-C , 10-C ) :   1.9151 B(  9-C , 16-H ) :   0.9445
B( 10-C , 17-H ) :   0.9438 B( 10-C , 18-H ) :   0.9408

Dispersion correction           -0.037283313
FINAL SINGLE POINT ENERGY      -857.840684225384

DIPOLE MOMENT
-------------
                                X             Y             Z
Electronic contribution:     -6.50594       4.41731      -0.07308
Nuclear contribution   :      7.39171      -4.22013       0.08975
                        -----------------------------------------
Total Dipole Moment    :      0.88577       0.19718       0.01667
                        -----------------------------------------
Magnitude (a.u.)       :      0.90761
Magnitude (Debye)      :      2.30696

Rotational constants in cm-1:     0.048437     0.031386     0.019343
Rotational constants in MHz :  1452.116997   940.933902   579.886656

                             ****ORCA TERMINATED NORMALLY****
TOTAL RUN TIME: 0 days 0 hours 7 minutes 33 seconds 816 msec
