                         Program Version 4.2.0 -  RELEASE  -
|  1> # ORCA input file
|  2> # SCF done        -44.207969217620          0.000865591884
|  3> ! B3LYP/G D3BJ Opt RIJCOSX def2-SVP def2/J
|  4> * xyz 0 1
|  5>    C        1.45881        -1.33160         0.39057
|  6>    S        2.69671        -0.16843         0.17230
|  7>    C        1.52286         1.10502        -0.04199
|  8>    C        0.24387         0.61272         0.07625
|  9>    C        0.21459        -0.78525         0.32097
| 10>    C       -1.05350        -1.56198         0.49904
| 11>    C       -2.24615        -0.77560        -0.04239
| 12>    C       -2.23929        -0.79127        -1.56239
| 13>    O       -1.54681        -1.49401        -2.24749
| 14>    O       -3.13959         0.06622        -2.06258
| 15>    C       -3.23571         0.11762        -3.47899
| 16>    C       -2.22015         0.65293         0.50780
| 17>    C       -1.01271         1.41936        -0.02971
| 18>    C        2.03498         2.42828        -0.28979
| 19>    C        1.37164         3.48780        -0.74600
| 20>    H        1.71967        -2.35832         0.55406
| 21>    H       -1.20904        -1.76600         1.56281
| 22>    H       -0.97074        -2.51923        -0.01909
| 23>    H       -3.17863        -1.26374         0.26461
| 24>    H       -3.85283         0.98145        -3.71315
| 25>    H       -3.69841        -0.79511        -3.85947
| 26>    H       -2.24323         0.21886        -3.92257
| 27>    H       -2.16741         0.60058         1.59735
| 28>    H       -3.13593         1.17707         0.23313
| 29>    H       -0.89656         2.35675         0.52026
| 30>    H       -1.18631         1.67170        -1.08085
| 31>    H        3.09563         2.52652        -0.09022
| 32>    H        0.33027         3.46503        -1.00770
| 33>    H        1.87673         4.42740        -0.89101
| 34> *
| 35>
| 36>                          ****END OF INPUT****
 Total Charge           Charge          ....    0
 Multiplicity           Mult            ....    1
 Number of Electrons    NEL             ....  118
Dispersion correction           -0.062654700
FINAL SINGLE POINT ENERGY     -1013.838607719864
Dispersion correction            ... done
Dispersion correction           -0.061823010
FINAL SINGLE POINT ENERGY     -1013.841840740794
Dispersion correction            ... done
Dispersion correction           -0.061620555
FINAL SINGLE POINT ENERGY     -1013.841935934891
Dispersion correction            ... done
FINAL SINGLE POINT ENERGY     -1013.841662169472
FINAL SINGLE POINT ENERGY     -1013.841793745079
FINAL SINGLE POINT ENERGY     -1013.841802835986
FINAL SINGLE POINT ENERGY     -1013.841800725739
FINAL SINGLE POINT ENERGY     -1013.841822350130
FINAL SINGLE POINT ENERGY     -1013.841857143123
FINAL SINGLE POINT ENERGY     -1013.841897105420
Dispersion correction            ... done
Dispersion correction           -0.061646771
FINAL SINGLE POINT ENERGY     -1013.841952166982
Dispersion correction            ... done
Dispersion correction           -0.061629691
FINAL SINGLE POINT ENERGY     -1013.841955068282
Dispersion correction            ... done
                    ***********************HURRAY********************

CARTESIAN COORDINATES (ANGSTROEM)
---------------------------------
  C      1.478691   -1.362909    0.308301
  S      2.733819   -0.207357    0.089131
  C      1.587990    1.108159   -0.046425
  C      0.285503    0.636155    0.084151
  C      0.231881   -0.781739    0.295054
  C     -1.066205   -1.519949    0.500811
  C     -2.254679   -0.735326   -0.065098
  C     -2.292486   -0.836325   -1.583037
  O     -1.619262   -1.577911   -2.254467
  O     -3.208106   -0.000349   -2.111637
  C     -3.351784   -0.058229   -3.530033
  C     -2.230008    0.722190    0.426553
  C     -0.966147    1.468958   -0.023522
  C      2.129303    2.440180   -0.265140
  C      1.477528    3.592916   -0.507599
  H      1.716334   -2.417018    0.442613
  H     -1.238792   -1.674297    1.580188
  H     -1.011997   -2.513332    0.035365
  H     -3.193672   -1.200137    0.283867
  H     -4.138407    0.659132   -3.790450
  H     -3.635384   -1.071646   -3.852283
  H     -2.408575    0.211135   -4.028590
  H     -2.283357    0.707419    1.527787
  H     -3.120522    1.254756    0.066343
  H     -0.858934    2.394968    0.563137
  H     -1.090078    1.796499   -1.072458
  H      3.224165    2.488304   -0.221019
  H      0.393388    3.662319   -0.596432
  H      2.042553    4.518205   -0.641353

 Multiplicity           Mult            ....    1
 Number of Electrons    NEL             ....  118
 Basis Dimension        Dim             ....  284

ORBITAL ENERGIES
----------------

  NO   OCC          E(Eh)            E(eV)
   0   2.0000     -88.865010     -2418.1399
   1   2.0000     -19.180894      -521.9387
   2   2.0000     -19.123701      -520.3823
   3   2.0000     -10.311355      -280.5862
   4   2.0000     -10.247509      -278.8489
   5   2.0000     -10.209158      -277.8053
   6   2.0000     -10.207923      -277.7717
   7   2.0000     -10.202198      -277.6159
   8   2.0000     -10.200854      -277.5793
   9   2.0000     -10.194906      -277.4175
  10   2.0000     -10.194845      -277.4158
  11   2.0000     -10.193398      -277.3765
  12   2.0000     -10.191514      -277.3252
  13   2.0000     -10.190320      -277.2927
  14   2.0000     -10.184874      -277.1445
  15   2.0000      -7.960205      -216.6082
  16   2.0000      -5.928144      -161.3130
  17   2.0000      -5.924322      -161.2090
  18   2.0000      -5.921633      -161.1358
  19   2.0000      -1.099467       -29.9180
  20   2.0000      -1.008110       -27.4321
  21   2.0000      -0.880462       -23.9586
  22   2.0000      -0.827769       -22.5247
  23   2.0000      -0.781356       -21.2618
  24   2.0000      -0.755606       -20.5611
  25   2.0000      -0.741191       -20.1688
  26   2.0000      -0.715921       -19.4812
  27   2.0000      -0.687756       -18.7148
  28   2.0000      -0.634839       -17.2748
  29   2.0000      -0.615948       -16.7608
  30   2.0000      -0.590130       -16.0583
  31   2.0000      -0.562226       -15.2989
  32   2.0000      -0.547122       -14.8879
  33   2.0000      -0.520986       -14.1768
  34   2.0000      -0.501143       -13.6368
  35   2.0000      -0.481111       -13.0917
  36   2.0000      -0.478791       -13.0286
  37   2.0000      -0.473964       -12.8972
  38   2.0000      -0.453867       -12.3503
  39   2.0000      -0.452399       -12.3104
  40   2.0000      -0.435869       -11.8606
  41   2.0000      -0.431432       -11.7399
  42   2.0000      -0.411730       -11.2037
  43   2.0000      -0.406350       -11.0573
  44   2.0000      -0.398420       -10.8416
  45   2.0000      -0.396052       -10.7771
  46   2.0000      -0.380753       -10.3608
  47   2.0000      -0.374680       -10.1956
  48   2.0000      -0.365019        -9.9327
  49   2.0000      -0.358323        -9.7505
  50   2.0000      -0.352508        -9.5922
  51   2.0000      -0.336787        -9.1644
  52   2.0000      -0.330665        -8.9979
  53   2.0000      -0.320918        -8.7326
  54   2.0000      -0.309980        -8.4350
  55   2.0000      -0.295816        -8.0496
  56   2.0000      -0.276521        -7.5245
  57   2.0000      -0.237945        -6.4748
  58   2.0000      -0.210173        -5.7191
  59   0.0000      -0.039977        -1.0878
  60   0.0000       0.002399         0.0653
  61   0.0000       0.029686         0.8078
  62   0.0000       0.038013         1.0344
  63   0.0000       0.052039         1.4161

MULLIKEN ATOMIC CHARGES
-----------------------
   0 C :   -0.123957
   1 S :    0.099820
   2 C :   -0.165895
   3 C :   -0.036166
   4 C :   -0.057157
   5 C :    0.207735
   6 C :   -0.113612
   7 C :    0.187914
   8 O :   -0.215918
   9 O :   -0.314317
  10 C :    0.191446
  11 C :    0.068620
  12 C :    0.081357
  13 C :    0.037397
  14 C :   -0.047113
  15 H :    0.010497
  16 H :    0.006966
  17 H :    0.005901
  18 H :    0.016066
  19 H :    0.029167
  20 H :    0.028381
  21 H :    0.031527
  22 H :    0.006246
  23 H :    0.007847
  24 H :    0.019895
  25 H :    0.022984
  26 H :   -0.011289
  27 H :    0.008375
  28 H :    0.017283
Sum of atomic charges:   -0.0000000

LOEWDIN ATOMIC CHARGES
----------------------
   0 C :   -0.196076
   1 S :    0.430121
   2 C :   -0.184514
   3 C :   -0.057677
   4 C :   -0.060472
   5 C :   -0.011522
   6 C :   -0.054682
   7 C :    0.088911
   8 O :   -0.168760
   9 O :   -0.099933
  10 C :    0.084085
  11 C :   -0.017262
  12 C :   -0.027678
  13 C :   -0.040821
  14 C :   -0.064958
  15 H :    0.022712
  16 H :    0.031485
  17 H :    0.033577
  18 H :    0.042410
  19 H :    0.023183
  20 H :    0.020962
  21 H :    0.022219
  22 H :    0.024512
  23 H :    0.025908
  24 H :    0.032896
  25 H :    0.031045
  26 H :    0.027645
  27 H :    0.017870
  28 H :    0.024815

  Mayer bond orders larger than 0.100000
B(  0-C ,  1-S ) :   1.1534 B(  0-C ,  4-C ) :   1.5380 B(  0-C , 15-H ) :   0.9636
B(  1-S ,  2-C ) :   1.1294 B(  2-C ,  3-C ) :   1.4990 B(  2-C , 13-C ) :   1.1247
B(  3-C ,  4-C ) :   1.2975 B(  3-C , 12-C ) :   1.0725 B(  4-C ,  5-C ) :   1.0304
B(  5-C ,  6-C ) :   1.0720 B(  5-C , 16-H ) :   0.9070 B(  5-C , 17-H ) :   0.9017
B(  6-C ,  7-C ) :   0.9325 B(  6-C , 11-C ) :   1.0547 B(  6-C , 18-H ) :   0.8827
B(  7-C ,  8-O ) :   2.0897 B(  7-C ,  9-O ) :   1.1737 B(  9-O , 10-C ) :   0.9246
B( 10-C , 19-H ) :   0.9793 B( 10-C , 20-H ) :   0.9744 B( 10-C , 21-H ) :   0.9736
B( 11-C , 12-C ) :   1.0865 B( 11-C , 22-H ) :   0.9359 B( 11-C , 23-H ) :   0.9209
B( 12-C , 24-H ) :   0.9042 B( 12-C , 25-H ) :   0.9041 B( 13-C , 14-C ) :   1.9055
B( 13-C , 26-H ) :   0.9419 B( 14-C , 27-H ) :   0.9526 B( 14-C , 28-H ) :   0.9392

Dispersion correction           -0.061613013
FINAL SINGLE POINT ENERGY     -1013.841930056226

DIPOLE MOMENT
-------------
                                X             Y             Z
Electronic contribution:     10.08569      -6.02921       1.60857
Nuclear contribution   :    -10.94766       6.29644      -1.50718
                        -----------------------------------------
Total Dipole Moment    :     -0.86197       0.26723       0.10139
                        -----------------------------------------
Magnitude (a.u.)       :      0.90812
Magnitude (Debye)      :      2.30826

Rotational constants in cm-1:     0.028602     0.012347     0.010603
Rotational constants in MHz :   857.465039   370.168178   317.875024

                             ****ORCA TERMINATED NORMALLY****
TOTAL RUN TIME: 0 days 0 hours 31 minutes 32 seconds 377 msec
