                         Program Version 4.2.0 -  RELEASE  -
|  1> # ORCA input file
|  2> # SCF done        -28.956195876043          0.000572542902
|  3> ! B3LYP/G D3BJ Opt RIJCOSX def2-SVP def2/J
|  4> * xyz 0 1
|  5>    C       -0.37911         1.13354        -0.45497
|  6>    N       -1.01263        -0.05578        -0.40835
|  7>    C       -0.14168        -1.02896        -0.01455
|  8>    C        1.08291        -0.41932         0.20759
|  9>    C        0.92650         0.94473        -0.06764
| 10>    C       -0.54169        -2.41284         0.12823
| 11>    C       -2.01432        -2.68460         0.13580
| 12>    O       -2.82323        -2.05329        -0.52209
| 13>    N       -2.40416        -3.68787         0.95142
| 14>    C        0.33791        -3.41868         0.21682
| 15>    H       -0.88687         2.02920        -0.75486
| 16>    H       -1.96916        -0.26169        -0.66513
| 17>    H        1.98021        -0.89861         0.54522
| 18>    H        1.68277         1.70083         0.00809
| 19>    H       -1.75302        -4.19365         1.52338
| 20>    H       -3.38116        -3.92729         0.98841
| 21>    H        1.39634        -3.23469         0.17129
| 22>    H        0.03500        -4.44883         0.28871
| 23> *
| 24>
| 25>                          ****END OF INPUT****
 Total Charge           Charge          ....    0
 Multiplicity           Mult            ....    1
 Number of Electrons    NEL             ....   72
Dispersion correction           -0.031768410
FINAL SINGLE POINT ENERGY      -455.986303410576
Dispersion correction            ... done
Dispersion correction           -0.031639344
FINAL SINGLE POINT ENERGY      -455.989024681478
Dispersion correction            ... done
Dispersion correction           -0.031642662
FINAL SINGLE POINT ENERGY      -455.989164924011
Dispersion correction            ... done
FINAL SINGLE POINT ENERGY      -455.989142983465
FINAL SINGLE POINT ENERGY      -455.989170432084
FINAL SINGLE POINT ENERGY      -455.989187752846
FINAL SINGLE POINT ENERGY      -455.989193138341
FINAL SINGLE POINT ENERGY      -455.989196392644
Dispersion correction            ... done
Dispersion correction           -0.031652992
FINAL SINGLE POINT ENERGY      -455.989204474630
Dispersion correction            ... done
Dispersion correction           -0.031652148
FINAL SINGLE POINT ENERGY      -455.989214543924
Dispersion correction            ... done
                    ***********************HURRAY********************

CARTESIAN COORDINATES (ANGSTROEM)
---------------------------------
  C     -0.387838    1.170058   -0.432780
  N     -1.022387   -0.033094   -0.360986
  C     -0.131949   -1.021719   -0.001967
  C      1.110200   -0.407421    0.175958
  C      0.946602    0.973467   -0.095924
  C     -0.533450   -2.417246    0.140690
  C     -2.016115   -2.712106    0.123665
  O     -2.803705   -2.071706   -0.564608
  N     -2.422942   -3.741757    0.913205
  C      0.345482   -3.437505    0.238793
  H     -0.921154    2.073314   -0.719604
  H     -1.976581   -0.264612   -0.629115
  H      2.023155   -0.905479    0.494759
  H      1.712190    1.744689   -0.042830
  H     -1.806180   -4.162281    1.593382
  H     -3.410706   -3.967067    0.931338
  H      1.423064   -3.265647    0.188911
  H      0.006925   -4.471689    0.324483

 Multiplicity           Mult            ....    1
 Number of Electrons    NEL             ....   72
 Basis Dimension        Dim             ....  180

ORBITAL ENERGIES
----------------

  NO   OCC          E(Eh)            E(eV)
   0   2.0000     -19.112323      -520.0728
   1   2.0000     -14.362401      -390.8208
   2   2.0000     -14.360672      -390.7738
   3   2.0000     -10.302051      -280.3330
   4   2.0000     -10.213436      -277.9217
   5   2.0000     -10.207994      -277.7736
   6   2.0000     -10.203994      -277.6648
   7   2.0000     -10.196588      -277.4633
   8   2.0000     -10.169202      -276.7181
   9   2.0000     -10.167996      -276.6852
  10   2.0000      -1.037440       -28.2302
  11   2.0000      -0.962857       -26.2007
  12   2.0000      -0.907845       -24.7037
  13   2.0000      -0.798392       -21.7254
  14   2.0000      -0.758918       -20.6512
  15   2.0000      -0.702836       -19.1251
  16   2.0000      -0.640106       -17.4182
  17   2.0000      -0.591328       -16.0909
  18   2.0000      -0.581323       -15.8186
  19   2.0000      -0.560495       -15.2518
  20   2.0000      -0.554279       -15.0827
  21   2.0000      -0.504409       -13.7257
  22   2.0000      -0.474857       -12.9215
  23   2.0000      -0.450654       -12.2629
  24   2.0000      -0.432447       -11.7675
  25   2.0000      -0.424207       -11.5433
  26   2.0000      -0.412959       -11.2372
  27   2.0000      -0.401153       -10.9159
  28   2.0000      -0.398130       -10.8337
  29   2.0000      -0.380159       -10.3446
  30   2.0000      -0.374896       -10.2014
  31   2.0000      -0.303728        -8.2649
  32   2.0000      -0.286535        -7.7970
  33   2.0000      -0.268460        -7.3052
  34   2.0000      -0.243569        -6.6279
  35   2.0000      -0.199990        -5.4420
  36   0.0000      -0.045577        -1.2402
  37   0.0000       0.026681         0.7260
  38   0.0000       0.046278         1.2593
  39   0.0000       0.066508         1.8098
  40   0.0000       0.079825         2.1722

MULLIKEN ATOMIC CHARGES
-----------------------
   0 C :    0.055775
   1 N :   -0.050034
   2 C :    0.030492
   3 C :   -0.059855
   4 C :   -0.009727
   5 C :   -0.013142
   6 C :    0.108426
   7 O :   -0.272274
   8 N :   -0.077617
   9 C :   -0.072838
  10 H :   -0.008092
  11 H :    0.136472
  12 H :   -0.037339
  13 H :   -0.022491
  14 H :    0.124206
  15 H :    0.127978
  16 H :    0.028871
  17 H :    0.011190
Sum of atomic charges:   -0.0000000

LOEWDIN ATOMIC CHARGES
----------------------
   0 C :   -0.015464
   1 N :    0.094980
   2 C :   -0.028402
   3 C :   -0.069713
   4 C :   -0.081200
   5 C :   -0.055242
   6 C :    0.083068
   7 O :   -0.227296
   8 N :    0.008090
   9 C :   -0.054320
  10 H :    0.018730
  11 H :    0.079949
  12 H :    0.019227
  13 H :    0.022041
  14 H :    0.078536
  15 H :    0.081602
  16 H :    0.027292
  17 H :    0.018122

  Mayer bond orders larger than 0.100000
B(  0-C ,  1-N ) :   1.2486 B(  0-C ,  4-C ) :   1.4321 B(  0-C , 10-H ) :   0.9891
B(  1-N ,  2-C ) :   1.2552 B(  1-N , 11-H ) :   0.8914 B(  2-C ,  3-C ) :   1.4424
B(  2-C ,  5-C ) :   1.0555 B(  3-C ,  4-C ) :   1.3314 B(  3-C , 12-H ) :   0.9959
B(  4-C , 13-H ) :   0.9990 B(  5-C ,  6-C ) :   0.8884 B(  5-C ,  9-C ) :   1.8807
B(  6-C ,  7-O ) :   1.9951 B(  6-C ,  8-N ) :   1.2814 B(  8-N , 14-H ) :   0.9401
B(  8-N , 15-H ) :   0.9380 B(  9-C , 16-H ) :   0.9422 B(  9-C , 17-H ) :   0.9397

Dispersion correction           -0.031651535
FINAL SINGLE POINT ENERGY      -455.989216942375

DIPOLE MOMENT
-------------
                                X             Y             Z
Electronic contribution:     -3.12482       0.91078      -1.08441
Nuclear contribution   :      2.93081      -1.74086       1.85743
                        -----------------------------------------
Total Dipole Moment    :     -0.19402      -0.83008       0.77302
                        -----------------------------------------
Magnitude (a.u.)       :      1.15076
Magnitude (Debye)      :      2.92499

Rotational constants in cm-1:     0.096353     0.032253     0.025068
Rotational constants in MHz :  2888.594537   966.916582   751.530347

                             ****ORCA TERMINATED NORMALLY****
TOTAL RUN TIME: 0 days 0 hours 9 minutes 27 seconds 767 msec
