                         Program Version 4.2.0 -  RELEASE  -
|  1> # ORCA input file
|  2> # SCF done        -28.136211769871          0.000537952322
|  3> ! B3LYP/G D3BJ Opt RIJCOSX def2-SVP def2/J
|  4> * xyz 0 1
|  5>    C       -1.32969        -0.14850         0.13508
|  6>    S       -0.53269         1.36368         0.10114
|  7>    C        1.02527         0.61149        -0.07571
|  8>    C        0.90151        -0.76445        -0.10501
|  9>    C       -0.45835        -1.19547         0.01774
| 10>    C       -0.85202        -2.54805         0.02025
| 11>    N       -1.17900        -3.64583         0.02447
| 12>    C        1.95020        -1.69020        -0.23905
| 13>    N        2.77308        -2.48197        -0.34713
| 14>    C        2.18956         1.45380        -0.16418
| 15>    C        3.44414         1.03493        -0.31047
| 16>    H       -2.39578        -0.20112         0.23940
| 17>    H        1.97633         2.51328        -0.10165
| 18>    H        3.70165        -0.00765        -0.37589
| 19>    H        4.25637         1.73788        -0.36706
| 20> *
| 21>
| 22>                          ****END OF INPUT****
 Total Charge           Charge          ....    0
 Multiplicity           Mult            ....    1
 Number of Electrons    NEL             ....   82
Dispersion correction           -0.035196083
FINAL SINGLE POINT ENERGY      -814.501457228703
Dispersion correction            ... done
Dispersion correction           -0.034830953
FINAL SINGLE POINT ENERGY      -814.504731814166
Dispersion correction            ... done
Dispersion correction           -0.034786288
FINAL SINGLE POINT ENERGY      -814.504847031211
Dispersion correction            ... done
FINAL SINGLE POINT ENERGY      -814.504850357927
FINAL SINGLE POINT ENERGY      -814.504904394677
FINAL SINGLE POINT ENERGY      -814.504922566662
Dispersion correction            ... done
Dispersion correction           -0.034771793
FINAL SINGLE POINT ENERGY      -814.504925763992
Dispersion correction            ... done
Dispersion correction           -0.034771890
FINAL SINGLE POINT ENERGY      -814.504929453433
Dispersion correction            ... done
                    ***********************HURRAY********************

CARTESIAN COORDINATES (ANGSTROEM)
---------------------------------
  C     -1.354980   -0.147731    0.149676
  S     -0.528534    1.354936    0.095526
  C      1.028723    0.595745   -0.099019
  C      0.884879   -0.790102   -0.126194
  C     -0.488778   -1.211985    0.022609
  C     -0.910426   -2.575628    0.040167
  N     -1.265922   -3.680171    0.057748
  C      1.957152   -1.711275   -0.289476
  N      2.831514   -2.463237   -0.425344
  C      2.204405    1.450262   -0.189122
  C      3.487473    1.059409   -0.270815
  H     -2.434444   -0.194445    0.279112
  H      1.986714    2.523942   -0.179373
  H      3.793941    0.012451   -0.282410
  H      4.278862    1.809650   -0.331156

 Multiplicity           Mult            ....    1
 Number of Electrons    NEL             ....   82
 Basis Dimension        Dim             ....  178

ORBITAL ENERGIES
----------------

  NO   OCC          E(Eh)            E(eV)
   0   2.0000     -88.924790     -2419.7666
   1   2.0000     -14.346511      -390.3884
   2   2.0000     -14.344698      -390.3391
   3   2.0000     -10.273738      -279.5626
   4   2.0000     -10.269156      -279.4379
   5   2.0000     -10.265710      -279.3442
   6   2.0000     -10.265484      -279.3380
   7   2.0000     -10.247158      -278.8394
   8   2.0000     -10.244949      -278.7792
   9   2.0000     -10.237036      -278.5639
  10   2.0000     -10.222439      -278.1667
  11   2.0000      -8.020071      -218.2372
  12   2.0000      -5.988013      -162.9421
  13   2.0000      -5.983862      -162.8292
  14   2.0000      -5.981636      -162.7686
  15   2.0000      -0.943855       -25.6836
  16   2.0000      -0.912462       -24.8293
  17   2.0000      -0.908864       -24.7315
  18   2.0000      -0.826710       -22.4959
  19   2.0000      -0.806888       -21.9565
  20   2.0000      -0.762746       -20.7554
  21   2.0000      -0.671966       -18.2851
  22   2.0000      -0.639043       -17.3892
  23   2.0000      -0.622820       -16.9478
  24   2.0000      -0.568560       -15.4713
  25   2.0000      -0.505726       -13.7615
  26   2.0000      -0.494799       -13.4642
  27   2.0000      -0.480842       -13.0844
  28   2.0000      -0.456624       -12.4254
  29   2.0000      -0.435933       -11.8623
  30   2.0000      -0.410269       -11.1640
  31   2.0000      -0.401262       -10.9189
  32   2.0000      -0.384215       -10.4550
  33   2.0000      -0.377304       -10.2670
  34   2.0000      -0.376049       -10.2328
  35   2.0000      -0.373328       -10.1588
  36   2.0000      -0.354873        -9.6566
  37   2.0000      -0.348207        -9.4752
  38   2.0000      -0.335992        -9.1428
  39   2.0000      -0.291197        -7.9239
  40   2.0000      -0.261379        -7.1125
  41   0.0000      -0.095986        -2.6119
  42   0.0000      -0.064449        -1.7538
  43   0.0000      -0.024789        -0.6745
  44   0.0000       0.007349         0.2000
  45   0.0000       0.013346         0.3632

MULLIKEN ATOMIC CHARGES
-----------------------
   0 C :   -0.083816
   1 S :    0.164896
   2 C :   -0.131602
   3 C :    0.009270
   4 C :   -0.039473
   5 C :   -0.161149
   6 N :    0.141836
   7 C :   -0.209871
   8 N :    0.142284
   9 C :    0.029362
  10 C :   -0.010460
  11 H :    0.051638
  12 H :    0.001163
  13 H :    0.054060
  14 H :    0.041860
Sum of atomic charges:   -0.0000000

LOEWDIN ATOMIC CHARGES
----------------------
   0 C :   -0.150105
   1 S :    0.493431
   2 C :   -0.136465
   3 C :   -0.086865
   4 C :   -0.078685
   5 C :   -0.027892
   6 N :   -0.039021
   7 C :   -0.023029
   8 N :   -0.045593
   9 C :   -0.054124
  10 C :   -0.001195
  11 H :    0.043153
  12 H :    0.033353
  13 H :    0.036603
  14 H :    0.036431

  Mayer bond orders larger than 0.100000
B(  0-C ,  1-S ) :   1.1739 B(  0-C ,  4-C ) :   1.5202 B(  0-C , 11-H ) :   0.9704
B(  1-S ,  2-C ) :   1.1544 B(  2-C ,  3-C ) :   1.4628 B(  2-C ,  9-C ) :   1.1226
B(  3-C ,  4-C ) :   1.2943 B(  3-C ,  7-C ) :   1.1647 B(  4-C ,  5-C ) :   1.1264
B(  5-C ,  6-N ) :   3.0060 B(  7-C ,  8-N ) :   2.9365 B(  9-C , 10-C ) :   1.9166
B(  9-C , 12-H ) :   0.9400 B( 10-C , 13-H ) :   0.9482 B( 10-C , 14-H ) :   0.9393

Dispersion correction           -0.034771548
FINAL SINGLE POINT ENERGY      -814.504930592142

DIPOLE MOMENT
-------------
                                X             Y             Z
Electronic contribution:     -5.37426      -3.13071       0.35476
Nuclear contribution   :      4.97565       5.65061      -0.21271
                        -----------------------------------------
Total Dipole Moment    :     -0.39862       2.51989       0.14205
                        -----------------------------------------
Magnitude (a.u.)       :      2.55518
Magnitude (Debye)      :      6.49474

Rotational constants in cm-1:     0.044292     0.030577     0.018094
Rotational constants in MHz :  1327.849733   916.662386   542.459042

                             ****ORCA TERMINATED NORMALLY****
TOTAL RUN TIME: 0 days 0 hours 7 minutes 39 seconds 963 msec
