                         Program Version 4.2.0 -  RELEASE  -
|  1> # ORCA input file
|  2> # SCF done        -36.677597026960          0.000336286986
|  3> ! B3LYP/G D3BJ Opt RIJCOSX def2-SVP def2/J
|  4> * xyz 0 1
|  5>    C        1.09916        -0.64423         0.29633
|  6>    C        1.12018         0.69241         0.68228
|  7>    O        2.24461         1.44617         0.85255
|  8>    C        3.50424         0.85128         0.62047
|  9>    C        4.56727         1.91029         0.86955
| 10>    C       -0.08976         1.33879         0.92059
| 11>    C       -1.29449         0.67827         0.77883
| 12>    C       -1.31561        -0.65779         0.39067
| 13>    C       -0.10565        -1.30460         0.15405
| 14>    O       -2.44033        -1.41037         0.21703
| 15>    C       -3.70072        -0.80880         0.42625
| 16>    C       -4.76532        -1.85716         0.14148
| 17>    H        2.01271        -1.18392         0.10290
| 18>    H        3.56688         0.48832        -0.41548
| 19>    H        3.65189        -0.00070         1.29967
| 20>    H        4.41367         2.75260         0.20072
| 21>    H        5.55483         1.49205         0.69732
| 22>    H        4.50273         2.26639         1.89404
| 23>    H       -0.06682         2.37459         1.22042
| 24>    H       -2.20801         1.21722         0.97430
| 25>    H       -0.12850        -2.34056        -0.14526
| 26>    H       -3.82662         0.05109        -0.24713
| 27>    H       -3.78465        -0.45601         1.46423
| 28>    H       -4.67961        -2.20228        -0.88523
| 29>    H       -5.75362        -1.43351         0.29571
| 30>    H       -4.63301        -2.70795         0.80404
| 31> *
| 32>
| 33>                          ****END OF INPUT****
 Total Charge           Charge          ....    0
 Multiplicity           Mult            ....    1
 Number of Electrons    NEL             ....   90
Dispersion correction           -0.041139202
FINAL SINGLE POINT ENERGY      -539.578243593355
Dispersion correction            ... done
Dispersion correction           -0.041033971
FINAL SINGLE POINT ENERGY      -539.580423654589
Dispersion correction            ... done
Dispersion correction           -0.041020726
FINAL SINGLE POINT ENERGY      -539.580473525022
Dispersion correction            ... done
FINAL SINGLE POINT ENERGY      -539.580408258287
Dispersion correction            ... done
Dispersion correction           -0.041021211
FINAL SINGLE POINT ENERGY      -539.580384801359
Dispersion correction            ... done
Dispersion correction           -0.041023105
FINAL SINGLE POINT ENERGY      -539.580379761933
Dispersion correction            ... done
                    ***********************HURRAY********************

CARTESIAN COORDINATES (ANGSTROEM)
---------------------------------
  C      1.113202   -0.646273    0.309078
  C      1.123619    0.692736    0.731131
  O      2.249160    1.423885    0.953915
  C      3.509294    0.844160    0.679358
  C      4.569232    1.910591    0.858605
  C     -0.096613    1.345732    0.940892
  C     -1.309705    0.688683    0.737923
  C     -1.320122   -0.650318    0.315846
  C     -0.099889   -1.303328    0.106129
  O     -2.445665   -1.381427    0.092920
  C     -3.705799   -0.801721    0.367529
  C     -4.765748   -1.868145    0.188320
  H      2.041351   -1.188532    0.132835
  H      3.528349    0.450972   -0.354832
  H      3.691034   -0.012643    1.356438
  H      4.376973    2.759097    0.185279
  H      5.563988    1.496948    0.629984
  H      4.574906    2.290712    1.891669
  H     -0.072604    2.383267    1.278421
  H     -2.237849    1.230960    0.914134
  H     -0.123896   -2.340863   -0.231398
  H     -3.887531    0.055093   -0.309542
  H     -3.724842   -0.408537    1.401719
  H     -4.771691   -2.248128   -0.844792
  H     -5.760460   -1.454600    0.417291
  H     -4.573241   -2.716729    0.861479

 Multiplicity           Mult            ....    1
 Number of Electrons    NEL             ....   90
 Basis Dimension        Dim             ....  238

ORBITAL ENERGIES
----------------

  NO   OCC          E(Eh)            E(eV)
   0   2.0000     -19.153907      -521.2043
   1   2.0000     -19.153899      -521.2041
   2   2.0000     -10.241897      -278.6962
   3   2.0000     -10.241896      -278.6962
   4   2.0000     -10.237152      -278.5671
   5   2.0000     -10.237079      -278.5651
   6   2.0000     -10.185952      -277.1738
   7   2.0000     -10.185952      -277.1738
   8   2.0000     -10.185746      -277.1682
   9   2.0000     -10.185686      -277.1666
  10   2.0000     -10.182019      -277.0668
  11   2.0000     -10.181962      -277.0653
  12   2.0000      -1.050935       -28.5974
  13   2.0000      -1.050097       -28.5746
  14   2.0000      -0.840800       -22.8793
  15   2.0000      -0.777221       -21.1493
  16   2.0000      -0.756870       -20.5955
  17   2.0000      -0.738225       -20.0881
  18   2.0000      -0.702477       -19.1154
  19   2.0000      -0.647092       -17.6083
  20   2.0000      -0.616051       -16.7636
  21   2.0000      -0.600909       -16.3516
  22   2.0000      -0.569185       -15.4883
  23   2.0000      -0.541489       -14.7347
  24   2.0000      -0.524336       -14.2679
  25   2.0000      -0.484857       -13.1936
  26   2.0000      -0.482950       -13.1417
  27   2.0000      -0.481935       -13.1141
  28   2.0000      -0.443554       -12.0697
  29   2.0000      -0.420649       -11.4464
  30   2.0000      -0.419236       -11.4080
  31   2.0000      -0.414864       -11.2890
  32   2.0000      -0.403623       -10.9831
  33   2.0000      -0.391938       -10.6652
  34   2.0000      -0.388932       -10.5834
  35   2.0000      -0.388646       -10.5756
  36   2.0000      -0.382476       -10.4077
  37   2.0000      -0.362920        -9.8756
  38   2.0000      -0.357021        -9.7150
  39   2.0000      -0.331977        -9.0336
  40   2.0000      -0.331677        -9.0254
  41   2.0000      -0.317394        -8.6367
  42   2.0000      -0.287565        -7.8250
  43   2.0000      -0.253753        -6.9050
  44   2.0000      -0.199483        -5.4282
  45   0.0000      -0.007511        -0.2044
  46   0.0000       0.022674         0.6170
  47   0.0000       0.061205         1.6655
  48   0.0000       0.061702         1.6790
  49   0.0000       0.074088         2.0160

MULLIKEN ATOMIC CHARGES
-----------------------
   0 C :   -0.083262
   1 C :    0.229631
   2 O :   -0.321375
   3 C :    0.155963
   4 C :    0.026480
   5 C :   -0.014564
   6 C :   -0.083269
   7 C :    0.229639
   8 C :   -0.014569
   9 O :   -0.321377
  10 C :    0.155959
  11 C :    0.026492
  12 H :   -0.029005
  13 H :    0.004075
  14 H :    0.005597
  15 H :    0.023644
  16 H :    0.008158
  17 H :    0.020927
  18 H :   -0.026265
  19 H :   -0.029005
  20 H :   -0.026265
  21 H :    0.005594
  22 H :    0.004077
  23 H :    0.020928
  24 H :    0.008157
  25 H :    0.023637
Sum of atomic charges:    0.0000000

LOEWDIN ATOMIC CHARGES
----------------------
   0 C :   -0.067298
   1 C :    0.034232
   2 O :   -0.109510
   3 C :    0.082138
   4 C :   -0.058330
   5 C :   -0.039094
   6 C :   -0.067297
   7 C :    0.034231
   8 C :   -0.039093
   9 O :   -0.109513
  10 C :    0.082138
  11 C :   -0.058328
  12 H :    0.025944
  13 H :    0.008304
  14 H :    0.008412
  15 H :    0.028759
  16 H :    0.028383
  17 H :    0.028161
  18 H :    0.029898
  19 H :    0.025945
  20 H :    0.029898
  21 H :    0.008411
  22 H :    0.008305
  23 H :    0.028159
  24 H :    0.028383
  25 H :    0.028760

  Mayer bond orders larger than 0.100000
B(  0-C ,  1-C ) :   1.2972 B(  0-C ,  8-C ) :   1.3446 B(  0-C , 12-H ) :   0.9923
B(  1-C ,  2-O ) :   1.1112 B(  1-C ,  5-C ) :   1.3778 B(  2-O ,  3-C ) :   0.9588
B(  3-C ,  4-C ) :   1.1048 B(  3-C , 13-H ) :   0.9408 B(  3-C , 14-H ) :   0.9443
B(  4-C , 15-H ) :   0.9669 B(  4-C , 16-H ) :   0.9591 B(  4-C , 17-H ) :   0.9654
B(  5-C ,  6-C ) :   1.3446 B(  5-C , 18-H ) :   0.9830 B(  6-C ,  7-C ) :   1.2972
B(  6-C , 19-H ) :   0.9923 B(  7-C ,  8-C ) :   1.3778 B(  7-C ,  9-O ) :   1.1112
B(  8-C , 20-H ) :   0.9830 B(  9-O , 10-C ) :   0.9588 B( 10-C , 11-C ) :   1.1049
B( 10-C , 21-H ) :   0.9443 B( 10-C , 22-H ) :   0.9408 B( 11-C , 23-H ) :   0.9654
B( 11-C , 24-H ) :   0.9591 B( 11-C , 25-H ) :   0.9669

Dispersion correction           -0.041023328
FINAL SINGLE POINT ENERGY      -539.580380624084

DIPOLE MOMENT
-------------
                                X             Y             Z
Electronic contribution:     -0.00002      -0.00001      -0.00008
Nuclear contribution   :      0.00002       0.00000       0.00011
                        -----------------------------------------
Total Dipole Moment    :      0.00001      -0.00000       0.00004
                        -----------------------------------------
Magnitude (a.u.)       :      0.00004
Magnitude (Debye)      :      0.00009

Rotational constants in cm-1:     0.141207     0.011377     0.010620
Rotational constants in MHz :  4233.287618   341.078932   318.380374

                             ****ORCA TERMINATED NORMALLY****
TOTAL RUN TIME: 0 days 0 hours 9 minutes 36 seconds 60 msec
