                         Program Version 4.2.0 -  RELEASE  -
|  1> # ORCA input file
|  2> # SCF done        -14.925282980440          0.000290786646
|  3> ! B3LYP/G D3BJ Opt RIJCOSX def2-SVP def2/J
|  4> * xyz 0 1
|  5>    C        0.63787        -0.96703         0.00518
|  6>    O        1.06380         0.31344         0.01004
|  7>    C       -0.05634         1.04268         0.00476
|  8>    N       -1.14177         0.34455        -0.00162
|  9>    C       -0.72107        -0.95431        -0.00186
| 10>    H        1.37139        -1.74589         0.00772
| 11>    H        0.01355         2.11165         0.00687
| 12>    H       -1.41696        -1.76656        -0.00680
| 13> *
| 14>
| 15>                          ****END OF INPUT****
 Total Charge           Charge          ....    0
 Multiplicity           Mult            ....    1
 Number of Electrons    NEL             ....   36
Dispersion correction           -0.009245875
FINAL SINGLE POINT ENERGY      -245.897831832282
Dispersion correction            ... done
Dispersion correction           -0.009320901
FINAL SINGLE POINT ENERGY      -245.899335899266
Dispersion correction            ... done
Dispersion correction           -0.009328887
FINAL SINGLE POINT ENERGY      -245.899464355022
Dispersion correction            ... done
FINAL SINGLE POINT ENERGY      -245.899518362037
Dispersion correction            ... done
Dispersion correction           -0.009329916
FINAL SINGLE POINT ENERGY      -245.899524260371
Dispersion correction            ... done
Dispersion correction           -0.009329251
FINAL SINGLE POINT ENERGY      -245.899526512497
Dispersion correction            ... done
                    ***********************HURRAY********************

CARTESIAN COORDINATES (ANGSTROEM)
---------------------------------
  C      0.632976   -0.978189    0.005288
  O      1.061862    0.316630    0.009762
  C     -0.071878    1.055214    0.004797
  N     -1.161234    0.357961   -0.001991
  C     -0.728788   -0.960690   -0.001836
  H      1.395087   -1.751624    0.007832
  H      0.044989    2.138379    0.007264
  H     -1.422544   -1.799152   -0.006826

 Multiplicity           Mult            ....    1
 Number of Electrons    NEL             ....   36
 Basis Dimension        Dim             ....   85

ORBITAL ENERGIES
----------------

  NO   OCC          E(Eh)            E(eV)
   0   2.0000     -19.219496      -522.9891
   1   2.0000     -14.328373      -389.8949
   2   2.0000     -10.276273      -279.6316
   3   2.0000     -10.251580      -278.9597
   4   2.0000     -10.220788      -278.1218
   5   2.0000      -1.133405       -30.8415
   6   2.0000      -0.917979       -24.9795
   7   2.0000      -0.766358       -20.8537
   8   2.0000      -0.631535       -17.1850
   9   2.0000      -0.599404       -16.3106
  10   2.0000      -0.549567       -14.9545
  11   2.0000      -0.481807       -13.1106
  12   2.0000      -0.466287       -12.6883
  13   2.0000      -0.434848       -11.8328
  14   2.0000      -0.404298       -11.0015
  15   2.0000      -0.330354        -8.9894
  16   2.0000      -0.293773        -7.9940
  17   2.0000      -0.260074        -7.0770
  18   0.0000      -0.009756        -0.2655
  19   0.0000       0.044828         1.2198
  20   0.0000       0.083279         2.2661
  21   0.0000       0.098762         2.6874
  22   0.0000       0.108765         2.9596

MULLIKEN ATOMIC CHARGES
-----------------------
   0 C :    0.111234
   1 O :   -0.205090
   2 C :    0.149231
   3 N :   -0.142108
   4 C :    0.005050
   5 H :    0.027774
   6 H :    0.037282
   7 H :    0.016626
Sum of atomic charges:   -0.0000000

LOEWDIN ATOMIC CHARGES
----------------------
   0 C :    0.014854
   1 O :   -0.001140
   2 C :    0.053963
   3 N :   -0.108908
   4 C :   -0.039481
   5 H :    0.028191
   6 H :    0.025102
   7 H :    0.027419

  Mayer bond orders larger than 0.100000
B(  0-C ,  1-O ) :   1.1169 B(  0-C ,  4-C ) :   1.6053 B(  0-C ,  5-H ) :   0.9888
B(  1-O ,  2-C ) :   1.1626 B(  2-C ,  3-N ) :   1.7425 B(  2-C ,  6-H ) :   0.9783
B(  3-N ,  4-C ) :   1.3049 B(  4-C ,  7-H ) :   0.9900

Dispersion correction           -0.009329343
FINAL SINGLE POINT ENERGY      -245.899527229638

DIPOLE MOMENT
-------------
                                X             Y             Z
Electronic contribution:      0.44526       0.95161       0.00401
Nuclear contribution   :      0.07802      -1.23807      -0.00178
                        -----------------------------------------
Total Dipole Moment    :      0.52327      -0.28646       0.00223
                        -----------------------------------------
Magnitude (a.u.)       :      0.59656
Magnitude (Debye)      :      1.51632

Rotational constants in cm-1:     0.335551     0.323038     0.164588
Rotational constants in MHz : 10059.571436  9684.442147  4934.221592

                             ****ORCA TERMINATED NORMALLY****
TOTAL RUN TIME: 0 days 0 hours 1 minutes 10 seconds 605 msec
