                         Program Version 4.2.0 -  RELEASE  -
|  1> # ORCA input file
|  2> # SCF done        -18.713969624456          0.000394897128
|  3> ! B3LYP/G D3BJ Opt RIJCOSX def2-SVP def2/J
|  4> * xyz 0 1
|  5>    C       -1.15201        -0.03741         0.00007
|  6>    O       -0.36921         1.06164        -0.00207
|  7>    C        0.90239         0.64688        -0.00164
|  8>    C        0.97056        -0.71236         0.00306
|  9>    C       -0.37739        -1.16176         0.00275
| 10>    O       -0.82801        -2.44199         0.00542
| 11>    H       -2.21320         0.09651        -0.00045
| 12>    H        1.66810         1.39700        -0.00384
| 13>    H        1.85354        -1.31946         0.00556
| 14>    H       -0.07156        -3.03900         0.00818
| 15> *
| 16>
| 17>                          ****END OF INPUT****
 Total Charge           Charge          ....    0
 Multiplicity           Mult            ....    1
 Number of Electrons    NEL             ....   44
Dispersion correction           -0.012875302
FINAL SINGLE POINT ENERGY      -305.024279567722
Dispersion correction            ... done
Dispersion correction           -0.012916647
FINAL SINGLE POINT ENERGY      -305.025512857329
Dispersion correction            ... done
Dispersion correction           -0.012924310
FINAL SINGLE POINT ENERGY      -305.025573372711
Dispersion correction            ... done
FINAL SINGLE POINT ENERGY      -305.025596293583
Dispersion correction            ... done
Dispersion correction           -0.012926124
FINAL SINGLE POINT ENERGY      -305.025598359022
Dispersion correction            ... done
Dispersion correction           -0.012925315
FINAL SINGLE POINT ENERGY      -305.025598322938
Dispersion correction            ... done
                    ***********************HURRAY********************

CARTESIAN COORDINATES (ANGSTROEM)
---------------------------------
  C     -1.165147   -0.047364   -0.000063
  O     -0.368599    1.062271   -0.002601
  C      0.914956    0.650178   -0.001003
  C      0.984229   -0.715621    0.002322
  C     -0.379571   -1.170648    0.002878
  O     -0.835537   -2.446089    0.005432
  H     -2.239328    0.109196   -0.000775
  H      1.673440    1.428367   -0.002762
  H      1.883803   -1.328466    0.004173
  H     -0.085035   -3.051772    0.009440

 Multiplicity           Mult            ....    1
 Number of Electrons    NEL             ....   44
 Basis Dimension        Dim             ....  104

ORBITAL ENERGIES
----------------

  NO   OCC          E(Eh)            E(eV)
   0   2.0000     -19.197444      -522.3890
   1   2.0000     -19.165386      -521.5167
   2   2.0000     -10.242945      -278.7247
   3   2.0000     -10.239782      -278.6386
   4   2.0000     -10.222664      -278.1728
   5   2.0000     -10.189854      -277.2800
   6   2.0000      -1.101445       -29.9718
   7   2.0000      -1.049531       -28.5592
   8   2.0000      -0.786554       -21.4032
   9   2.0000      -0.738899       -20.1065
  10   2.0000      -0.619375       -16.8540
  11   2.0000      -0.567912       -15.4537
  12   2.0000      -0.555172       -15.1070
  13   2.0000      -0.490619       -13.3504
  14   2.0000      -0.457474       -12.4485
  15   2.0000      -0.448593       -12.2068
  16   2.0000      -0.425627       -11.5819
  17   2.0000      -0.389499       -10.5988
  18   2.0000      -0.385882       -10.5004
  19   2.0000      -0.350939        -9.5495
  20   2.0000      -0.262365        -7.1393
  21   2.0000      -0.215650        -5.8681
  22   0.0000       0.010619         0.2890
  23   0.0000       0.042928         1.1681
  24   0.0000       0.082264         2.2385
  25   0.0000       0.083363         2.2684
  26   0.0000       0.113426         3.0865

MULLIKEN ATOMIC CHARGES
-----------------------
   0 C :    0.038563
   1 O :   -0.208350
   2 C :    0.136734
   3 C :   -0.089065
   4 C :    0.151086
   5 O :   -0.202968
   6 H :    0.003099
   7 H :    0.013255
   8 H :   -0.021934
   9 H :    0.179580
Sum of atomic charges:   -0.0000000

LOEWDIN ATOMIC CHARGES
----------------------
   0 C :   -0.022249
   1 O :    0.004001
   2 C :    0.034711
   3 C :   -0.120623
   4 C :   -0.003956
   5 O :   -0.058005
   6 H :    0.022484
   7 H :    0.022396
   8 H :    0.026579
   9 H :    0.094662

  Mayer bond orders larger than 0.100000
B(  0-C ,  1-O ) :   1.0968 B(  0-C ,  2-C ) :   0.1076 B(  0-C ,  4-C ) :   1.5208
B(  0-C ,  6-H ) :   1.0094 B(  1-O ,  2-C ) :   1.1721 B(  2-C ,  3-C ) :   1.5180
B(  2-C ,  7-H ) :   0.9965 B(  3-C ,  4-C ) :   1.1984 B(  3-C ,  8-H ) :   1.0020
B(  4-C ,  5-O ) :   1.1686 B(  5-O ,  9-H ) :   0.9687

Dispersion correction           -0.012925287
FINAL SINGLE POINT ENERGY      -305.025598143619

DIPOLE MOMENT
-------------
                                X             Y             Z
Electronic contribution:     -1.07511       0.45650      -0.00204
Nuclear contribution   :      1.75809      -0.86897       0.00477
                        -----------------------------------------
Total Dipole Moment    :      0.68298      -0.41247       0.00272
                        -----------------------------------------
Magnitude (a.u.)       :      0.79787
Magnitude (Debye)      :      2.02803

Rotational constants in cm-1:     0.307213     0.118130     0.085322
Rotational constants in MHz :  9210.012275  3541.446673  2557.885279

                             ****ORCA TERMINATED NORMALLY****
TOTAL RUN TIME: 0 days 0 hours 1 minutes 43 seconds 623 msec
