                         Program Version 4.2.0 -  RELEASE  -
|  1> # ORCA input file
|  2> # SCF done        -37.136871842882          0.000874309103
|  3> ! B3LYP/G D3BJ Opt RIJCOSX def2-SVP def2/J
|  4> * xyz 0 1
|  5>    C       -1.54504         1.25619        -0.05407
|  6>    S       -2.70118         0.00868        -0.10083
|  7>    C       -1.50154        -1.23665        -0.02286
|  8>    C       -0.22667        -0.67771         0.00466
|  9>    C       -0.26068         0.76252        -0.00288
| 10>    C        0.94323         1.50674         0.03282
| 11>    C        2.12399         0.83563         0.04715
| 12>    F        3.28664         1.50966         0.08180
| 13>    C        2.16298        -0.58373         0.00381
| 14>    F        3.36365        -1.19030        -0.02448
| 15>    C        1.02683        -1.33139        -0.01987
| 16>    C       -1.95107        -2.60326         0.02257
| 17>    C       -1.29756        -3.63585         0.55009
| 18>    H       -1.85598         2.28132        -0.06307
| 19>    H        0.92179         2.58436         0.04166
| 20>    H        1.09666        -2.40374        -0.08532
| 21>    H       -2.94527        -2.75723        -0.37914
| 22>    H       -0.33934        -3.53484         1.02583
| 23>    H       -1.72598        -4.62249         0.54254
| 24> *
| 25>
| 26>                          ****END OF INPUT****
 Total Charge           Charge          ....    0
 Multiplicity           Mult            ....    1
 Number of Electrons    NEL             ....  100
Dispersion correction           -0.043341008
FINAL SINGLE POINT ENERGY      -982.007031680265
Dispersion correction            ... done
Dispersion correction           -0.043157471
FINAL SINGLE POINT ENERGY      -982.009787472453
Dispersion correction            ... done
Dispersion correction           -0.043114050
FINAL SINGLE POINT ENERGY      -982.009903001827
Dispersion correction            ... done
FINAL SINGLE POINT ENERGY      -982.009918426575
Dispersion correction            ... done
Dispersion correction           -0.043115010
FINAL SINGLE POINT ENERGY      -982.009893453925
Dispersion correction            ... done
Dispersion correction           -0.043119320
FINAL SINGLE POINT ENERGY      -982.009876902318
Dispersion correction            ... done
                    ***********************HURRAY********************

CARTESIAN COORDINATES (ANGSTROEM)
---------------------------------
  C     -1.564624    1.281526   -0.068716
  S     -2.715499    0.018370   -0.115397
  C     -1.519372   -1.235409   -0.027698
  C     -0.234687   -0.668724    0.004735
  C     -0.267211    0.783735   -0.004684
  C      0.955393    1.523793    0.040599
  C      2.138913    0.845032    0.052922
  F      3.304185    1.496356    0.111235
  C      2.173514   -0.587955   -0.007545
  F      3.369569   -1.179446   -0.070410
  C      1.028803   -1.332806   -0.016596
  C     -1.963334   -2.617351    0.034909
  C     -1.296413   -3.661818    0.557240
  H     -1.878229    2.323191   -0.089640
  H      0.961301    2.614796    0.065231
  H      1.109176   -2.417498   -0.075687
  H     -2.965776   -2.800448   -0.369028
  H     -0.321609   -3.556726    1.036199
  H     -1.738640   -4.660708    0.542740

 Multiplicity           Mult            ....    1
 Number of Electrons    NEL             ....  100
 Basis Dimension        Dim             ....  216

ORBITAL ENERGIES
----------------

  NO   OCC          E(Eh)            E(eV)
   0   2.0000     -88.893632     -2418.9187
   1   2.0000     -24.709367      -672.3760
   2   2.0000     -24.709086      -672.3684
   3   2.0000     -10.287121      -279.9268
   4   2.0000     -10.286494      -279.9097
   5   2.0000     -10.228818      -278.3403
   6   2.0000     -10.223897      -278.2064
   7   2.0000     -10.217150      -278.0228
   8   2.0000     -10.215983      -277.9910
   9   2.0000     -10.212940      -277.9082
  10   2.0000     -10.211810      -277.8775
  11   2.0000     -10.210141      -277.8321
  12   2.0000     -10.197022      -277.4751
  13   2.0000      -7.988362      -217.3744
  14   2.0000      -5.956031      -162.0718
  15   2.0000      -5.952053      -161.9636
  16   2.0000      -5.950610      -161.9243
  17   2.0000      -1.227250       -33.3952
  18   2.0000      -1.212747       -33.0005
  19   2.0000      -0.906448       -24.6657
  20   2.0000      -0.847635       -23.0653
  21   2.0000      -0.798799       -21.7364
  22   2.0000      -0.765031       -20.8175
  23   2.0000      -0.744953       -20.2712
  24   2.0000      -0.705993       -19.2110
  25   2.0000      -0.651097       -17.7173
  26   2.0000      -0.622938       -16.9510
  27   2.0000      -0.597536       -16.2598
  28   2.0000      -0.577424       -15.7125
  29   2.0000      -0.547133       -14.8882
  30   2.0000      -0.530335       -14.4311
  31   2.0000      -0.522985       -14.2311
  32   2.0000      -0.495242       -13.4762
  33   2.0000      -0.482209       -13.1216
  34   2.0000      -0.470843       -12.8123
  35   2.0000      -0.463056       -12.6004
  36   2.0000      -0.461401       -12.5554
  37   2.0000      -0.450348       -12.2546
  38   2.0000      -0.420886       -11.4529
  39   2.0000      -0.414673       -11.2838
  40   2.0000      -0.404739       -11.0135
  41   2.0000      -0.396975       -10.8022
  42   2.0000      -0.382763       -10.4155
  43   2.0000      -0.361825        -9.8458
  44   2.0000      -0.356451        -9.6995
  45   2.0000      -0.339279        -9.2323
  46   2.0000      -0.317986        -8.6528
  47   2.0000      -0.278942        -7.5904
  48   2.0000      -0.254310        -6.9201
  49   2.0000      -0.208128        -5.6635
  50   0.0000      -0.077291        -2.1032
  51   0.0000      -0.021062        -0.5731
  52   0.0000       0.011013         0.2997
  53   0.0000       0.026310         0.7159
  54   0.0000       0.047823         1.3013

MULLIKEN ATOMIC CHARGES
-----------------------
   0 C :   -0.128042
   1 S :    0.149546
   2 C :   -0.175796
   3 C :    0.142333
   4 C :    0.092499
   5 C :   -0.094546
   6 C :    0.229001
   7 F :   -0.181007
   8 C :    0.226899
   9 F :   -0.179898
  10 C :   -0.115518
  11 C :    0.027143
  12 C :   -0.042159
  13 H :    0.021506
  14 H :   -0.011486
  15 H :   -0.011015
  16 H :   -0.004792
  17 H :    0.027522
  18 H :    0.027810
Sum of atomic charges:   -0.0000000

LOEWDIN ATOMIC CHARGES
----------------------
   0 C :   -0.207550
   1 S :    0.487895
   2 C :   -0.192293
   3 C :   -0.043633
   4 C :   -0.048407
   5 C :   -0.047379
   6 C :    0.054564
   7 F :   -0.052191
   8 C :    0.055289
   9 F :   -0.051640
  10 C :   -0.047651
  11 C :   -0.042837
  12 C :   -0.052335
  13 H :    0.027069
  14 H :    0.040580
  15 H :    0.039515
  16 H :    0.029909
  17 H :    0.022965
  18 H :    0.028128

  Mayer bond orders larger than 0.100000
B(  0-C ,  1-S ) :   1.1950 B(  0-C ,  2-C ) :   0.1118 B(  0-C ,  4-C ) :   1.4054
B(  0-C , 13-H ) :   0.9671 B(  1-S ,  2-C ) :   1.1680 B(  2-C ,  3-C ) :   1.3729
B(  2-C , 11-C ) :   1.1147 B(  3-C ,  4-C ) :   1.2001 B(  3-C , 10-C ) :   1.1516
B(  4-C ,  5-C ) :   1.1327 B(  5-C ,  6-C ) :   1.5080 B(  5-C , 10-C ) :   0.1129
B(  5-C , 14-H ) :   1.0021 B(  6-C ,  7-F ) :   1.1067 B(  6-C ,  8-C ) :   1.1304
B(  8-C ,  9-F ) :   1.1086 B(  8-C , 10-C ) :   1.5015 B( 10-C , 15-H ) :   0.9929
B( 11-C , 12-C ) :   1.9114 B( 11-C , 16-H ) :   0.9434 B( 12-C , 17-H ) :   0.9531
B( 12-C , 18-H ) :   0.9437

Dispersion correction           -0.043122515
FINAL SINGLE POINT ENERGY      -982.009863990595

DIPOLE MOMENT
-------------
                                X             Y             Z
Electronic contribution:     10.26461       6.99213      -0.92337
Nuclear contribution   :    -11.17950      -6.92834       0.91156
                        -----------------------------------------
Total Dipole Moment    :     -0.91489       0.06379      -0.01181
                        -----------------------------------------
Magnitude (a.u.)       :      0.91719
Magnitude (Debye)      :      2.33130

Rotational constants in cm-1:     0.040566     0.017034     0.012076
Rotational constants in MHz :  1216.149646   510.676670   362.031354

                             ****ORCA TERMINATED NORMALLY****
TOTAL RUN TIME: 0 days 0 hours 8 minutes 17 seconds 549 msec
