                         Program Version 4.2.0 -  RELEASE  -
|  1> # ORCA input file
|  2> # SCF done        -37.021146248028          0.000657998824
|  3> ! B3LYP/G D3BJ Opt RIJCOSX def2-SVP def2/J
|  4> * xyz 0 1
|  5>    C       -1.68322        -0.82361        -0.68088
|  6>    S       -2.66425         0.57376        -0.95399
|  7>    C       -0.39270        -0.46513        -0.49727
|  8>    C        0.91984        -1.11704        -0.19293
|  9>    N        0.94715        -1.55913         1.18400
| 10>    C        2.17069        -2.25670         1.54261
| 11>    C        2.12531        -2.68082         3.00178
| 12>    O        1.87770        -0.08819        -0.39289
| 13>    C        1.28469         1.20597        -0.36056
| 14>    O        1.88025         2.01857        -1.31177
| 15>    C       -0.18231         0.93503        -0.56514
| 16>    C       -1.30977         1.63814        -0.81065
| 17>    H       -2.13508        -1.79473        -0.68354
| 18>    H        1.18654        -1.92897        -0.90192
| 19>    H        0.13749        -2.14317         1.37017
| 20>    H        2.99160        -1.55570         1.37545
| 21>    H        2.34023        -3.13801         0.89765
| 22>    H        1.95172        -1.81465         3.63398
| 23>    H        3.06649        -3.14383         3.28568
| 24>    H        1.32192        -3.39635         3.16707
| 25>    H        1.47218         1.69429         0.60826
| 26>    H        1.94681         1.52413        -2.13839
| 27>    H       -1.44682         2.69423        -0.91980
| 28> *
| 29>
| 30>                          ****END OF INPUT****
 Total Charge           Charge          ....    0
 Multiplicity           Mult            ....    1
 Number of Electrons    NEL             ....   98
Dispersion correction           -0.042391010
FINAL SINGLE POINT ENERGY      -914.380456134084
Dispersion correction            ... done
Dispersion correction           -0.042200144
FINAL SINGLE POINT ENERGY      -914.382757565023
Dispersion correction            ... done
Dispersion correction           -0.042189593
FINAL SINGLE POINT ENERGY      -914.382991748566
Dispersion correction            ... done
FINAL SINGLE POINT ENERGY      -914.382972568072
FINAL SINGLE POINT ENERGY      -914.383144934991
FINAL SINGLE POINT ENERGY      -914.383240009510
FINAL SINGLE POINT ENERGY      -914.383295187756
Dispersion correction            ... done
Dispersion correction           -0.042229397
FINAL SINGLE POINT ENERGY      -914.383303710952
Dispersion correction            ... done
Dispersion correction           -0.042226726
FINAL SINGLE POINT ENERGY      -914.383304142931
Dispersion correction            ... done
                    ***********************HURRAY********************

CARTESIAN COORDINATES (ANGSTROEM)
---------------------------------
  C     -1.669262   -0.837719   -0.677822
  S     -2.663978    0.567078   -0.945340
  C     -0.364886   -0.465149   -0.497402
  C      0.967278   -1.109677   -0.195414
  N      1.011734   -1.539881    1.182376
  C      2.197834   -2.286528    1.573172
  C      2.087070   -2.735787    3.025335
  O      1.910669   -0.060870   -0.429564
  C      1.308477    1.240071   -0.401511
  O      1.858027    2.053565   -1.379342
  C     -0.161941    0.938252   -0.571758
  C     -1.309268    1.645470   -0.811117
  H     -2.120508   -1.829265   -0.677378
  H      1.241805   -1.919945   -0.905145
  H      0.158262   -2.042542    1.420520
  H      3.065973   -1.621731    1.439744
  H      2.385439   -3.166685    0.916594
  H      1.909646   -1.868697    3.680161
  H      3.001828   -3.249756    3.359205
  H      1.245291   -3.436542    3.164313
  H      1.536224    1.737492    0.556942
  H      1.660571    1.648413   -2.237255
  H     -1.449826    2.718522   -0.932393

 Multiplicity           Mult            ....    1
 Number of Electrons    NEL             ....   98
 Basis Dimension        Dim             ....  227

ORBITAL ENERGIES
----------------

  NO   OCC          E(Eh)            E(eV)
   0   2.0000     -88.883409     -2418.6405
   1   2.0000     -19.138020      -520.7720
   2   2.0000     -19.133510      -520.6493
   3   2.0000     -14.313226      -389.4827
   4   2.0000     -10.288410      -279.9619
   5   2.0000     -10.271612      -279.5048
   6   2.0000     -10.224045      -278.2104
   7   2.0000     -10.223277      -278.1895
   8   2.0000     -10.207894      -277.7709
   9   2.0000     -10.200081      -277.5583
  10   2.0000     -10.195106      -277.4229
  11   2.0000     -10.182407      -277.0774
  12   2.0000      -7.978188      -217.0975
  13   2.0000      -5.946459      -161.8114
  14   2.0000      -5.942032      -161.6909
  15   2.0000      -5.939609      -161.6250
  16   2.0000      -1.060708       -28.8633
  17   2.0000      -1.000695       -27.2303
  18   2.0000      -0.896362       -24.3913
  19   2.0000      -0.885729       -24.1019
  20   2.0000      -0.763460       -20.7748
  21   2.0000      -0.749430       -20.3930
  22   2.0000      -0.723290       -19.6817
  23   2.0000      -0.682311       -18.5666
  24   2.0000      -0.625431       -17.0189
  25   2.0000      -0.600074       -16.3288
  26   2.0000      -0.587018       -15.9736
  27   2.0000      -0.553972       -15.0743
  28   2.0000      -0.539711       -14.6863
  29   2.0000      -0.508992       -13.8504
  30   2.0000      -0.487632       -13.2691
  31   2.0000      -0.466657       -12.6984
  32   2.0000      -0.461936       -12.5699
  33   2.0000      -0.444778       -12.1030
  34   2.0000      -0.432223       -11.7614
  35   2.0000      -0.412235       -11.2175
  36   2.0000      -0.399332       -10.8664
  37   2.0000      -0.388386       -10.5685
  38   2.0000      -0.382198       -10.4001
  39   2.0000      -0.370247       -10.0749
  40   2.0000      -0.361580        -9.8391
  41   2.0000      -0.354358        -9.6426
  42   2.0000      -0.345425        -9.3995
  43   2.0000      -0.327124        -8.9015
  44   2.0000      -0.300649        -8.1811
  45   2.0000      -0.272071        -7.4034
  46   2.0000      -0.258833        -7.0432
  47   2.0000      -0.250623        -6.8198
  48   2.0000      -0.233119        -6.3435
  49   0.0000      -0.032000        -0.8708
  50   0.0000       0.029441         0.8011
  51   0.0000       0.037194         1.0121
  52   0.0000       0.057741         1.5712
  53   0.0000       0.072370         1.9693

MULLIKEN ATOMIC CHARGES
-----------------------
   0 C :   -0.174906
   1 S :    0.098130
   2 C :    0.013275
   3 C :    0.335770
   4 N :   -0.267752
   5 C :    0.119427
   6 C :   -0.010313
   7 O :   -0.382121
   8 C :    0.460489
   9 O :   -0.261725
  10 C :   -0.089839
  11 C :   -0.152619
  12 H :    0.020433
  13 H :   -0.020370
  14 H :    0.094864
  15 H :    0.011038
  16 H :   -0.024613
  17 H :    0.022864
  18 H :    0.013760
  19 H :    0.006527
  20 H :   -0.000059
  21 H :    0.158187
  22 H :    0.029554
Sum of atomic charges:   -0.0000000

LOEWDIN ATOMIC CHARGES
----------------------
   0 C :   -0.197010
   1 S :    0.433047
   2 C :   -0.075411
   3 C :    0.118797
   4 N :   -0.112891
   5 C :    0.024141
   6 C :   -0.061834
   7 O :   -0.182340
   8 C :    0.147941
   9 O :   -0.102859
  10 C :   -0.095598
  11 C :   -0.184814
  12 H :    0.024231
  13 H :   -0.001300
  14 H :    0.055991
  15 H :    0.021066
  16 H :   -0.003800
  17 H :    0.026572
  18 H :    0.027086
  19 H :    0.018267
  20 H :    0.015946
  21 H :    0.075412
  22 H :    0.029358

  Mayer bond orders larger than 0.100000
B(  0-C ,  1-S ) :   1.1536 B(  0-C ,  2-C ) :   1.5349 B(  0-C , 12-H ) :   0.9774
B(  1-S , 11-C ) :   1.1692 B(  2-C ,  3-C ) :   0.9594 B(  2-C , 10-C ) :   1.3348
B(  3-C ,  4-N ) :   1.0371 B(  3-C ,  7-O ) :   1.0205 B(  3-C , 13-H ) :   0.8946
B(  4-N ,  5-C ) :   1.0050 B(  4-N , 14-H ) :   0.9373 B(  5-C ,  6-C ) :   1.1018
B(  5-C , 15-H ) :   0.9456 B(  5-C , 16-H ) :   0.9291 B(  6-C , 17-H ) :   0.9671
B(  6-C , 18-H ) :   0.9638 B(  6-C , 19-H ) :   0.9697 B(  7-O ,  8-C ) :   0.9878
B(  8-C ,  9-O ) :   1.1445 B(  8-C , 10-C ) :   0.9450 B(  8-C , 20-H ) :   0.9017
B(  9-O , 21-H ) :   0.9696 B( 10-C , 11-C ) :   1.5453 B( 11-C , 22-H ) :   0.9712

Dispersion correction           -0.042226925
FINAL SINGLE POINT ENERGY      -914.383303682433

DIPOLE MOMENT
-------------
                                X             Y             Z
Electronic contribution:    -10.61869       9.96309     -10.13972
Nuclear contribution   :      9.84628     -10.65889      10.05069
                        -----------------------------------------
Total Dipole Moment    :     -0.77242      -0.69579      -0.08903
                        -----------------------------------------
Magnitude (a.u.)       :      1.04340
Magnitude (Debye)      :      2.65211

Rotational constants in cm-1:     0.041326     0.018157     0.013575
Rotational constants in MHz :  1238.912851   544.337404   406.961724

                             ****ORCA TERMINATED NORMALLY****
TOTAL RUN TIME: 0 days 0 hours 13 minutes 13 seconds 930 msec
