                         Program Version 4.2.0 -  RELEASE  -
|  1> # ORCA input file
|  2> # SCF done        -33.288936970462          0.000662932572
|  3> ! B3LYP/G D3BJ Opt RIJCOSX def2-SVP def2/J
|  4> * xyz 0 1
|  5>    C       -1.17712        -0.07132        -0.02279
|  6>    N       -0.33905         0.98407        -0.05903
|  7>    C       -0.67750         2.37951        -0.01779
|  8>    C       -0.80527         2.87757         1.42099
|  9>    N        0.93201         0.59530        -0.06421
| 10>    C        0.92452        -0.72851        -0.03655
| 11>    C       -0.40224        -1.21215        -0.01304
| 12>    C       -0.88218        -2.62477         0.03402
| 13>    C       -1.16990        -3.07333         1.46800
| 14>    C        2.20032        -1.50060        -0.01926
| 15>    C        2.71201        -1.69589         1.40900
| 16>    H       -2.24206         0.05323        -0.02198
| 17>    H       -1.61751         2.52877        -0.55646
| 18>    H        0.12065         2.92280        -0.52866
| 19>    H       -1.59653         2.34165         1.94026
| 20>    H       -1.03545         3.93925         1.43099
| 21>    H        0.13005         2.71424         1.94965
| 22>    H       -0.12932        -3.28228        -0.40584
| 23>    H       -1.79677        -2.71372        -0.55800
| 24>    H       -0.27089        -3.00376         2.07609
| 25>    H       -1.51854        -4.10378         1.48229
| 26>    H       -1.93411        -2.44161         1.91585
| 27>    H        2.94643        -0.94859        -0.59296
| 28>    H        2.04653        -2.47365        -0.49043
| 29>    H        2.87029        -0.72912         1.88051
| 30>    H        3.65303        -2.24175         1.40433
| 31>    H        1.99092        -2.25448         2.00172
| 32> *
| 33>
| 34>                          ****END OF INPUT****
 Total Charge           Charge          ....    0
 Multiplicity           Mult            ....    1
 Number of Electrons    NEL             ....   84
Dispersion correction           -0.043375248
FINAL SINGLE POINT ENERGY      -461.800170235922
Dispersion correction            ... done
Dispersion correction           -0.043029145
FINAL SINGLE POINT ENERGY      -461.803443576524
Dispersion correction            ... done
Dispersion correction           -0.042989304
FINAL SINGLE POINT ENERGY      -461.803677554802
Dispersion correction            ... done
FINAL SINGLE POINT ENERGY      -461.803697056943
FINAL SINGLE POINT ENERGY      -461.803713461680
FINAL SINGLE POINT ENERGY      -461.803720751964
FINAL SINGLE POINT ENERGY      -461.803726465266
FINAL SINGLE POINT ENERGY      -461.803739699521
FINAL SINGLE POINT ENERGY      -461.803755103395
FINAL SINGLE POINT ENERGY      -461.803778062563
FINAL SINGLE POINT ENERGY      -461.803795966836
Dispersion correction            ... done
Dispersion correction           -0.043099184
FINAL SINGLE POINT ENERGY      -461.803810093353
Dispersion correction            ... done
Dispersion correction           -0.043104304
FINAL SINGLE POINT ENERGY      -461.803817179781
Dispersion correction            ... done
                    ***********************HURRAY********************

CARTESIAN COORDINATES (ANGSTROEM)
---------------------------------
  C     -1.203584   -0.087216   -0.082269
  N     -0.381913    0.996243   -0.126039
  C     -0.754433    2.394943   -0.018094
  C     -0.711503    2.892703    1.423281
  N      0.914098    0.646777   -0.105778
  C      0.930942   -0.687231   -0.064247
  C     -0.394752   -1.215400   -0.043532
  C     -0.830448   -2.649275    0.059575
  C     -1.212701   -3.062851    1.489171
  C      2.232662   -1.432223   -0.012958
  C      2.679878   -1.764247    1.417466
  H     -2.287410    0.018377   -0.093820
  H     -1.762351    2.506901   -0.447456
  H     -0.058541    2.966586   -0.648774
  H     -1.411969    2.325223    2.053988
  H     -0.987086    3.957947    1.475878
  H      0.300544    2.767311    1.837146
  H     -0.024187   -3.304541   -0.309976
  H     -1.689468   -2.825568   -0.610001
  H     -0.356134   -2.957829    2.173404
  H     -1.560323   -4.108248    1.528197
  H     -2.020850   -2.424212    1.878618
  H      2.997691   -0.814206   -0.508594
  H      2.147453   -2.362955   -0.598549
  H      2.812498   -0.841731    2.002935
  H      3.633988   -2.315655    1.421550
  H      1.930218   -2.382542    1.935578

 Multiplicity           Mult            ....    1
 Number of Electrons    NEL             ....   84
 Basis Dimension        Dim             ....  234

ORBITAL ENERGIES
----------------

  NO   OCC          E(Eh)            E(eV)
   0   2.0000     -14.389909      -391.5693
   1   2.0000     -14.321236      -389.7007
   2   2.0000     -10.231748      -278.4200
   3   2.0000     -10.208350      -277.7833
   4   2.0000     -10.191528      -277.3256
   5   2.0000     -10.188517      -277.2436
   6   2.0000     -10.188316      -277.2382
   7   2.0000     -10.180513      -277.0258
   8   2.0000     -10.178767      -276.9783
   9   2.0000     -10.174393      -276.8593
  10   2.0000     -10.172042      -276.7953
  11   2.0000      -1.031667       -28.0731
  12   2.0000      -0.839214       -22.8362
  13   2.0000      -0.788499       -21.4561
  14   2.0000      -0.765685       -20.8353
  15   2.0000      -0.739935       -20.1347
  16   2.0000      -0.710799       -19.3418
  17   2.0000      -0.645648       -17.5690
  18   2.0000      -0.628545       -17.1036
  19   2.0000      -0.595365       -16.2007
  20   2.0000      -0.562271       -15.3002
  21   2.0000      -0.540481       -14.7072
  22   2.0000      -0.507601       -13.8125
  23   2.0000      -0.463851       -12.6220
  24   2.0000      -0.452684       -12.3182
  25   2.0000      -0.449980       -12.2446
  26   2.0000      -0.436481       -11.8773
  27   2.0000      -0.430709       -11.7202
  28   2.0000      -0.419168       -11.4061
  29   2.0000      -0.400079       -10.8867
  30   2.0000      -0.391788       -10.6611
  31   2.0000      -0.384425       -10.4607
  32   2.0000      -0.376109       -10.2345
  33   2.0000      -0.361522        -9.8375
  34   2.0000      -0.359597        -9.7851
  35   2.0000      -0.353400        -9.6165
  36   2.0000      -0.344947        -9.3865
  37   2.0000      -0.334172        -9.0933
  38   2.0000      -0.333330        -9.0704
  39   2.0000      -0.274332        -7.4650
  40   2.0000      -0.237560        -6.4643
  41   2.0000      -0.227457        -6.1894
  42   0.0000       0.017853         0.4858
  43   0.0000       0.053953         1.4681
  44   0.0000       0.058862         1.6017
  45   0.0000       0.060735         1.6527
  46   0.0000       0.087678         2.3858

MULLIKEN ATOMIC CHARGES
-----------------------
   0 C :    0.043786
   1 N :   -0.151065
   2 C :    0.144201
   3 C :   -0.001321
   4 N :   -0.118975
   5 C :   -0.133815
   6 C :   -0.119624
   7 C :    0.098319
   8 C :    0.013992
   9 C :    0.111430
  10 C :    0.001999
  11 H :   -0.015580
  12 H :    0.006034
  13 H :    0.023948
  14 H :    0.013902
  15 H :    0.016634
  16 H :    0.033694
  17 H :   -0.007426
  18 H :   -0.004536
  19 H :    0.013267
  20 H :    0.006646
  21 H :    0.003447
  22 H :   -0.000133
  23 H :   -0.009428
  24 H :    0.015301
  25 H :    0.007457
  26 H :    0.007847
Sum of atomic charges:   -0.0000000

LOEWDIN ATOMIC CHARGES
----------------------
   0 C :   -0.022041
   1 N :    0.085251
   2 C :    0.041098
   3 C :   -0.060202
   4 N :   -0.118074
   5 C :   -0.046981
   6 C :   -0.095249
   7 C :   -0.030153
   8 C :   -0.052382
   9 C :   -0.035283
  10 C :   -0.052360
  11 H :    0.018468
  12 H :    0.023250
  13 H :    0.030816
  14 H :    0.024136
  15 H :    0.027557
  16 H :    0.031197
  17 H :    0.024923
  18 H :    0.026490
  19 H :    0.020860
  20 H :    0.020128
  21 H :    0.019553
  22 H :    0.031315
  23 H :    0.023553
  24 H :    0.024444
  25 H :    0.020683
  26 H :    0.019002

  Mayer bond orders larger than 0.100000
B(  0-C ,  1-N ) :   1.2142 B(  0-C ,  4-N ) :   0.1174 B(  0-C ,  6-C ) :   1.4285
B(  0-C , 11-H ) :   0.9828 B(  1-N ,  2-C ) :   0.9649 B(  1-N ,  4-N ) :   1.1397
B(  2-C ,  3-C ) :   1.1110 B(  2-C , 12-H ) :   0.9464 B(  2-C , 13-H ) :   0.9413
B(  3-C , 14-H ) :   0.9642 B(  3-C , 15-H ) :   0.9636 B(  3-C , 16-H ) :   0.9678
B(  4-N ,  5-C ) :   1.5619 B(  5-C ,  6-C ) :   1.3306 B(  5-C ,  9-C ) :   1.0971
B(  6-C ,  7-C ) :   1.0814 B(  7-C ,  8-C ) :   1.1078 B(  7-C , 17-H ) :   0.9199
B(  7-C , 18-H ) :   0.9194 B(  8-C , 19-H ) :   0.9666 B(  8-C , 20-H ) :   0.9613
B(  8-C , 21-H ) :   0.9667 B(  9-C , 10-C ) :   1.1112 B(  9-C , 22-H ) :   0.9099
B(  9-C , 23-H ) :   0.9158 B( 10-C , 24-H ) :   0.9650 B( 10-C , 25-H ) :   0.9616
B( 10-C , 26-H ) :   0.9693

Dispersion correction           -0.043106150
FINAL SINGLE POINT ENERGY      -461.803817951997

DIPOLE MOMENT
-------------
                                X             Y             Z
Electronic contribution:     -0.53692       3.99438      -6.25065
Nuclear contribution   :     -0.20925      -3.82750       6.35787
                        -----------------------------------------
Total Dipole Moment    :     -0.74618       0.16687       0.10722
                        -----------------------------------------
Magnitude (a.u.)       :      0.77209
Magnitude (Debye)      :      1.96250

Rotational constants in cm-1:     0.048438     0.025152     0.019759
Rotational constants in MHz :  1452.134058   754.049552   592.373448

                             ****ORCA TERMINATED NORMALLY****
TOTAL RUN TIME: 0 days 0 hours 20 minutes 1 seconds 548 msec
