                         Program Version 4.2.0 -  RELEASE  -
|  1> # ORCA input file
|  2> # SCF done        -46.443582460398          0.000609917040
|  3> ! B3LYP/G D3BJ Opt RIJCOSX def2-SVP def2/J
|  4> * xyz 0 1
|  5>    C       -2.80958        -1.19985        -0.00420
|  6>    S       -3.99047         0.04230         0.01098
|  7>    C       -2.77877         1.25364         0.00615
|  8>    C       -1.51948         0.72447        -0.00405
|  9>    C       -1.53769        -0.70298        -0.01061
| 10>    C       -0.31349        -1.51157        -0.02347
| 11>    O       -0.32444        -2.72790        -0.04164
| 12>    C        0.93960        -0.72318        -0.00942
| 13>    C        2.14988        -1.41280        -0.00460
| 14>    C        3.35320        -0.73643         0.02186
| 15>    C        3.38464         0.65493         0.04592
| 16>    C        4.68839         1.39554         0.03707
| 17>    C        5.13471         1.66436        -1.40197
| 18>    C        2.18053         1.34456         0.03112
| 19>    C        0.95915         0.68010         0.00524
| 20>    C       -0.27604         1.50126        -0.00457
| 21>    O       -0.25423         2.71723        -0.01243
| 22>    H       -3.10173        -2.23131        -0.00596
| 23>    H       -3.04423         2.29229         0.01271
| 24>    H        2.11854        -2.49227        -0.01905
| 25>    H        4.28053        -1.29081         0.02881
| 26>    H        5.45269         0.80667         0.54790
| 27>    H        4.57649         2.34584         0.56188
| 28>    H        5.26260         0.72846        -1.94128
| 29>    H        6.07967         2.20188        -1.40987
| 30>    H        4.39054         2.26169        -1.92348
| 31>    H        2.16671         2.42509         0.04468
| 32> *
| 33>
| 34>                          ****END OF INPUT****
 Total Charge           Charge          ....    0
 Multiplicity           Mult            ....    1
 Number of Electrons    NEL             ....  126
Dispersion correction           -0.064381330
FINAL SINGLE POINT ENERGY     -1087.619381429486
Dispersion correction            ... done
Dispersion correction           -0.063944859
FINAL SINGLE POINT ENERGY     -1087.622854621795
Dispersion correction            ... done
Dispersion correction           -0.063861719
FINAL SINGLE POINT ENERGY     -1087.623006980092
Dispersion correction            ... done
FINAL SINGLE POINT ENERGY     -1087.622951345035
FINAL SINGLE POINT ENERGY     -1087.622895495518
FINAL SINGLE POINT ENERGY     -1087.622927652040
FINAL SINGLE POINT ENERGY     -1087.622921877312
FINAL SINGLE POINT ENERGY     -1087.622883971477
FINAL SINGLE POINT ENERGY     -1087.622845015208
Dispersion correction            ... done
Dispersion correction           -0.063912732
FINAL SINGLE POINT ENERGY     -1087.622832515944
Dispersion correction            ... done
Dispersion correction           -0.063912327
FINAL SINGLE POINT ENERGY     -1087.622841592003
Dispersion correction            ... done
                    ***********************HURRAY********************

CARTESIAN COORDINATES (ANGSTROEM)
---------------------------------
  C     -2.839459   -1.201513   -0.094915
  S     -4.001181    0.071778   -0.181770
  C     -2.780597    1.287711   -0.095330
  C     -1.525943    0.730714   -0.007933
  C     -1.559857   -0.705427   -0.007478
  C     -0.330467   -1.526052    0.064935
  O     -0.357146   -2.745516    0.086438
  C      0.950997   -0.753787    0.091564
  C      2.157306   -1.463790    0.106927
  C      3.375985   -0.790145    0.095672
  C      3.427397    0.614279    0.077590
  C      4.743074    1.348224   -0.018902
  C      5.058714    1.771780   -1.461655
  C      2.218791    1.320673    0.084591
  C      0.986798    0.660571    0.085037
  C     -0.260352    1.492508    0.061947
  O     -0.228315    2.711569    0.084394
  H     -3.134690   -2.249273   -0.112471
  H     -3.026193    2.348261   -0.112841
  H      2.106435   -2.554510    0.120060
  H      4.309592   -1.358884    0.098398
  H      5.551989    0.707003    0.367916
  H      4.711753    2.242534    0.624791
  H      5.130578    0.893202   -2.121324
  H      6.010762    2.322951   -1.516534
  H      4.265363    2.422870   -1.861260
  H      2.206386    2.413478    0.079871

 Multiplicity           Mult            ....    1
 Number of Electrons    NEL             ....  126
 Basis Dimension        Dim             ....  292

ORBITAL ENERGIES
----------------

  NO   OCC          E(Eh)            E(eV)
   0   2.0000     -88.903574     -2419.1892
   1   2.0000     -19.130402      -520.5647
   2   2.0000     -19.128727      -520.5191
   3   2.0000     -10.285219      -279.8750
   4   2.0000     -10.284066      -279.8437
   5   2.0000     -10.238229      -278.5964
   6   2.0000     -10.237814      -278.5851
   7   2.0000     -10.215081      -277.9665
   8   2.0000     -10.213604      -277.9263
   9   2.0000     -10.213266      -277.9171
  10   2.0000     -10.213090      -277.9123
  11   2.0000     -10.211114      -277.8585
  12   2.0000     -10.208638      -277.7912
  13   2.0000     -10.207402      -277.7575
  14   2.0000     -10.204876      -277.6888
  15   2.0000     -10.202481      -277.6236
  16   2.0000     -10.192278      -277.3460
  17   2.0000      -7.998495      -217.6501
  18   2.0000      -5.966339      -162.3523
  19   2.0000      -5.962119      -162.2375
  20   2.0000      -5.960524      -162.1941
  21   2.0000      -1.037079       -28.2203
  22   2.0000      -1.034526       -28.1509
  23   2.0000      -0.906490       -24.6668
  24   2.0000      -0.874220       -23.7887
  25   2.0000      -0.812736       -22.1157
  26   2.0000      -0.781040       -21.2532
  27   2.0000      -0.759784       -20.6748
  28   2.0000      -0.750805       -20.4304
  29   2.0000      -0.734998       -20.0003
  30   2.0000      -0.669039       -18.2055
  31   2.0000      -0.655683       -17.8420
  32   2.0000      -0.623927       -16.9779
  33   2.0000      -0.595845       -16.2138
  34   2.0000      -0.590523       -16.0689
  35   2.0000      -0.573365       -15.6021
  36   2.0000      -0.538490       -14.6531
  37   2.0000      -0.515090       -14.0163
  38   2.0000      -0.490089       -13.3360
  39   2.0000      -0.470187       -12.7944
  40   2.0000      -0.458858       -12.4862
  41   2.0000      -0.457669       -12.4538
  42   2.0000      -0.448854       -12.2139
  43   2.0000      -0.442316       -12.0360
  44   2.0000      -0.439020       -11.9463
  45   2.0000      -0.431155       -11.7323
  46   2.0000      -0.427666       -11.6374
  47   2.0000      -0.418797       -11.3960
  48   2.0000      -0.406863       -11.0713
  49   2.0000      -0.405295       -11.0286
  50   2.0000      -0.395535       -10.7631
  51   2.0000      -0.387243       -10.5374
  52   2.0000      -0.375328       -10.2132
  53   2.0000      -0.368643       -10.0313
  54   2.0000      -0.356374        -9.6974
  55   2.0000      -0.354922        -9.6579
  56   2.0000      -0.348524        -9.4838
  57   2.0000      -0.282174        -7.6783
  58   2.0000      -0.272673        -7.4198
  59   2.0000      -0.270574        -7.3627
  60   2.0000      -0.265383        -7.2214
  61   2.0000      -0.263444        -7.1687
  62   2.0000      -0.263116        -7.1598
  63   0.0000      -0.098820        -2.6890
  64   0.0000      -0.073718        -2.0060
  65   0.0000      -0.024159        -0.6574
  66   0.0000      -0.005822        -0.1584
  67   0.0000       0.028128         0.7654

MULLIKEN ATOMIC CHARGES
-----------------------
   0 C :   -0.118481
   1 S :    0.146620
   2 C :   -0.120240
   3 C :    0.024003
   4 C :    0.022166
   5 C :    0.144705
   6 O :   -0.173212
   7 C :   -0.016452
   8 C :   -0.025754
   9 C :    0.022126
  10 C :    0.003036
  11 C :    0.067991
  12 C :    0.009051
  13 C :   -0.074227
  14 C :    0.001280
  15 C :    0.144556
  16 O :   -0.172368
  17 H :    0.039626
  18 H :    0.040647
  19 H :   -0.000140
  20 H :   -0.022065
  21 H :    0.001742
  22 H :    0.011966
  23 H :    0.014209
  24 H :    0.019724
  25 H :    0.019664
  26 H :   -0.010175
Sum of atomic charges:   -0.0000000

LOEWDIN ATOMIC CHARGES
----------------------
   0 C :   -0.144294
   1 S :    0.479765
   2 C :   -0.144627
   3 C :   -0.094144
   4 C :   -0.093405
   5 C :    0.079268
   6 O :   -0.153234
   7 C :   -0.055209
   8 C :    0.014321
   9 C :   -0.010074
  10 C :   -0.001944
  11 C :   -0.026579
  12 C :   -0.047824
  13 C :    0.009419
  14 C :   -0.047224
  15 C :    0.080764
  16 O :   -0.151856
  17 H :    0.037354
  18 H :    0.037474
  19 H :    0.036809
  20 H :    0.028741
  21 H :    0.026166
  22 H :    0.031384
  23 H :    0.024732
  24 H :    0.025651
  25 H :    0.025473
  26 H :    0.033094

  Mayer bond orders larger than 0.100000
B(  0-C ,  1-S ) :   1.1857 B(  0-C ,  4-C ) :   1.5116 B(  0-C , 17-H ) :   0.9615
B(  1-S ,  2-C ) :   1.1875 B(  2-C ,  3-C ) :   1.5084 B(  2-C , 18-H ) :   0.9618
B(  3-C ,  4-C ) :   1.2255 B(  3-C , 15-C ) :   0.9648 B(  4-C ,  5-C ) :   0.9609
B(  5-C ,  6-O ) :   2.2005 B(  5-C ,  7-C ) :   0.9319 B(  7-C ,  8-C ) :   1.3840
B(  7-C , 14-C ) :   1.3133 B(  8-C ,  9-C ) :   1.3336 B(  8-C , 19-H ) :   0.9899
B(  9-C , 10-C ) :   1.3601 B(  9-C , 20-H ) :   0.9906 B( 10-C , 11-C ) :   1.0467
B( 10-C , 13-C ) :   1.3138 B( 11-C , 12-C ) :   1.1012 B( 11-C , 21-H ) :   0.9310
B( 11-C , 22-H ) :   0.9261 B( 12-C , 23-H ) :   0.9664 B( 12-C , 24-H ) :   0.9654
B( 12-C , 25-H ) :   0.9705 B( 13-C , 14-C ) :   1.3787 B( 13-C , 26-H ) :   0.9961
B( 14-C , 15-C ) :   0.9204 B( 15-C , 16-O ) :   2.1984

Dispersion correction           -0.063911006
FINAL SINGLE POINT ENERGY     -1087.622852000959

DIPOLE MOMENT
-------------
                                X             Y             Z
Electronic contribution:    -24.13516      -4.96174       3.24277
Nuclear contribution   :     24.39605       5.09638      -3.38519
                        -----------------------------------------
Total Dipole Moment    :      0.26089       0.13463      -0.14241
                        -----------------------------------------
Magnitude (a.u.)       :      0.32630
Magnitude (Debye)      :      0.82939

Rotational constants in cm-1:     0.032674     0.008469     0.006907
Rotational constants in MHz :   979.527820   253.893832   207.053040

                             ****ORCA TERMINATED NORMALLY****
TOTAL RUN TIME: 0 days 0 hours 27 minutes 7 seconds 897 msec
