                         Program Version 4.2.0 -  RELEASE  -
|  1> # ORCA input file
|  2> # SCF done        -37.534208556626          0.000802908550
|  3> ! B3LYP/G D3BJ Opt RIJCOSX def2-SVP def2/J
|  4> * xyz 0 1
|  5>    C        3.09421        -0.25579         0.13772
|  6>    S        2.02723        -1.62376         0.14502
|  7>    C        0.66665        -0.56511         0.05567
|  8>    C        1.06521         0.78244         0.02319
|  9>    C        2.46457         0.94711         0.07123
| 10>    N       -0.03833         1.59107        -0.05011
| 11>    C       -0.06172         3.02537        -0.09795
| 12>    C       -1.13846         0.77227        -0.06274
| 13>    C       -0.73150        -0.57337         0.00097
| 14>    S       -2.08439        -1.63789        -0.01622
| 15>    C       -3.18645        -0.26808        -0.10917
| 16>    C       -2.52922         0.93799        -0.12476
| 17>    C       -4.59550        -0.54320        -0.15846
| 18>    C       -5.56332         0.36798        -0.23195
| 19>    H        4.14957        -0.43677         0.18476
| 20>    H        2.98184         1.88932         0.05840
| 21>    H        0.95946         3.39920        -0.12107
| 22>    H       -0.56895         3.43258         0.78105
| 23>    H       -0.58587         3.36884        -0.99339
| 24>    H       -3.03041         1.88655        -0.17799
| 25>    H       -4.85192        -1.59431        -0.13339
| 26>    H       -5.35850         1.42456        -0.25811
| 27>    H       -6.59878         0.07933        -0.26703
| 28> *
| 29>
| 30>                          ****END OF INPUT****
 Total Charge           Charge          ....    0
 Multiplicity           Mult            ....    1
 Number of Electrons    NEL             ....  114
Dispersion correction           -0.054462908
FINAL SINGLE POINT ENERGY     -1275.166742507809
Dispersion correction            ... done
Dispersion correction           -0.054274911
FINAL SINGLE POINT ENERGY     -1275.170368395203
Dispersion correction            ... done
Dispersion correction           -0.054244520
FINAL SINGLE POINT ENERGY     -1275.170493802856
Dispersion correction            ... done
FINAL SINGLE POINT ENERGY     -1275.170512044094
Dispersion correction            ... done
Dispersion correction           -0.054229467
FINAL SINGLE POINT ENERGY     -1275.170514128027
Dispersion correction            ... done
Dispersion correction           -0.054231506
FINAL SINGLE POINT ENERGY     -1275.170513974285
Dispersion correction            ... done
                    ***********************HURRAY********************

CARTESIAN COORDINATES (ANGSTROEM)
---------------------------------
  C      3.145503   -0.262835    0.138174
  S      2.062704   -1.635179    0.149266
  C      0.687957   -0.578603    0.060499
  C      1.091721    0.772044    0.025791
  C      2.503372    0.951133    0.072026
  N     -0.025408    1.588403   -0.048859
  C     -0.053123    3.030041   -0.097917
  C     -1.136492    0.764594   -0.059816
  C     -0.727609   -0.585317    0.005848
  S     -2.098804   -1.640655   -0.014212
  C     -3.208534   -0.266235   -0.108656
  C     -2.538406    0.946740   -0.123158
  C     -4.633018   -0.543880   -0.163711
  C     -5.623359    0.362048   -0.231369
  H      4.218384   -0.442772    0.185807
  H      3.026504    1.907197    0.058122
  H      0.974008    3.415025   -0.125674
  H     -0.557689    3.454598    0.786267
  H     -0.577928    3.386128   -1.000057
  H     -3.044894    1.909629   -0.181430
  H     -4.903546   -1.605764   -0.147563
  H     -5.429185    1.438623   -0.252018
  H     -6.666740    0.041370   -0.271691

 Multiplicity           Mult            ....    1
 Number of Electrons    NEL             ....  114
 Basis Dimension        Dim             ....  249

ORBITAL ENERGIES
----------------

  NO   OCC          E(Eh)            E(eV)
   0   2.0000     -88.870753     -2418.2961
   1   2.0000     -88.869841     -2418.2713
   2   2.0000     -14.380925      -391.3249
   3   2.0000     -10.243630      -278.7433
   4   2.0000     -10.223188      -278.1871
   5   2.0000     -10.221398      -278.1384
   6   2.0000     -10.216106      -277.9944
   7   2.0000     -10.213060      -277.9115
   8   2.0000     -10.208696      -277.7927
   9   2.0000     -10.207204      -277.7521
  10   2.0000     -10.200634      -277.5734
  11   2.0000     -10.200320      -277.5648
  12   2.0000     -10.196979      -277.4739
  13   2.0000     -10.185545      -277.1628
  14   2.0000      -7.964757      -216.7321
  15   2.0000      -7.963837      -216.7070
  16   2.0000      -5.933339      -161.4544
  17   2.0000      -5.932242      -161.4245
  18   2.0000      -5.929229      -161.3425
  19   2.0000      -5.928482      -161.3222
  20   2.0000      -5.925393      -161.2381
  21   2.0000      -5.924448      -161.2124
  22   2.0000      -0.988892       -26.9091
  23   2.0000      -0.871133       -23.7047
  24   2.0000      -0.866831       -23.5877
  25   2.0000      -0.793884       -21.6027
  26   2.0000      -0.761063       -20.7096
  27   2.0000      -0.738714       -20.1014
  28   2.0000      -0.735160       -20.0047
  29   2.0000      -0.680999       -18.5309
  30   2.0000      -0.677784       -18.4434
  31   2.0000      -0.616365       -16.7722
  32   2.0000      -0.583353       -15.8738
  33   2.0000      -0.553325       -15.0567
  34   2.0000      -0.550056       -14.9678
  35   2.0000      -0.520254       -14.1568
  36   2.0000      -0.504129       -13.7180
  37   2.0000      -0.485826       -13.2200
  38   2.0000      -0.477288       -12.9877
  39   2.0000      -0.453466       -12.3394
  40   2.0000      -0.442339       -12.0366
  41   2.0000      -0.440083       -11.9753
  42   2.0000      -0.414068       -11.2674
  43   2.0000      -0.413029       -11.2391
  44   2.0000      -0.401879       -10.9357
  45   2.0000      -0.392792       -10.6884
  46   2.0000      -0.374343       -10.1864
  47   2.0000      -0.372359       -10.1324
  48   2.0000      -0.361985        -9.8501
  49   2.0000      -0.349627        -9.5138
  50   2.0000      -0.338646        -9.2150
  51   2.0000      -0.333528        -9.0758
  52   2.0000      -0.300206        -8.1690
  53   2.0000      -0.257144        -6.9972
  54   2.0000      -0.256872        -6.9898
  55   2.0000      -0.209888        -5.7113
  56   2.0000      -0.187837        -5.1113
  57   0.0000      -0.050515        -1.3746
  58   0.0000       0.002303         0.0627
  59   0.0000       0.027355         0.7444
  60   0.0000       0.046954         1.2777
  61   0.0000       0.049959         1.3594

MULLIKEN ATOMIC CHARGES
-----------------------
   0 C :   -0.108462
   1 S :    0.120313
   2 C :   -0.133715
   3 C :    0.107081
   4 C :    0.002553
   5 N :   -0.203368
   6 C :    0.133924
   7 C :    0.119473
   8 C :   -0.109542
   9 S :    0.119911
  10 C :   -0.110493
  11 C :   -0.034958
  12 C :    0.042518
  13 C :   -0.044465
  14 H :    0.029292
  15 H :   -0.023411
  16 H :    0.030494
  17 H :    0.035798
  18 H :    0.034755
  19 H :   -0.034336
  20 H :   -0.011728
  21 H :    0.015898
  22 H :    0.022469
Sum of atomic charges:    0.0000000

LOEWDIN ATOMIC CHARGES
----------------------
   0 C :   -0.184494
   1 S :    0.403586
   2 C :   -0.229541
   3 C :   -0.020070
   4 C :   -0.086060
   5 N :    0.016118
   6 C :    0.040944
   7 C :   -0.019412
   8 C :   -0.222393
   9 S :    0.407714
  10 C :   -0.169508
  11 C :   -0.076369
  12 C :   -0.042436
  13 C :   -0.061032
  14 H :    0.024141
  15 H :    0.028780
  16 H :    0.033362
  17 H :    0.027247
  18 H :    0.027968
  19 H :    0.027860
  20 H :    0.027974
  21 H :    0.019749
  22 H :    0.025873

  Mayer bond orders larger than 0.100000
B(  0-C ,  1-S ) :   1.1458 B(  0-C ,  4-C ) :   1.5354 B(  0-C , 14-H ) :   0.9615
B(  1-S ,  2-C ) :   1.0417 B(  2-C ,  3-C ) :   1.3906 B(  2-C ,  8-C ) :   1.3910
B(  3-C ,  4-C ) :   1.2283 B(  3-C ,  5-N ) :   1.1308 B(  4-C , 15-H ) :   1.0013
B(  5-N ,  6-C ) :   0.9813 B(  5-N ,  7-C ) :   1.1369 B(  6-C , 16-H ) :   0.9724
B(  6-C , 17-H ) :   0.9691 B(  6-C , 18-H ) :   0.9689 B(  7-C ,  8-C ) :   1.3781
B(  7-C , 11-C ) :   1.2393 B(  8-C ,  9-S ) :   1.0440 B(  9-S , 10-C ) :   1.0944
B( 10-C , 11-C ) :   1.4727 B( 10-C , 12-C ) :   1.1203 B( 11-C , 19-H ) :   1.0007
B( 12-C , 13-C ) :   1.9100 B( 12-C , 20-H ) :   0.9502 B( 13-C , 21-H ) :   0.9504
B( 13-C , 22-H ) :   0.9452

Dispersion correction           -0.054231656
FINAL SINGLE POINT ENERGY     -1275.170513246728

DIPOLE MOMENT
-------------
                                X             Y             Z
Electronic contribution:      7.04873     -12.12240       0.73609
Nuclear contribution   :     -6.77962      13.30973      -0.77506
                        -----------------------------------------
Total Dipole Moment    :      0.26911       1.18733      -0.03897
                        -----------------------------------------
Magnitude (a.u.)       :      1.21807
Magnitude (Debye)      :      3.09610

Rotational constants in cm-1:     0.040412     0.012016     0.009278
Rotational constants in MHz :  1211.508660   360.219513   278.155149

                             ****ORCA TERMINATED NORMALLY****
TOTAL RUN TIME: 0 days 0 hours 15 minutes 0 seconds 773 msec
