                         Program Version 4.2.0 -  RELEASE  -
|  1> # ORCA input file
|  2> # SCF done        -30.211009915539          0.000523678560
|  3> ! B3LYP/G D3BJ Opt RIJCOSX def2-SVP def2/J
|  4> * xyz 0 1
|  5>    C       -0.15314         1.01985         0.11876
|  6>    O       -0.93792        -0.05186         0.12945
|  7>    C       -0.14826        -1.14599        -0.00058
|  8>    C        1.16463        -0.75757        -0.09512
|  9>    C        1.16693         0.66367        -0.01776
| 10>    C        2.29080         1.61564        -0.06576
| 11>    O        2.14668         2.80540         0.00303
| 12>    O        3.51602         1.07176        -0.19298
| 13>    C       -0.72695        -2.46728        -0.02225
| 14>    C       -2.02918        -2.71120         0.08064
| 15>    H       -0.60345         1.98813         0.21180
| 16>    H        1.99972        -1.42162        -0.20636
| 17>    H        3.48458         0.10734        -0.23528
| 18>    H       -0.01093        -3.26989        -0.12989
| 19>    H       -2.74095        -1.91086         0.19040
| 20>    H       -2.41815        -3.71355         0.06199
| 21> *
| 22>
| 23>                          ****END OF INPUT****
 Total Charge           Charge          ....    0
 Multiplicity           Mult            ....    1
 Number of Electrons    NEL             ....   72
Dispersion correction           -0.025938122
FINAL SINGLE POINT ENERGY      -495.659383503222
Dispersion correction            ... done
Dispersion correction           -0.025911729
FINAL SINGLE POINT ENERGY      -495.661374344708
Dispersion correction            ... done
Dispersion correction           -0.025909345
FINAL SINGLE POINT ENERGY      -495.661523351839
Dispersion correction            ... done
FINAL SINGLE POINT ENERGY      -495.661498694016
Dispersion correction            ... done
Dispersion correction           -0.025917528
FINAL SINGLE POINT ENERGY      -495.661567070231
Dispersion correction            ... done
Dispersion correction           -0.025918465
FINAL SINGLE POINT ENERGY      -495.661583020178
Dispersion correction            ... done
                    ***********************HURRAY********************

CARTESIAN COORDINATES (ANGSTROEM)
---------------------------------
  C     -0.125947    1.010414    0.135859
  O     -0.911217   -0.079566    0.158833
  C     -0.116496   -1.187008    0.028911
  C      1.194590   -0.786414   -0.070754
  C      1.191064    0.650552   -0.005887
  C      2.289713    1.643387   -0.079274
  O      2.107535    2.831247   -0.018509
  O      3.538117    1.144988   -0.227682
  C     -0.747909   -2.487813   -0.002083
  C     -2.070749   -2.703811    0.059124
  H     -0.602651    1.981557    0.230492
  H      2.042934   -1.458586   -0.187206
  H      3.521663    0.179452   -0.265777
  H     -0.053600   -3.327712   -0.094410
  H     -2.776001   -1.873862    0.146132
  H     -2.480616   -3.714857    0.022321

 Multiplicity           Mult            ....    1
 Number of Electrons    NEL             ....   72
 Basis Dimension        Dim             ....  170

ORBITAL ENERGIES
----------------

  NO   OCC          E(Eh)            E(eV)
   0   2.0000     -19.227804      -523.2152
   1   2.0000     -19.182188      -521.9739
   2   2.0000     -19.117156      -520.2043
   3   2.0000     -10.323167      -280.9077
   4   2.0000     -10.268385      -279.4170
   5   2.0000     -10.267238      -279.3858
   6   2.0000     -10.219508      -278.0870
   7   2.0000     -10.218191      -278.0511
   8   2.0000     -10.216461      -278.0040
   9   2.0000     -10.205954      -277.7181
  10   2.0000      -1.133901       -30.8550
  11   2.0000      -1.092726       -29.7346
  12   2.0000      -1.009693       -27.4751
  13   2.0000      -0.828191       -22.5362
  14   2.0000      -0.816954       -22.2304
  15   2.0000      -0.743138       -20.2218
  16   2.0000      -0.663017       -18.0416
  17   2.0000      -0.628836       -17.1115
  18   2.0000      -0.619546       -16.8587
  19   2.0000      -0.595087       -16.1931
  20   2.0000      -0.540350       -14.7037
  21   2.0000      -0.502757       -13.6807
  22   2.0000      -0.489191       -13.3116
  23   2.0000      -0.477644       -12.9974
  24   2.0000      -0.452646       -12.3171
  25   2.0000      -0.449083       -12.2202
  26   2.0000      -0.446712       -12.1557
  27   2.0000      -0.430034       -11.7018
  28   2.0000      -0.404166       -10.9979
  29   2.0000      -0.386682       -10.5222
  30   2.0000      -0.380520       -10.3545
  31   2.0000      -0.330632        -8.9969
  32   2.0000      -0.325818        -8.8660
  33   2.0000      -0.304018        -8.2727
  34   2.0000      -0.281371        -7.6565
  35   2.0000      -0.237703        -6.4682
  36   0.0000      -0.056375        -1.5340
  37   0.0000      -0.035629        -0.9695
  38   0.0000       0.028557         0.7771
  39   0.0000       0.061169         1.6645
  40   0.0000       0.064173         1.7462

MULLIKEN ATOMIC CHARGES
-----------------------
   0 C :    0.134663
   1 O :   -0.200216
   2 C :    0.144007
   3 C :   -0.072384
   4 C :   -0.064425
   5 C :    0.181519
   6 O :   -0.187310
   7 O :   -0.157936
   8 C :   -0.018867
   9 C :   -0.002179
  10 H :    0.031371
  11 H :   -0.018273
  12 H :    0.169634
  13 H :   -0.002502
  14 H :    0.035313
  15 H :    0.027584
Sum of atomic charges:   -0.0000000

LOEWDIN ATOMIC CHARGES
----------------------
   0 C :    0.092480
   1 O :    0.020451
   2 C :    0.035372
   3 C :   -0.073750
   4 C :   -0.133208
   5 C :    0.079037
   6 O :   -0.163251
   7 O :   -0.032761
   8 C :   -0.043489
   9 C :   -0.029362
  10 H :    0.036795
  11 H :    0.027113
  12 H :    0.087875
  13 H :    0.037579
  14 H :    0.029555
  15 H :    0.029565

  Mayer bond orders larger than 0.100000
B(  0-C ,  1-O ) :   1.1690 B(  0-C ,  4-C ) :   1.5125 B(  0-C , 10-H ) :   1.0002
B(  1-O ,  2-C ) :   1.1205 B(  2-C ,  3-C ) :   1.5198 B(  2-C ,  8-C ) :   1.1217
B(  3-C ,  4-C ) :   1.1715 B(  3-C , 11-H ) :   0.9842 B(  4-C ,  5-C ) :   0.9211
B(  5-C ,  6-O ) :   2.1754 B(  5-C ,  7-O ) :   1.2225 B(  7-O , 12-H ) :   0.9602
B(  8-C ,  9-C ) :   1.9027 B(  8-C , 13-H ) :   0.9542 B(  9-C , 14-H ) :   0.9537
B(  9-C , 15-H ) :   0.9425

Dispersion correction           -0.025918353
FINAL SINGLE POINT ENERGY      -495.661576427472

DIPOLE MOMENT
-------------
                                X             Y             Z
Electronic contribution:      3.69647       6.22215       0.07065
Nuclear contribution   :     -4.15002      -7.96453      -0.10952
                        -----------------------------------------
Total Dipole Moment    :     -0.45356      -1.74238      -0.03887
                        -----------------------------------------
Magnitude (a.u.)       :      1.80086
Magnitude (Debye)      :      4.57743

Rotational constants in cm-1:     0.147753     0.023607     0.020359
Rotational constants in MHz :  4429.532113   707.711457   610.336572

                             ****ORCA TERMINATED NORMALLY****
TOTAL RUN TIME: 0 days 0 hours 5 minutes 7 seconds 436 msec
