                         Program Version 4.2.0 -  RELEASE  -
|  1> # ORCA input file
|  2> # SCF done        -47.505840785666          0.000492595510
|  3> ! B3LYP/G D3BJ Opt RIJCOSX def2-SVP def2/J
|  4> * xyz 0 1
|  5>    C        1.54557         1.22831        -0.11745
|  6>    S        2.79901         0.05986        -0.22565
|  7>    C        1.64557        -1.19872        -0.42655
|  8>    C        0.36622        -0.73925        -0.41333
|  9>    C        0.31164         0.67136        -0.23498
| 10>    C       -0.98385         1.42021        -0.22154
| 11>    C       -2.12428         0.48221         0.20696
| 12>    C       -2.05177         0.10979         1.66033
| 13>    O       -2.10052        -0.99081         2.12590
| 14>    C       -1.95352         1.32515         2.63942
| 15>    F       -2.63676         2.39585         2.19738
| 16>    F       -2.44460         1.01845         3.83878
| 17>    F       -0.68399         1.72012         2.81496
| 18>    C       -2.12947        -0.76226        -0.68750
| 19>    C       -0.85745        -1.59617        -0.51492
| 20>    H        1.79288         2.26082         0.02710
| 21>    H        1.98246        -2.20973        -0.53953
| 22>    H       -1.20597         1.77651        -1.23239
| 23>    H       -0.90958         2.30024         0.41736
| 24>    H       -3.07305         1.02408         0.09052
| 25>    H       -2.21711        -0.43103        -1.72368
| 26>    H       -2.99691        -1.38055        -0.45293
| 27>    H       -0.75885        -2.29051        -1.35212
| 28>    H       -0.93722        -2.19666         0.39486
| 29> *
| 30>
| 31>                          ****END OF INPUT****
 Total Charge           Charge          ....    0
 Multiplicity           Mult            ....    1
 Number of Electrons    NEL             ....  120
Dispersion correction           -0.052980808
FINAL SINGLE POINT ENERGY     -1158.794091679239
Dispersion correction            ... done
Dispersion correction           -0.052401997
FINAL SINGLE POINT ENERGY     -1158.797258067510
Dispersion correction            ... done
Dispersion correction           -0.051833788
FINAL SINGLE POINT ENERGY     -1158.797145940927
Dispersion correction            ... done
FINAL SINGLE POINT ENERGY     -1158.797543149152
FINAL SINGLE POINT ENERGY     -1158.797499994889
FINAL SINGLE POINT ENERGY     -1158.797434465405
FINAL SINGLE POINT ENERGY     -1158.796966523967
FINAL SINGLE POINT ENERGY     -1158.797240697642
FINAL SINGLE POINT ENERGY     -1158.797399166335
FINAL SINGLE POINT ENERGY     -1158.797307562740
FINAL SINGLE POINT ENERGY     -1158.797051967614
FINAL SINGLE POINT ENERGY     -1158.797200446112
Dispersion correction            ... done
Dispersion correction           -0.051672596
FINAL SINGLE POINT ENERGY     -1158.797260778408
Dispersion correction            ... done
Dispersion correction           -0.051655993
FINAL SINGLE POINT ENERGY     -1158.797241232980
Dispersion correction            ... done
                    ***********************HURRAY********************

CARTESIAN COORDINATES (ANGSTROEM)
---------------------------------
  C      1.651339    1.216123   -0.261732
  S      2.890482    0.038578   -0.501976
  C      1.725334   -1.233541   -0.614025
  C      0.437541   -0.771208   -0.473985
  C      0.397448    0.652042   -0.267723
  C     -0.897747    1.412782   -0.145130
  C     -2.079768    0.492666    0.242455
  C     -2.157123    0.164535    1.722281
  O     -2.259677   -0.943822    2.179641
  C     -2.165380    1.366064    2.718292
  F     -2.778556    2.440546    2.185140
  F     -2.793839    1.048181    3.844233
  F     -0.906549    1.721425    3.024240
  C     -2.089567   -0.777377   -0.622003
  C     -0.810621   -1.617930   -0.477600
  H      1.911201    2.265403   -0.130218
  H      2.050229   -2.260041   -0.778820
  H     -1.149604    1.865247   -1.119748
  H     -0.789242    2.253270    0.554431
  H     -3.004897    1.067396    0.052413
  H     -2.213045   -0.455739   -1.669598
  H     -2.961933   -1.396583   -0.366561
  H     -0.762786   -2.364541   -1.287198
  H     -0.864790   -2.186205    0.464191

 Multiplicity           Mult            ....    1
 Number of Electrons    NEL             ....  120
 Basis Dimension        Dim             ....  259

ORBITAL ENERGIES
----------------

  NO   OCC          E(Eh)            E(eV)
   0   2.0000     -88.872656     -2418.3479
   1   2.0000     -24.735850      -673.0967
   2   2.0000     -24.733937      -673.0446
   3   2.0000     -24.732052      -672.9934
   4   2.0000     -19.166743      -521.5536
   5   2.0000     -10.442561      -284.1565
   6   2.0000     -10.308502      -280.5086
   7   2.0000     -10.224609      -278.2258
   8   2.0000     -10.213538      -277.9245
   9   2.0000     -10.208940      -277.7994
  10   2.0000     -10.207084      -277.7489
  11   2.0000     -10.202687      -277.6292
  12   2.0000     -10.198215      -277.5075
  13   2.0000     -10.196351      -277.4568
  14   2.0000     -10.195928      -277.4453
  15   2.0000      -7.967729      -216.8129
  16   2.0000      -5.935765      -161.5204
  17   2.0000      -5.931682      -161.4093
  18   2.0000      -5.929278      -161.3438
  19   2.0000      -1.313988       -35.7554
  20   2.0000      -1.222396       -33.2631
  21   2.0000      -1.221175       -33.2299
  22   2.0000      -1.074818       -29.2473
  23   2.0000      -0.884741       -24.0750
  24   2.0000      -0.836521       -22.7629
  25   2.0000      -0.773838       -21.0572
  26   2.0000      -0.751935       -20.4612
  27   2.0000      -0.733065       -19.9477
  28   2.0000      -0.699277       -19.0283
  29   2.0000      -0.658407       -17.9162
  30   2.0000      -0.639662       -17.4061
  31   2.0000      -0.610966       -16.6252
  32   2.0000      -0.607361       -16.5271
  33   2.0000      -0.596144       -16.2219
  34   2.0000      -0.571672       -15.5560
  35   2.0000      -0.542215       -14.7544
  36   2.0000      -0.508944       -13.8491
  37   2.0000      -0.496361       -13.5067
  38   2.0000      -0.485504       -13.2112
  39   2.0000      -0.484283       -13.1780
  40   2.0000      -0.478938       -13.0326
  41   2.0000      -0.462865       -12.5952
  42   2.0000      -0.455507       -12.3950
  43   2.0000      -0.443639       -12.0720
  44   2.0000      -0.442353       -12.0370
  45   2.0000      -0.429875       -11.6975
  46   2.0000      -0.424395       -11.5484
  47   2.0000      -0.422506       -11.4970
  48   2.0000      -0.411662       -11.2019
  49   2.0000      -0.406493       -11.0612
  50   2.0000      -0.403230       -10.9724
  51   2.0000      -0.399879       -10.8813
  52   2.0000      -0.377291       -10.2666
  53   2.0000      -0.354157        -9.6371
  54   2.0000      -0.346302        -9.4234
  55   2.0000      -0.343724        -9.3532
  56   2.0000      -0.335128        -9.1193
  57   2.0000      -0.285594        -7.7714
  58   2.0000      -0.244656        -6.6574
  59   2.0000      -0.234627        -6.3845
  60   0.0000      -0.064162        -1.7459
  61   0.0000      -0.020815        -0.5664
  62   0.0000       0.037141         1.0107
  63   0.0000       0.049342         1.3427
  64   0.0000       0.054933         1.4948

MULLIKEN ATOMIC CHARGES
-----------------------
   0 C :   -0.138421
   1 S :    0.101234
   2 C :   -0.141760
   3 C :   -0.040086
   4 C :   -0.046427
   5 C :    0.151853
   6 C :   -0.128877
   7 C :   -0.000814
   8 O :   -0.155763
   9 C :    0.546123
  10 F :   -0.176221
  11 F :   -0.142130
  12 F :   -0.169548
  13 C :    0.085833
  14 C :    0.118124
  15 H :    0.012458
  16 H :    0.011131
  17 H :    0.018955
  18 H :    0.016573
  19 H :    0.030200
  20 H :    0.000444
  21 H :    0.004727
  22 H :    0.008515
  23 H :    0.033876
Sum of atomic charges:   -0.0000000

LOEWDIN ATOMIC CHARGES
----------------------
   0 C :   -0.200910
   1 S :    0.431797
   2 C :   -0.201456
   3 C :   -0.067673
   4 C :   -0.075778
   5 C :   -0.012227
   6 C :   -0.060884
   7 C :    0.051500
   8 O :   -0.091548
   9 C :    0.143156
  10 F :   -0.065208
  11 F :   -0.034611
  12 F :   -0.054695
  13 C :   -0.015090
  14 C :   -0.024924
  15 H :    0.022375
  16 H :    0.022181
  17 H :    0.037173
  18 H :    0.026874
  19 H :    0.047637
  20 H :    0.025126
  21 H :    0.029299
  22 H :    0.032438
  23 H :    0.035450

  Mayer bond orders larger than 0.100000
B(  0-C ,  1-S ) :   1.1688 B(  0-C ,  4-C ) :   1.5481 B(  0-C , 15-H ) :   0.9649
B(  1-S ,  2-C ) :   1.1652 B(  2-C ,  3-C ) :   1.5525 B(  2-C , 16-H ) :   0.9655
B(  3-C ,  4-C ) :   1.2961 B(  3-C , 14-C ) :   1.0386 B(  4-C ,  5-C ) :   1.0229
B(  5-C ,  6-C ) :   1.0465 B(  5-C , 17-H ) :   0.9072 B(  5-C , 18-H ) :   0.9186
B(  6-C ,  7-C ) :   0.9204 B(  6-C , 13-C ) :   1.0664 B(  6-C , 19-H ) :   0.8804
B(  7-C ,  8-O ) :   2.1769 B(  7-C ,  9-C ) :   0.8658 B(  9-C , 10-F ) :   1.1086
B(  9-C , 11-F ) :   1.1805 B(  9-C , 12-F ) :   1.1137 B( 13-C , 14-C ) :   1.0866
B( 13-C , 20-H ) :   0.9362 B( 13-C , 21-H ) :   0.9218 B( 14-C , 22-H ) :   0.9202
B( 14-C , 23-H ) :   0.9135

Dispersion correction           -0.051652900
FINAL SINGLE POINT ENERGY     -1158.797238781571

DIPOLE MOMENT
-------------
                                X             Y             Z
Electronic contribution:     -2.29604       8.48434      16.43233
Nuclear contribution   :      2.11221      -8.26491     -17.38323
                        -----------------------------------------
Total Dipole Moment    :     -0.18383       0.21943      -0.95090
                        -----------------------------------------
Magnitude (a.u.)       :      0.99305
Magnitude (Debye)      :      2.52413

Rotational constants in cm-1:     0.033048     0.011351     0.010030
Rotational constants in MHz :   990.763760   340.302462   300.677015

                             ****ORCA TERMINATED NORMALLY****
TOTAL RUN TIME: 0 days 0 hours 26 minutes 40 seconds 133 msec
