                         Program Version 4.2.0 -  RELEASE  -
|  1> # ORCA input file
|  2> # SCF done        -36.316189464728          0.000889825999
|  3> ! B3LYP/G D3BJ Opt RIJCOSX def2-SVP def2/J
|  4> * xyz 0 1
|  5>    C        1.49206         1.25589        -0.23198
|  6>    S        2.70748         0.04327        -0.08817
|  7>    C        1.52419        -1.19046         0.07244
|  8>    C        0.25875        -0.69266         0.01115
|  9>    C        0.24039         0.72870        -0.16442
| 10>    N       -0.95983         1.41713        -0.29155
| 11>    C       -2.07154         0.73802         0.33120
| 12>    C       -2.15103        -0.67331        -0.25729
| 13>    N       -0.94440        -1.42259         0.05574
| 14>    C       -0.94576        -2.76020         0.36850
| 15>    O       -0.01334        -3.33767         0.85422
| 16>    O       -2.09170        -3.42318         0.09477
| 17>    H        1.76873         2.28169        -0.36404
| 18>    H        1.82879        -2.20544         0.21256
| 19>    H       -0.89185         2.40471        -0.08866
| 20>    H       -2.99313         1.27711         0.10160
| 21>    H       -1.96622         0.66434         1.42594
| 22>    H       -2.27765        -0.58973        -1.34534
| 23>    H       -3.02058        -1.16938         0.18164
| 24>    H       -2.67713        -2.95700        -0.51335
| 25> *
| 26>
| 27>                          ****END OF INPUT****
 Total Charge           Charge          ....    0
 Multiplicity           Mult            ....    1
 Number of Electrons    NEL             ....   96
Dispersion correction           -0.042445900
FINAL SINGLE POINT ENERGY      -929.243171634383
Dispersion correction            ... done
Dispersion correction           -0.042252519
FINAL SINGLE POINT ENERGY      -929.245652840765
Dispersion correction            ... done
Dispersion correction           -0.042218976
FINAL SINGLE POINT ENERGY      -929.245780391432
Dispersion correction            ... done
FINAL SINGLE POINT ENERGY      -929.245714388172
FINAL SINGLE POINT ENERGY      -929.245770605806
FINAL SINGLE POINT ENERGY      -929.245859294477
FINAL SINGLE POINT ENERGY      -929.245893550593
FINAL SINGLE POINT ENERGY      -929.245967378696
FINAL SINGLE POINT ENERGY      -929.246007884886
Dispersion correction            ... done
Dispersion correction           -0.042221051
FINAL SINGLE POINT ENERGY      -929.246001488261
Dispersion correction            ... done
Dispersion correction           -0.042225368
FINAL SINGLE POINT ENERGY      -929.245993241080
Dispersion correction            ... done
                    ***********************HURRAY********************

CARTESIAN COORDINATES (ANGSTROEM)
---------------------------------
  C      1.519521    1.280371   -0.196738
  S      2.746084    0.077947    0.027953
  C      1.572411   -1.182665    0.173852
  C      0.288800   -0.700659    0.044463
  C      0.261208    0.727921   -0.179484
  N     -0.955192    1.385857   -0.378031
  C     -2.076131    0.763475    0.295287
  C     -2.176536   -0.694854   -0.140943
  N     -0.928462   -1.430229    0.092559
  C     -0.922517   -2.815723    0.204633
  O      0.044432   -3.473666    0.490190
  O     -2.115531   -3.422488   -0.027784
  H      1.781266    2.324245   -0.356471
  H      1.868579   -2.207028    0.366609
  H     -0.901666    2.391557   -0.257312
  H     -3.006334    1.273699    0.002514
  H     -1.995446    0.806240    1.402211
  H     -2.454558   -0.721717   -1.211569
  H     -2.977523   -1.167260    0.446409
  H     -2.756175   -2.825783   -0.433389

 Multiplicity           Mult            ....    1
 Number of Electrons    NEL             ....   96
 Basis Dimension        Dim             ....  212

ORBITAL ENERGIES
----------------

  NO   OCC          E(Eh)            E(eV)
   0   2.0000     -88.863209     -2418.0908
   1   2.0000     -19.181470      -521.9543
   2   2.0000     -19.106875      -519.9245
   3   2.0000     -14.383533      -391.3958
   4   2.0000     -14.349822      -390.4785
   5   2.0000     -10.339213      -281.3443
   6   2.0000     -10.259171      -279.1662
   7   2.0000     -10.248531      -278.8767
   8   2.0000     -10.232231      -278.4332
   9   2.0000     -10.229230      -278.3515
  10   2.0000     -10.198764      -277.5225
  11   2.0000     -10.198139      -277.5055
  12   2.0000      -7.958022      -216.5488
  13   2.0000      -5.926320      -161.2634
  14   2.0000      -5.922310      -161.1543
  15   2.0000      -5.919022      -161.0648
  16   2.0000      -1.100436       -29.9444
  17   2.0000      -1.009710       -27.4756
  18   2.0000      -0.973352       -26.4863
  19   2.0000      -0.924686       -25.1620
  20   2.0000      -0.864498       -23.5242
  21   2.0000      -0.774404       -21.0726
  22   2.0000      -0.724774       -19.7221
  23   2.0000      -0.713859       -19.4251
  24   2.0000      -0.645073       -17.5533
  25   2.0000      -0.628546       -17.1036
  26   2.0000      -0.615966       -16.7613
  27   2.0000      -0.568183       -15.4610
  28   2.0000      -0.536879       -14.6092
  29   2.0000      -0.530374       -14.4322
  30   2.0000      -0.513144       -13.9634
  31   2.0000      -0.489449       -13.3186
  32   2.0000      -0.465214       -12.6591
  33   2.0000      -0.446020       -12.1368
  34   2.0000      -0.427759       -11.6399
  35   2.0000      -0.422613       -11.4999
  36   2.0000      -0.419380       -11.4119
  37   2.0000      -0.403146       -10.9702
  38   2.0000      -0.391964       -10.6659
  39   2.0000      -0.388414       -10.5693
  40   2.0000      -0.385691       -10.4952
  41   2.0000      -0.347478        -9.4554
  42   2.0000      -0.332710        -9.0535
  43   2.0000      -0.306008        -8.3269
  44   2.0000      -0.300900        -8.1879
  45   2.0000      -0.280976        -7.6457
  46   2.0000      -0.216183        -5.8827
  47   2.0000      -0.203529        -5.5383
  48   0.0000      -0.008942        -0.2433
  49   0.0000       0.024119         0.6563
  50   0.0000       0.036094         0.9822
  51   0.0000       0.046626         1.2687
  52   0.0000       0.054536         1.4840

MULLIKEN ATOMIC CHARGES
-----------------------
   0 C :   -0.199487
   1 S :    0.092073
   2 C :   -0.164030
   3 C :    0.158295
   4 C :    0.095970
   5 N :   -0.156389
   6 C :    0.129934
   7 C :    0.110477
   8 N :   -0.295088
   9 C :    0.247399
  10 O :   -0.227598
  11 O :   -0.179952
  12 H :   -0.004071
  13 H :    0.041416
  14 H :    0.111998
  15 H :    0.008768
  16 H :    0.018123
  17 H :    0.026340
  18 H :    0.019134
  19 H :    0.166685
Sum of atomic charges:    0.0000000

LOEWDIN ATOMIC CHARGES
----------------------
   0 C :   -0.251704
   1 S :    0.420290
   2 C :   -0.208267
   3 C :   -0.028547
   4 C :   -0.034275
   5 N :   -0.058275
   6 C :    0.035405
   7 C :    0.033267
   8 N :   -0.061521
   9 C :    0.090603
  10 O :   -0.184103
  11 O :   -0.042131
  12 H :    0.018796
  13 H :    0.030264
  14 H :    0.074533
  15 H :    0.029066
  16 H :    0.013348
  17 H :    0.019575
  18 H :    0.025831
  19 H :    0.077843

  Mayer bond orders larger than 0.100000
B(  0-C ,  1-S ) :   1.1196 B(  0-C ,  4-C ) :   1.5038 B(  0-C , 12-H ) :   0.9732
B(  1-S ,  2-C ) :   1.1421 B(  2-C ,  3-C ) :   1.5418 B(  2-C , 13-H ) :   0.9537
B(  3-C ,  4-C ) :   1.2457 B(  3-C ,  8-N ) :   1.0101 B(  4-C ,  5-N ) :   1.1222
B(  5-N ,  6-C ) :   1.0430 B(  5-N , 14-H ) :   0.9228 B(  6-C ,  7-C ) :   1.0901
B(  6-C , 15-H ) :   0.9349 B(  6-C , 16-H ) :   0.9294 B(  7-C ,  8-N ) :   0.9624
B(  7-C , 17-H ) :   0.9317 B(  7-C , 18-H ) :   0.9311 B(  8-N ,  9-C ) :   1.0687
B(  9-C , 10-O ) :   2.0439 B(  9-C , 11-O ) :   1.1704 B( 11-O , 19-H ) :   0.9592

Dispersion correction           -0.042225188
FINAL SINGLE POINT ENERGY      -929.245997096480

DIPOLE MOMENT
-------------
                                X             Y             Z
Electronic contribution:      8.26104      -3.70149       0.06831
Nuclear contribution   :     -9.89960       5.49322      -0.30616
                        -----------------------------------------
Total Dipole Moment    :     -1.63856       1.79174      -0.23785
                        -----------------------------------------
Magnitude (a.u.)       :      2.43963
Magnitude (Debye)      :      6.20104

Rotational constants in cm-1:     0.043110     0.023879     0.015637
Rotational constants in MHz :  1292.404317   715.884141   468.790628

                             ****ORCA TERMINATED NORMALLY****
TOTAL RUN TIME: 0 days 0 hours 14 minutes 43 seconds 721 msec
