                         Program Version 4.2.0 -  RELEASE  -
|  1> # ORCA input file
|  2> # SCF done        -29.746256642201          0.000267382530
|  3> ! B3LYP/G D3BJ Opt RIJCOSX def2-SVP def2/J
|  4> * xyz 0 1
|  5>    C       -0.62612         2.32608         0.00525
|  6>    C        0.72596         2.29941         0.00497
|  7>    C        1.17982         0.91484         0.00319
|  8>    C        0.00684         0.12810         0.00159
|  9>    C       -0.02057        -1.26171        -0.00061
| 10>    C       -1.30838        -1.84845        -0.00177
| 11>    C       -2.42681        -1.05082        -0.00069
| 12>    C       -2.36704         0.35849         0.00143
| 13>    C       -1.13421         0.96047         0.00262
| 14>    C        1.24309        -1.89877        -0.00135
| 15>    C        2.39211        -1.14585         0.00013
| 16>    C        2.38795         0.26471         0.00248
| 17>    H       -1.24807         3.20327         0.00675
| 18>    H        1.38202         3.15140         0.00622
| 19>    H       -1.40765        -2.92469        -0.00348
| 20>    H       -3.40234        -1.51704        -0.00161
| 21>    H       -3.28460         0.92972         0.00220
| 22>    H        1.29986        -2.97808        -0.00311
| 23>    H        3.34850        -1.65018        -0.00050
| 24>    H        3.32731         0.79933         0.00354
| 25> *
| 26>
| 27>                          ****END OF INPUT****
 Total Charge           Charge          ....    0
 Multiplicity           Mult            ....    1
 Number of Electrons    NEL             ....   80
Dispersion correction           -0.044416834
FINAL SINGLE POINT ENERGY      -461.801186679303
Dispersion correction            ... done
Dispersion correction           -0.044310600
FINAL SINGLE POINT ENERGY      -461.804362288191
Dispersion correction            ... done
Dispersion correction           -0.044298783
FINAL SINGLE POINT ENERGY      -461.804441434265
Dispersion correction            ... done
Dispersion correction           -0.044298300
FINAL SINGLE POINT ENERGY      -461.804447289883
Dispersion correction            ... done
Dispersion correction           -0.044298922
FINAL SINGLE POINT ENERGY      -461.804447054593
Dispersion correction            ... done
                    ***********************HURRAY********************

CARTESIAN COORDINATES (ANGSTROEM)
---------------------------------
  C     -0.633154    2.353820    0.004862
  C      0.734269    2.326854    0.005379
  C      1.186556    0.922482    0.003075
  C      0.006934    0.134381    0.001602
  C     -0.020477   -1.263814   -0.000584
  C     -1.314739   -1.864928   -0.001737
  C     -2.448751   -1.066961   -0.000677
  C     -2.382725    0.358382    0.001568
  C     -1.140714    0.968504    0.002706
  C      1.248939   -1.915571   -0.001342
  C      2.413550   -1.162901    0.000046
  C      2.403524    0.263947    0.002263
  H     -1.256627    3.247922    0.006171
  H      1.392576    3.195762    0.007103
  H     -1.410202   -2.954148   -0.003546
  H     -3.431868   -1.544264   -0.001651
  H     -3.308474    0.938845    0.002326
  H      1.300563   -3.007771   -0.003104
  H      3.377212   -1.678144   -0.000588
  H      3.351278    0.807832    0.003377

 Multiplicity           Mult            ....    1
 Number of Electrons    NEL             ....   80
 Basis Dimension        Dim             ....  208

ORBITAL ENERGIES
----------------

  NO   OCC          E(Eh)            E(eV)
   0   2.0000     -10.203287      -277.6456
   1   2.0000     -10.203242      -277.6443
   2   2.0000     -10.200210      -277.5618
   3   2.0000     -10.200153      -277.5603
   4   2.0000     -10.197525      -277.4887
   5   2.0000     -10.197505      -277.4882
   6   2.0000     -10.197222      -277.4805
   7   2.0000     -10.192729      -277.3583
   8   2.0000     -10.192232      -277.3447
   9   2.0000     -10.191776      -277.3323
  10   2.0000     -10.191720      -277.3308
  11   2.0000     -10.171566      -276.7824
  12   2.0000      -0.886486       -24.1225
  13   2.0000      -0.818470       -22.2717
  14   2.0000      -0.817386       -22.2422
  15   2.0000      -0.740371       -20.1465
  16   2.0000      -0.721420       -19.6308
  17   2.0000      -0.706703       -19.2304
  18   2.0000      -0.635548       -17.2941
  19   2.0000      -0.613535       -16.6951
  20   2.0000      -0.576190       -15.6789
  21   2.0000      -0.570331       -15.5195
  22   2.0000      -0.512299       -13.9404
  23   2.0000      -0.508356       -13.8331
  24   2.0000      -0.478736       -13.0271
  25   2.0000      -0.459459       -12.5025
  26   2.0000      -0.443255       -12.0616
  27   2.0000      -0.420311       -11.4372
  28   2.0000      -0.419775       -11.4226
  29   2.0000      -0.408489       -11.1155
  30   2.0000      -0.401487       -10.9250
  31   2.0000      -0.389129       -10.5887
  32   2.0000      -0.365398        -9.9430
  33   2.0000      -0.341397        -9.2899
  34   2.0000      -0.336063        -9.1447
  35   2.0000      -0.333200        -9.0668
  36   2.0000      -0.331707        -9.0262
  37   2.0000      -0.253004        -6.8846
  38   2.0000      -0.235557        -6.4098
  39   2.0000      -0.222849        -6.0640
  40   0.0000      -0.080170        -2.1815
  41   0.0000      -0.015696        -0.4271
  42   0.0000       0.033992         0.9250
  43   0.0000       0.036906         1.0043
  44   0.0000       0.063583         1.7302

MULLIKEN ATOMIC CHARGES
-----------------------
   0 C :    0.014602
   1 C :    0.012861
   2 C :    0.090594
   3 C :   -0.047362
   4 C :    0.129147
   5 C :   -0.034147
   6 C :    0.035039
   7 C :   -0.046466
   8 C :    0.088974
   9 C :   -0.034987
  10 C :    0.036129
  11 C :   -0.046907
  12 H :   -0.028171
  13 H :   -0.027529
  14 H :   -0.024511
  15 H :   -0.019026
  16 H :   -0.027515
  17 H :   -0.024472
  18 H :   -0.018595
  19 H :   -0.027659
Sum of atomic charges:   -0.0000000

LOEWDIN ATOMIC CHARGES
----------------------
   0 C :   -0.021267
   1 C :   -0.021488
   2 C :   -0.020329
   3 C :   -0.027222
   4 C :   -0.021942
   5 C :   -0.007705
   6 C :   -0.027709
   7 C :   -0.001845
   8 C :   -0.020511
   9 C :   -0.007917
  10 C :   -0.027598
  11 C :   -0.001879
  12 H :    0.022411
  13 H :    0.022521
  14 H :    0.027217
  15 H :    0.027005
  16 H :    0.027003
  17 H :    0.027201
  18 H :    0.027104
  19 H :    0.026950

  Mayer bond orders larger than 0.100000
B(  0-C ,  1-C ) :   1.6489 B(  0-C ,  8-C ) :   1.0490 B(  0-C , 12-H ) :   1.0000
B(  1-C ,  2-C ) :   1.0487 B(  1-C , 13-H ) :   0.9997 B(  2-C ,  3-C ) :   1.2403
B(  2-C , 11-C ) :   1.3999 B(  3-C ,  4-C ) :   1.3017 B(  3-C ,  8-C ) :   1.2402
B(  4-C ,  5-C ) :   1.1930 B(  4-C ,  9-C ) :   1.1921 B(  5-C ,  6-C ) :   1.4867
B(  5-C , 14-H ) :   0.9873 B(  6-C ,  7-C ) :   1.2512 B(  6-C , 15-H ) :   0.9805
B(  7-C ,  8-C ) :   1.4003 B(  7-C , 16-H ) :   0.9929 B(  9-C , 10-C ) :   1.4861
B(  9-C , 17-H ) :   0.9877 B( 10-C , 11-C ) :   1.2512 B( 10-C , 18-H ) :   0.9803
B( 11-C , 19-H ) :   0.9931

Dispersion correction           -0.044299010
FINAL SINGLE POINT ENERGY      -461.804446691512

DIPOLE MOMENT
-------------
                                X             Y             Z
Electronic contribution:      0.01553       0.77808       0.00099
Nuclear contribution   :     -0.01867      -0.91521      -0.00120
                        -----------------------------------------
Total Dipole Moment    :     -0.00314      -0.13713      -0.00021
                        -----------------------------------------
Magnitude (a.u.)       :      0.13717
Magnitude (Debye)      :      0.34865

Rotational constants in cm-1:     0.050140     0.040532     0.022414
Rotational constants in MHz :  1503.165851  1215.124957   671.942214

                             ****ORCA TERMINATED NORMALLY****
TOTAL RUN TIME: 0 days 0 hours 6 minutes 48 seconds 901 msec
