                         Program Version 4.2.0 -  RELEASE  -
|  1> # ORCA input file
|  2> # SCF done        -31.731706496758          0.000482408830
|  3> ! B3LYP/G D3BJ Opt RIJCOSX def2-SVP def2/J
|  4> * xyz 0 1
|  5>    C        1.40253        -1.29974         0.15056
|  6>    S        2.70736        -0.19454         0.24825
|  7>    C        1.63152         1.17336         0.18398
|  8>    C        0.32233         0.75191         0.10651
|  9>    C        0.19673        -0.66662         0.07829
| 10>    O       -0.95947        -1.38618         0.00799
| 11>    C       -2.10829        -0.66871        -0.38362
| 12>    C       -2.33649         0.56145         0.47777
| 13>    S       -1.07313         1.82084         0.09647
| 14>    C        2.20900         2.48815         0.22690
| 15>    C        1.57471         3.63937         0.01836
| 16>    H        1.57450        -2.35590         0.15593
| 17>    H       -2.93355        -1.37675        -0.26996
| 18>    H       -2.03237        -0.37257        -1.43961
| 19>    H       -2.27164         0.30958         1.53691
| 20>    H       -3.29804         1.02140         0.26154
| 21>    H        3.27025         2.49131         0.44158
| 22>    H        0.52792         3.68776        -0.22251
| 23>    H        2.09845         4.57691         0.08286
| 24> *
| 25>
| 26>                          ****END OF INPUT****
 Total Charge           Charge          ....    0
 Multiplicity           Mult            ....    1
 Number of Electrons    NEL             ....   96
Dispersion correction           -0.044442360
FINAL SINGLE POINT ENERGY     -1180.770844044447
Dispersion correction            ... done
Dispersion correction           -0.044076341
FINAL SINGLE POINT ENERGY     -1180.773512430522
Dispersion correction            ... done
Dispersion correction           -0.044019336
FINAL SINGLE POINT ENERGY     -1180.773737245222
Dispersion correction            ... done
FINAL SINGLE POINT ENERGY     -1180.773792402169
FINAL SINGLE POINT ENERGY     -1180.773779439983
FINAL SINGLE POINT ENERGY     -1180.773761072746
FINAL SINGLE POINT ENERGY     -1180.773775399028
FINAL SINGLE POINT ENERGY     -1180.773788386370
FINAL SINGLE POINT ENERGY     -1180.773799296749
Dispersion correction            ... done
Dispersion correction           -0.043924150
FINAL SINGLE POINT ENERGY     -1180.773808522657
Dispersion correction            ... done
Dispersion correction           -0.043925040
FINAL SINGLE POINT ENERGY     -1180.773813054897
Dispersion correction            ... done
                    ***********************HURRAY********************

CARTESIAN COORDINATES (ANGSTROEM)
---------------------------------
  C      1.428777   -1.317251    0.134774
  S      2.728914   -0.187913    0.173206
  C      1.641209    1.183464    0.139498
  C      0.318625    0.752061    0.103956
  C      0.208464   -0.684047    0.100582
  O     -0.953836   -1.387944    0.112481
  C     -2.130384   -0.733100   -0.334475
  C     -2.382656    0.572696    0.399475
  S     -1.088435    1.818714    0.049793
  C      2.235355    2.507219    0.171387
  C      1.621563    3.703318    0.120484
  H      1.600918   -2.391119    0.141381
  H     -2.948377   -1.440081   -0.129443
  H     -2.083819   -0.553484   -1.424441
  H     -2.450907    0.394399    1.484009
  H     -3.324321    1.024667    0.054997
  H      3.328624    2.500749    0.255577
  H      0.540089    3.818019    0.032338
  H      2.212516    4.620662    0.172620

 Multiplicity           Mult            ....    1
 Number of Electrons    NEL             ....   96
 Basis Dimension        Dim             ....  202

ORBITAL ENERGIES
----------------

  NO   OCC          E(Eh)            E(eV)
   0   2.0000     -88.871967     -2418.3292
   1   2.0000     -88.858176     -2417.9539
   2   2.0000     -19.169531      -521.6295
   3   2.0000     -10.261444      -279.2281
   4   2.0000     -10.254416      -279.0368
   5   2.0000     -10.232346      -278.4363
   6   2.0000     -10.221368      -278.1376
   7   2.0000     -10.219181      -278.0781
   8   2.0000     -10.205769      -277.7131
   9   2.0000     -10.201768      -277.6042
  10   2.0000     -10.185219      -277.1539
  11   2.0000      -7.966856      -216.7892
  12   2.0000      -7.952651      -216.4026
  13   2.0000      -5.934975      -161.4989
  14   2.0000      -5.931230      -161.3970
  15   2.0000      -5.927874      -161.3057
  16   2.0000      -5.921874      -161.1424
  17   2.0000      -5.918085      -161.0393
  18   2.0000      -5.911329      -160.8554
  19   2.0000      -1.067236       -29.0410
  20   2.0000      -0.884228       -24.0611
  21   2.0000      -0.824105       -22.4250
  22   2.0000      -0.779652       -21.2154
  23   2.0000      -0.763712       -20.7817
  24   2.0000      -0.708243       -19.2723
  25   2.0000      -0.676725       -18.4146
  26   2.0000      -0.641402       -17.4534
  27   2.0000      -0.594558       -16.1788
  28   2.0000      -0.563664       -15.3381
  29   2.0000      -0.534283       -14.5386
  30   2.0000      -0.512932       -13.9576
  31   2.0000      -0.486202       -13.2302
  32   2.0000      -0.475758       -12.9460
  33   2.0000      -0.455817       -12.4034
  34   2.0000      -0.442558       -12.0426
  35   2.0000      -0.429747       -11.6940
  36   2.0000      -0.411847       -11.2069
  37   2.0000      -0.397849       -10.8260
  38   2.0000      -0.385590       -10.4924
  39   2.0000      -0.375667       -10.2224
  40   2.0000      -0.365613        -9.9488
  41   2.0000      -0.347757        -9.4629
  42   2.0000      -0.340182        -9.2568
  43   2.0000      -0.314346        -8.5538
  44   2.0000      -0.298235        -8.1154
  45   2.0000      -0.280003        -7.6193
  46   2.0000      -0.215033        -5.8513
  47   2.0000      -0.205527        -5.5927
  48   0.0000      -0.043241        -1.1766
  49   0.0000       0.019295         0.5250
  50   0.0000       0.029879         0.8130
  51   0.0000       0.040286         1.0963
  52   0.0000       0.056459         1.5363

MULLIKEN ATOMIC CHARGES
-----------------------
   0 C :   -0.146008
   1 S :    0.106165
   2 C :   -0.173036
   3 C :   -0.042424
   4 C :    0.205290
   5 O :   -0.314746
   6 C :    0.228785
   7 C :   -0.083990
   8 S :    0.007987
   9 C :    0.039049
  10 C :   -0.053333
  11 H :    0.018441
  12 H :    0.026218
  13 H :    0.024463
  14 H :    0.069876
  15 H :    0.047900
  16 H :   -0.011053
  17 H :    0.029422
  18 H :    0.020995
Sum of atomic charges:   -0.0000000

LOEWDIN ATOMIC CHARGES
----------------------
   0 C :   -0.227288
   1 S :    0.432786
   2 C :   -0.199566
   3 C :   -0.220808
   4 C :   -0.008053
   5 O :   -0.108891
   6 C :    0.075874
   7 C :   -0.143987
   8 S :    0.305135
   9 C :   -0.048019
  10 C :   -0.061847
  11 H :    0.028529
  12 H :    0.029504
  13 H :    0.016748
  14 H :    0.029450
  15 H :    0.034108
  16 H :    0.028001
  17 H :    0.012074
  18 H :    0.026251

  Mayer bond orders larger than 0.100000
B(  0-C ,  1-S ) :   1.1237 B(  0-C ,  4-C ) :   1.5424 B(  0-C , 11-H ) :   0.9648
B(  1-S ,  2-C ) :   1.1366 B(  2-C ,  3-C ) :   1.5027 B(  2-C ,  9-C ) :   1.1393
B(  3-C ,  4-C ) :   1.2126 B(  3-C ,  8-S ) :   1.0151 B(  4-C ,  5-O ) :   1.1112
B(  5-O ,  6-C ) :   0.9687 B(  6-C ,  7-C ) :   1.0521 B(  6-C , 12-H ) :   0.9466
B(  6-C , 13-H ) :   0.9434 B(  7-C ,  8-S ) :   1.0047 B(  7-C , 14-H ) :   0.9373
B(  7-C , 15-H ) :   0.9420 B(  9-C , 10-C ) :   1.8993 B(  9-C , 16-H ) :   0.9434
B( 10-C , 17-H ) :   0.9495 B( 10-C , 18-H ) :   0.9413

Dispersion correction           -0.043926310
FINAL SINGLE POINT ENERGY     -1180.773818725462

DIPOLE MOMENT
-------------
                                X             Y             Z
Electronic contribution:      5.02567      -3.11044       0.19717
Nuclear contribution   :     -5.80843       2.95877      -0.24688
                        -----------------------------------------
Total Dipole Moment    :     -0.78276      -0.15167      -0.04972
                        -----------------------------------------
Magnitude (a.u.)       :      0.79887
Magnitude (Debye)      :      2.03057

Rotational constants in cm-1:     0.040925     0.027367     0.016646
Rotational constants in MHz :  1226.903940   820.455679   499.046146

                             ****ORCA TERMINATED NORMALLY****
TOTAL RUN TIME: 0 days 0 hours 15 minutes 4 seconds 895 msec
