                         Program Version 4.2.0 -  RELEASE  -
|  1> # ORCA input file
|  2> # SCF done        -26.841525158349          0.000664619363
|  3> ! B3LYP/G D3BJ Opt RIJCOSX def2-SVP def2/J
|  4> * xyz 0 1
|  5>    C       -1.51113        -1.23376         0.15671
|  6>    S       -2.68991         0.00612         0.21346
|  7>    C       -1.50382         1.23255         0.13940
|  8>    C       -0.23330         0.71334         0.07188
|  9>    C       -0.23476        -0.72734         0.08230
| 10>    C        0.98917        -1.43001         0.01198
| 11>    C        2.16741        -0.73483        -0.05715
| 12>    C        2.15842         0.69312        -0.06462
| 13>    C        1.00362         1.40120        -0.00367
| 14>    N        3.39019        -1.38029        -0.04881
| 15>    H       -1.81948        -2.25942         0.18189
| 16>    H       -1.80047         2.26233         0.14962
| 17>    H        0.98305        -2.51029         0.01781
| 18>    H        3.10997         1.20322        -0.11945
| 19>    H        1.00729         2.48102        -0.01180
| 20>    H        3.37496        -2.35680        -0.29599
| 21>    H        4.16755        -0.86753        -0.43273
| 22> *
| 23>
| 24>                          ****END OF INPUT****
 Total Charge           Charge          ....    0
 Multiplicity           Mult            ....    1
 Number of Electrons    NEL             ....   78
Dispersion correction           -0.036594597
FINAL SINGLE POINT ENERGY      -761.661264040550
Dispersion correction            ... done
Dispersion correction           -0.036451507
FINAL SINGLE POINT ENERGY      -761.663809963200
Dispersion correction            ... done
Dispersion correction           -0.036431305
FINAL SINGLE POINT ENERGY      -761.663882234657
Dispersion correction            ... done
FINAL SINGLE POINT ENERGY      -761.663856048621
FINAL SINGLE POINT ENERGY      -761.663892401056
FINAL SINGLE POINT ENERGY      -761.663894881147
Dispersion correction            ... done
Dispersion correction           -0.036434912
FINAL SINGLE POINT ENERGY      -761.663891714874
Dispersion correction            ... done
Dispersion correction           -0.036434955
FINAL SINGLE POINT ENERGY      -761.663890625211
Dispersion correction            ... done
                    ***********************HURRAY********************

CARTESIAN COORDINATES (ANGSTROEM)
---------------------------------
  C     -1.540833   -1.244028    0.156434
  S     -2.711442    0.014340    0.232263
  C     -1.528846    1.250343    0.146035
  C     -0.247356    0.718486    0.063359
  C     -0.248117   -0.736406    0.071373
  C      0.991625   -1.443602    0.002750
  C      2.183701   -0.748500   -0.042917
  C      2.169973    0.695510   -0.058432
  C      1.003798    1.406355   -0.014967
  N      3.422061   -1.383166   -0.020554
  H     -1.852786   -2.286163    0.182222
  H     -1.817332    2.299716    0.160860
  H      0.989626   -2.537083    0.003292
  H      3.128382    1.220372   -0.103324
  H      1.019999    2.498853   -0.034635
  H      3.416126   -2.359979   -0.293502
  H      4.180181   -0.872417   -0.459427

 Multiplicity           Mult            ....    1
 Number of Electrons    NEL             ....   78
 Basis Dimension        Dim             ....  179

ORBITAL ENERGIES
----------------

  NO   OCC          E(Eh)            E(eV)
   0   2.0000     -88.873483     -2418.3704
   1   2.0000     -14.334973      -390.0744
   2   2.0000     -10.225594      -278.2526
   3   2.0000     -10.204064      -277.6667
   4   2.0000     -10.196817      -277.4695
   5   2.0000     -10.192848      -277.3615
   6   2.0000     -10.190455      -277.2964
   7   2.0000     -10.189281      -277.2644
   8   2.0000     -10.188820      -277.2519
   9   2.0000     -10.174573      -276.8642
  10   2.0000      -7.968068      -216.8222
  11   2.0000      -5.935832      -161.5222
  12   2.0000      -5.931728      -161.4105
  13   2.0000      -5.930359      -161.3733
  14   2.0000      -0.910109       -24.7653
  15   2.0000      -0.876421       -23.8486
  16   2.0000      -0.806043       -21.9336
  17   2.0000      -0.748742       -20.3743
  18   2.0000      -0.715515       -19.4701
  19   2.0000      -0.683979       -18.6120
  20   2.0000      -0.614262       -16.7149
  21   2.0000      -0.572440       -15.5769
  22   2.0000      -0.564841       -15.3701
  23   2.0000      -0.521450       -14.1894
  24   2.0000      -0.500966       -13.6320
  25   2.0000      -0.482047       -13.1172
  26   2.0000      -0.451002       -12.2724
  27   2.0000      -0.427058       -11.6209
  28   2.0000      -0.413116       -11.2415
  29   2.0000      -0.402148       -10.9430
  30   2.0000      -0.398734       -10.8501
  31   2.0000      -0.377634       -10.2760
  32   2.0000      -0.357922        -9.7395
  33   2.0000      -0.344826        -9.3832
  34   2.0000      -0.336074        -9.1450
  35   2.0000      -0.297339        -8.0910
  36   2.0000      -0.270089        -7.3495
  37   2.0000      -0.223620        -6.0850
  38   2.0000      -0.184781        -5.0282
  39   0.0000      -0.047108        -1.2819
  40   0.0000       0.030113         0.8194
  41   0.0000       0.037400         1.0177
  42   0.0000       0.054716         1.4889
  43   0.0000       0.061059         1.6615

MULLIKEN ATOMIC CHARGES
-----------------------
   0 C :   -0.163532
   1 S :    0.121074
   2 C :   -0.141586
   3 C :    0.093630
   4 C :    0.109925
   5 C :   -0.074574
   6 C :    0.062824
   7 C :   -0.007162
   8 C :   -0.011211
   9 N :   -0.087271
  10 H :    0.008385
  11 H :    0.011364
  12 H :   -0.061103
  13 H :   -0.042061
  14 H :   -0.028410
  15 H :    0.103964
  16 H :    0.105745
Sum of atomic charges:   -0.0000000

LOEWDIN ATOMIC CHARGES
----------------------
   0 C :   -0.231211
   1 S :    0.465006
   2 C :   -0.212277
   3 C :   -0.061933
   4 C :   -0.040514
   5 C :   -0.088912
   6 C :    0.016795
   7 C :   -0.049042
   8 C :   -0.011755
   9 N :   -0.035621
  10 H :    0.019851
  11 H :    0.022382
  12 H :    0.018939
  13 H :    0.022041
  14 H :    0.028267
  15 H :    0.069759
  16 H :    0.068225

  Mayer bond orders larger than 0.100000
B(  0-C ,  1-S ) :   1.1771 B(  0-C ,  2-C ) :   0.1180 B(  0-C ,  4-C ) :   1.4059
B(  0-C , 10-H ) :   0.9639 B(  1-S ,  2-C ) :   1.2084 B(  2-C ,  3-C ) :   1.4067
B(  2-C , 11-H ) :   0.9648 B(  3-C ,  4-C ) :   1.1989 B(  3-C ,  8-C ) :   1.1680
B(  4-C ,  5-C ) :   1.1804 B(  5-C ,  6-C ) :   1.4761 B(  5-C , 12-H ) :   0.9935
B(  6-C ,  7-C ) :   1.1598 B(  6-C ,  9-N ) :   1.1914 B(  7-C ,  8-C ) :   1.5672
B(  7-C , 13-H ) :   0.9793 B(  8-C , 14-H ) :   0.9911 B(  9-N , 15-H ) :   0.9528
B(  9-N , 16-H ) :   0.9511

Dispersion correction           -0.036434858
FINAL SINGLE POINT ENERGY      -761.663890946697

DIPOLE MOMENT
-------------
                                X             Y             Z
Electronic contribution:     -7.74907       0.81230       0.58206
Nuclear contribution   :      8.44421      -0.94563      -0.97803
                        -----------------------------------------
Total Dipole Moment    :      0.69513      -0.13333      -0.39597
                        -----------------------------------------
Magnitude (a.u.)       :      0.81104
Magnitude (Debye)      :      2.06149

Rotational constants in cm-1:     0.109085     0.025638     0.020773
Rotational constants in MHz :  3270.290377   768.620930   622.749614

                             ****ORCA TERMINATED NORMALLY****
TOTAL RUN TIME: 0 days 0 hours 7 minutes 41 seconds 666 msec
