                         Program Version 4.2.0 -  RELEASE  -
|  1> # ORCA input file
|  2> # SCF done        -45.570228628469          0.000811064282
|  3> ! B3LYP/G D3BJ Opt RIJCOSX def2-SVP def2/J
|  4> * xyz 0 1
|  5>    C       -1.53284         1.23555        -0.03348
|  6>    S       -2.66367        -0.03074        -0.10057
|  7>    C       -1.44744        -1.25895        -0.04299
|  8>    C       -0.18033        -0.68172        -0.01000
|  9>    C       -0.24283         0.75885         0.00863
| 10>    C        0.94946         1.52477         0.05250
| 11>    F        0.85457         2.86194         0.09241
| 12>    C        2.16363         0.90331         0.04331
| 13>    F        3.30683         1.59706         0.08393
| 14>    C        2.23374        -0.51380        -0.03366
| 15>    F        3.44444        -1.08440        -0.08708
| 16>    C        1.10273        -1.28281        -0.06807
| 17>    F        1.23254        -2.61116        -0.19150
| 18>    C       -1.89299        -2.63172         0.00541
| 19>    C       -1.30330        -3.62689         0.66042
| 20>    H       -1.84944         2.25871        -0.02691
| 21>    H       -2.83966        -2.80589        -0.49273
| 22>    H       -0.39580        -3.49905         1.22239
| 23>    H       -1.72626        -4.61582         0.65328
| 24> *
| 25>
| 26>                          ****END OF INPUT****
 Total Charge           Charge          ....    0
 Multiplicity           Mult            ....    1
 Number of Electrons    NEL             ....  116
Dispersion correction           -0.044125808
FINAL SINGLE POINT ENERGY     -1180.305775890864
Dispersion correction            ... done
Dispersion correction           -0.043974499
FINAL SINGLE POINT ENERGY     -1180.308003533262
Dispersion correction            ... done
Dispersion correction           -0.043879039
FINAL SINGLE POINT ENERGY     -1180.308123615954
Dispersion correction            ... done
FINAL SINGLE POINT ENERGY     -1180.308258809041
FINAL SINGLE POINT ENERGY     -1180.308349192478
FINAL SINGLE POINT ENERGY     -1180.308488034385
FINAL SINGLE POINT ENERGY     -1180.308551565331
FINAL SINGLE POINT ENERGY     -1180.308605394172
FINAL SINGLE POINT ENERGY     -1180.308658121014
FINAL SINGLE POINT ENERGY     -1180.308672373859
FINAL SINGLE POINT ENERGY     -1180.308674364096
FINAL SINGLE POINT ENERGY     -1180.308516940319
Dispersion correction            ... done
Dispersion correction           -0.043678298
FINAL SINGLE POINT ENERGY     -1180.308595467217
Dispersion correction            ... done
Dispersion correction           -0.043671083
FINAL SINGLE POINT ENERGY     -1180.308586312060
Dispersion correction            ... done
                    ***********************HURRAY********************

CARTESIAN COORDINATES (ANGSTROEM)
---------------------------------
  C     -1.530746    1.258100   -0.080516
  S     -2.646730   -0.026376   -0.032093
  C     -1.432847   -1.266394    0.073488
  C     -0.153456   -0.669798    0.063122
  C     -0.226728    0.782026   -0.024850
  C      0.960947    1.569052   -0.054931
  F      0.861576    2.896443   -0.145756
  C      2.186611    0.963862   -0.002143
  F      3.316090    1.665738   -0.044008
  C      2.271536   -0.458987    0.100622
  F      3.479425   -1.009223    0.176002
  C      1.148150   -1.248986    0.107382
  F      1.321603   -2.574051    0.159268
  C     -1.950328   -2.624682    0.166897
  C     -1.327651   -3.794066    0.397919
  H     -1.851651    2.294257   -0.154196
  H     -3.037987   -2.667330    0.032871
  H     -0.255899   -3.880310    0.561408
  H     -1.918536   -4.712036    0.434802

 Multiplicity           Mult            ....    1
 Number of Electrons    NEL             ....  116
 Basis Dimension        Dim             ....  234

ORBITAL ENERGIES
----------------

  NO   OCC          E(Eh)            E(eV)
   0   2.0000     -88.905765     -2419.2488
   1   2.0000     -24.724806      -672.7962
   2   2.0000     -24.724093      -672.7768
   3   2.0000     -24.723919      -672.7720
   4   2.0000     -24.723170      -672.7516
   5   2.0000     -10.300301      -280.2854
   6   2.0000     -10.299744      -280.2703
   7   2.0000     -10.298826      -280.2453
   8   2.0000     -10.297388      -280.2062
   9   2.0000     -10.246350      -278.8174
  10   2.0000     -10.236554      -278.5508
  11   2.0000     -10.235941      -278.5341
  12   2.0000     -10.233682      -278.4727
  13   2.0000     -10.216984      -278.0183
  14   2.0000     -10.196810      -277.4693
  15   2.0000      -8.000513      -217.7050
  16   2.0000      -5.968144      -162.4015
  17   2.0000      -5.964137      -162.2924
  18   2.0000      -5.962803      -162.2561
  19   2.0000      -1.247105       -33.9355
  20   2.0000      -1.239261       -33.7220
  21   2.0000      -1.230382       -33.4804
  22   2.0000      -1.223456       -33.2919
  23   2.0000      -0.921487       -25.0749
  24   2.0000      -0.865272       -23.5453
  25   2.0000      -0.803044       -21.8519
  26   2.0000      -0.774856       -21.0849
  27   2.0000      -0.764184       -20.7945
  28   2.0000      -0.720585       -19.6081
  29   2.0000      -0.665415       -18.1069
  30   2.0000      -0.646702       -17.5977
  31   2.0000      -0.615308       -16.7434
  32   2.0000      -0.599277       -16.3072
  33   2.0000      -0.584204       -15.8970
  34   2.0000      -0.569337       -15.4924
  35   2.0000      -0.552165       -15.0252
  36   2.0000      -0.542837       -14.7713
  37   2.0000      -0.527852       -14.3636
  38   2.0000      -0.523260       -14.2386
  39   2.0000      -0.497147       -13.5281
  40   2.0000      -0.491611       -13.3774
  41   2.0000      -0.479418       -13.0456
  42   2.0000      -0.473773       -12.8920
  43   2.0000      -0.466457       -12.6929
  44   2.0000      -0.455081       -12.3834
  45   2.0000      -0.439660       -11.9638
  46   2.0000      -0.422709       -11.5025
  47   2.0000      -0.421068       -11.4579
  48   2.0000      -0.415435       -11.3046
  49   2.0000      -0.400570       -10.9001
  50   2.0000      -0.397845       -10.8259
  51   2.0000      -0.374381       -10.1874
  52   2.0000      -0.363795        -9.8994
  53   2.0000      -0.344560        -9.3759
  54   2.0000      -0.323555        -8.8044
  55   2.0000      -0.276057        -7.5119
  56   2.0000      -0.269809        -7.3419
  57   2.0000      -0.212792        -5.7904
  58   0.0000      -0.085874        -2.3367
  59   0.0000      -0.025816        -0.7025
  60   0.0000       0.003353         0.0912
  61   0.0000       0.009501         0.2585
  62   0.0000       0.029147         0.7931

MULLIKEN ATOMIC CHARGES
-----------------------
   0 C :   -0.127227
   1 S :    0.163913
   2 C :   -0.193613
   3 C :    0.098088
   4 C :   -0.000335
   5 C :    0.193292
   6 F :   -0.174191
   7 C :    0.145045
   8 F :   -0.164273
   9 C :    0.150276
  10 F :   -0.164477
  11 C :    0.161995
  12 F :   -0.173407
  13 C :    0.036556
  14 C :   -0.039467
  15 H :    0.034192
  16 H :   -0.006575
  17 H :    0.035919
  18 H :    0.024290
Sum of atomic charges:   -0.0000000

LOEWDIN ATOMIC CHARGES
----------------------
   0 C :   -0.200726
   1 S :    0.510543
   2 C :   -0.177620
   3 C :   -0.068660
   4 C :   -0.070529
   5 C :    0.047999
   6 F :   -0.044690
   7 C :    0.023374
   8 F :   -0.036042
   9 C :    0.025221
  10 F :   -0.035314
  11 C :    0.048445
  12 F :   -0.036722
  13 C :   -0.056198
  14 C :   -0.040266
  15 H :    0.033796
  16 H :    0.028684
  17 H :    0.020561
  18 H :    0.028145

  Mayer bond orders larger than 0.100000
B(  0-C ,  1-S ) :   1.1977 B(  0-C ,  2-C ) :   0.1118 B(  0-C ,  4-C ) :   1.4027
B(  0-C , 15-H ) :   0.9737 B(  1-S ,  2-C ) :   1.1896 B(  2-C ,  3-C ) :   1.3422
B(  2-C , 13-C ) :   1.1318 B(  3-C ,  4-C ) :   1.2048 B(  3-C , 11-C ) :   1.1384
B(  4-C ,  5-C ) :   1.1381 B(  5-C ,  6-F ) :   1.1677 B(  5-C ,  7-C ) :   1.4103
B(  7-C ,  8-F ) :   1.1504 B(  7-C ,  9-C ) :   1.1318 B(  9-C , 10-F ) :   1.1411
B(  9-C , 11-C ) :   1.4203 B( 11-C , 12-F ) :   1.1254 B( 13-C , 14-C ) :   1.9225
B( 13-C , 16-H ) :   0.9335 B( 14-C , 17-H ) :   0.9470 B( 14-C , 18-H ) :   0.9371

Dispersion correction           -0.043672489
FINAL SINGLE POINT ENERGY     -1180.308583913387

DIPOLE MOMENT
-------------
                                X             Y             Z
Electronic contribution:     13.78921       9.26896      -0.69038
Nuclear contribution   :    -14.87571      -9.31303       0.68603
                        -----------------------------------------
Total Dipole Moment    :     -1.08649      -0.04407      -0.00435
                        -----------------------------------------
Magnitude (a.u.)       :      1.08740
Magnitude (Debye)      :      2.76394

Rotational constants in cm-1:     0.025833     0.015580     0.009723
Rotational constants in MHz :   774.439186   467.063972   291.492666

                             ****ORCA TERMINATED NORMALLY****
TOTAL RUN TIME: 0 days 0 hours 22 minutes 7 seconds 624 msec
