                         Program Version 4.2.0 -  RELEASE  -
|  1> # ORCA input file
|  2> # SCF done        -37.561999164313          0.000429098958
|  3> ! B3LYP/G D3BJ Opt RIJCOSX def2-SVP def2/J
|  4> * xyz 0 1
|  5>    C        1.19982         0.36898        -0.06018
|  6>    C        0.80114        -0.93768        -0.00998
|  7>    C       -0.65594        -0.97447         0.05419
|  8>    C       -1.11365         0.28964         0.04166
|  9>    C        0.03140         1.19188        -0.03047
| 10>    C       -0.03464         2.56320        -0.05894
| 11>    C        1.11261         3.46810        -0.12801
| 12>    C        0.65651         4.73240        -0.12481
| 13>    C       -0.80133         4.69349        -0.05013
| 14>    C       -1.19975         3.38830        -0.01457
| 15>    N       -1.57694         5.81887        -0.08610
| 16>    N        1.53943        -2.08662        -0.01280
| 17>    C        2.90374        -2.17983        -0.07579
| 18>    C        3.56750        -3.33345        -0.07715
| 19>    H        2.20458         0.73853        -0.11340
| 20>    H       -1.23086        -1.88260         0.10201
| 21>    H       -2.13683         0.61019         0.07674
| 22>    H        2.13558         3.14761        -0.17310
| 23>    H        1.23024         5.64095        -0.16834
| 24>    H       -2.21125         3.03522         0.03942
| 25>    H       -1.14049         6.68887         0.17131
| 26>    H       -2.54273         5.71904         0.17946
| 27>    H        1.02722        -2.95705         0.03253
| 28>    H        3.41684        -1.23177        -0.12500
| 29>    H        3.05821        -4.28112        -0.02736
| 30>    H        4.63875        -3.35896        -0.12736
| 31> *
| 32>
| 33>                          ****END OF INPUT****
 Total Charge           Charge          ....    0
 Multiplicity           Mult            ....    1
 Number of Electrons    NEL             ....   98
Dispersion correction           -0.049018653
FINAL SINGLE POINT ENERGY      -573.558638209770
Dispersion correction            ... done
Dispersion correction           -0.048863260
FINAL SINGLE POINT ENERGY      -573.562704438122
Dispersion correction            ... done
Dispersion correction           -0.048850590
FINAL SINGLE POINT ENERGY      -573.562724116420
Dispersion correction            ... done
FINAL SINGLE POINT ENERGY      -573.562694792243
Dispersion correction            ... done
Dispersion correction           -0.048854348
FINAL SINGLE POINT ENERGY      -573.562702085077
Dispersion correction            ... done
Dispersion correction           -0.048855274
FINAL SINGLE POINT ENERGY      -573.562704348674
Dispersion correction            ... done
                    ***********************HURRAY********************

CARTESIAN COORDINATES (ANGSTROEM)
---------------------------------
  C      1.226194    0.365509    0.046688
  C      0.808631   -0.947546    0.043702
  C     -0.663935   -0.984289    0.102842
  C     -1.121017    0.293541    0.122185
  C      0.039495    1.197291    0.081850
  C     -0.041050    2.573842    0.046820
  C      1.118155    3.485275    0.000267
  C      0.654540    4.757184   -0.082584
  C     -0.823361    4.712009   -0.096280
  C     -1.228439    3.399620    0.005184
  N     -1.584518    5.840748   -0.257597
  N      1.538759   -2.111766   -0.020380
  C      2.910184   -2.218811   -0.129519
  C      3.593201   -3.374581   -0.187167
  H      2.247802    0.733097    0.000128
  H     -1.256684   -1.900007    0.124274
  H     -2.158480    0.618583    0.167240
  H      2.158291    3.166809    0.034617
  H      1.242775    5.674255   -0.137198
  H     -2.255040    3.039908    0.013081
  H     -1.163841    6.725875   -0.001734
  H     -2.571292    5.774930   -0.037738
  H      1.012605   -2.977538    0.002244
  H      3.428486   -1.257809   -0.174047
  H      3.088960   -4.344832   -0.148422
  H      4.678742   -3.369578   -0.284627

 Multiplicity           Mult            ....    1
 Number of Electrons    NEL             ....   98
 Basis Dimension        Dim             ....  256

ORBITAL ENERGIES
----------------

  NO   OCC          E(Eh)            E(eV)
   0   2.0000     -14.366914      -390.9436
   1   2.0000     -14.346481      -390.3876
   2   2.0000     -10.227864      -278.3143
   3   2.0000     -10.222899      -278.1792
   4   2.0000     -10.221821      -278.1499
   5   2.0000     -10.188531      -277.2440
   6   2.0000     -10.187201      -277.2078
   7   2.0000     -10.184002      -277.1208
   8   2.0000     -10.183127      -277.0970
   9   2.0000     -10.178548      -276.9724
  10   2.0000     -10.177697      -276.9492
  11   2.0000     -10.175459      -276.8883
  12   2.0000     -10.156947      -276.3846
  13   2.0000     -10.152515      -276.2640
  14   2.0000      -0.949561       -25.8389
  15   2.0000      -0.915025       -24.8991
  16   2.0000      -0.851179       -23.1618
  17   2.0000      -0.827166       -22.5083
  18   2.0000      -0.752958       -20.4890
  19   2.0000      -0.715497       -19.4697
  20   2.0000      -0.694855       -18.9080
  21   2.0000      -0.680515       -18.5178
  22   2.0000      -0.639344       -17.3974
  23   2.0000      -0.606845       -16.5131
  24   2.0000      -0.575949       -15.6724
  25   2.0000      -0.558689       -15.2027
  26   2.0000      -0.546899       -14.8819
  27   2.0000      -0.522396       -14.2151
  28   2.0000      -0.514035       -13.9876
  29   2.0000      -0.500294       -13.6137
  30   2.0000      -0.488181       -13.2841
  31   2.0000      -0.461083       -12.5467
  32   2.0000      -0.433246       -11.7892
  33   2.0000      -0.418573       -11.3899
  34   2.0000      -0.407632       -11.0922
  35   2.0000      -0.403909       -10.9909
  36   2.0000      -0.394757       -10.7419
  37   2.0000      -0.384596       -10.4654
  38   2.0000      -0.383311       -10.4304
  39   2.0000      -0.374737       -10.1971
  40   2.0000      -0.366824        -9.9818
  41   2.0000      -0.361185        -9.8283
  42   2.0000      -0.344104        -9.3635
  43   2.0000      -0.333629        -9.0785
  44   2.0000      -0.300079        -8.1656
  45   2.0000      -0.248732        -6.7683
  46   2.0000      -0.223399        -6.0790
  47   2.0000      -0.198969        -5.4142
  48   2.0000      -0.169908        -4.6234
  49   0.0000      -0.083409        -2.2697
  50   0.0000       0.019158         0.5213
  51   0.0000       0.041942         1.1413
  52   0.0000       0.047696         1.2979
  53   0.0000       0.055588         1.5126

MULLIKEN ATOMIC CHARGES
-----------------------
   0 C :   -0.136281
   1 C :    0.089870
   2 C :   -0.003262
   3 C :   -0.004753
   4 C :    0.049254
   5 C :    0.048492
   6 C :   -0.002439
   7 C :   -0.002855
   8 C :    0.029532
   9 C :   -0.111135
  10 N :   -0.043675
  11 N :   -0.031569
  12 C :    0.056735
  13 C :   -0.079427
  14 H :   -0.048189
  15 H :   -0.040930
  16 H :   -0.028324
  17 H :   -0.026691
  18 H :   -0.040331
  19 H :   -0.059762
  20 H :    0.112472
  21 H :    0.115430
  22 H :    0.110239
  23 H :    0.017575
  24 H :    0.004054
  25 H :    0.025968
Sum of atomic charges:   -0.0000000

LOEWDIN ATOMIC CHARGES
----------------------
   0 C :   -0.132456
   1 C :    0.020904
   2 C :   -0.046332
   3 C :   -0.020950
   4 C :    0.001926
   5 C :    0.008423
   6 C :   -0.020130
   7 C :   -0.043919
   8 C :    0.023241
   9 C :   -0.142391
  10 N :   -0.006523
  11 N :    0.039619
  12 C :    0.029447
  13 C :   -0.128010
  14 H :    0.012794
  15 H :    0.017022
  16 H :    0.021777
  17 H :    0.021778
  18 H :    0.017446
  19 H :    0.011500
  20 H :    0.074034
  21 H :    0.076807
  22 H :    0.085560
  23 H :    0.032213
  24 H :    0.017360
  25 H :    0.028860

  Mayer bond orders larger than 0.100000
B(  0-C ,  1-C ) :   1.5091 B(  0-C ,  4-C ) :   1.1333 B(  0-C , 14-H ) :   1.0122
B(  1-C ,  2-C ) :   1.0730 B(  1-C , 11-N ) :   1.1510 B(  2-C ,  3-C ) :   1.6309
B(  2-C , 15-H ) :   0.9963 B(  3-C ,  4-C ) :   1.0875 B(  3-C , 16-H ) :   1.0022
B(  4-C ,  5-C ) :   1.4314 B(  5-C ,  6-C ) :   1.0751 B(  5-C ,  9-C ) :   1.1382
B(  6-C ,  7-C ) :   1.6440 B(  6-C , 17-H ) :   1.0007 B(  7-C ,  8-C ) :   1.0674
B(  7-C , 18-H ) :   0.9993 B(  8-C ,  9-C ) :   1.4976 B(  8-C , 10-N ) :   1.2390
B(  9-C , 19-H ) :   1.0150 B( 10-N , 20-H ) :   0.9469 B( 10-N , 21-H ) :   0.9492
B( 11-N , 12-C ) :   1.1408 B( 11-N , 22-H ) :   0.9229 B( 12-C , 13-C ) :   1.8715
B( 12-C , 23-H ) :   0.9645 B( 13-C , 24-H ) :   0.9576 B( 13-C , 25-H ) :   0.9509

Dispersion correction           -0.048855655
FINAL SINGLE POINT ENERGY      -573.562707410894

DIPOLE MOMENT
-------------
                                X             Y             Z
Electronic contribution:     -3.14631       2.97196       0.31442
Nuclear contribution   :      2.69250      -2.49866      -0.11716
                        -----------------------------------------
Total Dipole Moment    :     -0.45381       0.47330       0.19726
                        -----------------------------------------
Magnitude (a.u.)       :      0.68474
Magnitude (Debye)      :      1.74046

Rotational constants in cm-1:     0.075922     0.009252     0.008259
Rotational constants in MHz :  2276.081861   277.354823   247.597992

                             ****ORCA TERMINATED NORMALLY****
TOTAL RUN TIME: 0 days 0 hours 12 minutes 44 seconds 740 msec
