                         Program Version 4.2.0 -  RELEASE  -
|  1> # ORCA input file
|  2> # SCF done        -38.505548198241          0.000451533849
|  3> ! B3LYP/G D3BJ Opt RIJCOSX def2-SVP def2/J
|  4> * xyz 0 1
|  5>    C        2.48167        -1.16442         0.02357
|  6>    C        3.40473        -0.13536         0.02188
|  7>    C        3.00698         1.19879        -0.00015
|  8>    C        1.66896         1.53894        -0.02371
|  9>    C        0.72472         0.52159        -0.01603
| 10>    C        1.13540        -0.82943         0.01565
| 11>    N        0.02184        -1.65222         0.00317
| 12>    C       -1.10698        -0.84934        -0.01430
| 13>    C       -0.71145         0.50895        -0.03272
| 14>    C       -1.66327         1.51919        -0.03691
| 15>    C       -2.99849         1.17070        -0.00591
| 16>    C       -3.38206        -0.16613         0.05315
| 17>    C       -2.45115        -1.18813         0.05443
| 18>    C        0.09389        -3.03679         0.00561
| 19>    C       -0.76498        -3.86964        -0.56525
| 20>    H        2.81051        -2.19254         0.02647
| 21>    H        4.45842        -0.37237         0.03260
| 22>    H        3.75882         1.97390        -0.00349
| 23>    H        1.35881         2.57268        -0.04837
| 24>    H       -1.35896         2.55483        -0.05579
| 25>    H       -3.75658         1.93964        -0.01169
| 26>    H       -4.43256        -0.41243         0.10352
| 27>    H       -2.77232        -2.21413         0.13299
| 28>    H        0.96661        -3.41821         0.52155
| 29>    H       -1.61362        -3.53299        -1.13160
| 30>    H       -0.62472        -4.93221        -0.48744
| 31> *
| 32>
| 33>                          ****END OF INPUT****
 Total Charge           Charge          ....    0
 Multiplicity           Mult            ....    1
 Number of Electrons    NEL             ....  102
Dispersion correction           -0.058090129
FINAL SINGLE POINT ENERGY      -594.497536290923
Dispersion correction            ... done
Dispersion correction           -0.057901018
FINAL SINGLE POINT ENERGY      -594.501685881363
Dispersion correction            ... done
Dispersion correction           -0.057867644
FINAL SINGLE POINT ENERGY      -594.501801166981
Dispersion correction            ... done
FINAL SINGLE POINT ENERGY      -594.501819617052
FINAL SINGLE POINT ENERGY      -594.501817931107
Dispersion correction            ... done
Dispersion correction           -0.057852815
FINAL SINGLE POINT ENERGY      -594.501812527436
Dispersion correction            ... done
Dispersion correction           -0.057850033
FINAL SINGLE POINT ENERGY      -594.501808437167
Dispersion correction            ... done
                    ***********************HURRAY********************

CARTESIAN COORDINATES (ANGSTROEM)
---------------------------------
  C      2.504466   -1.170013    0.001161
  C      3.440077   -0.134404    0.011058
  C      3.040610    1.213732    0.011865
  C      1.687895    1.553764    0.001604
  C      0.731831    0.532162   -0.003569
  C      1.150316   -0.823088    0.004507
  N      0.020687   -1.653385   -0.014868
  C     -1.124806   -0.842957   -0.031892
  C     -0.717913    0.520506   -0.023270
  C     -1.677972    1.537686   -0.010305
  C     -3.029256    1.194241    0.004097
  C     -3.419631   -0.155473    0.014574
  C     -2.480809   -1.188431   -0.003576
  C      0.105405   -3.046262   -0.012686
  C     -0.785125   -3.920616   -0.498977
  H      2.831581   -2.210386   -0.023210
  H      4.504496   -0.382257    0.008555
  H      3.798453    1.999898    0.013586
  H      1.375763    2.601026   -0.006568
  H     -1.367794    2.585583   -0.003020
  H     -3.790425    1.977206    0.014811
  H     -4.482283   -0.409924    0.040523
  H     -2.807609   -2.225841    0.022764
  H      1.025757   -3.411960    0.450617
  H     -1.697050   -3.620205   -1.013243
  H     -0.582444   -4.987731   -0.393308

 Multiplicity           Mult            ....    1
 Number of Electrons    NEL             ....  102
 Basis Dimension        Dim             ....  265

ORBITAL ENERGIES
----------------

  NO   OCC          E(Eh)            E(eV)
   0   2.0000     -14.385532      -391.4502
   1   2.0000     -10.238215      -278.5960
   2   2.0000     -10.230559      -278.3877
   3   2.0000     -10.229361      -278.3551
   4   2.0000     -10.196251      -277.4541
   5   2.0000     -10.195059      -277.4217
   6   2.0000     -10.194428      -277.4045
   7   2.0000     -10.194151      -277.3970
   8   2.0000     -10.194106      -277.3957
   9   2.0000     -10.193198      -277.3710
  10   2.0000     -10.192820      -277.3607
  11   2.0000     -10.192756      -277.3590
  12   2.0000     -10.190589      -277.3000
  13   2.0000     -10.188432      -277.2413
  14   2.0000     -10.188113      -277.2327
  15   2.0000      -0.990803       -26.9611
  16   2.0000      -0.853395       -23.2221
  17   2.0000      -0.844192       -22.9716
  18   2.0000      -0.792911       -21.5762
  19   2.0000      -0.757555       -20.6141
  20   2.0000      -0.749362       -20.3912
  21   2.0000      -0.717194       -19.5159
  22   2.0000      -0.714556       -19.4440
  23   2.0000      -0.650469       -17.7002
  24   2.0000      -0.618090       -16.8191
  25   2.0000      -0.606679       -16.5086
  26   2.0000      -0.578984       -15.7550
  27   2.0000      -0.564038       -15.3483
  28   2.0000      -0.529012       -14.3952
  29   2.0000      -0.514884       -14.0107
  30   2.0000      -0.503518       -13.7014
  31   2.0000      -0.471499       -12.8301
  32   2.0000      -0.464185       -12.6311
  33   2.0000      -0.455193       -12.3864
  34   2.0000      -0.444998       -12.1090
  35   2.0000      -0.438092       -11.9211
  36   2.0000      -0.431552       -11.7431
  37   2.0000      -0.424724       -11.5573
  38   2.0000      -0.420290       -11.4367
  39   2.0000      -0.395336       -10.7576
  40   2.0000      -0.372241       -10.1292
  41   2.0000      -0.367930       -10.0119
  42   2.0000      -0.361674        -9.8416
  43   2.0000      -0.354580        -9.6486
  44   2.0000      -0.347392        -9.4530
  45   2.0000      -0.342622        -9.3232
  46   2.0000      -0.292233        -7.9521
  47   2.0000      -0.276479        -7.5234
  48   2.0000      -0.261968        -7.1285
  49   2.0000      -0.223641        -6.0856
  50   2.0000      -0.208166        -5.6645
  51   0.0000      -0.040323        -1.0972
  52   0.0000      -0.017843        -0.4855
  53   0.0000      -0.006486        -0.1765
  54   0.0000       0.028569         0.7774
  55   0.0000       0.039771         1.0822

MULLIKEN ATOMIC CHARGES
-----------------------
   0 C :   -0.058928
   1 C :    0.012294
   2 C :    0.024609
   3 C :   -0.051928
   4 C :    0.077404
   5 C :    0.134465
   6 N :   -0.164363
   7 C :    0.151512
   8 C :    0.067521
   9 C :   -0.052324
  10 C :    0.024774
  11 C :    0.012926
  12 C :   -0.060755
  13 C :    0.066544
  14 C :   -0.054141
  15 H :   -0.039990
  16 H :   -0.015651
  17 H :   -0.018026
  18 H :   -0.031974
  19 H :   -0.031724
  20 H :   -0.018140
  21 H :   -0.016351
  22 H :   -0.037334
  23 H :    0.016707
  24 H :    0.034095
  25 H :    0.028779
Sum of atomic charges:    0.0000000

LOEWDIN ATOMIC CHARGES
----------------------
   0 C :   -0.053844
   1 C :   -0.021486
   2 C :   -0.042391
   3 C :   -0.015110
   4 C :   -0.038278
   5 C :    0.034338
   6 N :    0.029690
   7 C :    0.036453
   8 C :   -0.036246
   9 C :   -0.016138
  10 C :   -0.041380
  11 C :   -0.022218
  12 C :   -0.050133
  13 C :    0.028472
  14 C :   -0.091359
  15 H :    0.025277
  16 H :    0.027398
  17 H :    0.026579
  18 H :    0.026766
  19 H :    0.026799
  20 H :    0.026564
  21 H :    0.027250
  22 H :    0.026752
  23 H :    0.028686
  24 H :    0.025479
  25 H :    0.032080

  Mayer bond orders larger than 0.100000
B(  0-C ,  1-C ) :   1.3777 B(  0-C ,  5-C ) :   1.3181 B(  0-C , 15-H ) :   0.9991
B(  1-C ,  2-C ) :   1.3503 B(  1-C , 16-H ) :   0.9809 B(  2-C ,  3-C ) :   1.3935
B(  2-C , 17-H ) :   0.9809 B(  3-C ,  4-C ) :   1.3336 B(  3-C , 18-H ) :   0.9925
B(  4-C ,  5-C ) :   1.2885 B(  4-C ,  8-C ) :   1.0937 B(  5-C ,  6-N ) :   1.0739
B(  6-N ,  7-C ) :   1.0666 B(  6-N , 13-C ) :   1.0535 B(  7-C ,  8-C ) :   1.2885
B(  7-C , 12-C ) :   1.3215 B(  8-C ,  9-C ) :   1.3367 B(  9-C , 10-C ) :   1.3903
B(  9-C , 19-H ) :   0.9928 B( 10-C , 11-C ) :   1.3493 B( 10-C , 20-H ) :   0.9813
B( 11-C , 12-C ) :   1.3764 B( 11-C , 21-H ) :   0.9812 B( 12-C , 22-H ) :   0.9982
B( 13-C , 14-C ) :   1.9258 B( 13-C , 23-H ) :   0.9556 B( 14-C , 24-H ) :   0.9506
B( 14-C , 25-H ) :   0.9430

Dispersion correction           -0.057848267
FINAL SINGLE POINT ENERGY      -594.501807706685

DIPOLE MOMENT
-------------
                                X             Y             Z
Electronic contribution:      0.76737       2.62187       0.46746
Nuclear contribution   :     -0.70013      -2.88609      -0.43106
                        -----------------------------------------
Total Dipole Moment    :      0.06724      -0.26422       0.03640
                        -----------------------------------------
Magnitude (a.u.)       :      0.27506
Magnitude (Debye)      :      0.69914

Rotational constants in cm-1:     0.032088     0.019309     0.012105
Rotational constants in MHz :   961.970701   578.872179   362.889618

                             ****ORCA TERMINATED NORMALLY****
TOTAL RUN TIME: 0 days 0 hours 18 minutes 42 seconds 230 msec
