                         Program Version 4.2.0 -  RELEASE  -
|  1> # ORCA input file
|  2> # SCF done        -34.170117807282          0.000943206601
|  3> ! B3LYP/G D3BJ Opt RIJCOSX def2-SVP def2/J
|  4> * xyz 0 1
|  5>    C        1.69335        -1.46580         0.13896
|  6>    S        3.25625        -0.75402         0.04250
|  7>    C        2.60816         0.83814        -0.10490
|  8>    C        1.25322         0.80524        -0.07982
|  9>    C        0.71257        -0.52121         0.06070
| 10>    C       -0.70615        -0.46949         0.07936
| 11>    C       -1.21592         0.81281        -0.03898
| 12>    S        0.02309         2.04765        -0.18295
| 13>    C       -2.61540         0.86886        -0.01909
| 14>    C       -3.17899        -0.37613         0.11576
| 15>    S       -1.96552        -1.63577         0.21809
| 16>    C       -4.58203        -0.67916         0.17397
| 17>    C       -5.09470        -1.89928         0.30632
| 18>    H        1.59257        -2.52629         0.24566
| 19>    H        3.26466         1.67819        -0.19886
| 20>    H       -3.18665         1.77554        -0.09894
| 21>    H       -5.23133         0.18545         0.10398
| 22>    H       -4.46308        -2.76885         0.38022
| 23>    H       -6.15623        -2.06573         0.34361
| 24> *
| 25>
| 26>                          ****END OF INPUT****
 Total Charge           Charge          ....    0
 Multiplicity           Mult            ....    1
 Number of Electrons    NEL             ....  114
Dispersion correction           -0.052279661
FINAL SINGLE POINT ENERGY     -1578.654217111352
Dispersion correction            ... done
Dispersion correction           -0.052132491
FINAL SINGLE POINT ENERGY     -1578.657649205837
Dispersion correction            ... done
Dispersion correction           -0.052104612
FINAL SINGLE POINT ENERGY     -1578.657750967834
Dispersion correction            ... done
FINAL SINGLE POINT ENERGY     -1578.657659323581
Dispersion correction            ... done
Dispersion correction           -0.052096893
FINAL SINGLE POINT ENERGY     -1578.657691390142
Dispersion correction            ... done
Dispersion correction           -0.052099430
FINAL SINGLE POINT ENERGY     -1578.657692747306
Dispersion correction            ... done
                    ***********************HURRAY********************

CARTESIAN COORDINATES (ANGSTROEM)
---------------------------------
  C      1.731093   -1.467682    0.177058
  S      3.300125   -0.756029    0.029483
  C      2.657942    0.845381   -0.162710
  C      1.287623    0.817765   -0.116925
  C      0.742019   -0.511731    0.085135
  C     -0.693089   -0.454974    0.133049
  C     -1.210640    0.827110   -0.024241
  S      0.037071    2.062453   -0.250570
  C     -2.627989    0.878364    0.019446
  C     -3.189540   -0.376434    0.192596
  S     -1.955604   -1.623655    0.336784
  C     -4.605227   -0.696187    0.220524
  C     -5.152392   -1.922929    0.230721
  H      1.623224   -2.540116    0.327700
  H      3.325166    1.693323   -0.299161
  H     -3.227295    1.782810   -0.088275
  H     -5.260626    0.182007    0.214574
  H     -4.538518   -2.828191    0.216298
  H     -6.235473   -2.061135    0.244104

 Multiplicity           Mult            ....    1
 Number of Electrons    NEL             ....  114
 Basis Dimension        Dim             ....  224

ORBITAL ENERGIES
----------------

  NO   OCC          E(Eh)            E(eV)
   0   2.0000     -88.884981     -2418.6833
   1   2.0000     -88.880626     -2418.5648
   2   2.0000     -88.872549     -2418.3450
   3   2.0000     -10.228201      -278.3235
   4   2.0000     -10.226425      -278.2752
   5   2.0000     -10.223856      -278.2053
   6   2.0000     -10.222806      -278.1767
   7   2.0000     -10.221352      -278.1371
   8   2.0000     -10.220290      -278.1082
   9   2.0000     -10.214440      -277.9491
  10   2.0000     -10.209568      -277.8165
  11   2.0000     -10.208387      -277.7843
  12   2.0000     -10.195439      -277.4320
  13   2.0000      -7.979572      -217.1352
  14   2.0000      -7.975061      -217.0124
  15   2.0000      -7.966824      -216.7883
  16   2.0000      -5.947810      -161.8481
  17   2.0000      -5.943527      -161.7316
  18   2.0000      -5.943350      -161.7268
  19   2.0000      -5.940944      -161.6613
  20   2.0000      -5.939518      -161.6225
  21   2.0000      -5.935864      -161.5231
  22   2.0000      -5.935736      -161.5196
  23   2.0000      -5.932078      -161.4200
  24   2.0000      -5.926178      -161.2595
  25   2.0000      -0.914282       -24.8789
  26   2.0000      -0.881394       -23.9839
  27   2.0000      -0.827337       -22.5130
  28   2.0000      -0.782309       -21.2877
  29   2.0000      -0.759905       -20.6781
  30   2.0000      -0.733030       -19.9468
  31   2.0000      -0.704777       -19.1780
  32   2.0000      -0.683328       -18.5943
  33   2.0000      -0.625719       -17.0267
  34   2.0000      -0.573706       -15.6113
  35   2.0000      -0.558356       -15.1936
  36   2.0000      -0.543026       -14.7765
  37   2.0000      -0.537190       -14.6177
  38   2.0000      -0.495479       -13.4827
  39   2.0000      -0.466907       -12.7052
  40   2.0000      -0.456710       -12.4277
  41   2.0000      -0.428560       -11.6617
  42   2.0000      -0.427527       -11.6336
  43   2.0000      -0.416255       -11.3269
  44   2.0000      -0.409204       -11.1350
  45   2.0000      -0.393744       -10.7143
  46   2.0000      -0.386869       -10.5272
  47   2.0000      -0.374125       -10.1805
  48   2.0000      -0.365616        -9.9489
  49   2.0000      -0.352167        -9.5830
  50   2.0000      -0.337135        -9.1739
  51   2.0000      -0.333879        -9.0853
  52   2.0000      -0.306567        -8.3421
  53   2.0000      -0.273500        -7.4423
  54   2.0000      -0.261477        -7.1152
  55   2.0000      -0.224433        -6.1071
  56   2.0000      -0.202974        -5.5232
  57   0.0000      -0.065187        -1.7738
  58   0.0000      -0.017672        -0.4809
  59   0.0000       0.015690         0.4269
  60   0.0000       0.024563         0.6684
  61   0.0000       0.025260         0.6874

MULLIKEN ATOMIC CHARGES
-----------------------
   0 C :   -0.152260
   1 S :    0.108144
   2 C :   -0.163753
   3 C :   -0.001197
   4 C :    0.085973
   5 C :   -0.061300
   6 C :   -0.025035
   7 S :    0.116039
   8 C :   -0.027142
   9 C :   -0.075992
  10 S :    0.132894
  11 C :    0.021656
  12 C :   -0.041146
  13 H :    0.024114
  14 H :    0.026639
  15 H :   -0.014031
  16 H :   -0.006172
  17 H :    0.021933
  18 H :    0.030634
Sum of atomic charges:   -0.0000000

LOEWDIN ATOMIC CHARGES
----------------------
   0 C :   -0.205966
   1 S :    0.447425
   2 C :   -0.218763
   3 C :   -0.179356
   4 C :   -0.084367
   5 C :   -0.205683
   6 C :   -0.183794
   7 S :    0.356362
   8 C :   -0.066207
   9 C :   -0.162671
  10 S :    0.423269
  11 C :   -0.039332
  12 C :   -0.054650
  13 H :    0.027970
  14 H :    0.028572
  15 H :    0.033251
  16 H :    0.035523
  17 H :    0.019530
  18 H :    0.028886

  Mayer bond orders larger than 0.100000
B(  0-C ,  1-S ) :   1.1594 B(  0-C ,  4-C ) :   1.4848 B(  0-C , 13-H ) :   0.9663
B(  1-S ,  2-C ) :   1.1648 B(  2-C ,  3-C ) :   1.5436 B(  2-C , 14-H ) :   0.9704
B(  3-C ,  4-C ) :   1.2247 B(  3-C ,  7-S ) :   1.0190 B(  4-C ,  5-C ) :   1.1628
B(  5-C ,  6-C ) :   1.4759 B(  5-C , 10-S ) :   1.0895 B(  6-C ,  7-S ) :   1.0177
B(  6-C ,  8-C ) :   1.2523 B(  8-C ,  9-C ) :   1.4899 B(  8-C , 15-H ) :   0.9964
B(  9-C , 10-S ) :   1.0964 B(  9-C , 11-C ) :   1.1458 B( 11-C , 12-C ) :   1.8894
B( 11-C , 16-H ) :   0.9568 B( 12-C , 17-H ) :   0.9521 B( 12-C , 18-H ) :   0.9480

Dispersion correction           -0.052099517
FINAL SINGLE POINT ENERGY     -1578.657685614764

DIPOLE MOMENT
-------------
                                X             Y             Z
Electronic contribution:     10.77371       2.53188      -0.25032
Nuclear contribution   :    -10.90167      -2.56353       0.23999
                        -----------------------------------------
Total Dipole Moment    :     -0.12796      -0.03165      -0.01033
                        -----------------------------------------
Magnitude (a.u.)       :      0.13222
Magnitude (Debye)      :      0.33608

Rotational constants in cm-1:     0.047364     0.011138     0.009024
Rotational constants in MHz :  1419.942723   333.914124   270.518411

                             ****ORCA TERMINATED NORMALLY****
TOTAL RUN TIME: 0 days 0 hours 9 minutes 48 seconds 118 msec
