                         Program Version 4.2.0 -  RELEASE  -
|  1> # ORCA input file
|  2> # SCF done        -21.773934175177          0.000656587572
|  3> ! B3LYP/G D3BJ Opt RIJCOSX def2-SVP def2/J
|  4> * xyz 0 1
|  5>    C        1.30656        -1.06508        -0.00378
|  6>    S        2.00853         0.51154         0.02655
|  7>    C        0.46874         1.24533         0.01649
|  8>    C       -0.54249         0.32282        -0.01444
|  9>    C       -1.90996         0.63322        -0.00515
| 10>    N       -3.03924         0.83734         0.02183
| 11>    C       -0.05681        -1.03079        -0.03148
| 12>    N       -0.89226        -2.11489        -0.14868
| 13>    H        1.94182        -1.92709        -0.01073
| 14>    H        0.37394         2.31288         0.03520
| 15>    H       -1.85065        -1.96603         0.12516
| 16>    H       -0.50935        -3.00840         0.11246
| 17> *
| 18>
| 19>                          ****END OF INPUT****
 Total Charge           Charge          ....    0
 Multiplicity           Mult            ....    1
 Number of Electrons    NEL             ....   64
Dispersion correction           -0.024282666
FINAL SINGLE POINT ENERGY      -700.296434380016
Dispersion correction            ... done
Dispersion correction           -0.024179490
FINAL SINGLE POINT ENERGY      -700.298519919585
Dispersion correction            ... done
Dispersion correction           -0.024172685
FINAL SINGLE POINT ENERGY      -700.298582716421
Dispersion correction            ... done
FINAL SINGLE POINT ENERGY      -700.298577859331
FINAL SINGLE POINT ENERGY      -700.298548490547
Dispersion correction            ... done
Dispersion correction           -0.024184458
FINAL SINGLE POINT ENERGY      -700.298562899660
Dispersion correction            ... done
Dispersion correction           -0.024186139
FINAL SINGLE POINT ENERGY      -700.298558331825
Dispersion correction            ... done
                    ***********************HURRAY********************

CARTESIAN COORDINATES (ANGSTROEM)
---------------------------------
  C      1.329554   -1.072884   -0.010901
  S      2.023973    0.518853    0.036167
  C      0.482762    1.261011    0.018979
  C     -0.534932    0.326479   -0.024022
  C     -1.925819    0.631611   -0.008850
  N     -3.073073    0.817321    0.021698
  C     -0.048454   -1.039054   -0.054559
  N     -0.902676   -2.118477   -0.171088
  H      1.970356   -1.952114   -0.017434
  H      0.372594    2.343252    0.049855
  H     -1.856102   -1.955230    0.138016
  H     -0.539352   -3.009918    0.145569

 Multiplicity           Mult            ....    1
 Number of Electrons    NEL             ....   64
 Basis Dimension        Dim             ....  136

ORBITAL ENERGIES
----------------

  NO   OCC          E(Eh)            E(eV)
   0   2.0000     -88.892894     -2418.8986
   1   2.0000     -14.352011      -390.5381
   2   2.0000     -14.329912      -389.9367
   3   2.0000     -10.252794      -278.9927
   4   2.0000     -10.239994      -278.6444
   5   2.0000     -10.234750      -278.5017
   6   2.0000     -10.231677      -278.4181
   7   2.0000     -10.214578      -277.9528
   8   2.0000      -7.987781      -217.3586
   9   2.0000      -5.955945      -162.0695
  10   2.0000      -5.951753      -161.9554
  11   2.0000      -5.949142      -161.8844
  12   2.0000      -0.937647       -25.5147
  13   2.0000      -0.897583       -24.4245
  14   2.0000      -0.878805       -23.9135
  15   2.0000      -0.767028       -20.8719
  16   2.0000      -0.726872       -19.7792
  17   2.0000      -0.622043       -16.9267
  18   2.0000      -0.595213       -16.1966
  19   2.0000      -0.558721       -15.2036
  20   2.0000      -0.518881       -14.1195
  21   2.0000      -0.473489       -12.8843
  22   2.0000      -0.429589       -11.6897
  23   2.0000      -0.424971       -11.5641
  24   2.0000      -0.421226       -11.4621
  25   2.0000      -0.376474       -10.2444
  26   2.0000      -0.361111        -9.8263
  27   2.0000      -0.358100        -9.7444
  28   2.0000      -0.339478        -9.2377
  29   2.0000      -0.337704        -9.1894
  30   2.0000      -0.259768        -7.0686
  31   2.0000      -0.221790        -6.0352
  32   0.0000      -0.050096        -1.3632
  33   0.0000       0.007163         0.1949
  34   0.0000       0.017906         0.4873
  35   0.0000       0.043929         1.1954
  36   0.0000       0.055954         1.5226

MULLIKEN ATOMIC CHARGES
-----------------------
   0 C :   -0.215782
   1 S :    0.128489
   2 C :   -0.067960
   3 C :   -0.099933
   4 C :   -0.189021
   5 N :    0.079891
   6 C :    0.129293
   7 N :   -0.054500
   8 H :    0.009106
   9 H :    0.038708
  10 H :    0.126150
  11 H :    0.115561
Sum of atomic charges:   -0.0000000

LOEWDIN ATOMIC CHARGES
----------------------
   0 C :   -0.254939
   1 S :    0.457898
   2 C :   -0.157274
   3 C :   -0.129722
   4 C :   -0.034212
   5 N :   -0.074184
   6 C :    0.005177
   7 N :   -0.028892
   8 H :    0.023214
   9 H :    0.036397
  10 H :    0.079119
  11 H :    0.077418

  Mayer bond orders larger than 0.100000
B(  0-C ,  1-S ) :   1.1189 B(  0-C ,  6-C ) :   1.4645 B(  0-C ,  8-H ) :   0.9740
B(  1-S ,  2-C ) :   1.2183 B(  1-S ,  3-C ) :   0.1200 B(  2-C ,  3-C ) :   1.4920
B(  2-C ,  9-H ) :   0.9716 B(  3-C ,  4-C ) :   1.1291 B(  3-C ,  6-C ) :   1.2311
B(  4-C ,  5-N ) :   2.9868 B(  6-C ,  7-N ) :   1.2679 B(  7-N , 10-H ) :   0.9357
B(  7-N , 11-H ) :   0.9431

Dispersion correction           -0.024186623
FINAL SINGLE POINT ENERGY      -700.298553781830

DIPOLE MOMENT
-------------
                                X             Y             Z
Electronic contribution:      1.30539       3.36894      -0.01451
Nuclear contribution   :     -0.15312      -4.16559       0.34175
                        -----------------------------------------
Total Dipole Moment    :      1.15228      -0.79665       0.32724
                        -----------------------------------------
Magnitude (a.u.)       :      1.43857
Magnitude (Debye)      :      3.65656

Rotational constants in cm-1:     0.108436     0.047463     0.033044
Rotational constants in MHz :  3250.818831  1422.892876   990.647927

                             ****ORCA TERMINATED NORMALLY****
TOTAL RUN TIME: 0 days 0 hours 5 minutes 17 seconds 887 msec
