                         Program Version 4.2.0 -  RELEASE  -
|  1> # ORCA input file
|  2> # SCF done        -32.699215030171          0.000395558966
|  3> ! B3LYP/G D3BJ Opt RIJCOSX def2-SVP def2/J
|  4> * xyz 0 1
|  5>    C        1.61795         1.18816        -0.28280
|  6>    S        2.82867        -0.02977        -0.16878
|  7>    C        1.63043        -1.22568         0.13641
|  8>    C        0.37456        -0.70778         0.15088
|  9>    C        0.36681         0.69441        -0.09635
| 10>    C       -0.90548         1.47339        -0.17989
| 11>    C       -2.02925         0.74068         0.54917
| 12>    C       -2.13538        -0.70118         0.04338
| 13>    O       -2.34352        -0.64598        -1.35603
| 14>    C       -2.88435        -1.80864        -1.92125
| 15>    C       -0.87275        -1.48504         0.43705
| 16>    H        1.90873         2.19959        -0.48613
| 17>    H        1.93198        -2.24268         0.29227
| 18>    H       -1.18553         1.57328        -1.23180
| 19>    H       -0.76969         2.47512         0.23244
| 20>    H       -2.97439         1.25511         0.37234
| 21>    H       -1.83722         0.72195         1.62341
| 22>    H       -3.00719        -1.18993         0.51317
| 23>    H       -3.08854        -1.57441        -2.96459
| 24>    H       -3.82037        -2.09430        -1.42310
| 25>    H       -2.19096        -2.65656        -1.87682
| 26>    H       -0.84339        -2.44381        -0.08498
| 27>    H       -0.92496        -1.70107         1.50884
| 28> *
| 29>
| 30>                          ****END OF INPUT****
 Total Charge           Charge          ....    0
 Multiplicity           Mult            ....    1
 Number of Electrons    NEL             ....   90
Dispersion correction           -0.045074732
FINAL SINGLE POINT ENERGY      -823.205277390677
Dispersion correction            ... done
Dispersion correction           -0.044844613
FINAL SINGLE POINT ENERGY      -823.207738930807
Dispersion correction            ... done
Dispersion correction           -0.044784391
FINAL SINGLE POINT ENERGY      -823.207821652877
Dispersion correction            ... done
FINAL SINGLE POINT ENERGY      -823.207749331126
FINAL SINGLE POINT ENERGY      -823.207633779154
FINAL SINGLE POINT ENERGY      -823.207709288494
FINAL SINGLE POINT ENERGY      -823.207918316258
FINAL SINGLE POINT ENERGY      -823.208043468262
Dispersion correction            ... done
Dispersion correction           -0.045065098
FINAL SINGLE POINT ENERGY      -823.208051322539
Dispersion correction            ... done
Dispersion correction           -0.045074912
FINAL SINGLE POINT ENERGY      -823.208053855659
Dispersion correction            ... done
                    ***********************HURRAY********************

CARTESIAN COORDINATES (ANGSTROEM)
---------------------------------
  C      1.629672    1.136700   -0.334477
  S      2.787127   -0.150588   -0.341892
  C      1.558098   -1.317946   -0.001934
  C      0.317472   -0.739732    0.117752
  C      0.354751    0.684565   -0.090351
  C     -0.902146    1.518459   -0.106830
  C     -2.088746    0.800166    0.551722
  C     -2.204927   -0.650996    0.083789
  O     -2.406493   -0.611035   -1.318050
  C     -2.693231   -1.842512   -1.923795
  C     -0.956610   -1.449618    0.493075
  H      1.946399    2.158279   -0.540964
  H      1.819854   -2.368676    0.114866
  H     -1.169708    1.731177   -1.154698
  H     -0.726788    2.491249    0.379692
  H     -3.022804    1.330120    0.309091
  H     -1.982371    0.803765    1.649952
  H     -3.087416   -1.125560    0.562063
  H     -3.081080   -1.636794   -2.932373
  H     -3.464159   -2.407856   -1.361471
  H     -1.800706   -2.489326   -2.022332
  H     -0.983165   -2.462888    0.065145
  H     -0.996863   -1.586091    1.588860

 Multiplicity           Mult            ....    1
 Number of Electrons    NEL             ....   90
 Basis Dimension        Dim             ....  218

ORBITAL ENERGIES
----------------

  NO   OCC          E(Eh)            E(eV)
   0   2.0000     -88.862631     -2418.0751
   1   2.0000     -19.131742      -520.6012
   2   2.0000     -10.237223      -278.5690
   3   2.0000     -10.231514      -278.4137
   4   2.0000     -10.198999      -277.5289
   5   2.0000     -10.197923      -277.4996
   6   2.0000     -10.190706      -277.3032
   7   2.0000     -10.186729      -277.1950
   8   2.0000     -10.185602      -277.1643
   9   2.0000     -10.185067      -277.1498
  10   2.0000     -10.185054      -277.1494
  11   2.0000      -7.957724      -216.5407
  12   2.0000      -5.925801      -161.2492
  13   2.0000      -5.921745      -161.1389
  14   2.0000      -5.919175      -161.0690
  15   2.0000      -1.025665       -27.9098
  16   2.0000      -0.871889       -23.7253
  17   2.0000      -0.806482       -21.9455
  18   2.0000      -0.753146       -20.4941
  19   2.0000      -0.728373       -19.8200
  20   2.0000      -0.687397       -18.7050
  21   2.0000      -0.672038       -18.2871
  22   2.0000      -0.620230       -16.8773
  23   2.0000      -0.572101       -15.5677
  24   2.0000      -0.561316       -15.2742
  25   2.0000      -0.516748       -14.0614
  26   2.0000      -0.498883       -13.5753
  27   2.0000      -0.476748       -12.9730
  28   2.0000      -0.464334       -12.6352
  29   2.0000      -0.455965       -12.4074
  30   2.0000      -0.430807       -11.7228
  31   2.0000      -0.416344       -11.3293
  32   2.0000      -0.406708       -11.0671
  33   2.0000      -0.400142       -10.8884
  34   2.0000      -0.394217       -10.7272
  35   2.0000      -0.388467       -10.5707
  36   2.0000      -0.367049        -9.9879
  37   2.0000      -0.345126        -9.3914
  38   2.0000      -0.340678        -9.2703
  39   2.0000      -0.334185        -9.0936
  40   2.0000      -0.329421        -8.9640
  41   2.0000      -0.304286        -8.2800
  42   2.0000      -0.258244        -7.0272
  43   2.0000      -0.233505        -6.3540
  44   2.0000      -0.225773        -6.1436
  45   0.0000      -0.011110        -0.3023
  46   0.0000       0.045348         1.2340
  47   0.0000       0.057222         1.5571
  48   0.0000       0.058086         1.5806
  49   0.0000       0.077974         2.1218

MULLIKEN ATOMIC CHARGES
-----------------------
   0 C :   -0.149503
   1 S :    0.087701
   2 C :   -0.146073
   3 C :   -0.030455
   4 C :   -0.046313
   5 C :    0.157466
   6 C :    0.033303
   7 C :    0.110428
   8 O :   -0.382658
   9 C :    0.192389
  10 C :    0.147933
  11 H :    0.006739
  12 H :    0.006019
  13 H :    0.020890
  14 H :   -0.005339
  15 H :   -0.002058
  16 H :    0.003206
  17 H :   -0.024163
  18 H :    0.020659
  19 H :   -0.008145
  20 H :    0.010241
  21 H :   -0.014127
  22 H :    0.011859
Sum of atomic charges:   -0.0000000

LOEWDIN ATOMIC CHARGES
----------------------
   0 C :   -0.204518
   1 S :    0.417672
   2 C :   -0.206941
   3 C :   -0.065882
   4 C :   -0.062362
   5 C :   -0.021088
   6 C :   -0.031031
   7 C :    0.068947
   8 O :   -0.170768
   9 C :    0.068629
  10 C :   -0.034814
  11 H :    0.020085
  12 H :    0.019465
  13 H :    0.035581
  14 H :    0.027097
  15 H :    0.025562
  16 H :    0.024257
  17 H :    0.003387
  18 H :    0.021007
  19 H :    0.002108
  20 H :    0.003997
  21 H :    0.025044
  22 H :    0.034565

  Mayer bond orders larger than 0.100000
B(  0-C ,  1-S ) :   1.1581 B(  0-C ,  4-C ) :   1.5585 B(  0-C , 11-H ) :   0.9649
B(  1-S ,  2-C ) :   1.1581 B(  2-C ,  3-C ) :   1.5529 B(  2-C , 12-H ) :   0.9629
B(  3-C ,  4-C ) :   1.2943 B(  3-C , 10-C ) :   1.0191 B(  4-C ,  5-C ) :   1.0410
B(  5-C ,  6-C ) :   1.0849 B(  5-C , 13-H ) :   0.9092 B(  5-C , 14-H ) :   0.9207
B(  6-C ,  7-C ) :   1.0529 B(  6-C , 15-H ) :   0.9238 B(  6-C , 16-H ) :   0.9372
B(  7-C ,  8-O ) :   1.0077 B(  7-C , 10-C ) :   1.0484 B(  7-C , 17-H ) :   0.9185
B(  8-O ,  9-C ) :   1.0034 B(  9-C , 18-H ) :   0.9770 B(  9-C , 19-H ) :   0.9574
B(  9-C , 20-H ) :   0.9637 B( 10-C , 21-H ) :   0.9067 B( 10-C , 22-H ) :   0.9078

Dispersion correction           -0.045080399
FINAL SINGLE POINT ENERGY      -823.208057677889

DIPOLE MOMENT
-------------
                                X             Y             Z
Electronic contribution:     13.47401       2.02468       0.02171
Nuclear contribution   :    -13.92383      -2.37905       0.19378
                        -----------------------------------------
Total Dipole Moment    :     -0.44982      -0.35437       0.21548
                        -----------------------------------------
Magnitude (a.u.)       :      0.61184
Magnitude (Debye)      :      1.55518

Rotational constants in cm-1:     0.062045     0.021820     0.018883
Rotational constants in MHz :  1860.051531   654.138241   566.108388

                             ****ORCA TERMINATED NORMALLY****
TOTAL RUN TIME: 0 days 0 hours 15 minutes 24 seconds 516 msec
