                         Program Version 4.2.0 -  RELEASE  -
|  1> # ORCA input file
|  2> # SCF done        -43.046309456123          0.000987310382
|  3> ! B3LYP/G D3BJ Opt RIJCOSX def2-SVP def2/J
|  4> * xyz 0 1
|  5>    C       -1.61364         1.17105         0.03812
|  6>    S       -2.72459        -0.11641         0.17675
|  7>    C       -1.48088        -1.31175         0.09505
|  8>    C       -0.23097        -0.70468        -0.02635
|  9>    C       -0.31163         0.73339        -0.07616
| 10>    C        0.88342         1.50935        -0.18264
| 11>    C        0.89420         2.98463        -0.33049
| 12>    O        1.75923         3.68768         0.11572
| 13>    O       -0.11528         3.51863        -1.05412
| 14>    C        2.08989         0.85871        -0.15865
| 15>    C        2.17502        -0.53952        -0.10727
| 16>    C        1.05020        -1.32506        -0.06361
| 17>    O        1.12867        -2.67745        -0.04418
| 18>    C       -1.79381        -2.70976         0.16611
| 19>    C       -3.02543        -3.20307         0.28864
| 20>    H       -1.98274         2.17539         0.10731
| 21>    H       -0.68315         2.83878        -1.44055
| 22>    H        2.99403         1.44557        -0.20809
| 23>    H        3.14985        -1.00750        -0.11502
| 24>    H        2.05532        -2.94997        -0.05929
| 25>    H       -0.94257        -3.37216         0.11216
| 26>    H       -3.89118        -2.56366         0.34342
| 27>    H       -3.20420        -4.26198         0.33403
| 28> *
| 29>
| 30>                          ****END OF INPUT****
 Total Charge           Charge          ....    0
 Multiplicity           Mult            ....    1
 Number of Electrons    NEL             ....  114
Dispersion correction           -0.054233180
FINAL SINGLE POINT ENERGY     -1047.302290652908
Dispersion correction            ... done
Dispersion correction           -0.053995224
FINAL SINGLE POINT ENERGY     -1047.305508630374
Dispersion correction            ... done
Dispersion correction           -0.053870153
FINAL SINGLE POINT ENERGY     -1047.305347379200
Dispersion correction            ... done
FINAL SINGLE POINT ENERGY     -1047.305647983227
FINAL SINGLE POINT ENERGY     -1047.305663267973
FINAL SINGLE POINT ENERGY     -1047.305686017774
FINAL SINGLE POINT ENERGY     -1047.305637465071
Dispersion correction            ... done
Dispersion correction           -0.053944681
FINAL SINGLE POINT ENERGY     -1047.305643718781
Dispersion correction            ... done
Dispersion correction           -0.053947448
FINAL SINGLE POINT ENERGY     -1047.305636896712
Dispersion correction            ... done
                    ***********************HURRAY********************

CARTESIAN COORDINATES (ANGSTROEM)
---------------------------------
  C     -1.606741    1.196151    0.110430
  S     -2.710086   -0.101075    0.282827
  C     -1.479796   -1.313631    0.163287
  C     -0.220782   -0.701016    0.020014
  C     -0.294983    0.750446   -0.036665
  C      0.907255    1.531623   -0.190570
  C      0.908676    3.010808   -0.398853
  O      1.807613    3.739467   -0.070850
  O     -0.180882    3.512496   -1.040221
  C      2.118147    0.875537   -0.179030
  C      2.207007   -0.537219   -0.102772
  C      1.072303   -1.320909   -0.034934
  O      1.120962   -2.671022   -0.000469
  C     -1.822625   -2.726503    0.199644
  C     -3.066362   -3.237711    0.189168
  H     -1.960418    2.221066    0.195773
  H     -0.727712    2.782903   -1.370732
  H      3.029030    1.470983   -0.264099
  H      3.189315   -1.018159   -0.122650
  H      2.042890   -2.961966   -0.024030
  H     -0.964852   -3.398670    0.223428
  H     -3.958640   -2.606533    0.140940
  H     -3.229560   -4.316857    0.221254

 Multiplicity           Mult            ....    1
 Number of Electrons    NEL             ....  114
 Basis Dimension        Dim             ....  254

ORBITAL ENERGIES
----------------

  NO   OCC          E(Eh)            E(eV)
   0   2.0000     -88.898536     -2419.0521
   1   2.0000     -19.196845      -522.3727
   2   2.0000     -19.172780      -521.7179
   3   2.0000     -19.110235      -520.0159
   4   2.0000     -10.311517      -280.5907
   5   2.0000     -10.281176      -279.7650
   6   2.0000     -10.240463      -278.6572
   7   2.0000     -10.229317      -278.3539
   8   2.0000     -10.225177      -278.2412
   9   2.0000     -10.221282      -278.1352
  10   2.0000     -10.213595      -277.9260
  11   2.0000     -10.210924      -277.8534
  12   2.0000     -10.207700      -277.7656
  13   2.0000     -10.206616      -277.7361
  14   2.0000     -10.200716      -277.5756
  15   2.0000      -7.993394      -217.5113
  16   2.0000      -5.961129      -162.2106
  17   2.0000      -5.957017      -162.0987
  18   2.0000      -5.955544      -162.0586
  19   2.0000      -1.085172       -29.5290
  20   2.0000      -1.082635       -29.4600
  21   2.0000      -1.000887       -27.2355
  22   2.0000      -0.910467       -24.7751
  23   2.0000      -0.848018       -23.0757
  24   2.0000      -0.799564       -21.7572
  25   2.0000      -0.770711       -20.9721
  26   2.0000      -0.754089       -20.5198
  27   2.0000      -0.710659       -19.3380
  28   2.0000      -0.660724       -17.9792
  29   2.0000      -0.626506       -17.0481
  30   2.0000      -0.625194       -17.0124
  31   2.0000      -0.602368       -16.3913
  32   2.0000      -0.576913       -15.6986
  33   2.0000      -0.563266       -15.3272
  34   2.0000      -0.523813       -14.2537
  35   2.0000      -0.510184       -13.8828
  36   2.0000      -0.492663       -13.4060
  37   2.0000      -0.462012       -12.5720
  38   2.0000      -0.455298       -12.3893
  39   2.0000      -0.446566       -12.1517
  40   2.0000      -0.444648       -12.0995
  41   2.0000      -0.439410       -11.9569
  42   2.0000      -0.430034       -11.7018
  43   2.0000      -0.416135       -11.3236
  44   2.0000      -0.412606       -11.2276
  45   2.0000      -0.404204       -10.9990
  46   2.0000      -0.387030       -10.5316
  47   2.0000      -0.375913       -10.2291
  48   2.0000      -0.368801       -10.0356
  49   2.0000      -0.353070        -9.6075
  50   2.0000      -0.350381        -9.5344
  51   2.0000      -0.315783        -8.5929
  52   2.0000      -0.314020        -8.5449
  53   2.0000      -0.275768        -7.5040
  54   2.0000      -0.271481        -7.3874
  55   2.0000      -0.263769        -7.1775
  56   2.0000      -0.209502        -5.7008
  57   0.0000      -0.089043        -2.4230
  58   0.0000      -0.033175        -0.9027
  59   0.0000      -0.002145        -0.0584
  60   0.0000       0.023780         0.6471
  61   0.0000       0.027231         0.7410

MULLIKEN ATOMIC CHARGES
-----------------------
   0 C :   -0.195398
   1 S :    0.153833
   2 C :   -0.179151
   3 C :    0.111925
   4 C :    0.067606
   5 C :   -0.042796
   6 C :    0.156786
   7 O :   -0.191270
   8 O :   -0.175403
   9 C :    0.002480
  10 C :   -0.075440
  11 C :    0.132325
  12 O :   -0.168289
  13 C :    0.019086
  14 C :   -0.035523
  15 H :    0.035305
  16 H :    0.171870
  17 H :    0.001552
  18 H :   -0.035586
  19 H :    0.184620
  20 H :    0.009944
  21 H :    0.020741
  22 H :    0.030783
Sum of atomic charges:   -0.0000000

LOEWDIN ATOMIC CHARGES
----------------------
   0 C :   -0.228845
   1 S :    0.496341
   2 C :   -0.168294
   3 C :   -0.064239
   4 C :   -0.043219
   5 C :   -0.105147
   6 C :    0.081476
   7 O :   -0.162359
   8 O :   -0.041932
   9 C :    0.026218
  10 C :   -0.098733
  11 C :    0.072299
  12 O :   -0.027075
  13 C :   -0.042048
  14 C :   -0.048876
  15 H :    0.026104
  16 H :    0.079765
  17 H :    0.040166
  18 H :    0.026706
  19 H :    0.100123
  20 H :    0.035123
  21 H :    0.016964
  22 H :    0.029483

  Mayer bond orders larger than 0.100000
B(  0-C ,  1-S ) :   1.1800 B(  0-C ,  2-C ) :   0.1010 B(  0-C ,  4-C ) :   1.4165
B(  0-C , 15-H ) :   0.9504 B(  1-S ,  2-C ) :   1.1721 B(  2-C ,  3-C ) :   1.3441
B(  2-C , 13-C ) :   1.1552 B(  3-C ,  4-C ) :   1.2188 B(  3-C , 11-C ) :   1.1774
B(  4-C ,  5-C ) :   1.1396 B(  5-C ,  6-C ) :   0.9163 B(  5-C ,  9-C ) :   1.5375
B(  6-C ,  7-O ) :   2.1595 B(  6-C ,  8-O ) :   1.1908 B(  8-O , 16-H ) :   0.9463
B(  9-C , 10-C ) :   1.1950 B(  9-C , 17-H ) :   0.9822 B( 10-C , 11-C ) :   1.4285
B( 10-C , 18-H ) :   0.9812 B( 11-C , 12-O ) :   1.2313 B( 12-O , 19-H ) :   0.9508
B( 13-C , 14-C ) :   1.8738 B( 13-C , 20-H ) :   0.9438 B( 14-C , 21-H ) :   0.9527
B( 14-C , 22-H ) :   0.9475

Dispersion correction           -0.053947004
FINAL SINGLE POINT ENERGY     -1047.305635198877

DIPOLE MOMENT
-------------
                                X             Y             Z
Electronic contribution:     -0.04826       6.27065       0.32169
Nuclear contribution   :     -0.22261      -8.38123      -0.52409
                        -----------------------------------------
Total Dipole Moment    :     -0.27087      -2.11057      -0.20240
                        -----------------------------------------
Magnitude (a.u.)       :      2.13749
Magnitude (Debye)      :      5.43306

Rotational constants in cm-1:     0.031386     0.013632     0.009657
Rotational constants in MHz :   940.920984   408.677568   289.509084

                             ****ORCA TERMINATED NORMALLY****
TOTAL RUN TIME: 0 days 0 hours 18 minutes 32 seconds 149 msec
