                         Program Version 4.2.0 -  RELEASE  -
|  1> # ORCA input file
|  2> # SCF done        -35.026193202978          0.000934823717
|  3> ! B3LYP/G D3BJ Opt RIJCOSX def2-SVP def2/J
|  4> * xyz 0 1
|  5>    C       -1.53105         1.24889        -0.02535
|  6>    S       -2.70278         0.01332        -0.08316
|  7>    C       -1.50975        -1.24492        -0.01945
|  8>    C       -0.23081        -0.69510         0.01111
|  9>    C       -0.25233         0.74099         0.01732
| 10>    C        0.96522         1.46006         0.05455
| 11>    C        2.15944         0.80329         0.05785
| 12>    C        3.44623         1.56916         0.09460
| 13>    C        2.18731        -0.62560         0.00173
| 14>    C        3.50665        -1.33456        -0.03682
| 15>    C        1.02515        -1.34194        -0.02183
| 16>    C       -1.97879        -2.60304         0.00723
| 17>    C       -1.33155        -3.66478         0.48398
| 18>    H       -1.83586         2.27629        -0.02150
| 19>    H        0.92722         2.53987         0.07222
| 20>    H        3.25317         2.63685         0.16317
| 21>    H        4.03115         1.38152        -0.80565
| 22>    H        4.04954         1.27009         0.95093
| 23>    H        4.09687        -1.00694        -0.89185
| 24>    H        3.36252        -2.40946        -0.10837
| 25>    H        4.08264        -1.12368         0.86372
| 26>    H        1.06187        -2.41734        -0.09398
| 27>    H       -2.98618        -2.73119        -0.37073
| 28>    H       -0.35685        -3.59814         0.92997
| 29>    H       -1.78064        -4.64234         0.45894
| 30> *
| 31>
| 32>                          ****END OF INPUT****
 Total Charge           Charge          ....    0
 Multiplicity           Mult            ....    1
 Number of Electrons    NEL             ....  100
Dispersion correction           -0.054639829
FINAL SINGLE POINT ENERGY      -862.283177145023
Dispersion correction            ... done
Dispersion correction           -0.054229591
FINAL SINGLE POINT ENERGY      -862.286992357772
Dispersion correction            ... done
Dispersion correction           -0.054167651
FINAL SINGLE POINT ENERGY      -862.287097550969
Dispersion correction            ... done
FINAL SINGLE POINT ENERGY      -862.287123538244
Dispersion correction            ... done
Dispersion correction           -0.054153121
FINAL SINGLE POINT ENERGY      -862.287110456645
Dispersion correction            ... done
Dispersion correction           -0.054160602
FINAL SINGLE POINT ENERGY      -862.287127236771
Dispersion correction            ... done
                    ***********************HURRAY********************

CARTESIAN COORDINATES (ANGSTROEM)
---------------------------------
  C     -1.561321    1.267997   -0.043226
  S     -2.723273    0.015665   -0.101170
  C     -1.535593   -1.249668   -0.017507
  C     -0.244608   -0.691706    0.025540
  C     -0.267896    0.757319    0.021348
  C      0.963516    1.478579    0.062002
  C      2.169248    0.820019    0.065084
  C      3.465768    1.586651    0.096625
  C      2.198088   -0.628807    0.016290
  C      3.528008   -1.333547   -0.046342
  C      1.023005   -1.346683    0.010132
  C     -2.008412   -2.622284    0.017298
  C     -1.360813   -3.707351    0.479241
  H     -1.867501    2.312255   -0.059263
  H      0.936626    2.571735    0.081135
  H      3.286457    2.668448    0.178240
  H      4.063905    1.408868   -0.813398
  H      4.098483    1.281460    0.946937
  H      4.117892   -1.001899   -0.918032
  H      3.400679   -2.423125   -0.119269
  H      4.146552   -1.120728    0.842277
  H      1.063415   -2.435492   -0.041908
  H     -3.027426   -2.764119   -0.362358
  H     -0.368237   -3.652780    0.928070
  H     -1.838173   -4.689507    0.440885

 Multiplicity           Mult            ....    1
 Number of Electrons    NEL             ....  100
 Basis Dimension        Dim             ....  246

ORBITAL ENERGIES
----------------

  NO   OCC          E(Eh)            E(eV)
   0   2.0000     -88.879632     -2418.5377
   1   2.0000     -10.214481      -277.9502
   2   2.0000     -10.209874      -277.8248
   3   2.0000     -10.201557      -277.5985
   4   2.0000     -10.195816      -277.4422
   5   2.0000     -10.195617      -277.4368
   6   2.0000     -10.195416      -277.4314
   7   2.0000     -10.195257      -277.4271
   8   2.0000     -10.189777      -277.2779
   9   2.0000     -10.189486      -277.2700
  10   2.0000     -10.188467      -277.2423
  11   2.0000     -10.187064      -277.2041
  12   2.0000     -10.185037      -277.1489
  13   2.0000      -7.974390      -216.9942
  14   2.0000      -5.942060      -161.6917
  15   2.0000      -5.938101      -161.5839
  16   2.0000      -5.936637      -161.5441
  17   2.0000      -0.888962       -24.1899
  18   2.0000      -0.836547       -22.7636
  19   2.0000      -0.784522       -21.3479
  20   2.0000      -0.759220       -20.6594
  21   2.0000      -0.755137       -20.5483
  22   2.0000      -0.711446       -19.3594
  23   2.0000      -0.676002       -18.3949
  24   2.0000      -0.666518       -18.1369
  25   2.0000      -0.599630       -16.3168
  26   2.0000      -0.594768       -16.1845
  27   2.0000      -0.562420       -15.3042
  28   2.0000      -0.533744       -14.5239
  29   2.0000      -0.500324       -13.6145
  30   2.0000      -0.465467       -12.6660
  31   2.0000      -0.463748       -12.6192
  32   2.0000      -0.456109       -12.4114
  33   2.0000      -0.436728       -11.8840
  34   2.0000      -0.425198       -11.5702
  35   2.0000      -0.415801       -11.3145
  36   2.0000      -0.404017       -10.9939
  37   2.0000      -0.400083       -10.8868
  38   2.0000      -0.396147       -10.7797
  39   2.0000      -0.388941       -10.5836
  40   2.0000      -0.385605       -10.4928
  41   2.0000      -0.366930        -9.9847
  42   2.0000      -0.352457        -9.5909
  43   2.0000      -0.346545        -9.4300
  44   2.0000      -0.330156        -8.9840
  45   2.0000      -0.324792        -8.8380
  46   2.0000      -0.303565        -8.2604
  47   2.0000      -0.260951        -7.1008
  48   2.0000      -0.240029        -6.5315
  49   2.0000      -0.192328        -5.2335
  50   0.0000      -0.063130        -1.7178
  51   0.0000      -0.006235        -0.1697
  52   0.0000       0.022824         0.6211
  53   0.0000       0.037859         1.0302
  54   0.0000       0.055038         1.4977

MULLIKEN ATOMIC CHARGES
-----------------------
   0 C :   -0.131751
   1 S :    0.134401
   2 C :   -0.177426
   3 C :    0.146689
   4 C :    0.094906
   5 C :   -0.074938
   6 C :   -0.058967
   7 C :    0.095490
   8 C :   -0.058359
   9 C :    0.091111
  10 C :   -0.098656
  11 C :    0.030971
  12 C :   -0.044888
  13 H :    0.014183
  14 H :   -0.044355
  15 H :    0.009139
  16 H :    0.019951
  17 H :    0.016803
  18 H :    0.016727
  19 H :    0.011365
  20 H :    0.019566
  21 H :   -0.044791
  22 H :   -0.010908
  23 H :    0.022622
  24 H :    0.021111
Sum of atomic charges:   -0.0000000

LOEWDIN ATOMIC CHARGES
----------------------
   0 C :   -0.210329
   1 S :    0.475615
   2 C :   -0.194299
   3 C :   -0.043479
   4 C :   -0.049312
   5 C :   -0.029514
   6 C :   -0.026808
   7 C :   -0.045436
   8 C :   -0.023678
   9 C :   -0.045855
  10 C :   -0.030478
  11 C :   -0.043365
  12 C :   -0.061717
  13 H :    0.023613
  14 H :    0.023646
  15 H :    0.028230
  16 H :    0.032494
  17 H :    0.031619
  18 H :    0.031992
  19 H :    0.028559
  20 H :    0.032133
  21 H :    0.023129
  22 H :    0.027456
  23 H :    0.020725
  24 H :    0.025058

  Mayer bond orders larger than 0.100000
B(  0-C ,  1-S ) :   1.1904 B(  0-C ,  2-C ) :   0.1130 B(  0-C ,  4-C ) :   1.3884
B(  0-C , 13-H ) :   0.9651 B(  1-S ,  2-C ) :   1.1603 B(  2-C ,  3-C ) :   1.3494
B(  2-C , 11-C ) :   1.1206 B(  3-C ,  4-C ) :   1.2005 B(  3-C , 10-C ) :   1.1821
B(  4-C ,  5-C ) :   1.1616 B(  5-C ,  6-C ) :   1.5481 B(  5-C , 14-H ) :   0.9933
B(  6-C ,  7-C ) :   1.1029 B(  6-C ,  8-C ) :   1.1983 B(  7-C , 15-H ) :   0.9514
B(  7-C , 16-H ) :   0.9392 B(  7-C , 17-H ) :   0.9390 B(  8-C ,  9-C ) :   1.1045
B(  8-C , 10-C ) :   1.5400 B(  9-C , 18-H ) :   0.9385 B(  9-C , 19-H ) :   0.9511
B(  9-C , 20-H ) :   0.9385 B( 10-C , 21-H ) :   0.9863 B( 11-C , 12-C ) :   1.9089
B( 11-C , 22-H ) :   0.9411 B( 12-C , 23-H ) :   0.9507 B( 12-C , 24-H ) :   0.9430

Dispersion correction           -0.054161371
FINAL SINGLE POINT ENERGY      -862.287133128977

DIPOLE MOMENT
-------------
                                X             Y             Z
Electronic contribution:    -16.14622       3.05101      -0.70384
Nuclear contribution   :     16.53976      -2.85756       0.67340
                        -----------------------------------------
Total Dipole Moment    :      0.39355       0.19346      -0.03044
                        -----------------------------------------
Magnitude (a.u.)       :      0.43958
Magnitude (Debye)      :      1.11733

Rotational constants in cm-1:     0.040179     0.017492     0.012302
Rotational constants in MHz :  1204.527915   524.396235   368.819099

                             ****ORCA TERMINATED NORMALLY****
TOTAL RUN TIME: 0 days 0 hours 12 minutes 26 seconds 502 msec
