                         Program Version 4.2.0 -  RELEASE  -
|  1> # ORCA input file
|  2> # SCF done        -31.821374558083          0.000725339099
|  3> ! B3LYP/G D3BJ Opt RIJCOSX def2-SVP def2/J
|  4> * xyz 0 1
|  5>    C       -1.15534         0.05679        -0.28171
|  6>    S       -1.01333        -1.24284        -1.41572
|  7>    C        0.25059        -1.92160        -0.49204
|  8>    C        0.54209        -1.16925         0.63797
|  9>    C       -0.27223        -0.02951         0.75285
| 10>    C        1.64877        -1.81971         1.39274
| 11>    O        2.16932        -1.45627         2.41851
| 12>    C        1.95874        -3.02644         0.57710
| 13>    C        1.12073        -3.06233        -0.52944
| 14>    S        1.41103        -4.42098        -1.51999
| 15>    C        2.66177        -4.94728        -0.44582
| 16>    C        2.84517        -4.11629         0.61882
| 17>    H       -1.89531         0.81150        -0.45903
| 18>    H       -0.21118         0.68510         1.55264
| 19>    H        3.18754        -5.85198        -0.67753
| 20>    H        3.57529        -4.27887         1.38985
| 21> *
| 22>
| 23>                          ****END OF INPUT****
 Total Charge           Charge          ....    0
 Multiplicity           Mult            ....    1
 Number of Electrons    NEL             ....   98
Dispersion correction           -0.041872271
FINAL SINGLE POINT ENERGY     -1216.444329727604
Dispersion correction            ... done
Dispersion correction           -0.041850053
FINAL SINGLE POINT ENERGY     -1216.447457039397
Dispersion correction            ... done
Dispersion correction           -0.041846399
FINAL SINGLE POINT ENERGY     -1216.447541055371
Dispersion correction            ... done
FINAL SINGLE POINT ENERGY     -1216.447510813535
Dispersion correction            ... done
Dispersion correction           -0.041845539
FINAL SINGLE POINT ENERGY     -1216.447564884333
Dispersion correction            ... done
Dispersion correction           -0.041845308
FINAL SINGLE POINT ENERGY     -1216.447569809510
Dispersion correction            ... done
                    ***********************HURRAY********************

CARTESIAN COORDINATES (ANGSTROEM)
---------------------------------
  C     -1.185701    0.095034   -0.287461
  S     -1.031029   -1.229301   -1.417020
  C      0.236882   -1.914618   -0.488598
  C      0.524030   -1.154461    0.639147
  C     -0.291941    0.000387    0.757876
  C      1.646483   -1.822801    1.396795
  O      2.171889   -1.463253    2.424554
  C      1.966063   -3.047469    0.575283
  C      1.120858   -3.079501   -0.526599
  S      1.419374   -4.444148   -1.521779
  C      2.693380   -4.983339   -0.455669
  C      2.869950   -4.139470    0.619696
  H     -1.931503    0.866538   -0.474118
  H     -0.225093    0.729256    1.566612
  H      3.229070   -5.900778   -0.692495
  H      3.610936   -4.302035    1.402976

 Multiplicity           Mult            ....    1
 Number of Electrons    NEL             ....   98
 Basis Dimension        Dim             ....  196

ORBITAL ENERGIES
----------------

  NO   OCC          E(Eh)            E(eV)
   0   2.0000     -88.898983     -2419.0643
   1   2.0000     -88.898874     -2419.0614
   2   2.0000     -19.136428      -520.7287
   3   2.0000     -10.287770      -279.9444
   4   2.0000     -10.239704      -278.6365
   5   2.0000     -10.239615      -278.6341
   6   2.0000     -10.227430      -278.3025
   7   2.0000     -10.226689      -278.2824
   8   2.0000     -10.213388      -277.9204
   9   2.0000     -10.213038      -277.9109
  10   2.0000     -10.200251      -277.5629
  11   2.0000     -10.199965      -277.5551
  12   2.0000      -7.993146      -217.5046
  13   2.0000      -7.993044      -217.5018
  14   2.0000      -5.961151      -162.2112
  15   2.0000      -5.961117      -162.2103
  16   2.0000      -5.957083      -162.1005
  17   2.0000      -5.956954      -162.0970
  18   2.0000      -5.954814      -162.0387
  19   2.0000      -5.954698      -162.0356
  20   2.0000      -1.039609       -28.2892
  21   2.0000      -0.919267       -25.0145
  22   2.0000      -0.886064       -24.1110
  23   2.0000      -0.809094       -22.0166
  24   2.0000      -0.758872       -20.6500
  25   2.0000      -0.746387       -20.3102
  26   2.0000      -0.697768       -18.9872
  27   2.0000      -0.639815       -17.4102
  28   2.0000      -0.607594       -16.5335
  29   2.0000      -0.552333       -15.0297
  30   2.0000      -0.548756       -14.9324
  31   2.0000      -0.545580       -14.8460
  32   2.0000      -0.485803       -13.2194
  33   2.0000      -0.473562       -12.8863
  34   2.0000      -0.445930       -12.1344
  35   2.0000      -0.444557       -12.0970
  36   2.0000      -0.429448       -11.6859
  37   2.0000      -0.423447       -11.5226
  38   2.0000      -0.404588       -11.0094
  39   2.0000      -0.388007       -10.5582
  40   2.0000      -0.387669       -10.5490
  41   2.0000      -0.387202       -10.5363
  42   2.0000      -0.370879       -10.0921
  43   2.0000      -0.367798       -10.0083
  44   2.0000      -0.295649        -8.0450
  45   2.0000      -0.276753        -7.5308
  46   2.0000      -0.271936        -7.3998
  47   2.0000      -0.262873        -7.1531
  48   2.0000      -0.217014        -5.9053
  49   0.0000      -0.097151        -2.6436
  50   0.0000      -0.023093        -0.6284
  51   0.0000       0.000341         0.0093
  52   0.0000       0.018229         0.4960
  53   0.0000       0.041406         1.1267

MULLIKEN ATOMIC CHARGES
-----------------------
   0 C :   -0.104049
   1 S :    0.157438
   2 C :   -0.104357
   3 C :   -0.063387
   4 C :    0.036771
   5 C :    0.195015
   6 O :   -0.130835
   7 C :   -0.065164
   8 C :   -0.104082
   9 S :    0.156803
  10 C :   -0.094873
  11 C :    0.040320
  12 H :    0.037559
  13 H :    0.005752
  14 H :    0.033295
  15 H :    0.003794
Sum of atomic charges:   -0.0000000

LOEWDIN ATOMIC CHARGES
----------------------
   0 C :   -0.188473
   1 S :    0.457984
   2 C :   -0.186925
   3 C :   -0.102083
   4 C :   -0.034201
   5 C :    0.091044
   6 O :   -0.120854
   7 C :   -0.102105
   8 C :   -0.187895
   9 S :    0.457266
  10 C :   -0.186216
  11 C :   -0.033961
  12 H :    0.027613
  13 H :    0.041165
  14 H :    0.026820
  15 H :    0.040822

  Mayer bond orders larger than 0.100000
B(  0-C ,  1-S ) :   1.1456 B(  0-C ,  4-C ) :   1.5287 B(  0-C , 12-H ) :   0.9652
B(  1-S ,  2-C ) :   1.1424 B(  2-C ,  3-C ) :   1.4795 B(  2-C ,  8-C ) :   1.1213
B(  3-C ,  4-C ) :   1.2910 B(  3-C ,  5-C ) :   0.9243 B(  4-C , 13-H ) :   0.9948
B(  5-C ,  6-O ) :   2.2582 B(  5-C ,  7-C ) :   0.9249 B(  7-C ,  8-C ) :   1.4794
B(  7-C , 11-C ) :   1.2910 B(  8-C ,  9-S ) :   1.1414 B(  9-S , 10-C ) :   1.1436
B( 10-C , 11-C ) :   1.5263 B( 10-C , 14-H ) :   0.9651 B( 11-C , 15-H ) :   0.9965

Dispersion correction           -0.041844958
FINAL SINGLE POINT ENERGY     -1216.447569967670

DIPOLE MOMENT
-------------
                                X             Y             Z
Electronic contribution:     -1.61850      -1.13924      -3.17040
Nuclear contribution   :      1.19266       0.84246       2.32995
                        -----------------------------------------
Total Dipole Moment    :     -0.42584      -0.29677      -0.84044
                        -----------------------------------------
Magnitude (a.u.)       :      0.98781
Magnitude (Debye)      :      2.51081

Rotational constants in cm-1:     0.042478     0.021774     0.014395
Rotational constants in MHz :  1273.466929   652.776217   431.560490

                             ****ORCA TERMINATED NORMALLY****
TOTAL RUN TIME: 0 days 0 hours 7 minutes 7 seconds 764 msec
