                         Program Version 4.2.0 -  RELEASE  -
|  1> # ORCA input file
|  2> # SCF done        -51.751247194994          0.000438155678
|  3> ! B3LYP/G D3BJ Opt RIJCOSX def2-SVP def2/J
|  4> * xyz 0 1
|  5>    C       -2.27362        -2.06102        -0.31409
|  6>    C       -1.18127        -1.15613        -0.15157
|  7>    C        0.17539        -1.51774        -0.14895
|  8>    O        0.42007        -2.84529        -0.34136
|  9>    C        1.61814        -3.42847         0.13189
| 10>    C        1.72960        -3.39342         1.65170
| 11>    C        1.08794        -0.47989        -0.00417
| 12>    C        0.65991         0.85753         0.16740
| 13>    C       -0.69871         1.21595         0.18393
| 14>    C       -1.61029         0.18365         0.00592
| 15>    S       -3.36351         0.25847        -0.06174
| 16>    C       -3.47293        -1.45356        -0.28869
| 17>    O       -0.93680         2.54064         0.36735
| 18>    C       -2.26066         3.02232         0.49109
| 19>    C       -2.17604         4.51462         0.77142
| 20>    C        1.75306         1.76523         0.30614
| 21>    C        2.95337         1.16348         0.23432
| 22>    S        2.84043        -0.54715        -0.00804
| 23>    H       -2.12581        -3.11637        -0.44768
| 24>    H        2.49494        -2.95946        -0.32868
| 25>    H        1.55731        -4.46298        -0.21757
| 26>    H        1.78776        -2.36809         2.00916
| 27>    H        2.62530        -3.92236         1.96336
| 28>    H        0.86044        -3.86871         2.10016
| 29>    H       -4.44718        -1.88994        -0.38877
| 30>    H       -2.77435         2.51174         1.31542
| 31>    H       -2.81933         2.84372        -0.43630
| 32>    H       -1.62004         4.68985         1.68853
| 33>    H       -3.17612         4.92476         0.87557
| 34>    H       -1.66590         5.01800        -0.04529
| 35>    H        1.60574         2.81942         0.44907
| 36>    H        3.92897         1.60302         0.30179
| 37> *
| 38>
| 39>                          ****END OF INPUT****
 Total Charge           Charge          ....    0
 Multiplicity           Mult            ....    1
 Number of Electrons    NEL             ....  146
Dispersion correction           -0.075915146
FINAL SINGLE POINT ENERGY     -1488.080582520590
Dispersion correction            ... done
Dispersion correction           -0.074874608
FINAL SINGLE POINT ENERGY     -1488.084583386014
Dispersion correction            ... done
Dispersion correction           -0.075241851
FINAL SINGLE POINT ENERGY     -1488.085111696598
Dispersion correction            ... done
FINAL SINGLE POINT ENERGY     -1488.085299436846
FINAL SINGLE POINT ENERGY     -1488.085467986114
FINAL SINGLE POINT ENERGY     -1488.085575335414
FINAL SINGLE POINT ENERGY     -1488.085722035008
FINAL SINGLE POINT ENERGY     -1488.085816018607
FINAL SINGLE POINT ENERGY     -1488.085912930658
FINAL SINGLE POINT ENERGY     -1488.085967418212
FINAL SINGLE POINT ENERGY     -1488.085968519491
FINAL SINGLE POINT ENERGY     -1488.086003819045
FINAL SINGLE POINT ENERGY     -1488.086058021868
FINAL SINGLE POINT ENERGY     -1488.086062239196
Dispersion correction            ... done
Dispersion correction           -0.075509245
FINAL SINGLE POINT ENERGY     -1488.086058121074
Dispersion correction            ... done
Dispersion correction           -0.075494236
FINAL SINGLE POINT ENERGY     -1488.086043510595
Dispersion correction            ... done
                    ***********************HURRAY********************

CARTESIAN COORDINATES (ANGSTROEM)
---------------------------------
  C     -2.204346   -2.167312   -0.444963
  C     -1.132734   -1.215332   -0.310807
  C      0.243825   -1.511254   -0.277005
  O      0.587690   -2.821897   -0.418233
  C      1.639107   -3.386996    0.361435
  C      1.424973   -3.234541    1.856175
  C      1.124731   -0.428829   -0.166589
  C      0.645437    0.913958   -0.072756
  C     -0.731746    1.209557   -0.114637
  C     -1.612247    0.128966   -0.242461
  S     -3.369912    0.161842   -0.378600
  C     -3.430061   -1.581610   -0.492873
  O     -1.072751    2.525571   -0.074852
  C     -2.239582    2.959074    0.622298
  C     -1.994645    4.383048    1.086575
  C      1.718652    1.867536    0.036592
  C      2.947460    1.287140    0.018846
  S      2.886247   -0.453529   -0.135217
  H     -2.024598   -3.239389   -0.514379
  H      2.615767   -2.970072    0.059760
  H      1.642728   -4.448546    0.072636
  H      1.479404   -2.180074    2.165542
  H      2.199956   -3.789021    2.406777
  H      0.441579   -3.633892    2.149301
  H     -4.397866   -2.069238   -0.601374
  H     -2.441389    2.290037    1.476022
  H     -3.114481    2.913308   -0.050284
  H     -1.167651    4.421246    1.812204
  H     -2.897540    4.797051    1.562225
  H     -1.727894    5.020591    0.229825
  H      1.539490    2.938642    0.120645
  H      3.918207    1.775787    0.089491

 Multiplicity           Mult            ....    1
 Number of Electrons    NEL             ....  146
 Basis Dimension        Dim             ....  330

ORBITAL ENERGIES
----------------

  NO   OCC          E(Eh)            E(eV)
   0   2.0000     -88.869375     -2418.2586
   1   2.0000     -88.868800     -2418.2430
   2   2.0000     -19.159424      -521.3544
   3   2.0000     -19.156740      -521.2814
   4   2.0000     -10.250863      -278.9402
   5   2.0000     -10.248633      -278.8795
   6   2.0000     -10.246385      -278.8183
   7   2.0000     -10.244444      -278.7655
   8   2.0000     -10.216031      -277.9923
   9   2.0000     -10.215559      -277.9795
  10   2.0000     -10.213312      -277.9184
  11   2.0000     -10.213179      -277.9147
  12   2.0000     -10.196229      -277.4535
  13   2.0000     -10.195872      -277.4438
  14   2.0000     -10.192210      -277.3441
  15   2.0000     -10.191700      -277.3302
  16   2.0000     -10.189347      -277.2662
  17   2.0000     -10.185939      -277.1735
  18   2.0000      -7.963374      -216.6944
  19   2.0000      -7.962863      -216.6805
  20   2.0000      -5.932017      -161.4184
  21   2.0000      -5.931521      -161.4049
  22   2.0000      -5.927904      -161.3065
  23   2.0000      -5.927413      -161.2931
  24   2.0000      -5.923857      -161.1964
  25   2.0000      -5.923301      -161.1812
  26   2.0000      -1.054033       -28.6817
  27   2.0000      -1.051261       -28.6063
  28   2.0000      -0.888342       -24.1730
  29   2.0000      -0.867551       -23.6073
  30   2.0000      -0.802812       -21.8456
  31   2.0000      -0.785770       -21.3819
  32   2.0000      -0.755354       -20.5542
  33   2.0000      -0.739705       -20.1284
  34   2.0000      -0.732984       -19.9455
  35   2.0000      -0.709960       -19.3190
  36   2.0000      -0.683239       -18.5919
  37   2.0000      -0.648476       -17.6459
  38   2.0000      -0.619284       -16.8516
  39   2.0000      -0.608343       -16.5539
  40   2.0000      -0.572454       -15.5773
  41   2.0000      -0.564550       -15.3622
  42   2.0000      -0.545271       -14.8376
  43   2.0000      -0.531596       -14.4654
  44   2.0000      -0.520944       -14.1756
  45   2.0000      -0.503254       -13.6942
  46   2.0000      -0.486616       -13.2415
  47   2.0000      -0.472512       -12.8577
  48   2.0000      -0.456929       -12.4337
  49   2.0000      -0.451731       -12.2922
  50   2.0000      -0.438306       -11.9269
  51   2.0000      -0.435601       -11.8533
  52   2.0000      -0.419319       -11.4103
  53   2.0000      -0.413497       -11.2518
  54   2.0000      -0.402846       -10.9620
  55   2.0000      -0.394461       -10.7338
  56   2.0000      -0.390055       -10.6139
  57   2.0000      -0.385427       -10.4880
  58   2.0000      -0.378337       -10.2951
  59   2.0000      -0.376926       -10.2567
  60   2.0000      -0.375901       -10.2288
  61   2.0000      -0.371489       -10.1087
  62   2.0000      -0.356112        -9.6903
  63   2.0000      -0.349448        -9.5090
  64   2.0000      -0.341253        -9.2860
  65   2.0000      -0.336935        -9.1685
  66   2.0000      -0.315702        -8.5907
  67   2.0000      -0.308081        -8.3833
  68   2.0000      -0.277622        -7.5545
  69   2.0000      -0.263490        -7.1699
  70   2.0000      -0.253189        -6.8896
  71   2.0000      -0.231390        -6.2965
  72   2.0000      -0.184713        -5.0263
  73   0.0000      -0.038917        -1.0590
  74   0.0000       0.001983         0.0540
  75   0.0000       0.017078         0.4647
  76   0.0000       0.029285         0.7969
  77   0.0000       0.038400         1.0449

MULLIKEN ATOMIC CHARGES
-----------------------
   0 C :    0.004600
   1 C :    0.040486
   2 C :    0.093793
   3 O :   -0.329799
   4 C :    0.175631
   5 C :   -0.011452
   6 C :   -0.118182
   7 C :    0.043661
   8 C :    0.103518
   9 C :   -0.128627
  10 S :    0.076700
  11 C :   -0.047221
  12 O :   -0.334034
  13 C :    0.169287
  14 C :   -0.002801
  15 C :    0.002898
  16 C :   -0.045929
  17 S :    0.074171
  18 H :   -0.009644
  19 H :    0.014332
  20 H :    0.014277
  21 H :    0.030691
  22 H :    0.018459
  23 H :    0.020160
  24 H :    0.025529
  25 H :    0.014903
  26 H :    0.019676
  27 H :    0.025003
  28 H :    0.015557
  29 H :    0.028324
  30 H :   -0.009467
  31 H :    0.025500
Sum of atomic charges:   -0.0000000

LOEWDIN ATOMIC CHARGES
----------------------
   0 C :   -0.053348
   1 C :   -0.061642
   2 C :    0.019344
   3 O :   -0.113053
   4 C :    0.079243
   5 C :   -0.070312
   6 C :   -0.184909
   7 C :   -0.063385
   8 C :    0.022029
   9 C :   -0.186160
  10 S :    0.383195
  11 C :   -0.171345
  12 O :   -0.114634
  13 C :    0.082262
  14 C :   -0.062748
  15 C :   -0.052949
  16 C :   -0.172255
  17 S :    0.386092
  18 H :    0.033490
  19 H :   -0.002091
  20 H :    0.023816
  21 H :    0.027305
  22 H :    0.032194
  23 H :    0.028322
  24 H :    0.025328
  25 H :    0.012331
  26 H :    0.006951
  27 H :    0.027733
  28 H :    0.030034
  29 H :    0.030319
  30 H :    0.033546
  31 H :    0.025295

  Mayer bond orders larger than 0.100000
B(  0-C ,  1-C ) :   1.1775 B(  0-C , 11-C ) :   1.6068 B(  0-C , 18-H ) :   0.9964
B(  1-C ,  2-C ) :   1.3226 B(  1-C ,  9-C ) :   1.2933 B(  2-C ,  3-O ) :   1.1781
B(  2-C ,  6-C ) :   1.3616 B(  3-O ,  4-C ) :   0.9470 B(  4-C ,  5-C ) :   1.1065
B(  4-C , 19-H ) :   0.9398 B(  4-C , 20-H ) :   0.9521 B(  5-C , 21-H ) :   0.9628
B(  5-C , 22-H ) :   0.9576 B(  5-C , 23-H ) :   0.9625 B(  6-C ,  7-C ) :   1.2979
B(  6-C , 17-S ) :   1.0357 B(  7-C ,  8-C ) :   1.3196 B(  7-C , 15-C ) :   1.1748
B(  8-C ,  9-C ) :   1.3618 B(  8-C , 12-O ) :   1.1830 B(  9-C , 10-S ) :   1.0334
B( 10-S , 11-C ) :   1.0906 B( 11-C , 24-H ) :   0.9638 B( 12-O , 13-C ) :   0.9231
B( 13-C , 14-C ) :   1.1181 B( 13-C , 25-H ) :   0.9424 B( 13-C , 26-H ) :   0.9441
B( 14-C , 27-H ) :   0.9674 B( 14-C , 28-H ) :   0.9585 B( 14-C , 29-H ) :   0.9651
B( 15-C , 16-C ) :   1.6090 B( 15-C , 30-H ) :   0.9963 B( 16-C , 17-S ) :   1.0877
B( 16-C , 31-H ) :   0.9641

Dispersion correction           -0.075489797
FINAL SINGLE POINT ENERGY     -1488.086045273220

DIPOLE MOMENT
-------------
                                X             Y             Z
Electronic contribution:      0.30962      -2.71353      -9.16375
Nuclear contribution   :     -0.36578       2.73350       9.88152
                        -----------------------------------------
Total Dipole Moment    :     -0.05616       0.01997       0.71777
                        -----------------------------------------
Magnitude (a.u.)       :      0.72024
Magnitude (Debye)      :      1.83071

Rotational constants in cm-1:     0.015519     0.010266     0.006644
Rotational constants in MHz :   465.233731   307.763172   199.169488

                             ****ORCA TERMINATED NORMALLY****
TOTAL RUN TIME: 0 days 0 hours 52 minutes 46 seconds 88 msec
