                         Program Version 4.2.0 -  RELEASE  -
|  1> # ORCA input file
|  2> # SCF done        -42.845374822752          0.000942728168
|  3> ! B3LYP/G D3BJ Opt RIJCOSX def2-SVP def2/J
|  4> * xyz 0 1
|  5>    C        2.71681         0.84400        -0.03254
|  6>    C        3.50147        -0.24164        -0.18344
|  7>    S        2.62584        -1.72197        -0.41347
|  8>    C        1.12507        -0.85417        -0.30796
|  9>    C        1.32454         0.53371        -0.10352
| 10>    C        0.20671         1.36894         0.00128
| 11>    C        0.39706         2.83662         0.24445
| 12>    C        0.65669         3.57613        -1.07026
| 13>    C       -1.04821         0.76806        -0.13998
| 14>    C       -1.08796        -0.64437        -0.30346
| 15>    N       -0.04773        -1.44384        -0.38919
| 16>    S       -2.70983        -1.26234        -0.36280
| 17>    C       -3.32509         0.34261        -0.18636
| 18>    C       -2.38167         1.31456        -0.09242
| 19>    C       -2.74852         2.72540        -0.01292
| 20>    C       -3.73978         3.18641         0.73679
| 21>    H        3.10562         1.83496         0.11704
| 22>    H        4.57346        -0.27978        -0.17642
| 23>    H        1.25064         2.98010         0.90968
| 24>    H       -0.48374         3.24656         0.73901
| 25>    H        1.56377         3.20463        -1.54163
| 26>    H        0.77064         4.64216        -0.88757
| 27>    H       -0.16653         3.42797        -1.76596
| 28>    H       -4.38794         0.48819        -0.19835
| 29>    H       -2.18655         3.40186        -0.64026
| 30>    H       -4.30893         2.53988         1.38414
| 31>    H       -4.00592         4.22944         0.74267
| 32> *
| 33>
| 34>                          ****END OF INPUT****
 Total Charge           Charge          ....    0
 Multiplicity           Mult            ....    1
 Number of Electrons    NEL             ....  128
Dispersion correction           -0.068781186
FINAL SINGLE POINT ENERGY     -1352.570376533364
Dispersion correction            ... done
Dispersion correction           -0.068346765
FINAL SINGLE POINT ENERGY     -1352.574827476088
Dispersion correction            ... done
Dispersion correction           -0.068274171
FINAL SINGLE POINT ENERGY     -1352.575028460511
Dispersion correction            ... done
FINAL SINGLE POINT ENERGY     -1352.575043305575
FINAL SINGLE POINT ENERGY     -1352.575025577460
FINAL SINGLE POINT ENERGY     -1352.575030111307
Dispersion correction            ... done
Dispersion correction           -0.068271230
FINAL SINGLE POINT ENERGY     -1352.575018289386
Dispersion correction            ... done
Dispersion correction           -0.068271052
FINAL SINGLE POINT ENERGY     -1352.575010551500
Dispersion correction            ... done
                    ***********************HURRAY********************

CARTESIAN COORDINATES (ANGSTROEM)
---------------------------------
  C      2.734042    0.844422   -0.010040
  C      3.535195   -0.251303   -0.125336
  S      2.661246   -1.745684   -0.351088
  C      1.129860   -0.877394   -0.293844
  C      1.330608    0.522393   -0.098523
  C      0.204341    1.366207   -0.010192
  C      0.403997    2.847107    0.193104
  C      0.671800    3.588922   -1.123993
  C     -1.058369    0.754353   -0.153970
  C     -1.091520   -0.669799   -0.331808
  N     -0.045149   -1.476271   -0.402919
  S     -2.738735   -1.280578   -0.426673
  C     -3.358671    0.333234   -0.238521
  C     -2.405990    1.309923   -0.108133
  C     -2.776065    2.729059    0.032638
  C     -3.758066    3.178428    0.826947
  H      3.125535    1.850915    0.136062
  H      4.623900   -0.274866   -0.089486
  H      1.255824    2.999366    0.874040
  H     -0.468828    3.279451    0.699181
  H      1.533655    3.151522   -1.650376
  H      0.886186    4.653802   -0.940283
  H     -0.193127    3.522972   -1.803572
  H     -4.433941    0.504695   -0.279113
  H     -2.228218    3.446393   -0.587423
  H     -4.311325    2.501997    1.484389
  H     -4.038266    4.234813    0.845485

 Multiplicity           Mult            ....    1
 Number of Electrons    NEL             ....  128
 Basis Dimension        Dim             ....  287

ORBITAL ENERGIES
----------------

  NO   OCC          E(Eh)            E(eV)
   0   2.0000     -88.871072     -2418.3048
   1   2.0000     -88.870854     -2418.2989
   2   2.0000     -14.333703      -390.0399
   3   2.0000     -10.251238      -278.9504
   4   2.0000     -10.250162      -278.9211
   5   2.0000     -10.223183      -278.1869
   6   2.0000     -10.220304      -278.1086
   7   2.0000     -10.219989      -278.1000
   8   2.0000     -10.209036      -277.8020
   9   2.0000     -10.208617      -277.7906
  10   2.0000     -10.206621      -277.7363
  11   2.0000     -10.205342      -277.7015
  12   2.0000     -10.202525      -277.6248
  13   2.0000     -10.201766      -277.6042
  14   2.0000     -10.195230      -277.4263
  15   2.0000     -10.194385      -277.4033
  16   2.0000      -7.966734      -216.7859
  17   2.0000      -7.966689      -216.7846
  18   2.0000      -5.934995      -161.4994
  19   2.0000      -5.934921      -161.4974
  20   2.0000      -5.931168      -161.3953
  21   2.0000      -5.931087      -161.3931
  22   2.0000      -5.927281      -161.2895
  23   2.0000      -5.927266      -161.2891
  24   2.0000      -0.963106       -26.2075
  25   2.0000      -0.879233       -23.9251
  26   2.0000      -0.861805       -23.4509
  27   2.0000      -0.821653       -22.3583
  28   2.0000      -0.787941       -21.4410
  29   2.0000      -0.754702       -20.5365
  30   2.0000      -0.735816       -20.0226
  31   2.0000      -0.720510       -19.6061
  32   2.0000      -0.699812       -19.0429
  33   2.0000      -0.652505       -17.7556
  34   2.0000      -0.615732       -16.7549
  35   2.0000      -0.603571       -16.4240
  36   2.0000      -0.593055       -16.1379
  37   2.0000      -0.559820       -15.2335
  38   2.0000      -0.538545       -14.6545
  39   2.0000      -0.526415       -14.3245
  40   2.0000      -0.491530       -13.3752
  41   2.0000      -0.473305       -12.8793
  42   2.0000      -0.459330       -12.4990
  43   2.0000      -0.449126       -12.2213
  44   2.0000      -0.444757       -12.1024
  45   2.0000      -0.437437       -11.9033
  46   2.0000      -0.435377       -11.8472
  47   2.0000      -0.423987       -11.5373
  48   2.0000      -0.404668       -11.0116
  49   2.0000      -0.396572       -10.7913
  50   2.0000      -0.387236       -10.5372
  51   2.0000      -0.382939       -10.4203
  52   2.0000      -0.377186       -10.2638
  53   2.0000      -0.366572        -9.9749
  54   2.0000      -0.362001        -9.8505
  55   2.0000      -0.352437        -9.5903
  56   2.0000      -0.344375        -9.3709
  57   2.0000      -0.334887        -9.1127
  58   2.0000      -0.304186        -8.2773
  59   2.0000      -0.290516        -7.9054
  60   2.0000      -0.270668        -7.3653
  61   2.0000      -0.253377        -6.8947
  62   2.0000      -0.238445        -6.4884
  63   2.0000      -0.213430        -5.8077
  64   0.0000      -0.055725        -1.5164
  65   0.0000      -0.033685        -0.9166
  66   0.0000      -0.015087        -0.4105
  67   0.0000       0.022225         0.6048
  68   0.0000       0.032298         0.8789

MULLIKEN ATOMIC CHARGES
-----------------------
   0 C :    0.019242
   1 C :   -0.075796
   2 S :    0.106443
   3 C :   -0.139900
   4 C :    0.055110
   5 C :   -0.076189
   6 C :    0.046147
   7 C :    0.017876
   8 C :    0.091035
   9 C :   -0.155964
  10 N :   -0.044846
  11 S :    0.113895
  12 C :   -0.125856
  13 C :    0.062416
  14 C :   -0.035212
  15 C :   -0.030177
  16 H :   -0.014245
  17 H :    0.032577
  18 H :    0.005734
  19 H :    0.010835
  20 H :    0.014240
  21 H :    0.020806
  22 H :    0.020122
  23 H :    0.025004
  24 H :    0.011170
  25 H :    0.022923
  26 H :    0.022610
Sum of atomic charges:   -0.0000000

LOEWDIN ATOMIC CHARGES
----------------------
   0 C :   -0.068512
   1 C :   -0.164652
   2 S :    0.395546
   3 C :   -0.129897
   4 C :   -0.070103
   5 C :    0.013016
   6 C :   -0.028825
   7 C :   -0.047715
   8 C :   -0.063928
   9 C :   -0.127512
  10 N :   -0.105051
  11 S :    0.403027
  12 C :   -0.163810
  13 C :   -0.066766
  14 C :   -0.024761
  15 C :   -0.047051
  16 H :    0.028551
  17 H :    0.027474
  18 H :    0.029666
  19 H :    0.030545
  20 H :    0.025474
  21 H :    0.026585
  22 H :    0.023337
  23 H :    0.026808
  24 H :    0.029543
  25 H :    0.023846
  26 H :    0.025167

  Mayer bond orders larger than 0.100000
B(  0-C ,  1-C ) :   1.6104 B(  0-C ,  4-C ) :   1.1713 B(  0-C , 16-H ) :   0.9836
B(  1-C ,  2-S ) :   1.1205 B(  1-C , 17-H ) :   0.9629 B(  2-S ,  3-C ) :   1.0834
B(  3-C ,  4-C ) :   1.1895 B(  3-C , 10-N ) :   1.5279 B(  4-C ,  5-C ) :   1.3580
B(  5-C ,  6-C ) :   1.0897 B(  5-C ,  8-C ) :   1.3791 B(  6-C ,  7-C ) :   1.1064
B(  6-C , 18-H ) :   0.9061 B(  6-C , 19-H ) :   0.9118 B(  7-C , 20-H ) :   0.9626
B(  7-C , 21-H ) :   0.9642 B(  7-C , 22-H ) :   0.9617 B(  8-C ,  9-C ) :   1.1622
B(  8-C , 13-C ) :   1.1450 B(  9-C , 10-N ) :   1.5423 B(  9-C , 11-S ) :   1.0879
B( 11-S , 12-C ) :   1.1112 B( 12-C , 13-C ) :   1.5823 B( 12-C , 23-H ) :   0.9603
B( 13-C , 14-C ) :   1.0412 B( 14-C , 15-C ) :   1.9602 B( 14-C , 24-H ) :   0.9390
B( 15-C , 25-H ) :   0.9552 B( 15-C , 26-H ) :   0.9463

Dispersion correction           -0.068270537
FINAL SINGLE POINT ENERGY     -1352.575008925896

DIPOLE MOMENT
-------------
                                X             Y             Z
Electronic contribution:      1.61879     -22.61147      -0.73263
Nuclear contribution   :     -1.44323      23.89025       0.84982
                        -----------------------------------------
Total Dipole Moment    :      0.17556       1.27877       0.11718
                        -----------------------------------------
Magnitude (a.u.)       :      1.29608
Magnitude (Debye)      :      3.29437

Rotational constants in cm-1:     0.023464     0.011443     0.007959
Rotational constants in MHz :   703.446546   343.048462   238.601383

                             ****ORCA TERMINATED NORMALLY****
TOTAL RUN TIME: 0 days 0 hours 19 minutes 54 seconds 498 msec
