                         Program Version 4.2.0 -  RELEASE  -
|  1> # ORCA input file
|  2> # SCF done        -37.724411151765          0.000580354652
|  3> ! B3LYP/G D3BJ Opt RIJCOSX def2-SVP def2/J
|  4> * xyz 0 1
|  5>    C       -0.34040         1.17105         0.03992
|  6>    O       -1.16903         0.13527         0.04973
|  7>    C       -0.42604        -0.99469         0.02702
|  8>    C        0.90649        -0.68309         0.00135
|  9>    C        0.95939         0.74658         0.00976
| 10>    C        2.18626         1.58295        -0.00855
| 11>    F        1.89084         2.89492         0.00333
| 12>    F        2.98156         1.36520         1.05095
| 13>    F        2.94316         1.37579        -1.09768
| 14>    O        1.99831        -1.46234        -0.02781
| 15>    C        1.76696        -2.85421        -0.03371
| 16>    H       -0.75284         2.16040         0.05485
| 17>    H       -0.95272        -1.92642         0.03241
| 18>    H        2.74986        -3.31894        -0.06935
| 19>    H        1.18519        -3.15241        -0.91084
| 20>    H        1.24191        -3.16898         0.87300
| 21> *
| 22>
| 23>                          ****END OF INPUT****
 Total Charge           Charge          ....    0
 Multiplicity           Mult            ....    1
 Number of Electrons    NEL             ....   84
Dispersion correction           -0.023765496
FINAL SINGLE POINT ENERGY      -681.098404408978
Dispersion correction            ... done
Dispersion correction           -0.023839517
FINAL SINGLE POINT ENERGY      -681.099903663555
Dispersion correction            ... done
Dispersion correction           -0.023849053
FINAL SINGLE POINT ENERGY      -681.099988157785
Dispersion correction            ... done
FINAL SINGLE POINT ENERGY      -681.099997409132
FINAL SINGLE POINT ENERGY      -681.099989694641
FINAL SINGLE POINT ENERGY      -681.099960962809
Dispersion correction            ... done
Dispersion correction           -0.023839653
FINAL SINGLE POINT ENERGY      -681.099965483259
Dispersion correction            ... done
Dispersion correction           -0.023844838
FINAL SINGLE POINT ENERGY      -681.099971225097
Dispersion correction            ... done
                    ***********************HURRAY********************

CARTESIAN COORDINATES (ANGSTROEM)
---------------------------------
  C     -0.320300    1.178589    0.048540
  O     -1.159661    0.130379    0.044882
  C     -0.413035   -1.016159    0.023794
  C      0.920531   -0.686448    0.018448
  C      0.979201    0.752086    0.031844
  C      2.196800    1.608753   -0.017499
  F      1.857644    2.911619    0.052713
  F      3.048187    1.354074    0.989404
  F      2.888974    1.434205   -1.157731
  O      2.008905   -1.468859    0.009731
  C      1.761409   -2.859661   -0.024265
  H     -0.763942    2.169876    0.063964
  H     -0.959231   -1.952087    0.008530
  H      2.735363   -3.361768    0.016143
  H      1.237470   -3.146025   -0.954422
  H      1.150586   -3.177495    0.840305

 Multiplicity           Mult            ....    1
 Number of Electrons    NEL             ....   84
 Basis Dimension        Dim             ....  179

ORBITAL ENERGIES
----------------

  NO   OCC          E(Eh)            E(eV)
   0   2.0000     -24.714834      -672.5248
   1   2.0000     -24.709407      -672.3772
   2   2.0000     -24.708419      -672.3503
   3   2.0000     -19.218821      -522.9707
   4   2.0000     -19.182870      -521.9924
   5   2.0000     -10.434104      -283.9264
   6   2.0000     -10.264347      -279.3071
   7   2.0000     -10.263653      -279.2882
   8   2.0000     -10.258485      -279.1476
   9   2.0000     -10.245815      -278.8028
  10   2.0000     -10.211285      -277.8632
  11   2.0000      -1.290915       -35.1276
  12   2.0000      -1.200498       -32.6672
  13   2.0000      -1.195627       -32.5347
  14   2.0000      -1.124199       -30.5910
  15   2.0000      -1.079874       -29.3849
  16   2.0000      -0.829055       -22.5597
  17   2.0000      -0.766946       -20.8697
  18   2.0000      -0.722345       -19.6560
  19   2.0000      -0.704164       -19.1613
  20   2.0000      -0.628949       -17.1146
  21   2.0000      -0.601925       -16.3792
  22   2.0000      -0.584697       -15.9104
  23   2.0000      -0.583726       -15.8840
  24   2.0000      -0.574674       -15.6377
  25   2.0000      -0.532549       -14.4914
  26   2.0000      -0.494437       -13.4543
  27   2.0000      -0.486414       -13.2360
  28   2.0000      -0.465852       -12.6765
  29   2.0000      -0.464911       -12.6509
  30   2.0000      -0.461112       -12.5475
  31   2.0000      -0.458873       -12.4866
  32   2.0000      -0.449581       -12.2337
  33   2.0000      -0.424291       -11.5455
  34   2.0000      -0.423253       -11.5173
  35   2.0000      -0.401508       -10.9256
  36   2.0000      -0.400035       -10.8855
  37   2.0000      -0.386364       -10.5135
  38   2.0000      -0.364707        -9.9242
  39   2.0000      -0.352450        -9.5906
  40   2.0000      -0.279347        -7.6014
  41   2.0000      -0.238226        -6.4825
  42   0.0000      -0.011914        -0.3242
  43   0.0000       0.046895         1.2761
  44   0.0000       0.053884         1.4663
  45   0.0000       0.072500         1.9728
  46   0.0000       0.095976         2.6116

MULLIKEN ATOMIC CHARGES
-----------------------
   0 C :    0.107056
   1 O :   -0.199867
   2 C :   -0.000467
   3 C :    0.183106
   4 C :   -0.144503
   5 C :    0.563049
   6 F :   -0.176679
   7 F :   -0.165656
   8 F :   -0.169056
   9 O :   -0.290885
  10 C :    0.181051
  11 H :    0.022917
  12 H :    0.003678
  13 H :    0.041586
  14 H :    0.022120
  15 H :    0.022551
Sum of atomic charges:    0.0000000

LOEWDIN ATOMIC CHARGES
----------------------
   0 C :    0.063121
   1 O :    0.013342
   2 C :   -0.032640
   3 C :    0.010511
   4 C :   -0.148393
   5 C :    0.176593
   6 F :   -0.068207
   7 F :   -0.061222
   8 F :   -0.064789
   9 O :   -0.088750
  10 C :    0.086403
  11 H :    0.031223
  12 H :    0.022562
  13 H :    0.030144
  14 H :    0.015300
  15 H :    0.014805

  Mayer bond orders larger than 0.100000
B(  0-C ,  1-O ) :   1.1839 B(  0-C ,  4-C ) :   1.5373 B(  0-C , 11-H ) :   1.0090
B(  1-O ,  2-C ) :   1.0789 B(  2-C ,  3-C ) :   1.4554 B(  2-C , 12-H ) :   1.0153
B(  3-C ,  4-C ) :   1.2557 B(  3-C ,  9-O ) :   1.1963 B(  4-C ,  5-C ) :   0.9425
B(  5-C ,  6-F ) :   1.1441 B(  5-C ,  7-F ) :   1.1716 B(  5-C ,  8-F ) :   1.1705
B(  9-O , 10-C ) :   0.9556 B( 10-C , 13-H ) :   0.9797 B( 10-C , 14-H ) :   0.9656
B( 10-C , 15-H ) :   0.9632

Dispersion correction           -0.023847512
FINAL SINGLE POINT ENERGY      -681.099973884581

DIPOLE MOMENT
-------------
                                X             Y             Z
Electronic contribution:      5.96296      13.86629      -0.08030
Nuclear contribution   :     -6.66799     -14.94317       0.08843
                        -----------------------------------------
Total Dipole Moment    :     -0.70503      -1.07687       0.00813
                        -----------------------------------------
Magnitude (a.u.)       :      1.28716
Magnitude (Debye)      :      3.27171

Rotational constants in cm-1:     0.053760     0.031054     0.022037
Rotational constants in MHz :  1611.674749   930.969513   660.666065

                             ****ORCA TERMINATED NORMALLY****
TOTAL RUN TIME: 0 days 0 hours 6 minutes 6 seconds 701 msec
