                         Program Version 4.2.0 -  RELEASE  -
|  1> # ORCA input file
|  2> # SCF done        -31.855969036278          0.000936975380
|  3> ! B3LYP/G D3BJ Opt RIJCOSX def2-SVP def2/J
|  4> * xyz 0 1
|  5>    C       -1.53265         1.26104        -0.05764
|  6>    S       -2.70248         0.02270        -0.08130
|  7>    C       -1.50704        -1.23112        -0.00400
|  8>    C       -0.22875        -0.67965         0.00354
|  9>    C       -0.25173         0.75802        -0.01625
| 10>    C        0.96027         1.48999         0.00206
| 11>    C        2.15395         0.83326         0.01279
| 12>    C        3.46019         1.56551         0.03624
| 13>    C        2.17054        -0.58777        -0.02161
| 14>    C        1.02902        -1.32738        -0.02917
| 15>    C       -1.97130        -2.59040         0.05535
| 16>    C       -1.31631        -3.63651         0.55621
| 17>    H       -1.83892         2.28797        -0.07047
| 18>    H        0.91485         2.56958         0.00057
| 19>    H        3.30434         2.63986         0.09092
| 20>    H        4.03527         1.34188        -0.86209
| 21>    H        4.05275         1.25362         0.89567
| 22>    H        3.13065        -1.08314        -0.04988
| 23>    H        1.07571        -2.40281        -0.08641
| 24>    H       -2.98069        -2.73156        -0.31552
| 25>    H       -0.33965        -3.55320         0.99926
| 26>    H       -1.75907        -4.61711         0.55562
| 27> *
| 28>
| 29>                          ****END OF INPUT****
 Total Charge           Charge          ....    0
 Multiplicity           Mult            ....    1
 Number of Electrons    NEL             ....   92
Dispersion correction           -0.048083389
FINAL SINGLE POINT ENERGY      -822.988926351000
Dispersion correction            ... done
Dispersion correction           -0.047775263
FINAL SINGLE POINT ENERGY      -822.992376607184
Dispersion correction            ... done
Dispersion correction           -0.047714559
FINAL SINGLE POINT ENERGY      -822.992460756200
Dispersion correction            ... done
FINAL SINGLE POINT ENERGY      -822.992482004432
Dispersion correction            ... done
Dispersion correction           -0.047700656
FINAL SINGLE POINT ENERGY      -822.992495736404
Dispersion correction            ... done
Dispersion correction           -0.047702369
FINAL SINGLE POINT ENERGY      -822.992498362164
Dispersion correction            ... done
                    ***********************HURRAY********************

CARTESIAN COORDINATES (ANGSTROEM)
---------------------------------
  C     -1.557122    1.281133   -0.055775
  S     -2.717231    0.025672   -0.084896
  C     -1.528065   -1.235465    0.005479
  C     -0.238506   -0.674891    0.030696
  C     -0.261124    0.775822    0.001397
  C      0.966756    1.508214    0.010798
  C      2.173464    0.850260    0.019973
  C      3.485390    1.589252    0.005689
  C      2.183070   -0.587771    0.019205
  C      1.030189   -1.330307    0.027600
  C     -1.993919   -2.610327    0.055714
  C     -1.337044   -3.688107    0.521003
  H     -1.866067    2.324291   -0.084004
  H      0.933286    2.601267   -0.002500
  H      3.339237    2.678318    0.057495
  H      4.056249    1.365996   -0.912653
  H      4.124233    1.288986    0.853580
  H      3.148895   -1.100466    0.002147
  H      1.081518   -2.418841    0.006188
  H     -3.013879   -2.761594   -0.317248
  H     -0.341864   -3.625363    0.962921
  H     -1.808514   -4.673297    0.491081

 Multiplicity           Mult            ....    1
 Number of Electrons    NEL             ....   92
 Basis Dimension        Dim             ....  222

ORBITAL ENERGIES
----------------

  NO   OCC          E(Eh)            E(eV)
   0   2.0000     -88.882230     -2418.6084
   1   2.0000     -10.217568      -278.0342
   2   2.0000     -10.211592      -277.8716
   3   2.0000     -10.203844      -277.6607
   4   2.0000     -10.198709      -277.5210
   5   2.0000     -10.197952      -277.5004
   6   2.0000     -10.197340      -277.4837
   7   2.0000     -10.193298      -277.3737
   8   2.0000     -10.190016      -277.2844
   9   2.0000     -10.189872      -277.2805
  10   2.0000     -10.189816      -277.2790
  11   2.0000     -10.187572      -277.2179
  12   2.0000      -7.976990      -217.0649
  13   2.0000      -5.944638      -161.7618
  14   2.0000      -5.940683      -161.6542
  15   2.0000      -5.939274      -161.6159
  16   2.0000      -0.891183       -24.2503
  17   2.0000      -0.832589       -22.6559
  18   2.0000      -0.785438       -21.3728
  19   2.0000      -0.760261       -20.6877
  20   2.0000      -0.738863       -20.1055
  21   2.0000      -0.698936       -19.0190
  22   2.0000      -0.673404       -18.3243
  23   2.0000      -0.610414       -16.6102
  24   2.0000      -0.600589       -16.3429
  25   2.0000      -0.564691       -15.3660
  26   2.0000      -0.544970       -14.8294
  27   2.0000      -0.497996       -13.5512
  28   2.0000      -0.472409       -12.8549
  29   2.0000      -0.462974       -12.5982
  30   2.0000      -0.459547       -12.5049
  31   2.0000      -0.426620       -11.6089
  32   2.0000      -0.422664       -11.5013
  33   2.0000      -0.421121       -11.4593
  34   2.0000      -0.405116       -11.0238
  35   2.0000      -0.396860       -10.7991
  36   2.0000      -0.387377       -10.5411
  37   2.0000      -0.372470       -10.1354
  38   2.0000      -0.358590        -9.7577
  39   2.0000      -0.349557        -9.5119
  40   2.0000      -0.333774        -9.0824
  41   2.0000      -0.330577        -8.9955
  42   2.0000      -0.307527        -8.3682
  43   2.0000      -0.264519        -7.1979
  44   2.0000      -0.245281        -6.6744
  45   2.0000      -0.195746        -5.3265
  46   0.0000      -0.066076        -1.7980
  47   0.0000      -0.007748        -0.2108
  48   0.0000       0.017988         0.4895
  49   0.0000       0.035885         0.9765
  50   0.0000       0.057993         1.5781

MULLIKEN ATOMIC CHARGES
-----------------------
   0 C :   -0.133090
   1 S :    0.137665
   2 C :   -0.172726
   3 C :    0.127863
   4 C :    0.095170
   5 C :   -0.056082
   6 C :   -0.026290
   7 C :    0.063668
   8 C :   -0.002009
   9 C :   -0.032808
  10 C :    0.030652
  11 C :   -0.044521
  12 H :    0.016048
  13 H :   -0.042543
  14 H :    0.010980
  15 H :    0.027649
  16 H :    0.025704
  17 H :   -0.033618
  18 H :   -0.027746
  19 H :   -0.009504
  20 H :    0.022968
  21 H :    0.022569
Sum of atomic charges:    0.0000000

LOEWDIN ATOMIC CHARGES
----------------------
   0 C :   -0.210409
   1 S :    0.478965
   2 C :   -0.192126
   3 C :   -0.045809
   4 C :   -0.046340
   5 C :   -0.031268
   6 C :   -0.028732
   7 C :   -0.047205
   8 C :   -0.027115
   9 C :   -0.018253
  10 C :   -0.043322
  11 C :   -0.058964
  12 H :    0.024062
  13 H :    0.023860
  14 H :    0.028198
  15 H :    0.034684
  16 H :    0.033589
  17 H :    0.024176
  18 H :    0.027191
  19 H :    0.028054
  20 H :    0.020979
  21 H :    0.025784

  Mayer bond orders larger than 0.100000
B(  0-C ,  1-S ) :   1.1899 B(  0-C ,  2-C ) :   0.1129 B(  0-C ,  4-C ) :   1.3903
B(  0-C , 12-H ) :   0.9651 B(  1-S ,  2-C ) :   1.1655 B(  2-C ,  3-C ) :   1.3544
B(  2-C , 10-C ) :   1.1193 B(  3-C ,  4-C ) :   1.2023 B(  3-C ,  9-C ) :   1.1925
B(  4-C ,  5-C ) :   1.1654 B(  5-C ,  6-C ) :   1.5459 B(  5-C , 13-H ) :   0.9936
B(  6-C ,  7-C ) :   1.0635 B(  6-C ,  8-C ) :   1.1966 B(  7-C , 14-H ) :   0.9599
B(  7-C , 15-H ) :   0.9525 B(  7-C , 16-H ) :   0.9529 B(  8-C ,  9-C ) :   1.5407
B(  8-C , 17-H ) :   0.9825 B(  9-C , 18-H ) :   0.9878 B( 10-C , 11-C ) :   1.9103
B( 10-C , 19-H ) :   0.9418 B( 11-C , 20-H ) :   0.9515 B( 11-C , 21-H ) :   0.9430

Dispersion correction           -0.047701233
FINAL SINGLE POINT ENERGY      -822.992501286113

DIPOLE MOMENT
-------------
                                X             Y             Z
Electronic contribution:    -11.19472       1.39053      -0.70214
Nuclear contribution   :     11.40392      -1.20739       0.66929
                        -----------------------------------------
Total Dipole Moment    :      0.20919       0.18314      -0.03285
                        -----------------------------------------
Magnitude (a.u.)       :      0.27996
Magnitude (Debye)      :      0.71161

Rotational constants in cm-1:     0.050182     0.020305     0.014553
Rotational constants in MHz :  1504.409627   608.729860   436.276902

                             ****ORCA TERMINATED NORMALLY****
TOTAL RUN TIME: 0 days 0 hours 9 minutes 46 seconds 504 msec
