                         Program Version 4.2.0 -  RELEASE  -
|  1> # ORCA input file
|  2> # SCF done        -41.241579974002          0.000784547038
|  3> ! B3LYP/G D3BJ Opt RIJCOSX def2-SVP def2/J
|  4> * xyz 0 1
|  5>    C        3.46274         0.16118        -0.04028
|  6>    C        3.01973         1.47287        -0.06506
|  7>    C        1.66139         1.77656        -0.05856
|  8>    C        0.75549         0.73602        -0.02634
|  9>    C        1.20860        -0.59649        -0.00127
| 10>    C        2.55553        -0.89300        -0.00811
| 11>    C        0.04034        -1.51542         0.03223
| 12>    O        0.04788        -2.72412         0.05911
| 13>    C       -1.14181        -0.61194         0.02646
| 14>    C       -0.70572         0.72636        -0.00967
| 15>    C       -1.63356         1.74764        -0.02447
| 16>    C       -2.98245         1.41872         0.00013
| 17>    C       -3.42890         0.09604         0.04203
| 18>    C       -2.47773        -0.93538         0.05171
| 19>    C       -4.86272        -0.15998         0.07370
| 20>    C       -5.45120        -1.34411         0.20127
| 21>    H        4.52273        -0.04484        -0.04579
| 22>    H        3.74089         2.27698        -0.08973
| 23>    H        1.33079         2.80427        -0.07794
| 24>    H        2.88802        -1.91984         0.01159
| 25>    H       -1.32617         2.78243        -0.05466
| 26>    H       -3.71489         2.21398        -0.01057
| 27>    H       -2.77456        -1.97191         0.07464
| 28>    H       -5.48063         0.72566        -0.00991
| 29>    H       -4.90029        -2.26278         0.29875
| 30>    H       -6.52358        -1.43507         0.21735
| 31> *
| 32>
| 33>                          ****END OF INPUT****
 Total Charge           Charge          ....    0
 Multiplicity           Mult            ....    1
 Number of Electrons    NEL             ....  108
Dispersion correction           -0.058932963
FINAL SINGLE POINT ENERGY      -652.424742744456
Dispersion correction            ... done
Dispersion correction           -0.058618768
FINAL SINGLE POINT ENERGY      -652.428294488517
Dispersion correction            ... done
Dispersion correction           -0.058577175
FINAL SINGLE POINT ENERGY      -652.428375143134
Dispersion correction            ... done
FINAL SINGLE POINT ENERGY      -652.428389831008
Dispersion correction            ... done
Dispersion correction           -0.058569815
FINAL SINGLE POINT ENERGY      -652.428390827895
Dispersion correction            ... done
Dispersion correction           -0.058574481
FINAL SINGLE POINT ENERGY      -652.428394688988
Dispersion correction            ... done
                    ***********************HURRAY********************

CARTESIAN COORDINATES (ANGSTROEM)
---------------------------------
  C      3.505434    0.150958   -0.039434
  C      3.061218    1.478171   -0.078153
  C      1.691809    1.790187   -0.076176
  C      0.773625    0.745208   -0.033595
  C      1.229197   -0.591508    0.003983
  C      2.581449   -0.903210    0.000805
  C      0.045384   -1.512235    0.045563
  O      0.049463   -2.723690    0.075907
  C     -1.149314   -0.601870    0.038685
  C     -0.706104    0.739249   -0.013123
  C     -1.642324    1.766298   -0.031600
  C     -3.004378    1.432711    0.006515
  C     -3.455961    0.099613    0.062520
  C     -2.489510   -0.933084    0.075945
  C     -4.900115   -0.169878    0.105934
  C     -5.493285   -1.371410    0.158878
  H      4.576938   -0.063304   -0.041299
  H      3.793709    2.288240   -0.111706
  H      1.361730    2.831272   -0.108372
  H      2.901753   -1.947016    0.031739
  H     -1.334425    2.813747   -0.075593
  H     -3.746995    2.234898   -0.007419
  H     -2.776223   -1.985454    0.117731
  H     -5.534970    0.723474    0.093062
  H     -4.926652   -2.305711    0.176262
  H     -6.581535   -1.461827    0.189554

 Multiplicity           Mult            ....    1
 Number of Electrons    NEL             ....  108
 Basis Dimension        Dim             ....  274

ORBITAL ENERGIES
----------------

  NO   OCC          E(Eh)            E(eV)
   0   2.0000     -19.131565      -520.5963
   1   2.0000     -10.276767      -279.6451
   2   2.0000     -10.212441      -277.8947
   3   2.0000     -10.211425      -277.8670
   4   2.0000     -10.211168      -277.8600
   5   2.0000     -10.210530      -277.8426
   6   2.0000     -10.209036      -277.8020
   7   2.0000     -10.208399      -277.7847
   8   2.0000     -10.208307      -277.7821
   9   2.0000     -10.208238      -277.7803
  10   2.0000     -10.207312      -277.7551
  11   2.0000     -10.205415      -277.7035
  12   2.0000     -10.202835      -277.6332
  13   2.0000     -10.198036      -277.5027
  14   2.0000     -10.197973      -277.5010
  15   2.0000     -10.194762      -277.4136
  16   2.0000      -1.033989       -28.1363
  17   2.0000      -0.892847       -24.2956
  18   2.0000      -0.858298       -23.3555
  19   2.0000      -0.813958       -22.1489
  20   2.0000      -0.777522       -21.1574
  21   2.0000      -0.759761       -20.6741
  22   2.0000      -0.751063       -20.4375
  23   2.0000      -0.716319       -19.4920
  24   2.0000      -0.670843       -18.2546
  25   2.0000      -0.643374       -17.5071
  26   2.0000      -0.600506       -16.3406
  27   2.0000      -0.596407       -16.2291
  28   2.0000      -0.574183       -15.6243
  29   2.0000      -0.555669       -15.1205
  30   2.0000      -0.517157       -14.0726
  31   2.0000      -0.505902       -13.7663
  32   2.0000      -0.491494       -13.3742
  33   2.0000      -0.463685       -12.6175
  34   2.0000      -0.458420       -12.4742
  35   2.0000      -0.456410       -12.4195
  36   2.0000      -0.447817       -12.1857
  37   2.0000      -0.442179       -12.0323
  38   2.0000      -0.436751       -11.8846
  39   2.0000      -0.430752       -11.7214
  40   2.0000      -0.417335       -11.3563
  41   2.0000      -0.398043       -10.8313
  42   2.0000      -0.382560       -10.4100
  43   2.0000      -0.379242       -10.3197
  44   2.0000      -0.375999       -10.2315
  45   2.0000      -0.362510        -9.8644
  46   2.0000      -0.360069        -9.7980
  47   2.0000      -0.354653        -9.6506
  48   2.0000      -0.325218        -8.8496
  49   2.0000      -0.277141        -7.5414
  50   2.0000      -0.274138        -7.4597
  51   2.0000      -0.269048        -7.3212
  52   2.0000      -0.258163        -7.0250
  53   2.0000      -0.225367        -6.1326
  54   0.0000      -0.091507        -2.4900
  55   0.0000      -0.061192        -1.6651
  56   0.0000      -0.013173        -0.3584
  57   0.0000      -0.011450        -0.3116
  58   0.0000       0.038129         1.0376

MULLIKEN ATOMIC CHARGES
-----------------------
   0 C :    0.022326
   1 C :    0.037173
   2 C :   -0.051492
   3 C :    0.105484
   4 C :   -0.049830
   5 C :   -0.010992
   6 C :    0.165319
   7 O :   -0.148519
   8 C :   -0.041183
   9 C :    0.103894
  10 C :   -0.046380
  11 C :   -0.014863
  12 C :    0.105057
  13 C :   -0.053839
  14 C :   -0.001382
  15 C :   -0.022680
  16 H :   -0.007347
  17 H :   -0.006535
  18 H :   -0.029974
  19 H :   -0.013166
  20 H :   -0.031251
  21 H :   -0.019102
  22 H :   -0.022411
  23 H :   -0.017353
  24 H :    0.019983
  25 H :    0.029064
Sum of atomic charges:   -0.0000000

LOEWDIN ATOMIC CHARGES
----------------------
   0 C :   -0.024605
   1 C :   -0.004601
   2 C :   -0.022382
   3 C :   -0.002079
   4 C :   -0.058752
   5 C :    0.013577
   6 C :    0.086742
   7 O :   -0.133334
   8 C :   -0.055895
   9 C :   -0.005270
  10 C :   -0.021009
  11 C :   -0.001340
  12 C :   -0.025783
  13 C :    0.024613
  14 C :   -0.023214
  15 C :   -0.040226
  16 H :    0.030152
  17 H :    0.031104
  18 H :    0.027446
  19 H :    0.035606
  20 H :    0.028023
  21 H :    0.028556
  22 H :    0.033552
  23 H :    0.027617
  24 H :    0.022737
  25 H :    0.028765

  Mayer bond orders larger than 0.100000
B(  0-C ,  1-C ) :   1.3931 B(  0-C ,  5-C ) :   1.3200 B(  0-C , 16-H ) :   0.9852
B(  1-C ,  2-C ) :   1.3458 B(  1-C , 17-H ) :   0.9786 B(  2-C ,  3-C ) :   1.3875
B(  2-C , 18-H ) :   0.9916 B(  3-C ,  4-C ) :   1.3281 B(  3-C ,  9-C ) :   0.9770
B(  4-C ,  5-C ) :   1.3995 B(  4-C ,  6-C ) :   0.9185 B(  5-C , 19-H ) :   0.9978
B(  6-C ,  7-O ) :   2.2484 B(  6-C ,  8-C ) :   0.9054 B(  8-C ,  9-C ) :   1.3131
B(  8-C , 13-C ) :   1.4189 B(  9-C , 10-C ) :   1.3835 B( 10-C , 11-C ) :   1.3357
B( 10-C , 20-H ) :   0.9923 B( 11-C , 12-C ) :   1.3586 B( 11-C , 21-H ) :   0.9842
B( 12-C , 13-C ) :   1.2528 B( 12-C , 14-C ) :   1.0832 B( 13-C , 22-H ) :   0.9974
B( 14-C , 15-C ) :   1.9197 B( 14-C , 23-H ) :   0.9615 B( 15-C , 24-H ) :   0.9446
B( 15-C , 25-H ) :   0.9477

Dispersion correction           -0.058575313
FINAL SINGLE POINT ENERGY      -652.428395239378

DIPOLE MOMENT
-------------
                                X             Y             Z
Electronic contribution:      5.54060      -2.34484      -0.08504
Nuclear contribution   :     -5.53381       3.57664       0.05723
                        -----------------------------------------
Total Dipole Moment    :      0.00679       1.23180      -0.02781
                        -----------------------------------------
Magnitude (a.u.)       :      1.23213
Magnitude (Debye)      :      3.13182

Rotational constants in cm-1:     0.045685     0.011031     0.008886
Rotational constants in MHz :  1369.594482   330.707398   266.391230

                             ****ORCA TERMINATED NORMALLY****
TOTAL RUN TIME: 0 days 0 hours 14 minutes 37 seconds 694 msec
