                         Program Version 4.2.0 -  RELEASE  -
|  1> # ORCA input file
|  2> # SCF done        -37.766851601462          0.000652714938
|  3> ! B3LYP/G D3BJ Opt RIJCOSX def2-SVP def2/J
|  4> * xyz 0 1
|  5>    C       -1.58289        -1.08277         0.70357
|  6>    S       -2.64213         0.24880         0.65459
|  7>    C       -1.41473         1.30594         0.10631
|  8>    C       -0.21239         0.65689        -0.03728
|  9>    C       -0.30772        -0.73697         0.31035
| 10>    C        0.83995        -1.54770         0.21699
| 11>    C        2.04087        -1.03118        -0.19624
| 12>    C        3.18415        -1.99698        -0.25438
| 13>    O        3.04130        -3.15453         0.04499
| 14>    O        4.37319        -1.53725        -0.64888
| 15>    C        2.12595         0.36105        -0.53866
| 16>    O        3.33609         0.86527        -0.94921
| 17>    C        1.03383         1.17423        -0.46150
| 18>    H       -1.93813        -2.04422         1.01458
| 19>    H       -1.64092         2.33662        -0.07816
| 20>    H        0.79168        -2.59578         0.47030
| 21>    H        4.34214        -0.58820        -0.85797
| 22>    H        3.24669         1.80596        -1.14486
| 23>    H        1.10999         2.22120        -0.72308
| 24> *
| 25>
| 26>                          ****END OF INPUT****
 Total Charge           Charge          ....    0
 Multiplicity           Mult            ....    1
 Number of Electrons    NEL             ....  100
Dispersion correction           -0.043054272
FINAL SINGLE POINT ENERGY      -969.950380481979
Dispersion correction            ... done
Dispersion correction           -0.042948775
FINAL SINGLE POINT ENERGY      -969.952680550257
Dispersion correction            ... done
Dispersion correction           -0.042889298
FINAL SINGLE POINT ENERGY      -969.952791965754
Dispersion correction            ... done
FINAL SINGLE POINT ENERGY      -969.952810454497
FINAL SINGLE POINT ENERGY      -969.952788621013
FINAL SINGLE POINT ENERGY      -969.952812414586
Dispersion correction            ... done
Dispersion correction           -0.042910100
FINAL SINGLE POINT ENERGY      -969.952807258412
Dispersion correction            ... done
Dispersion correction           -0.042911393
FINAL SINGLE POINT ENERGY      -969.952809092155
Dispersion correction            ... done
                    ***********************HURRAY********************

CARTESIAN COORDINATES (ANGSTROEM)
---------------------------------
  C     -1.604456   -1.096430    0.702265
  S     -2.658620    0.249550    0.683621
  C     -1.439772    1.330065    0.135312
  C     -0.227573    0.674925   -0.037264
  C     -0.321622   -0.736463    0.296428
  C      0.835484   -1.556311    0.193813
  C      2.042869   -1.036098   -0.212123
  C      3.206437   -2.002459   -0.247865
  O      3.065061   -3.166920    0.032763
  O      4.406642   -1.520641   -0.589919
  C      2.116253    0.367933   -0.552109
  O      3.340095    0.830350   -0.959037
  C      1.027350    1.196741   -0.474655
  H     -1.952607   -2.077020    1.020647
  H     -1.670849    2.379010   -0.038246
  H      0.804265   -2.617316    0.446140
  H      4.345880   -0.573067   -0.813110
  H      3.294853    1.763475   -1.204890
  H      1.117229    2.251055   -0.750311

 Multiplicity           Mult            ....    1
 Number of Electrons    NEL             ....  100
 Basis Dimension        Dim             ....  216

ORBITAL ENERGIES
----------------

  NO   OCC          E(Eh)            E(eV)
   0   2.0000     -88.898944     -2419.0633
   1   2.0000     -19.206074      -522.6238
   2   2.0000     -19.158140      -521.3195
   3   2.0000     -19.102149      -519.7959
   4   2.0000     -10.308777      -280.5161
   5   2.0000     -10.278550      -279.6936
   6   2.0000     -10.228561      -278.3333
   7   2.0000     -10.222415      -278.1661
   8   2.0000     -10.217701      -278.0378
   9   2.0000     -10.214401      -277.9480
  10   2.0000     -10.213901      -277.9344
  11   2.0000     -10.213255      -277.9168
  12   2.0000     -10.209012      -277.8013
  13   2.0000      -7.993676      -217.5190
  14   2.0000      -5.961302      -162.2153
  15   2.0000      -5.957200      -162.1037
  16   2.0000      -5.956102      -162.0738
  17   2.0000      -1.093330       -29.7510
  18   2.0000      -1.072162       -29.1750
  19   2.0000      -0.992526       -27.0080
  20   2.0000      -0.905603       -24.6427
  21   2.0000      -0.845339       -23.0028
  22   2.0000      -0.780050       -21.2262
  23   2.0000      -0.754024       -20.5180
  24   2.0000      -0.715764       -19.4769
  25   2.0000      -0.662379       -18.0243
  26   2.0000      -0.629657       -17.1338
  27   2.0000      -0.602231       -16.3875
  28   2.0000      -0.592263       -16.1163
  29   2.0000      -0.555600       -15.1187
  30   2.0000      -0.545289       -14.8381
  31   2.0000      -0.520304       -14.1582
  32   2.0000      -0.472191       -12.8490
  33   2.0000      -0.457482       -12.4487
  34   2.0000      -0.455509       -12.3950
  35   2.0000      -0.443828       -12.0772
  36   2.0000      -0.429606       -11.6902
  37   2.0000      -0.426221       -11.5981
  38   2.0000      -0.422580       -11.4990
  39   2.0000      -0.417368       -11.3572
  40   2.0000      -0.409340       -11.1387
  41   2.0000      -0.372949       -10.1485
  42   2.0000      -0.365974        -9.9587
  43   2.0000      -0.351104        -9.5540
  44   2.0000      -0.337423        -9.1818
  45   2.0000      -0.305780        -8.3207
  46   2.0000      -0.297755        -8.1023
  47   2.0000      -0.268216        -7.2985
  48   2.0000      -0.257207        -6.9989
  49   2.0000      -0.218616        -5.9489
  50   0.0000      -0.079369        -2.1598
  51   0.0000      -0.018996        -0.5169
  52   0.0000       0.011440         0.3113
  53   0.0000       0.019801         0.5388
  54   0.0000       0.037601         1.0232

MULLIKEN ATOMIC CHARGES
-----------------------
   0 C :   -0.130641
   1 S :    0.152419
   2 C :   -0.153558
   3 C :    0.107692
   4 C :    0.118784
   5 C :   -0.043393
   6 C :   -0.092483
   7 C :    0.172026
   8 O :   -0.200529
   9 O :   -0.159981
  10 C :    0.171745
  11 O :   -0.232187
  12 C :   -0.069966
  13 H :    0.028450
  14 H :    0.018302
  15 H :   -0.000602
  16 H :    0.174392
  17 H :    0.192653
  18 H :   -0.053123
Sum of atomic charges:    0.0000000

LOEWDIN ATOMIC CHARGES
----------------------
   0 C :   -0.192769
   1 S :    0.494816
   2 C :   -0.220994
   3 C :   -0.039773
   4 C :   -0.061114
   5 C :    0.044729
   6 C :   -0.107752
   7 C :    0.079088
   8 O :   -0.176295
   9 O :   -0.031681
  10 C :    0.055060
  11 O :   -0.042617
  12 C :   -0.083412
  13 H :    0.030424
  14 H :    0.024910
  15 H :    0.041864
  16 H :    0.056844
  17 H :    0.103458
  18 H :    0.025215

  Mayer bond orders larger than 0.100000
B(  0-C ,  1-S ) :   1.2330 B(  0-C ,  2-C ) :   0.1147 B(  0-C ,  4-C ) :   1.3855
B(  0-C , 13-H ) :   0.9654 B(  1-S ,  2-C ) :   1.1882 B(  2-C ,  3-C ) :   1.4185
B(  2-C , 14-H ) :   0.9634 B(  3-C ,  4-C ) :   1.1938 B(  3-C , 12-C ) :   1.1661
B(  4-C ,  5-C ) :   1.1357 B(  5-C ,  6-C ) :   1.5650 B(  5-C , 15-H ) :   0.9930
B(  6-C ,  7-C ) :   0.8684 B(  6-C , 10-C ) :   1.1423 B(  7-C ,  8-O ) :   2.1287
B(  7-C ,  9-O ) :   1.2835 B(  9-O , 16-H ) :   0.9147 B( 10-C , 11-O ) :   1.0924
B( 10-C , 12-C ) :   1.5112 B( 11-O , 16-H ) :   0.1079 B( 11-O , 17-H ) :   0.9450
B( 12-C , 18-H ) :   0.9807

Dispersion correction           -0.042911689
FINAL SINGLE POINT ENERGY      -969.952807777419

DIPOLE MOMENT
-------------
                                X             Y             Z
Electronic contribution:     -2.13582      -1.31610       0.83303
Nuclear contribution   :      1.11713       3.51809      -1.12338
                        -----------------------------------------
Total Dipole Moment    :     -1.01869       2.20200      -0.29035
                        -----------------------------------------
Magnitude (a.u.)       :      2.44353
Magnitude (Debye)      :      6.21095

Rotational constants in cm-1:     0.057375     0.014153     0.011355
Rotational constants in MHz :  1720.045373   424.309016   340.409826

                             ****ORCA TERMINATED NORMALLY****
TOTAL RUN TIME: 0 days 0 hours 11 minutes 2 seconds 524 msec
