                         Program Version 4.2.0 -  RELEASE  -
|  1> # ORCA input file
|  2> # SCF done        -37.917628711629          0.000529628819
|  3> ! B3LYP/G D3BJ Opt RIJCOSX def2-SVP def2/J
|  4> * xyz 0 1
|  5>    C       -1.91727        -1.27995         0.47095
|  6>    S       -3.08315        -0.04421         0.26882
|  7>    C       -1.85253         1.14226        -0.03547
|  8>    C       -0.59631         0.57593         0.03294
|  9>    C       -0.64278        -0.82045         0.31556
| 10>    S        0.72581        -1.92908         0.46029
| 11>    C        2.01357        -1.01101        -0.46649
| 12>    C        2.52069         0.01465         0.50789
| 13>    O        3.54913        -0.10121         1.12026
| 14>    C        1.58124         1.19129         0.74295
| 15>    O        0.53125         1.32175        -0.18895
| 16>    C       -2.24679         2.50222        -0.30351
| 17>    C       -1.44676         3.47236        -0.73603
| 18>    H       -2.21945        -2.28426         0.68583
| 19>    H        1.56719        -0.57952        -1.36005
| 20>    H        2.78600        -1.73564        -0.71635
| 21>    H        2.16908         2.11170         0.66542
| 22>    H        1.19982         1.12588         1.77169
| 23>    H       -3.29692         2.69883        -0.12963
| 24>    H       -0.40463         3.30185        -0.93596
| 25>    H       -1.82234         4.46727        -0.89945
| 26> *
| 27>
| 28>                          ****END OF INPUT****
 Total Charge           Charge          ....    0
 Multiplicity           Mult            ....    1
 Number of Electrons    NEL             ....  110
Dispersion correction           -0.050785082
FINAL SINGLE POINT ENERGY     -1294.009828071901
Dispersion correction            ... done
Dispersion correction           -0.050348811
FINAL SINGLE POINT ENERGY     -1294.012861403798
Dispersion correction            ... done
Dispersion correction           -0.050234242
FINAL SINGLE POINT ENERGY     -1294.013212039481
Dispersion correction            ... done
FINAL SINGLE POINT ENERGY     -1294.013274057129
FINAL SINGLE POINT ENERGY     -1294.013192594430
FINAL SINGLE POINT ENERGY     -1294.013256784074
FINAL SINGLE POINT ENERGY     -1294.013287082081
Dispersion correction            ... done
Dispersion correction           -0.050226746
FINAL SINGLE POINT ENERGY     -1294.013301342628
Dispersion correction            ... done
Dispersion correction           -0.050225777
FINAL SINGLE POINT ENERGY     -1294.013303933832
Dispersion correction            ... done
                    ***********************HURRAY********************

CARTESIAN COORDINATES (ANGSTROEM)
---------------------------------
  C     -1.966631   -1.316983    0.413614
  S     -3.119651   -0.049809    0.217895
  C     -1.875326    1.138369   -0.066152
  C     -0.623662    0.542806   -0.009264
  C     -0.672033   -0.866633    0.279948
  S      0.701195   -1.950350    0.556987
  C      2.046523   -1.113007   -0.367731
  C      2.543019    0.057728    0.456918
  O      3.619655    0.069439    1.001133
  C      1.578643    1.231056    0.635143
  O      0.510225    1.243793   -0.293087
  C     -2.256201    2.523535   -0.295414
  C     -1.440545    3.550422   -0.587301
  H     -2.290110   -2.335037    0.621216
  H      1.689448   -0.811439   -1.362330
  H      2.854919   -1.850740   -0.454715
  H      2.155067    2.155048    0.477567
  H      1.210666    1.233801    1.677137
  H     -3.329442    2.723403   -0.198964
  H     -0.366018    3.412784   -0.711248
  H     -1.854893    4.552473   -0.720643

 Multiplicity           Mult            ....    1
 Number of Electrons    NEL             ....  110
 Basis Dimension        Dim             ....  230

ORBITAL ENERGIES
----------------

  NO   OCC          E(Eh)            E(eV)
   0   2.0000     -88.884877     -2418.6805
   1   2.0000     -88.869431     -2418.2602
   2   2.0000     -19.181105      -521.9444
   3   2.0000     -19.142238      -520.8868
   4   2.0000     -10.291651      -280.0501
   5   2.0000     -10.264471      -279.3105
   6   2.0000     -10.262819      -279.2655
   7   2.0000     -10.235791      -278.5300
   8   2.0000     -10.232411      -278.4381
   9   2.0000     -10.225993      -278.2634
  10   2.0000     -10.224821      -278.2315
  11   2.0000     -10.208657      -277.7917
  12   2.0000     -10.190630      -277.3011
  13   2.0000      -7.979897      -217.1440
  14   2.0000      -7.963605      -216.7007
  15   2.0000      -5.947957      -161.8521
  16   2.0000      -5.944222      -161.7505
  17   2.0000      -5.940961      -161.6618
  18   2.0000      -5.933002      -161.4452
  19   2.0000      -5.929204      -161.3418
  20   2.0000      -5.921964      -161.1448
  21   2.0000      -1.078234       -29.3402
  22   2.0000      -1.051131       -28.6027
  23   2.0000      -0.896214       -24.3872
  24   2.0000      -0.830388       -22.5960
  25   2.0000      -0.786069       -21.3900
  26   2.0000      -0.775726       -21.1086
  27   2.0000      -0.730909       -19.8891
  28   2.0000      -0.701272       -19.0826
  29   2.0000      -0.671763       -18.2796
  30   2.0000      -0.608638       -16.5619
  31   2.0000      -0.584758       -15.9121
  32   2.0000      -0.579720       -15.7750
  33   2.0000      -0.541292       -14.7293
  34   2.0000      -0.512324       -13.9410
  35   2.0000      -0.496638       -13.5142
  36   2.0000      -0.488184       -13.2842
  37   2.0000      -0.469798       -12.7839
  38   2.0000      -0.462399       -12.5825
  39   2.0000      -0.451683       -12.2909
  40   2.0000      -0.443412       -12.0658
  41   2.0000      -0.423970       -11.5368
  42   2.0000      -0.417188       -11.3522
  43   2.0000      -0.399763       -10.8781
  44   2.0000      -0.388535       -10.5726
  45   2.0000      -0.376622       -10.2484
  46   2.0000      -0.373725       -10.1696
  47   2.0000      -0.351708        -9.5705
  48   2.0000      -0.348898        -9.4940
  49   2.0000      -0.331040        -9.0081
  50   2.0000      -0.317983        -8.6528
  51   2.0000      -0.287257        -7.8167
  52   2.0000      -0.267967        -7.2917
  53   2.0000      -0.229020        -6.2320
  54   2.0000      -0.218414        -5.9434
  55   0.0000      -0.051783        -1.4091
  56   0.0000      -0.044608        -1.2138
  57   0.0000       0.005276         0.1436
  58   0.0000       0.020076         0.5463
  59   0.0000       0.036477         0.9926

MULLIKEN ATOMIC CHARGES
-----------------------
   0 C :   -0.115694
   1 S :    0.122793
   2 C :   -0.145265
   3 C :    0.177638
   4 C :   -0.047720
   5 S :    0.015218
   6 C :   -0.043120
   7 C :    0.003517
   8 O :   -0.184346
   9 C :    0.267890
  10 O :   -0.344150
  11 C :    0.017354
  12 C :   -0.021453
  13 H :    0.026578
  14 H :    0.080201
  15 H :    0.063900
  16 H :    0.043164
  17 H :    0.047016
  18 H :   -0.012864
  19 H :    0.029776
  20 H :    0.019567
Sum of atomic charges:    0.0000000

LOEWDIN ATOMIC CHARGES
----------------------
   0 C :   -0.212338
   1 S :    0.444073
   2 C :   -0.197427
   3 C :   -0.012096
   4 C :   -0.223498
   5 S :    0.312529
   6 C :   -0.153962
   7 C :    0.045329
   8 O :   -0.132380
   9 C :    0.062367
  10 O :   -0.108727
  11 C :   -0.045831
  12 C :   -0.045516
  13 H :    0.027016
  14 H :    0.040493
  15 H :    0.041126
  16 H :    0.042540
  17 H :    0.039081
  18 H :    0.028242
  19 H :    0.023563
  20 H :    0.025415

  Mayer bond orders larger than 0.100000
B(  0-C ,  1-S ) :   1.1603 B(  0-C ,  4-C ) :   1.5374 B(  0-C , 13-H ) :   0.9656
B(  1-S ,  2-C ) :   1.1273 B(  2-C ,  3-C ) :   1.5067 B(  2-C , 11-C ) :   1.1162
B(  3-C ,  4-C ) :   1.2224 B(  3-C , 10-O ) :   1.0871 B(  4-C ,  5-S ) :   0.9925
B(  5-S ,  6-C ) :   0.9973 B(  6-C ,  7-C ) :   0.9656 B(  6-C , 14-H ) :   0.9261
B(  6-C , 15-H ) :   0.9332 B(  7-C ,  8-O ) :   2.1716 B(  7-C ,  9-C ) :   0.9325
B(  9-C , 10-O ) :   0.9449 B(  9-C , 16-H ) :   0.9326 B(  9-C , 17-H ) :   0.9214
B( 11-C , 12-C ) :   1.9297 B( 11-C , 18-H ) :   0.9444 B( 12-C , 19-H ) :   0.9440
B( 12-C , 20-H ) :   0.9386

Dispersion correction           -0.050226178
FINAL SINGLE POINT ENERGY     -1294.013312039165

DIPOLE MOMENT
-------------
                                X             Y             Z
Electronic contribution:     -2.27741      -7.27643       1.81432
Nuclear contribution   :      1.72563       7.36102      -2.08707
                        -----------------------------------------
Total Dipole Moment    :     -0.55179       0.08460      -0.27276
                        -----------------------------------------
Magnitude (a.u.)       :      0.62131
Magnitude (Debye)      :      1.57923

Rotational constants in cm-1:     0.034529     0.016782     0.011737
Rotational constants in MHz :  1035.167143   503.111929   351.857664

                             ****ORCA TERMINATED NORMALLY****
TOTAL RUN TIME: 0 days 0 hours 18 minutes 18 seconds 876 msec
