                         Program Version 4.2.0 -  RELEASE  -
|  1> # ORCA input file
|  2> # SCF done        -38.454385593662          0.000721895793
|  3> ! B3LYP/G D3BJ Opt RIJCOSX def2-SVP def2/J
|  4> * xyz 0 1
|  5>    C        3.09184        -0.05156         0.05084
|  6>    O        2.28417        -1.12866         0.15010
|  7>    C        1.03032        -0.61387         0.07503
|  8>    C        1.16154         0.79496        -0.06917
|  9>    N        2.51084         1.08248        -0.07547
| 10>    C        0.06349         1.63051        -0.17567
| 11>    C       -1.16120         0.98416        -0.13100
| 12>    C       -1.26541        -0.42936         0.01423
| 13>    C       -0.18094        -1.27695         0.12240
| 14>    O       -2.58158        -0.73769         0.02040
| 15>    C       -3.22138         0.46297        -0.11787
| 16>    N       -2.43407         1.48609        -0.20839
| 17>    C       -4.66193         0.46720        -0.15012
| 18>    C       -5.37367         1.58138        -0.28170
| 19>    H        4.15179        -0.21294         0.08577
| 20>    H        0.15341         2.69634        -0.28491
| 21>    H       -0.26976        -2.34380         0.23178
| 22>    H       -5.12124        -0.50677        -0.05992
| 23>    H       -4.88262         2.53489        -0.36920
| 24>    H       -6.44905         1.56526        -0.30439
| 25> *
| 26>
| 27>                          ****END OF INPUT****
 Total Charge           Charge          ....    0
 Multiplicity           Mult            ....    1
 Number of Electrons    NEL             ....   96
Dispersion correction           -0.038849414
FINAL SINGLE POINT ENERGY      -644.169422492451
Dispersion correction            ... done
Dispersion correction           -0.038978523
FINAL SINGLE POINT ENERGY      -644.172565821831
Dispersion correction            ... done
Dispersion correction           -0.038972942
FINAL SINGLE POINT ENERGY      -644.172813688312
Dispersion correction            ... done
FINAL SINGLE POINT ENERGY      -644.172869285713
Dispersion correction            ... done
Dispersion correction           -0.038961606
FINAL SINGLE POINT ENERGY      -644.172872591023
Dispersion correction            ... done
Dispersion correction           -0.038963112
FINAL SINGLE POINT ENERGY      -644.172871494600
Dispersion correction            ... done
                    ***********************HURRAY********************

CARTESIAN COORDINATES (ANGSTROEM)
---------------------------------
  C      3.131439   -0.065563    0.072828
  O      2.290200   -1.140247    0.179007
  C      1.038803   -0.603676    0.081646
  C      1.195847    0.798233   -0.077596
  N      2.564749    1.080237   -0.076076
  C      0.090339    1.644011   -0.200829
  C     -1.153676    1.005545   -0.160260
  C     -1.257585   -0.404517   -0.000259
  C     -0.180234   -1.273702    0.123351
  O     -2.584281   -0.712389    0.005475
  C     -3.229792    0.498826   -0.147707
  N     -2.437819    1.521185   -0.249847
  C     -4.681669    0.461080   -0.165733
  C     -5.433158    1.567682   -0.246169
  H      4.196092   -0.291921    0.127411
  H      0.189520    2.722100   -0.325205
  H     -0.279504   -2.351433    0.246776
  H     -5.128125   -0.534549   -0.102707
  H     -4.962753    2.552492   -0.303249
  H     -6.523843    1.511247   -0.258116

 Multiplicity           Mult            ....    1
 Number of Electrons    NEL             ....   96
 Basis Dimension        Dim             ....  226

ORBITAL ENERGIES
----------------

  NO   OCC          E(Eh)            E(eV)
   0   2.0000     -19.218994      -522.9754
   1   2.0000     -19.216255      -522.9009
   2   2.0000     -14.336030      -390.1032
   3   2.0000     -14.330688      -389.9578
   4   2.0000     -10.290254      -280.0120
   5   2.0000     -10.289490      -279.9913
   6   2.0000     -10.263624      -279.2874
   7   2.0000     -10.263502      -279.2841
   8   2.0000     -10.230790      -278.3940
   9   2.0000     -10.230485      -278.3856
  10   2.0000     -10.219267      -278.0804
  11   2.0000     -10.216595      -278.0077
  12   2.0000     -10.211058      -277.8570
  13   2.0000     -10.208783      -277.7951
  14   2.0000      -1.133555       -30.8456
  15   2.0000      -1.130404       -30.7599
  16   2.0000      -0.932124       -25.3644
  17   2.0000      -0.927091       -25.2274
  18   2.0000      -0.863592       -23.4995
  19   2.0000      -0.803872       -21.8745
  20   2.0000      -0.762083       -20.7373
  21   2.0000      -0.747714       -20.3463
  22   2.0000      -0.684061       -18.6142
  23   2.0000      -0.638741       -17.3810
  24   2.0000      -0.621072       -16.9002
  25   2.0000      -0.608583       -16.5604
  26   2.0000      -0.571835       -15.5604
  27   2.0000      -0.564615       -15.3640
  28   2.0000      -0.538334       -14.6488
  29   2.0000      -0.496926       -13.5220
  30   2.0000      -0.496179       -13.5017
  31   2.0000      -0.483944       -13.1688
  32   2.0000      -0.482515       -13.1299
  33   2.0000      -0.470102       -12.7921
  34   2.0000      -0.464341       -12.6354
  35   2.0000      -0.440344       -11.9824
  36   2.0000      -0.432774       -11.7764
  37   2.0000      -0.409194       -11.1347
  38   2.0000      -0.384708       -10.4684
  39   2.0000      -0.375507       -10.2181
  40   2.0000      -0.368900       -10.0383
  41   2.0000      -0.356607        -9.7038
  42   2.0000      -0.339662        -9.2427
  43   2.0000      -0.301908        -8.2153
  44   2.0000      -0.301446        -8.2028
  45   2.0000      -0.297567        -8.0972
  46   2.0000      -0.247098        -6.7239
  47   2.0000      -0.234394        -6.3782
  48   0.0000      -0.070551        -1.9198
  49   0.0000      -0.031512        -0.8575
  50   0.0000       0.003144         0.0856
  51   0.0000       0.030606         0.8328
  52   0.0000       0.072440         1.9712

MULLIKEN ATOMIC CHARGES
-----------------------
   0 C :    0.179198
   1 O :   -0.221383
   2 C :    0.193626
   3 C :    0.024871
   4 N :   -0.097006
   5 C :   -0.090124
   6 C :    0.044020
   7 C :    0.208354
   8 C :   -0.136441
   9 O :   -0.230594
  10 C :    0.119163
  11 N :   -0.078157
  12 C :   -0.027556
  13 C :    0.016015
  14 H :    0.035924
  15 H :   -0.020875
  16 H :   -0.011969
  17 H :    0.008827
  18 H :    0.046545
  19 H :    0.037562
Sum of atomic charges:   -0.0000000

LOEWDIN ATOMIC CHARGES
----------------------
   0 C :    0.084798
   1 O :   -0.023353
   2 C :    0.033813
   3 C :   -0.035013
   4 N :   -0.101535
   5 C :   -0.016423
   6 C :   -0.029596
   7 C :    0.038587
   8 C :   -0.062516
   9 O :   -0.025050
  10 C :    0.063732
  11 N :   -0.108197
  12 C :   -0.049659
  13 C :    0.007887
  14 H :    0.027353
  15 H :    0.042890
  16 H :    0.044403
  17 H :    0.038878
  18 H :    0.036685
  19 H :    0.032318

  Mayer bond orders larger than 0.100000
B(  0-C ,  1-O ) :   1.1087 B(  0-C ,  4-N ) :   1.7793 B(  0-C , 14-H ) :   0.9781
B(  1-O ,  2-C ) :   1.0964 B(  2-C ,  3-C ) :   1.2781 B(  2-C ,  8-C ) :   1.3051
B(  3-C ,  4-N ) :   1.2643 B(  3-C ,  5-C ) :   1.2853 B(  5-C ,  6-C ) :   1.2772
B(  5-C ,  8-C ) :   0.1562 B(  5-C , 15-H ) :   1.0455 B(  6-C ,  7-C ) :   1.2532
B(  6-C , 11-N ) :   1.2725 B(  7-C ,  8-C ) :   1.3122 B(  7-C ,  9-O ) :   1.0934
B(  8-C , 16-H ) :   1.0377 B(  9-O , 10-C ) :   1.0934 B( 10-C , 11-N ) :   1.7317
B( 10-C , 12-C ) :   1.1012 B( 12-C , 13-C ) :   1.9187 B( 12-C , 17-H ) :   0.9477
B( 13-C , 18-H ) :   0.9474 B( 13-C , 19-H ) :   0.9439

Dispersion correction           -0.038964637
FINAL SINGLE POINT ENERGY      -644.172872207503

DIPOLE MOMENT
-------------
                                X             Y             Z
Electronic contribution:      7.03730      -2.42846       0.32874
Nuclear contribution   :     -7.43250       1.72699      -0.24447
                        -----------------------------------------
Total Dipole Moment    :     -0.39519      -0.70146       0.08427
                        -----------------------------------------
Magnitude (a.u.)       :      0.80953
Magnitude (Debye)      :      2.05765

Rotational constants in cm-1:     0.094472     0.012770     0.011250
Rotational constants in MHz :  2832.184536   382.820968   337.266595

                             ****ORCA TERMINATED NORMALLY****
TOTAL RUN TIME: 0 days 0 hours 8 minutes 54 seconds 68 msec
