                         Program Version 4.2.0 -  RELEASE  -
|  1> # ORCA input file
|  2> # SCF done        -16.354933014469          0.000171377482
|  3> ! B3LYP/G D3BJ Opt RIJCOSX def2-SVP def2/J
|  4> * xyz 0 2
|  5>    C       -0.49982        -1.07805         0.15003
|  6>    C       -1.00673         0.19742         0.02672
|  7>    C        0.23456         0.88918         0.11444
|  8>    S        1.21737        -0.52896         0.29417
|  9>    C       -2.35650         0.66256        -0.13706
| 10>    C       -2.70108         1.94308        -0.24467
| 11>    H       -0.88033        -2.07614         0.16727
| 12>    H        0.54821         1.91110         0.08914
| 13>    H       -3.10800        -0.11583        -0.16964
| 14>    H       -1.96700         2.73022        -0.21470
| 15>    H       -3.72642         2.24481        -0.36620
| 16> *
| 17>
| 18>                          ****END OF INPUT****
 Total Charge           Charge          ....    0
 Multiplicity           Mult            ....    2
 Number of Electrons    NEL             ....   51
Dispersion correction           -0.017864489
FINAL SINGLE POINT ENERGY      -591.376654204122
Dispersion correction            ... done
Dispersion correction           -0.017799675
FINAL SINGLE POINT ENERGY      -591.379343355489
Dispersion correction            ... done
Dispersion correction           -0.017786092
FINAL SINGLE POINT ENERGY      -591.379752014620
Dispersion correction            ... done
FINAL SINGLE POINT ENERGY      -591.379883323969
FINAL SINGLE POINT ENERGY      -591.379895027360
Dispersion correction            ... done
Dispersion correction           -0.017787723
FINAL SINGLE POINT ENERGY      -591.379925860675
Dispersion correction            ... done
Dispersion correction           -0.017787015
FINAL SINGLE POINT ENERGY      -591.379926036395
Dispersion correction            ... done
                    ***********************HURRAY********************

CARTESIAN COORDINATES (ANGSTROEM)
---------------------------------
  C     -0.475693   -1.090348    0.156089
  C     -0.981960    0.212052    0.027452
  C      0.261017    0.887246    0.114756
  S      1.251066   -0.599595    0.306077
  C     -2.346843    0.678367   -0.139507
  C     -2.734149    1.960351   -0.244857
  H     -0.905277   -2.091476    0.170352
  H      0.589727    1.925132    0.081482
  H     -3.103501   -0.113465   -0.179815
  H     -2.014706    2.783640   -0.210551
  H     -3.785422    2.227486   -0.371978

 Multiplicity           Mult            ....    2
 Number of Electrons    NEL             ....   51
 Basis Dimension        Dim             ....  113

ORBITAL ENERGIES
----------------
                 SPIN UP ORBITALS
  NO   OCC          E(Eh)            E(eV)
   0   1.0000     -88.858343     -2417.9584
   1   1.0000     -10.234529      -278.4957
   2   1.0000     -10.232900      -278.4514
   3   1.0000     -10.203843      -277.6607
   4   1.0000     -10.201137      -277.5870
   5   1.0000     -10.188155      -277.2338
   6   1.0000      -7.953341      -216.4214
   7   1.0000      -5.921941      -161.1442
   8   1.0000      -5.918882      -161.0610
   9   1.0000      -5.912396      -160.8845
  10   1.0000      -0.888429       -24.1754
  11   1.0000      -0.773700       -21.0534
  12   1.0000      -0.677997       -18.4492
  13   1.0000      -0.664863       -18.0918
  14   1.0000      -0.582369       -15.8471
  15   1.0000      -0.536019       -14.5858
  16   1.0000      -0.491735       -13.3808
  17   1.0000      -0.455587       -12.3971
  18   1.0000      -0.406338       -11.0570
  19   1.0000      -0.399780       -10.8786
  20   1.0000      -0.383276       -10.4295
  21   1.0000      -0.373507       -10.1636
  22   1.0000      -0.332385        -9.0447
  23   1.0000      -0.293895        -7.9973
  24   1.0000      -0.221384        -6.0242
  25   1.0000      -0.209632        -5.7044
  26   0.0000      -0.033871        -0.9217
  27   0.0000      -0.000301        -0.0082
  28   0.0000       0.064568         1.7570
  29   0.0000       0.085464         2.3256
  30   0.0000       0.094628         2.5750

                 SPIN DOWN ORBITALS
  NO   OCC          E(Eh)            E(eV)
   0   1.0000     -88.858535     -2417.9637
   1   1.0000     -10.223976      -278.2085
   2   1.0000     -10.223600      -278.1983
   3   1.0000     -10.207113      -277.7497
   4   1.0000     -10.200199      -277.5615
   5   1.0000     -10.189590      -277.2728
   6   1.0000      -7.953528      -216.4265
   7   1.0000      -5.922537      -161.1604
   8   1.0000      -5.919352      -161.0737
   9   1.0000      -5.912155      -160.8779
  10   1.0000      -0.878021       -23.8922
  11   1.0000      -0.774021       -21.0622
  12   1.0000      -0.677934       -18.4475
  13   1.0000      -0.640853       -17.4385
  14   1.0000      -0.580996       -15.8097
  15   1.0000      -0.524634       -14.2760
  16   1.0000      -0.491187       -13.3659
  17   1.0000      -0.454500       -12.3676
  18   1.0000      -0.403410       -10.9773
  19   1.0000      -0.379669       -10.3313
  20   1.0000      -0.372126       -10.1261
  21   1.0000      -0.370308       -10.0766
  22   1.0000      -0.329397        -8.9633
  23   1.0000      -0.291551        -7.9335
  24   1.0000      -0.207510        -5.6466
  25   0.0000      -0.094075        -2.5599
  26   0.0000      -0.019048        -0.5183
  27   0.0000       0.009539         0.2596
  28   0.0000       0.068943         1.8760
  29   0.0000       0.087325         2.3762

MULLIKEN ATOMIC CHARGES AND SPIN POPULATIONS
--------------------------------------------
   0 C :   -0.059551    0.658887
   1 C :    0.051898   -0.263565
   2 C :   -0.061610    0.742176
   3 S :    0.006100   -0.048716
   4 C :    0.028325    0.074119
   5 C :   -0.036667   -0.109458
   6 H :    0.023008   -0.028250
   7 H :    0.026006   -0.031108
   8 H :   -0.011626   -0.003766
   9 H :    0.011571    0.004496
  10 H :    0.022546    0.005186
Sum of atomic charges         :    0.0000000

LOEWDIN ATOMIC CHARGES AND SPIN POPULATIONS
-------------------------------------------
   0 C :   -0.090754    0.557851
   1 C :   -0.117460   -0.137298
   2 C :   -0.084640    0.630307
   3 S :    0.266167   -0.006659
   4 C :   -0.031987    0.044921
   5 C :   -0.054128   -0.087583
   6 H :    0.018104   -0.000628
   7 H :    0.017544   -0.000561
   8 H :    0.031257   -0.000844
   9 H :    0.020383    0.000212
  10 H :    0.025514    0.000281

  Mayer bond orders larger than 0.100000
B(  0-C ,  1-C ) :   1.3230 B(  0-C ,  2-C ) :   0.1072 B(  0-C ,  3-S ) :   1.0062
B(  0-C ,  6-H ) :   0.9892 B(  1-C ,  2-C ) :   1.2482 B(  1-C ,  3-S ) :   0.1134
B(  1-C ,  4-C ) :   1.1234 B(  2-C ,  3-S ) :   1.0226 B(  2-C ,  7-H ) :   0.9878
B(  4-C ,  5-C ) :   1.9146 B(  4-C ,  8-H ) :   0.9550 B(  5-C ,  9-H ) :   0.9544
B(  5-C , 10-H ) :   0.9474

Dispersion correction           -0.017785777
FINAL SINGLE POINT ENERGY      -591.379925260492

DIPOLE MOMENT
-------------
                                X             Y             Z
Electronic contribution:      6.28987      -3.57099       0.84973
Nuclear contribution   :     -6.54608       3.62377      -0.88438
                        -----------------------------------------
Total Dipole Moment    :     -0.25621       0.05278      -0.03465
                        -----------------------------------------
Magnitude (a.u.)       :      0.26387
Magnitude (Debye)      :      0.67071

Rotational constants in cm-1:     0.361456     0.057557     0.049651
Rotational constants in MHz : 10836.193099  1725.502354  1488.492486

                             ****ORCA TERMINATED NORMALLY****
TOTAL RUN TIME: 0 days 0 hours 3 minutes 27 seconds 133 msec
