                         Program Version 4.2.0 -  RELEASE  -
|  1> # ORCA input file
|  2> # SCF done        -47.998715330499          0.000825905789
|  3> ! B3LYP/G D3BJ Opt RIJCOSX def2-SVP def2/J
|  4> * xyz 0 1
|  5>    C        2.60319        -1.01082        -0.13145
|  6>    C        1.23599        -0.76695        -0.10581
|  7>    N        0.18339        -1.65252        -0.15497
|  8>    C        0.34863        -3.07657        -0.02904
|  9>    C        0.45842        -3.50555         1.43840
| 10>    C        0.62231        -5.01378         1.56207
| 11>    C       -0.99396        -0.93806        -0.06820
| 12>    C       -0.68927         0.44390         0.01199
| 13>    C        0.73964         0.55404        -0.02943
| 14>    C        1.61588         1.63093         0.00609
| 15>    C        2.97240         1.38011        -0.02839
| 16>    C        3.45610         0.07499        -0.09302
| 17>    C       -1.69432         1.39371         0.13657
| 18>    C       -3.00147         0.96034         0.20198
| 19>    C       -3.30153        -0.39469         0.11777
| 20>    C       -2.32435        -1.37051        -0.04011
| 21>    C       -2.75205        -2.76995        -0.19660
| 22>    C       -3.49135        -3.41397         0.69090
| 23>    H        3.00071        -2.01372        -0.17731
| 24>    H        1.25311        -3.36745        -0.57120
| 25>    H       -0.49822        -3.58357        -0.48971
| 26>    H       -0.44493        -3.18756         1.96366
| 27>    H        1.30972        -2.99765         1.89681
| 28>    H       -0.23417        -5.52551         1.12894
| 29>    H        0.70275        -5.30355         2.60640
| 30>    H        1.51942        -5.34629         1.04391
| 31>    H        1.23906         2.64137         0.05964
| 32>    H        3.67290         2.20164        -0.00227
| 33>    H        4.52340        -0.09181        -0.11110
| 34>    H       -1.44921         2.44356         0.18977
| 35>    H       -3.80513         1.67303         0.31225
| 36>    H       -4.33414        -0.71086         0.15144
| 37>    H       -2.47859        -3.25151        -1.12830
| 38>    H       -3.78065        -2.95262         1.62031
| 39>    H       -3.82534        -4.42546         0.53208
| 40> *
| 41>
| 42>                          ****END OF INPUT****
 Total Charge           Charge          ....    0
 Multiplicity           Mult            ....    1
 Number of Electrons    NEL             ....  126
Dispersion correction           -0.077139264
FINAL SINGLE POINT ENERGY      -712.368396219007
Dispersion correction            ... done
Dispersion correction           -0.076535271
FINAL SINGLE POINT ENERGY      -712.373722407405
Dispersion correction            ... done
Dispersion correction           -0.076432164
FINAL SINGLE POINT ENERGY      -712.373997704248
Dispersion correction            ... done
FINAL SINGLE POINT ENERGY      -712.374072414166
FINAL SINGLE POINT ENERGY      -712.374068184552
FINAL SINGLE POINT ENERGY      -712.373963019621
FINAL SINGLE POINT ENERGY      -712.373965125256
FINAL SINGLE POINT ENERGY      -712.374006999681
FINAL SINGLE POINT ENERGY      -712.374134757887
FINAL SINGLE POINT ENERGY      -712.374175732342
FINAL SINGLE POINT ENERGY      -712.374185736686
FINAL SINGLE POINT ENERGY      -712.374208980274
Dispersion correction            ... done
Dispersion correction           -0.076882341
FINAL SINGLE POINT ENERGY      -712.374224457088
Dispersion correction            ... done
Dispersion correction           -0.076876991
FINAL SINGLE POINT ENERGY      -712.374239817789
Dispersion correction            ... done
                    ***********************HURRAY********************

CARTESIAN COORDINATES (ANGSTROEM)
---------------------------------
  C      2.697604   -0.906890   -0.078520
  C      1.312702   -0.697557   -0.080227
  N      0.273658   -1.623381   -0.094718
  C      0.484354   -3.056774   -0.034791
  C      0.365644   -3.637770    1.375095
  C      0.444099   -5.160548    1.374702
  C     -0.943341   -0.940446   -0.039114
  C     -0.668904    0.461265   -0.027053
  C      0.768792    0.614053   -0.056281
  C      1.621393    1.724962   -0.047173
  C      2.999734    1.519596   -0.054242
  C      3.526934    0.214847   -0.066813
  C     -1.706810    1.395728    0.036817
  C     -3.018794    0.936068    0.106102
  C     -3.283718   -0.439937    0.117770
  C     -2.274877   -1.417409    0.049665
  C     -2.662159   -2.843653    0.097882
  C     -3.602237   -3.344626    0.911954
  H      3.126353   -1.910104   -0.077270
  H      1.482675   -3.263894   -0.447113
  H     -0.218103   -3.554468   -0.715756
  H     -0.590007   -3.312111    1.814324
  H      1.161339   -3.205823    2.004088
  H     -0.389321   -5.600986    0.803599
  H      0.393180   -5.565729    2.396220
  H      1.380895   -5.521751    0.917347
  H      1.208203    2.736419   -0.029665
  H      3.677775    2.375442   -0.044101
  H      4.610722    0.072489   -0.062678
  H     -1.483175    2.465569    0.036590
  H     -3.849885    1.642979    0.148247
  H     -4.319454   -0.783579    0.157308
  H     -2.165763   -3.528471   -0.595092
  H     -4.116662   -2.717021    1.645064
  H     -3.884504   -4.399801    0.871904

 Multiplicity           Mult            ....    1
 Number of Electrons    NEL             ....  126
 Basis Dimension        Dim             ....  337

ORBITAL ENERGIES
----------------

  NO   OCC          E(Eh)            E(eV)
   0   2.0000     -14.370763      -391.0483
   1   2.0000     -10.232210      -278.4326
   2   2.0000     -10.226766      -278.2845
   3   2.0000     -10.222005      -278.1549
   4   2.0000     -10.200545      -277.5709
   5   2.0000     -10.199100      -277.5316
   6   2.0000     -10.190853      -277.3072
   7   2.0000     -10.190273      -277.2914
   8   2.0000     -10.190115      -277.2871
   9   2.0000     -10.189172      -277.2615
  10   2.0000     -10.188982      -277.2563
  11   2.0000     -10.188656      -277.2474
  12   2.0000     -10.188515      -277.2436
  13   2.0000     -10.186965      -277.2014
  14   2.0000     -10.186220      -277.1811
  15   2.0000     -10.184244      -277.1274
  16   2.0000     -10.182102      -277.0691
  17   2.0000     -10.181796      -277.0607
  18   2.0000      -0.979838       -26.6627
  19   2.0000      -0.847562       -23.0633
  20   2.0000      -0.841649       -22.9024
  21   2.0000      -0.801547       -21.8112
  22   2.0000      -0.782431       -21.2910
  23   2.0000      -0.758284       -20.6340
  24   2.0000      -0.736328       -20.0365
  25   2.0000      -0.723812       -19.6959
  26   2.0000      -0.706015       -19.2117
  27   2.0000      -0.680174       -18.5085
  28   2.0000      -0.632047       -17.1989
  29   2.0000      -0.607249       -16.5241
  30   2.0000      -0.602611       -16.3979
  31   2.0000      -0.594571       -16.1791
  32   2.0000      -0.574376       -15.6296
  33   2.0000      -0.549784       -14.9604
  34   2.0000      -0.519798       -14.1444
  35   2.0000      -0.515048       -14.0152
  36   2.0000      -0.493486       -13.4284
  37   2.0000      -0.479052       -13.0357
  38   2.0000      -0.467543       -12.7225
  39   2.0000      -0.454312       -12.3625
  40   2.0000      -0.453461       -12.3393
  41   2.0000      -0.445936       -12.1345
  42   2.0000      -0.436696       -11.8831
  43   2.0000      -0.434399       -11.8206
  44   2.0000      -0.421585       -11.4719
  45   2.0000      -0.417011       -11.3474
  46   2.0000      -0.410426       -11.1683
  47   2.0000      -0.393716       -10.7136
  48   2.0000      -0.385315       -10.4849
  49   2.0000      -0.376086       -10.2338
  50   2.0000      -0.365726        -9.9519
  51   2.0000      -0.364481        -9.9180
  52   2.0000      -0.360477        -9.8091
  53   2.0000      -0.354511        -9.6467
  54   2.0000      -0.344337        -9.3699
  55   2.0000      -0.338228        -9.2037
  56   2.0000      -0.335231        -9.1221
  57   2.0000      -0.317491        -8.6394
  58   2.0000      -0.298567        -8.1244
  59   2.0000      -0.272039        -7.4026
  60   2.0000      -0.247451        -6.7335
  61   2.0000      -0.217164        -5.9093
  62   2.0000      -0.201702        -5.4886
  63   0.0000      -0.041525        -1.1299
  64   0.0000      -0.016814        -0.4575
  65   0.0000       0.011891         0.3236
  66   0.0000       0.021096         0.5741
  67   0.0000       0.043305         1.1784

MULLIKEN ATOMIC CHARGES
-----------------------
   0 C :   -0.066257
   1 C :    0.131495
   2 N :   -0.216091
   3 C :    0.143273
   4 C :   -0.007774
   5 C :    0.009570
   6 C :    0.106004
   7 C :    0.067015
   8 C :    0.069942
   9 C :   -0.048532
  10 C :    0.027673
  11 C :    0.006377
  12 C :   -0.056750
  13 C :    0.029193
  14 C :   -0.048681
  15 C :    0.031027
  16 C :   -0.064515
  17 C :   -0.022217
  18 H :   -0.045675
  19 H :    0.005672
  20 H :    0.003102
  21 H :    0.022076
  22 H :    0.009931
  23 H :    0.007316
  24 H :    0.015222
  25 H :    0.004064
  26 H :   -0.037518
  27 H :   -0.023845
  28 H :   -0.016125
  29 H :   -0.031105
  30 H :   -0.023627
  31 H :   -0.029134
  32 H :    0.005613
  33 H :    0.023500
  34 H :    0.019781
Sum of atomic charges:    0.0000000

LOEWDIN ATOMIC CHARGES
----------------------
   0 C :   -0.061816
   1 C :    0.030373
   2 N :    0.014698
   3 C :    0.046434
   4 C :   -0.044082
   5 C :   -0.052001
   6 C :    0.036373
   7 C :   -0.040367
   8 C :   -0.043159
   9 C :   -0.015264
  10 C :   -0.047874
  11 C :   -0.025026
  12 C :   -0.016522
  13 C :   -0.047326
  14 C :   -0.017220
  15 C :   -0.057342
  16 C :   -0.023418
  17 C :   -0.047894
  18 H :    0.022262
  19 H :    0.025049
  20 H :    0.019468
  21 H :    0.026077
  22 H :    0.024367
  23 H :    0.021422
  24 H :    0.027191
  25 H :    0.020142
  26 H :    0.025047
  27 H :    0.024523
  28 H :    0.026405
  29 H :    0.026534
  30 H :    0.025730
  31 H :    0.025315
  32 H :    0.024599
  33 H :    0.023549
  34 H :    0.023752

  Mayer bond orders larger than 0.100000
B(  0-C ,  1-C ) :   1.3048 B(  0-C , 11-C ) :   1.3891 B(  0-C , 18-H ) :   0.9964
B(  1-C ,  2-N ) :   1.1077 B(  1-C ,  8-C ) :   1.2774 B(  2-N ,  3-C ) :   0.9732
B(  2-N ,  6-C ) :   1.1238 B(  3-C ,  4-C ) :   1.0785 B(  3-C , 19-H ) :   0.9296
B(  3-C , 20-H ) :   0.9411 B(  4-C ,  5-C ) :   1.1052 B(  4-C , 21-H ) :   0.9376
B(  4-C , 22-H ) :   0.9352 B(  5-C , 23-H ) :   0.9685 B(  5-C , 24-H ) :   0.9655
B(  5-C , 25-H ) :   0.9701 B(  6-C ,  7-C ) :   1.2692 B(  6-C , 15-C ) :   1.3000
B(  7-C ,  8-C ) :   1.1023 B(  7-C , 12-C ) :   1.3275 B(  8-C ,  9-C ) :   1.3293
B(  9-C , 10-C ) :   1.3971 B(  9-C , 26-H ) :   0.9910 B( 10-C , 11-C ) :   1.3391
B( 10-C , 27-H ) :   0.9814 B( 11-C , 28-H ) :   0.9796 B( 12-C , 13-C ) :   1.3713
B( 12-C , 29-H ) :   0.9938 B( 13-C , 14-C ) :   1.3281 B( 13-C , 30-H ) :   0.9812
B( 14-C , 15-C ) :   1.3882 B( 14-C , 31-H ) :   0.9864 B( 15-C , 16-C ) :   1.0167
B( 16-C , 17-C ) :   1.9609 B( 16-C , 32-H ) :   0.9512 B( 17-C , 33-H ) :   0.9526
B( 17-C , 34-H ) :   0.9460

Dispersion correction           -0.076874132
FINAL SINGLE POINT ENERGY      -712.374245462430

DIPOLE MOMENT
-------------
                                X             Y             Z
Electronic contribution:      0.60321      14.70145      -4.73606
Nuclear contribution   :     -0.50860     -15.41737       4.84412
                        -----------------------------------------
Total Dipole Moment    :      0.09462      -0.71592       0.10806
                        -----------------------------------------
Magnitude (a.u.)       :      0.73018
Magnitude (Debye)      :      1.85598

Rotational constants in cm-1:     0.019247     0.012839     0.007953
Rotational constants in MHz :   577.021391   384.911888   238.430316

                             ****ORCA TERMINATED NORMALLY****
TOTAL RUN TIME: 0 days 0 hours 48 minutes 53 seconds 522 msec
