                         Program Version 4.2.0 -  RELEASE  -
|  1> # ORCA input file
|  2> # SCF done        -50.470081900635          0.000406905258
|  3> ! B3LYP/G D3BJ Opt RIJCOSX def2-SVP def2/J
|  4> * xyz 0 1
|  5>    C        1.39319         0.83001        -1.08566
|  6>    C        1.85761        -0.28765        -0.18455
|  7>    C        2.58608         0.44546         0.98814
|  8>    C        2.36458         1.96612         1.05684
|  9>    C        1.70016         2.47684         2.09043
| 10>    O        2.94871         2.89262         0.20927
| 11>    C        2.84086         2.85476        -1.23292
| 12>    C        2.75664         1.38064        -1.55770
| 13>    C        3.06025         0.56149        -2.76984
| 14>    C        3.01423        -0.73490        -2.47514
| 15>    C        2.74763        -1.23916        -1.06161
| 16>    C        2.12131        -2.63319        -1.12829
| 17>    C        4.06976         3.54873        -1.81143
| 18>    C        4.15692         5.01146        -1.38548
| 19>    C        5.36307         5.71414        -2.01546
| 20>    C        5.23178         5.80494        -3.50204
| 21>    C        6.09572         5.30887        -4.36730
| 22>    H        0.80029         1.56383        -0.53979
| 23>    H        0.80015         0.47866        -1.93111
| 24>    H        1.02521        -0.86583         0.22314
| 25>    H        3.66173         0.25042         0.97006
| 26>    H        2.21805         0.04790         1.93436
| 27>    H        1.31219         1.86106         2.88021
| 28>    H        1.55980         3.53922         2.18200
| 29>    H        1.93362         3.40695        -1.52253
| 30>    H        3.53081         1.01238        -0.87848
| 31>    H        3.25378         0.96331        -3.74991
| 32>    H        3.17931        -1.49751        -3.22105
| 33>    H        3.72699        -1.34389        -0.57398
| 34>    H        1.14891        -2.58719        -1.61429
| 35>    H        1.99039        -3.04225        -0.12881
| 36>    H        2.75610        -3.31209        -1.69364
| 37>    H        4.96415         3.01845        -1.47831
| 38>    H        4.01943         3.48252        -2.90022
| 39>    H        4.22926         5.05538        -0.29830
| 40>    H        3.24122         5.52862        -1.68178
| 41>    H        6.27907         5.18101        -1.75445
| 42>    H        5.43027         6.72655        -1.60611
| 43>    H        4.34430         6.31706        -3.85308
| 44>    H        6.98482         4.79115        -4.04548
| 45>    H        5.95736         5.39852        -5.43167
| 46> *
| 47>
| 48>                          ****END OF INPUT****
 Total Charge           Charge          ....    0
 Multiplicity           Mult            ....    1
 Number of Electrons    NEL             ....  128
Dispersion correction           -0.081107217
FINAL SINGLE POINT ENERGY      -698.828285165937
Dispersion correction            ... done
Dispersion correction           -0.080026730
FINAL SINGLE POINT ENERGY      -698.833953957608
Dispersion correction            ... done
Dispersion correction           -0.079862353
FINAL SINGLE POINT ENERGY      -698.834331241135
Dispersion correction            ... done
FINAL SINGLE POINT ENERGY      -698.834255529375
FINAL SINGLE POINT ENERGY      -698.834178561448
FINAL SINGLE POINT ENERGY      -698.834113942676
FINAL SINGLE POINT ENERGY      -698.834103370606
Dispersion correction            ... done
Dispersion correction           -0.079963491
FINAL SINGLE POINT ENERGY      -698.834083531261
Dispersion correction            ... done
Dispersion correction           -0.079956815
FINAL SINGLE POINT ENERGY      -698.834081258170
Dispersion correction            ... done
                    ***********************HURRAY********************

CARTESIAN COORDINATES (ANGSTROEM)
---------------------------------
  C      1.361876    0.794773   -1.141240
  C      1.819303   -0.291911   -0.192649
  C      2.499304    0.479325    1.006469
  C      2.284402    2.009767    1.080689
  C      1.599021    2.546460    2.102946
  O      2.909755    2.900825    0.218892
  C      2.834354    2.855219   -1.239766
  C      2.731073    1.381129   -1.563022
  C      3.206023    0.538227   -2.716546
  C      3.200885   -0.767424   -2.393138
  C      2.768667   -1.278790   -1.006407
  C      2.123666   -2.664667   -1.147752
  C      4.077960    3.529591   -1.792919
  C      4.294161    4.971885   -1.336312
  C      5.497936    5.639314   -2.029249
  C      5.236394    5.954804   -3.475161
  C      5.840717    5.391268   -4.524900
  H      0.721225    1.525520   -0.628145
  H      0.810624    0.413532   -2.012715
  H      0.977193   -0.881471    0.203213
  H      3.584176    0.284396    1.017784
  H      2.110239    0.078218    1.952675
  H      1.176795    1.915164    2.885485
  H      1.477151    3.628323    2.185376
  H      1.933020    3.421065   -1.544584
  H      3.456146    1.046376   -0.815780
  H      3.504040    0.913606   -3.699012
  H      3.496765   -1.528786   -3.121559
  H      3.694446   -1.408925   -0.413188
  H      1.187891   -2.604278   -1.727303
  H      1.882534   -3.097033   -0.164352
  H      2.793484   -3.364742   -1.672010
  H      4.958404    2.920435   -1.519169
  H      4.007256    3.498435   -2.893946
  H      4.433849    4.986142   -0.244437
  H      3.383514    5.564987   -1.539910
  H      6.384980    4.988969   -1.938936
  H      5.740802    6.576220   -1.497117
  H      4.452681    6.702633   -3.662113
  H      6.623727    4.636046   -4.396344
  H      5.579271    5.670782   -5.549810

 Multiplicity           Mult            ....    1
 Number of Electrons    NEL             ....  128
 Basis Dimension        Dim             ....  358

ORBITAL ENERGIES
----------------

  NO   OCC          E(Eh)            E(eV)
   0   2.0000     -19.139926      -520.8239
   1   2.0000     -10.242002      -278.6990
   2   2.0000     -10.240486      -278.6578
   3   2.0000     -10.198658      -277.5196
   4   2.0000     -10.194850      -277.4160
   5   2.0000     -10.192957      -277.3645
   6   2.0000     -10.189819      -277.2791
   7   2.0000     -10.188842      -277.2525
   8   2.0000     -10.187047      -277.2037
   9   2.0000     -10.183682      -277.1121
  10   2.0000     -10.182951      -277.0922
  11   2.0000     -10.182740      -277.0864
  12   2.0000     -10.182037      -277.0673
  13   2.0000     -10.181790      -277.0606
  14   2.0000     -10.181436      -277.0510
  15   2.0000     -10.178142      -276.9613
  16   2.0000     -10.165935      -276.6291
  17   2.0000      -1.025681       -27.9102
  18   2.0000      -0.852669       -23.2023
  19   2.0000      -0.811842       -22.0914
  20   2.0000      -0.790159       -21.5013
  21   2.0000      -0.765225       -20.8228
  22   2.0000      -0.751472       -20.4486
  23   2.0000      -0.736619       -20.0444
  24   2.0000      -0.701931       -19.1005
  25   2.0000      -0.678704       -18.4685
  26   2.0000      -0.656487       -17.8639
  27   2.0000      -0.624338       -16.9891
  28   2.0000      -0.599250       -16.3064
  29   2.0000      -0.588016       -16.0007
  30   2.0000      -0.582185       -15.8420
  31   2.0000      -0.546726       -14.8772
  32   2.0000      -0.532977       -14.5031
  33   2.0000      -0.519545       -14.1375
  34   2.0000      -0.489694       -13.3252
  35   2.0000      -0.484214       -13.1761
  36   2.0000      -0.472357       -12.8535
  37   2.0000      -0.462611       -12.5883
  38   2.0000      -0.452235       -12.3059
  39   2.0000      -0.448667       -12.2088
  40   2.0000      -0.445653       -12.1268
  41   2.0000      -0.436342       -11.8735
  42   2.0000      -0.422923       -11.5083
  43   2.0000      -0.410907       -11.1814
  44   2.0000      -0.405634       -11.0379
  45   2.0000      -0.395288       -10.7563
  46   2.0000      -0.392451       -10.6791
  47   2.0000      -0.383919       -10.4470
  48   2.0000      -0.374765       -10.1979
  49   2.0000      -0.372072       -10.1246
  50   2.0000      -0.366108        -9.9623
  51   2.0000      -0.360744        -9.8164
  52   2.0000      -0.350678        -9.5424
  53   2.0000      -0.345995        -9.4150
  54   2.0000      -0.341998        -9.3062
  55   2.0000      -0.333935        -9.0868
  56   2.0000      -0.326760        -8.8916
  57   2.0000      -0.315263        -8.5787
  58   2.0000      -0.312984        -8.5167
  59   2.0000      -0.295280        -8.0350
  60   2.0000      -0.279458        -7.6044
  61   2.0000      -0.259620        -7.0646
  62   2.0000      -0.242404        -6.5961
  63   2.0000      -0.227712        -6.1964
  64   0.0000       0.005189         0.1412
  65   0.0000       0.010026         0.2728
  66   0.0000       0.019121         0.5203
  67   0.0000       0.060379         1.6430
  68   0.0000       0.067377         1.8334

MULLIKEN ATOMIC CHARGES
-----------------------
   0 C :    0.146393
   1 C :   -0.131715
   2 C :    0.185335
   3 C :    0.031809
   4 C :   -0.056302
   5 O :   -0.372021
   6 C :    0.261116
   7 C :   -0.135000
   8 C :   -0.000198
   9 C :   -0.052250
  10 C :    0.023636
  11 C :    0.040235
  12 C :    0.035097
  13 C :    0.011770
  14 C :    0.117348
  15 C :   -0.096154
  16 C :   -0.027556
  17 H :    0.012445
  18 H :   -0.002218
  19 H :   -0.020274
  20 H :    0.004466
  21 H :   -0.015257
  22 H :    0.002661
  23 H :    0.011145
  24 H :   -0.016453
  25 H :    0.032320
  26 H :   -0.022085
  27 H :   -0.018353
  28 H :    0.004977
  29 H :    0.009409
  30 H :    0.007318
  31 H :    0.010633
  32 H :   -0.016656
  33 H :    0.006129
  34 H :    0.016294
  35 H :   -0.008998
  36 H :   -0.011246
  37 H :    0.003512
  38 H :   -0.000174
  39 H :    0.012104
  40 H :    0.016760
Sum of atomic charges:   -0.0000000

LOEWDIN ATOMIC CHARGES
----------------------
   0 C :   -0.014569
   1 C :   -0.016248
   2 C :   -0.032906
   3 C :    0.051528
   4 C :   -0.107687
   5 O :   -0.147204
   6 C :    0.102358
   7 C :   -0.055570
   8 C :   -0.024486
   9 C :   -0.033300
  10 C :   -0.028213
  11 C :   -0.046237
  12 C :   -0.036828
  13 C :   -0.025527
  14 C :   -0.031378
  15 C :   -0.024449
  16 C :   -0.068544
  17 H :    0.019975
  18 H :    0.018038
  19 H :    0.013580
  20 H :    0.025378
  21 H :    0.029147
  22 H :    0.020037
  23 H :    0.022663
  24 H :    0.007887
  25 H :    0.040779
  26 H :    0.020583
  27 H :    0.019090
  28 H :    0.027697
  29 H :    0.021985
  30 H :    0.021004
  31 H :    0.021600
  32 H :    0.021745
  33 H :    0.026795
  34 H :    0.026046
  35 H :    0.018103
  36 H :    0.022815
  37 H :    0.030029
  38 H :    0.022787
  39 H :    0.019305
  40 H :    0.022194

  Mayer bond orders larger than 0.100000
B(  0-C ,  1-C ) :   1.1122 B(  0-C ,  7-C ) :   1.0149 B(  0-C , 17-H ) :   0.8988
B(  0-C , 18-H ) :   0.9240 B(  1-C ,  2-C ) :   0.9916 B(  1-C , 10-C ) :   0.9679
B(  1-C , 19-H ) :   0.9203 B(  2-C ,  3-C ) :   1.0176 B(  2-C , 20-H ) :   0.8915
B(  2-C , 21-H ) :   0.9077 B(  3-C ,  4-C ) :   1.9382 B(  3-C ,  5-O ) :   1.0662
B(  4-C , 22-H ) :   0.9390 B(  4-C , 23-H ) :   0.9374 B(  5-O ,  6-C ) :   0.9145
B(  6-C ,  7-C ) :   1.0052 B(  6-C , 12-C ) :   1.0777 B(  6-C , 24-H ) :   0.9073
B(  7-C ,  8-C ) :   0.9683 B(  7-C , 25-H ) :   0.8998 B(  8-C ,  9-C ) :   1.8658
B(  8-C , 26-H ) :   0.9815 B(  9-C , 10-C ) :   1.0206 B(  9-C , 27-H ) :   0.9634
B( 10-C , 11-C ) :   1.0816 B( 10-C , 28-H ) :   0.8997 B( 11-C , 29-H ) :   0.9649
B( 11-C , 30-H ) :   0.9605 B( 11-C , 31-H ) :   0.9613 B( 12-C , 13-C ) :   1.0829
B( 12-C , 32-H ) :   0.9161 B( 12-C , 33-H ) :   0.9223 B( 13-C , 14-C ) :   1.0735
B( 13-C , 34-H ) :   0.9324 B( 13-C , 35-H ) :   0.9394 B( 14-C , 15-C ) :   1.0510
B( 14-C , 36-H ) :   0.9315 B( 14-C , 37-H ) :   0.9185 B( 15-C , 16-C ) :   2.0014
B( 15-C , 38-H ) :   0.9612 B( 16-C , 39-H ) :   0.9541 B( 16-C , 40-H ) :   0.9501

Dispersion correction           -0.079955155
FINAL SINGLE POINT ENERGY      -698.834077331249

DIPOLE MOMENT
-------------
                                X             Y             Z
Electronic contribution:     -1.64479       1.69211       2.22756
Nuclear contribution   :      1.56096      -2.10014      -2.49619
                        -----------------------------------------
Total Dipole Moment    :     -0.08383      -0.40803      -0.26864
                        -----------------------------------------
Magnitude (a.u.)       :      0.49566
Magnitude (Debye)      :      1.25987

Rotational constants in cm-1:     0.025061     0.008570     0.006764
Rotational constants in MHz :   751.301477   256.923797   202.778221

                             ****ORCA TERMINATED NORMALLY****
TOTAL RUN TIME: 0 days 0 hours 37 minutes 53 seconds 843 msec
