                         Program Version 4.2.0 -  RELEASE  -
|  1> # ORCA input file
|  2> # SCF done        -47.833957785005          0.000569772840
|  3> ! B3LYP/G D3BJ Opt RIJCOSX def2-SVP def2/J
|  4> * xyz 0 1
|  5>    C       -2.59904        -0.10968        -1.78954
|  6>    S       -3.80686        -0.84912        -0.83570
|  7>    C       -2.68434        -1.24210         0.42803
|  8>    C       -1.40803        -0.79757         0.09425
|  9>    C       -1.36499        -0.14817        -1.18423
| 10>    C       -0.13974         0.36251        -1.67622
| 11>    C        0.99370         0.23105        -0.93178
| 12>    S        2.57494         0.82801        -1.42672
| 13>    C        2.33172         1.29582        -3.18265
| 14>    C        3.68068         1.63651        -3.78703
| 15>    C        0.95273        -0.41316         0.35013
| 16>    S        2.49621        -0.51109         1.19079
| 17>    C        2.04737        -1.09810         2.86931
| 18>    C        3.28055        -1.03444         3.75052
| 19>    C       -0.21644        -0.91577         0.84322
| 20>    C       -3.09711        -1.92916         1.61370
| 21>    C       -4.34033        -2.33095         1.87645
| 22>    H       -2.85668         0.31299        -2.73997
| 23>    H       -0.14084         0.85336        -2.63530
| 24>    H        1.66229         2.15576        -3.21651
| 25>    H        1.87779         0.44527        -3.69110
| 26>    H        4.13701         2.46638        -3.25220
| 27>    H        3.55894         1.91687        -4.83170
| 28>    H        4.34897         0.78042        -3.72862
| 29>    H        1.68222        -2.12211         2.78672
| 30>    H        1.26066        -0.44606         3.24894
| 31>    H        4.06887        -1.66421         3.34527
| 32>    H        3.03764        -1.37833         4.75371
| 33>    H        3.65174        -0.01423         3.80924
| 34>    H       -0.25022        -1.41268         1.79805
| 35>    H       -2.30909        -2.12048         2.33054
| 36>    H       -5.14578        -2.15570         1.18269
| 37>    H       -4.58684        -2.84455         2.78827
| 38> *
| 39>
| 40>                          ****END OF INPUT****
 Total Charge           Charge          ....    0
 Multiplicity           Mult            ....    1
 Number of Electrons    NEL             ....  148
Dispersion correction           -0.078159578
FINAL SINGLE POINT ENERGY     -1737.025587815002
Dispersion correction            ... done
Dispersion correction           -0.077743811
FINAL SINGLE POINT ENERGY     -1737.030555533342
Dispersion correction            ... done
Dispersion correction           -0.077588993
FINAL SINGLE POINT ENERGY     -1737.030619896054
Dispersion correction            ... done
FINAL SINGLE POINT ENERGY     -1737.030735825405
FINAL SINGLE POINT ENERGY     -1737.030817402026
FINAL SINGLE POINT ENERGY     -1737.030789089715
FINAL SINGLE POINT ENERGY     -1737.030650750568
FINAL SINGLE POINT ENERGY     -1737.030690035084
FINAL SINGLE POINT ENERGY     -1737.030796513566
FINAL SINGLE POINT ENERGY     -1737.030823677563
FINAL SINGLE POINT ENERGY     -1737.030821098857
Dispersion correction            ... done
Dispersion correction           -0.077592483
FINAL SINGLE POINT ENERGY     -1737.030831994708
Dispersion correction            ... done
Dispersion correction           -0.077586944
FINAL SINGLE POINT ENERGY     -1737.030831978912
Dispersion correction            ... done
                    ***********************HURRAY********************

CARTESIAN COORDINATES (ANGSTROEM)
---------------------------------
  C     -2.521442   -0.490007   -1.968864
  S     -3.764996   -1.051325   -0.928443
  C     -2.694366   -1.210262    0.433195
  C     -1.392567   -0.828975    0.067071
  C     -1.298425   -0.411747   -1.314961
  C     -0.038833    0.012643   -1.839128
  C      1.082245    0.027471   -1.042753
  S      2.684979    0.549032   -1.601949
  C      2.342395    1.307084   -3.231006
  C      3.613232    1.996197   -3.718919
  C      0.990677   -0.402282    0.349214
  S      2.499334   -0.357564    1.281930
  C      2.019416   -1.096384    2.881953
  C      3.262816   -1.261513    3.749747
  C     -0.216106   -0.810889    0.872004
  C     -3.145695   -1.683041    1.724508
  C     -4.397784   -2.027534    2.078243
  H     -2.744501   -0.233528   -3.002775
  H      0.008845    0.321083   -2.882633
  H      1.519095    2.029867   -3.118179
  H      2.019498    0.526429   -3.937318
  H      3.937043    2.776879   -3.014045
  H      3.435310    2.471003   -4.696573
  H      4.438382    1.276871   -3.833941
  H      1.541864   -2.070677    2.692549
  H      1.281934   -0.441739    3.372915
  H      4.006167   -1.910032    3.261675
  H      2.986492   -1.718318    4.712993
  H      3.741375   -0.292033    3.957973
  H     -0.288210   -1.129996    1.909045
  H     -2.353693   -1.762053    2.477633
  H     -5.234258   -1.971720    1.374778
  H     -4.622525   -2.385649    3.084621

 Multiplicity           Mult            ....    1
 Number of Electrons    NEL             ....  148
 Basis Dimension        Dim             ....  330

ORBITAL ENERGIES
----------------

  NO   OCC          E(Eh)            E(eV)
   0   2.0000     -88.877571     -2418.4817
   1   2.0000     -88.846560     -2417.6378
   2   2.0000     -88.845670     -2417.6136
   3   2.0000     -10.225298      -278.2445
   4   2.0000     -10.224587      -278.2252
   5   2.0000     -10.222860      -278.1782
   6   2.0000     -10.222602      -278.1712
   7   2.0000     -10.213479      -277.9229
   8   2.0000     -10.210722      -277.8479
   9   2.0000     -10.201604      -277.5998
  10   2.0000     -10.198354      -277.5113
  11   2.0000     -10.198162      -277.5061
  12   2.0000     -10.196804      -277.4691
  13   2.0000     -10.196486      -277.4605
  14   2.0000     -10.194372      -277.4030
  15   2.0000     -10.193674      -277.3840
  16   2.0000     -10.184994      -277.1478
  17   2.0000      -7.972322      -216.9379
  18   2.0000      -7.941328      -216.0945
  19   2.0000      -7.940333      -216.0675
  20   2.0000      -5.940097      -161.6383
  21   2.0000      -5.936155      -161.5310
  22   2.0000      -5.934265      -161.4796
  23   2.0000      -5.910461      -160.8318
  24   2.0000      -5.909428      -160.8037
  25   2.0000      -5.906459      -160.7229
  26   2.0000      -5.905582      -160.6991
  27   2.0000      -5.900348      -160.5566
  28   2.0000      -5.899327      -160.5289
  29   2.0000      -0.891579       -24.2611
  30   2.0000      -0.854112       -23.2416
  31   2.0000      -0.812810       -22.1177
  32   2.0000      -0.798089       -21.7171
  33   2.0000      -0.783166       -21.3110
  34   2.0000      -0.754984       -20.5442
  35   2.0000      -0.749541       -20.3960
  36   2.0000      -0.713790       -19.4232
  37   2.0000      -0.685613       -18.6565
  38   2.0000      -0.672310       -18.2945
  39   2.0000      -0.634890       -17.2762
  40   2.0000      -0.607991       -16.5443
  41   2.0000      -0.604143       -16.4396
  42   2.0000      -0.576293       -15.6817
  43   2.0000      -0.558878       -15.2078
  44   2.0000      -0.534183       -14.5359
  45   2.0000      -0.505054       -13.7432
  46   2.0000      -0.485901       -13.2220
  47   2.0000      -0.475861       -12.9488
  48   2.0000      -0.467217       -12.7136
  49   2.0000      -0.466045       -12.6817
  50   2.0000      -0.450429       -12.2568
  51   2.0000      -0.447875       -12.1873
  52   2.0000      -0.429706       -11.6929
  53   2.0000      -0.422783       -11.5045
  54   2.0000      -0.410213       -11.1625
  55   2.0000      -0.407440       -11.0870
  56   2.0000      -0.397994       -10.8300
  57   2.0000      -0.388909       -10.5827
  58   2.0000      -0.380069       -10.3422
  59   2.0000      -0.375852       -10.2275
  60   2.0000      -0.370872       -10.0920
  61   2.0000      -0.368691       -10.0326
  62   2.0000      -0.361034        -9.8242
  63   2.0000      -0.354735        -9.6528
  64   2.0000      -0.353699        -9.6247
  65   2.0000      -0.337175        -9.1750
  66   2.0000      -0.331282        -9.0146
  67   2.0000      -0.312619        -8.5068
  68   2.0000      -0.303822        -8.2674
  69   2.0000      -0.283361        -7.7106
  70   2.0000      -0.276035        -7.5113
  71   2.0000      -0.237953        -6.4750
  72   2.0000      -0.208413        -5.6712
  73   2.0000      -0.186233        -5.0677
  74   0.0000      -0.066206        -1.8016
  75   0.0000      -0.008338        -0.2269
  76   0.0000       0.008429         0.2294
  77   0.0000       0.020128         0.5477
  78   0.0000       0.041254         1.1226

MULLIKEN ATOMIC CHARGES
-----------------------
   0 C :   -0.133475
   1 S :    0.129515
   2 C :   -0.147245
   3 C :    0.144344
   4 C :    0.105003
   5 C :   -0.058477
   6 C :   -0.013992
   7 S :   -0.020109
   8 C :   -0.127870
   9 C :    0.025622
  10 C :   -0.019298
  11 S :   -0.013023
  12 C :   -0.135260
  13 C :    0.034753
  14 C :   -0.073260
  15 C :    0.000543
  16 C :   -0.046418
  17 H :    0.011396
  18 H :   -0.044517
  19 H :    0.057073
  20 H :    0.061237
  21 H :    0.029862
  22 H :    0.023442
  23 H :    0.030467
  24 H :    0.059594
  25 H :    0.060425
  26 H :    0.030859
  27 H :    0.024038
  28 H :    0.026066
  29 H :   -0.046325
  30 H :   -0.011053
  31 H :    0.017890
  32 H :    0.018194
Sum of atomic charges:   -0.0000000

LOEWDIN ATOMIC CHARGES
----------------------
   0 C :   -0.204334
   1 S :    0.465491
   2 C :   -0.196576
   3 C :   -0.042093
   4 C :   -0.051501
   5 C :   -0.057301
   6 C :   -0.167902
   7 S :    0.286651
   8 C :   -0.131430
   9 C :   -0.066935
  10 C :   -0.164992
  11 S :    0.291578
  12 C :   -0.133762
  13 C :   -0.065133
  14 C :   -0.059510
  15 C :   -0.040800
  16 C :   -0.067633
  17 H :    0.023060
  18 H :    0.024331
  19 H :    0.023314
  20 H :    0.021096
  21 H :    0.027654
  22 H :    0.031135
  23 H :    0.027894
  24 H :    0.023093
  25 H :    0.021663
  26 H :    0.028036
  27 H :    0.031520
  28 H :    0.027285
  29 H :    0.021820
  30 H :    0.031914
  31 H :    0.017444
  32 H :    0.024922

  Mayer bond orders larger than 0.100000
B(  0-C ,  1-S ) :   1.1819 B(  0-C ,  2-C ) :   0.1035 B(  0-C ,  4-C ) :   1.4117
B(  0-C , 17-H ) :   0.9596 B(  1-S ,  2-C ) :   1.1373 B(  2-C ,  3-C ) :   1.3419
B(  2-C , 15-C ) :   1.1587 B(  3-C ,  4-C ) :   1.1911 B(  3-C , 14-C ) :   1.1904
B(  4-C ,  5-C ) :   1.1590 B(  5-C ,  6-C ) :   1.5417 B(  5-C , 18-H ) :   0.9815
B(  6-C ,  7-S ) :   1.0229 B(  6-C , 10-C ) :   1.2158 B(  7-S ,  8-C ) :   1.0055
B(  8-C ,  9-C ) :   1.0869 B(  8-C , 19-H ) :   0.9432 B(  8-C , 20-H ) :   0.9408
B(  9-C , 21-H ) :   0.9688 B(  9-C , 22-H ) :   0.9637 B(  9-C , 23-H ) :   0.9680
B( 10-C , 11-S ) :   1.0292 B( 10-C , 14-C ) :   1.5334 B( 11-S , 12-C ) :   1.0081
B( 12-C , 13-C ) :   1.0873 B( 12-C , 24-H ) :   0.9390 B( 12-C , 25-H ) :   0.9400
B( 13-C , 26-H ) :   0.9683 B( 13-C , 27-H ) :   0.9642 B( 13-C , 28-H ) :   0.9668
B( 14-C , 29-H ) :   0.9704 B( 15-C , 16-C ) :   1.8897 B( 15-C , 30-H ) :   0.9487
B( 16-C , 31-H ) :   0.9547 B( 16-C , 32-H ) :   0.9430

Dispersion correction           -0.077589210
FINAL SINGLE POINT ENERGY     -1737.030828224165

DIPOLE MOMENT
-------------
                                X             Y             Z
Electronic contribution:    -11.03422      -1.77938      -4.97525
Nuclear contribution   :     11.16208       1.89606       4.86574
                        -----------------------------------------
Total Dipole Moment    :      0.12786       0.11667      -0.10950
                        -----------------------------------------
Magnitude (a.u.)       :      0.20482
Magnitude (Debye)      :      0.52062

Rotational constants in cm-1:     0.013817     0.007648     0.004953
Rotational constants in MHz :   414.213082   229.289200   148.492291

                             ****ORCA TERMINATED NORMALLY****
TOTAL RUN TIME: 0 days 0 hours 42 minutes 5 seconds 312 msec
