                         Program Version 4.2.0 -  RELEASE  -
|  1> # ORCA input file
|  2> # SCF done        -17.063792936418          0.000207306269
|  3> ! B3LYP/G D3BJ Opt RIJCOSX def2-SVP def2/J
|  4> * xyz 0 1
|  5>    C       -1.23547        -0.06690         0.00052
|  6>    S       -0.46903         1.47596         0.00038
|  7>    C        1.09535         0.72375         0.00244
|  8>    C        1.00388        -0.63472         0.00273
|  9>    C       -0.33671        -1.08136         0.00109
| 10>    S        2.57808         1.66470         0.00364
| 11>    H       -2.30574        -0.11521        -0.00010
| 12>    H        1.86066        -1.28299         0.00377
| 13>    H       -0.61356        -2.12020         0.00098
| 14>    H        1.98001         2.85390         0.00401
| 15> *
| 16>
| 17>                          ****END OF INPUT****
 Total Charge           Charge          ....    0
 Multiplicity           Mult            ....    1
 Number of Electrons    NEL             ....   60
Dispersion correction           -0.021321346
FINAL SINGLE POINT ENERGY      -950.882853299290
Dispersion correction            ... done
Dispersion correction           -0.021239302
FINAL SINGLE POINT ENERGY      -950.884642835742
Dispersion correction            ... done
Dispersion correction           -0.021218834
FINAL SINGLE POINT ENERGY      -950.884720892671
Dispersion correction            ... done
FINAL SINGLE POINT ENERGY      -950.884715303298
FINAL SINGLE POINT ENERGY      -950.884698187587
FINAL SINGLE POINT ENERGY      -950.884704396949
FINAL SINGLE POINT ENERGY      -950.884166958741
FINAL SINGLE POINT ENERGY      -950.885101719074
FINAL SINGLE POINT ENERGY      -950.885249605527
FINAL SINGLE POINT ENERGY      -950.885286692152
FINAL SINGLE POINT ENERGY      -950.885482550445
FINAL SINGLE POINT ENERGY      -950.885847740755
FINAL SINGLE POINT ENERGY      -950.886158012197
FINAL SINGLE POINT ENERGY      -950.886557978047
FINAL SINGLE POINT ENERGY      -950.886760308045
FINAL SINGLE POINT ENERGY      -950.886731369535
FINAL SINGLE POINT ENERGY      -950.886823137274
Dispersion correction            ... done
Dispersion correction           -0.021099174
FINAL SINGLE POINT ENERGY      -950.886838352841
Dispersion correction            ... done
Dispersion correction           -0.021100348
FINAL SINGLE POINT ENERGY      -950.886836925489
Dispersion correction            ... done
                    ***********************HURRAY********************

CARTESIAN COORDINATES (ANGSTROEM)
---------------------------------
  C     -1.303688   -0.112693   -0.065101
  S     -0.632968    1.456507   -0.336271
  C      0.996405    0.835087   -0.222935
  C      0.988563   -0.525016   -0.004554
  C     -0.328264   -1.066319    0.086091
  S      2.408618    1.861377   -0.499917
  H     -2.383671   -0.252697   -0.024434
  H      1.906201   -1.105747    0.092144
  H     -0.549579   -2.118737    0.270229
  H      2.455854    2.445167    0.724209

 Multiplicity           Mult            ....    1
 Number of Electrons    NEL             ....   60
 Basis Dimension        Dim             ....  112

ORBITAL ENERGIES
----------------

  NO   OCC          E(Eh)            E(eV)
   0   2.0000     -88.877746     -2418.4864
   1   2.0000     -88.855619     -2417.8843
   2   2.0000     -10.234682      -278.4998
   3   2.0000     -10.218455      -278.0583
   4   2.0000     -10.200839      -277.5789
   5   2.0000     -10.199135      -277.5326
   6   2.0000      -7.973027      -216.9571
   7   2.0000      -7.949419      -216.3147
   8   2.0000      -5.941124      -161.6662
   9   2.0000      -5.937001      -161.5540
  10   2.0000      -5.934354      -161.4820
  11   2.0000      -5.918771      -161.0579
  12   2.0000      -5.915025      -160.9560
  13   2.0000      -5.908178      -160.7697
  14   2.0000      -0.884789       -24.0763
  15   2.0000      -0.777462       -21.1558
  16   2.0000      -0.737233       -20.0611
  17   2.0000      -0.687020       -18.6948
  18   2.0000      -0.562285       -15.3006
  19   2.0000      -0.540761       -14.7149
  20   2.0000      -0.508922       -13.8485
  21   2.0000      -0.432609       -11.7719
  22   2.0000      -0.409403       -11.1404
  23   2.0000      -0.404108       -10.9963
  24   2.0000      -0.388018       -10.5585
  25   2.0000      -0.356954        -9.7132
  26   2.0000      -0.349275        -9.5043
  27   2.0000      -0.260937        -7.1005
  28   2.0000      -0.258247        -7.0273
  29   2.0000      -0.240038        -6.5318
  30   0.0000      -0.033625        -0.9150
  31   0.0000       0.032901         0.8953
  32   0.0000       0.040944         1.1142
  33   0.0000       0.052496         1.4285
  34   0.0000       0.055672         1.5149

MULLIKEN ATOMIC CHARGES
-----------------------
   0 C :   -0.096303
   1 S :    0.131905
   2 C :   -0.242315
   3 C :    0.075772
   4 C :    0.028910
   5 S :    0.009287
   6 H :    0.036255
   7 H :   -0.006401
   8 H :   -0.001805
   9 H :    0.064696
Sum of atomic charges:    0.0000000

LOEWDIN ATOMIC CHARGES
----------------------
   0 C :   -0.187278
   1 S :    0.419770
   2 C :   -0.354442
   3 C :   -0.067567
   4 C :   -0.069575
   5 S :    0.190498
   6 H :    0.026639
   7 H :    0.031427
   8 H :    0.031095
   9 H :   -0.020567

  Mayer bond orders larger than 0.100000
B(  0-C ,  1-S ) :   1.1793 B(  0-C ,  4-C ) :   1.5588 B(  0-C ,  6-H ) :   0.9697
B(  1-S ,  2-C ) :   1.1319 B(  2-C ,  3-C ) :   1.5488 B(  2-C ,  5-S ) :   1.0462
B(  3-C ,  4-C ) :   1.2664 B(  3-C ,  7-H ) :   0.9929 B(  4-C ,  8-H ) :   0.9887
B(  5-S ,  9-H ) :   0.9432

Dispersion correction           -0.021100357
FINAL SINGLE POINT ENERGY      -950.886835689108

DIPOLE MOMENT
-------------
                                X             Y             Z
Electronic contribution:      0.44749       3.82830      -1.51828
Nuclear contribution   :     -0.70173      -4.08171       1.91796
                        -----------------------------------------
Total Dipole Moment    :     -0.25424      -0.25341       0.39968
                        -----------------------------------------
Magnitude (a.u.)       :      0.53721
Magnitude (Debye)      :      1.36549

Rotational constants in cm-1:     0.175204     0.060904     0.045606
Rotational constants in MHz :  5252.484861  1825.861330  1367.228431

                             ****ORCA TERMINATED NORMALLY****
TOTAL RUN TIME: 0 days 0 hours 6 minutes 23 seconds 805 msec
