                         Program Version 4.2.0 -  RELEASE  -
|  1> # ORCA input file
|  2> # SCF done        -32.758252407902          0.000601212074
|  3> ! B3LYP/G D3BJ Opt RIJCOSX def2-SVP def2/J
|  4> * xyz 0 1
|  5>    C       -1.60870        -1.11271         0.17002
|  6>    S       -2.75092         0.15833         0.21991
|  7>    C       -1.53546         1.34778         0.12450
|  8>    C       -0.28275         0.78684         0.05518
|  9>    C       -0.31671        -0.65192         0.07667
| 10>    C        0.90456        -1.39863         0.01894
| 11>    C        2.07428        -0.68636        -0.05831
| 12>    C        2.11195         0.72162        -0.07946
| 13>    C        0.96643         1.46439        -0.02572
| 14>    O        0.94627         2.82376        -0.04760
| 15>    C        0.86687        -2.85286         0.01952
| 16>    C        1.87062        -3.65814         0.34985
| 17>    H       -1.96047        -2.12301         0.21820
| 18>    H       -1.78626         2.38851         0.12624
| 19>    H        3.01331        -1.21310        -0.12850
| 20>    H        3.07124         1.21809        -0.14677
| 21>    H        1.84974         3.15886        -0.10234
| 22>    H       -0.07796        -3.28984        -0.27285
| 23>    H        2.82666        -3.28657         0.67726
| 24>    H        1.76539        -4.72883         0.31549
| 25> *
| 26>
| 27>                          ****END OF INPUT****
 Total Charge           Charge          ....    0
 Multiplicity           Mult            ....    1
 Number of Electrons    NEL             ....   92
Dispersion correction           -0.044434067
FINAL SINGLE POINT ENERGY      -858.861252765010
Dispersion correction            ... done
Dispersion correction           -0.044226244
FINAL SINGLE POINT ENERGY      -858.864285378659
Dispersion correction            ... done
Dispersion correction           -0.044199661
FINAL SINGLE POINT ENERGY      -858.864378418385
Dispersion correction            ... done
FINAL SINGLE POINT ENERGY      -858.864358533893
FINAL SINGLE POINT ENERGY      -858.864391021687
FINAL SINGLE POINT ENERGY      -858.864398662228
FINAL SINGLE POINT ENERGY      -858.864403244393
Dispersion correction            ... done
Dispersion correction           -0.044204937
FINAL SINGLE POINT ENERGY      -858.864405722867
Dispersion correction            ... done
Dispersion correction           -0.044205359
FINAL SINGLE POINT ENERGY      -858.864407405758
Dispersion correction            ... done
                    ***********************HURRAY********************

CARTESIAN COORDINATES (ANGSTROEM)
---------------------------------
  C     -1.618671   -1.121582    0.177151
  S     -2.755118    0.163090    0.256824
  C     -1.547084    1.371069    0.151554
  C     -0.284308    0.802601    0.057920
  C     -0.314436   -0.649270    0.069693
  C      0.916622   -1.402207   -0.002804
  C      2.092270   -0.680673   -0.072754
  C      2.130233    0.743606   -0.082598
  C      0.971851    1.485745   -0.032401
  O      0.924641    2.839590   -0.067310
  C      0.881007   -2.869640   -0.012365
  C      1.858420   -3.696368    0.389154
  H     -1.959734   -2.152993    0.228055
  H     -1.800312    2.428452    0.162899
  H      3.038813   -1.218169   -0.157733
  H      3.096144    1.252126   -0.157757
  H      1.824013    3.188511   -0.127190
  H     -0.044438   -3.315945   -0.393824
  H      2.792810   -3.321270    0.815969
  H      1.745367   -4.780463    0.307749

 Multiplicity           Mult            ....    1
 Number of Electrons    NEL             ....   92
 Basis Dimension        Dim             ....  212

ORBITAL ENERGIES
----------------

  NO   OCC          E(Eh)            E(eV)
   0   2.0000     -88.884076     -2418.6587
   1   2.0000     -19.174799      -521.7728
   2   2.0000     -10.255963      -279.0789
   3   2.0000     -10.212553      -277.8977
   4   2.0000     -10.209517      -277.8151
   5   2.0000     -10.199507      -277.5427
   6   2.0000     -10.198060      -277.5033
   7   2.0000     -10.191757      -277.3318
   8   2.0000     -10.191218      -277.3171
   9   2.0000     -10.190910      -277.3088
  10   2.0000     -10.188177      -277.2344
  11   2.0000     -10.181707      -277.0583
  12   2.0000      -7.978719      -217.1120
  13   2.0000      -5.946452      -161.8112
  14   2.0000      -5.942287      -161.6979
  15   2.0000      -5.941090      -161.6653
  16   2.0000      -1.061278       -28.8788
  17   2.0000      -0.889584       -24.2068
  18   2.0000      -0.829412       -22.5695
  19   2.0000      -0.781238       -21.2586
  20   2.0000      -0.734953       -19.9991
  21   2.0000      -0.732600       -19.9350
  22   2.0000      -0.689590       -18.7647
  23   2.0000      -0.632222       -17.2036
  24   2.0000      -0.602166       -16.3858
  25   2.0000      -0.585814       -15.9408
  26   2.0000      -0.547726       -14.9044
  27   2.0000      -0.532128       -14.4799
  28   2.0000      -0.509096       -13.8532
  29   2.0000      -0.469751       -12.7826
  30   2.0000      -0.459485       -12.5032
  31   2.0000      -0.437015       -11.8918
  32   2.0000      -0.428375       -11.6567
  33   2.0000      -0.426648       -11.6097
  34   2.0000      -0.411112       -11.1869
  35   2.0000      -0.392292       -10.6748
  36   2.0000      -0.387277       -10.5384
  37   2.0000      -0.381098       -10.3702
  38   2.0000      -0.355417        -9.6714
  39   2.0000      -0.350649        -9.5416
  40   2.0000      -0.344513        -9.3747
  41   2.0000      -0.336081        -9.1452
  42   2.0000      -0.283435        -7.7126
  43   2.0000      -0.252590        -6.8733
  44   2.0000      -0.251820        -6.8524
  45   2.0000      -0.190995        -5.1973
  46   0.0000      -0.058441        -1.5903
  47   0.0000      -0.007884        -0.2145
  48   0.0000       0.022486         0.6119
  49   0.0000       0.040186         1.0935
  50   0.0000       0.051426         1.3994

MULLIKEN ATOMIC CHARGES
-----------------------
   0 C :   -0.169187
   1 S :    0.137673
   2 C :   -0.149500
   3 C :    0.056846
   4 C :    0.080717
   5 C :    0.099979
   6 C :   -0.050289
   7 C :   -0.085895
   8 C :    0.161139
   9 O :   -0.182662
  10 C :   -0.039388
  11 C :   -0.022041
  12 H :    0.017268
  13 H :    0.025173
  14 H :   -0.029815
  15 H :   -0.047836
  16 H :    0.179426
  17 H :   -0.012881
  18 H :    0.011094
  19 H :    0.020178
Sum of atomic charges:    0.0000000

LOEWDIN ATOMIC CHARGES
----------------------
   0 C :   -0.216257
   1 S :    0.482740
   2 C :   -0.197943
   3 C :   -0.069526
   4 C :   -0.038425
   5 C :   -0.047623
   6 C :   -0.010918
   7 C :   -0.102524
   8 C :    0.057129
   9 O :   -0.043827
  10 C :   -0.020805
  11 C :   -0.055356
  12 H :    0.022426
  13 H :    0.028800
  14 H :    0.026267
  15 H :    0.021623
  16 H :    0.095630
  17 H :    0.025309
  18 H :    0.019254
  19 H :    0.024027

  Mayer bond orders larger than 0.100000
B(  0-C ,  1-S ) :   1.1942 B(  0-C ,  2-C ) :   0.1153 B(  0-C ,  4-C ) :   1.4372
B(  0-C , 12-H ) :   0.9517 B(  1-S ,  2-C ) :   1.2086 B(  2-C ,  3-C ) :   1.4040
B(  2-C , 13-H ) :   0.9681 B(  3-C ,  4-C ) :   1.2204 B(  3-C ,  8-C ) :   1.1754
B(  4-C ,  5-C ) :   1.1446 B(  5-C ,  6-C ) :   1.5016 B(  5-C , 10-C ) :   1.0753
B(  6-C ,  7-C ) :   1.1884 B(  6-C , 14-H ) :   0.9797 B(  7-C ,  8-C ) :   1.4386
B(  7-C , 15-H ) :   0.9818 B(  8-C ,  9-O ) :   1.2467 B(  9-O , 16-H ) :   0.9593
B( 10-C , 11-C ) :   1.9472 B( 10-C , 17-H ) :   0.9482 B( 11-C , 18-H ) :   0.9469
B( 11-C , 19-H ) :   0.9440

Dispersion correction           -0.044205554
FINAL SINGLE POINT ENERGY      -858.864408087885

DIPOLE MOMENT
-------------
                                X             Y             Z
Electronic contribution:     -8.02190       6.51237      -0.01207
Nuclear contribution   :      8.40540      -6.13502      -0.03353
                        -----------------------------------------
Total Dipole Moment    :      0.38350       0.37735      -0.04560
                        -----------------------------------------
Magnitude (a.u.)       :      0.53994
Magnitude (Debye)      :      1.37243

Rotational constants in cm-1:     0.036637     0.025705     0.015170
Rotational constants in MHz :  1098.337839   770.618740   454.798491

                             ****ORCA TERMINATED NORMALLY****
TOTAL RUN TIME: 0 days 0 hours 11 minutes 45 seconds 819 msec
