                         Program Version 4.2.0 -  RELEASE  -
|  1> # ORCA input file
|  2> # SCF done        -62.456981610907          0.000773725886
|  3> ! B3LYP/G D3BJ Opt RIJCOSX def2-SVP def2/J
|  4> * xyz 0 1
|  5>    C        1.52230        -0.76612         0.24933
|  6>    S        2.42785         0.64962        -0.06333
|  7>    C        0.98279         1.56418        -0.38500
|  8>    C       -0.13446         0.77562        -0.23197
|  9>    C        0.18161        -0.55749         0.13144
| 10>    C       -0.84896        -1.61021         0.40965
| 11>    C       -2.23638        -1.20790        -0.10080
| 12>    C       -2.34943        -1.49876        -1.59588
| 13>    F       -2.33345        -2.82030        -1.82382
| 14>    F       -3.50201        -1.03857        -2.11327
| 15>    F       -1.36876        -0.97755        -2.33961
| 16>    C       -2.56439         0.26477         0.19198
| 17>    C       -2.67346         0.50375         1.69702
| 18>    F       -3.43985        -0.41982         2.30166
| 19>    F       -1.50500         0.50595         2.34537
| 20>    F       -3.24493         1.69140         1.94669
| 21>    C       -1.54707         1.23710        -0.41930
| 22>    C        1.14777         2.95253        -0.73505
| 23>    C        0.26119         3.75953        -1.31096
| 24>    H        2.02363        -1.67703         0.50868
| 25>    H       -0.90351        -1.77941         1.48861
| 26>    H       -0.55108        -2.55633        -0.04896
| 27>    H       -2.99736        -1.84407         0.36744
| 28>    H       -3.56277         0.49226        -0.20129
| 29>    H       -1.67718         2.22353         0.03419
| 30>    H       -1.75730         1.33564        -1.48806
| 31>    H        2.13263         3.34006        -0.50480
| 32>    H       -0.71843         3.44341        -1.61595
| 33>    H        0.51381         4.78453        -1.52019
| 34> *
| 35>
| 36>                          ****END OF INPUT****
 Total Charge           Charge          ....    0
 Multiplicity           Mult            ....    1
 Number of Electrons    NEL             ....  152
Dispersion correction           -0.066372401
FINAL SINGLE POINT ENERGY     -1459.715425046732
Dispersion correction            ... done
Dispersion correction           -0.065765744
FINAL SINGLE POINT ENERGY     -1459.718890479012
Dispersion correction            ... done
Dispersion correction           -0.065791590
FINAL SINGLE POINT ENERGY     -1459.718626857163
Dispersion correction            ... done
FINAL SINGLE POINT ENERGY     -1459.718856952591
FINAL SINGLE POINT ENERGY     -1459.718904901434
FINAL SINGLE POINT ENERGY     -1459.718875086454
FINAL SINGLE POINT ENERGY     -1459.718912060380
FINAL SINGLE POINT ENERGY     -1459.718954263600
Dispersion correction            ... done
Dispersion correction           -0.065618253
FINAL SINGLE POINT ENERGY     -1459.718971474791
Dispersion correction            ... done
Dispersion correction           -0.065609426
FINAL SINGLE POINT ENERGY     -1459.718992859996
Dispersion correction            ... done
                    ***********************HURRAY********************

CARTESIAN COORDINATES (ANGSTROEM)
---------------------------------
  C      1.593431   -0.791981    0.178332
  S      2.489973    0.632508   -0.187180
  C      1.032737    1.569973   -0.409695
  C     -0.090785    0.786318   -0.179863
  C      0.236558   -0.568082    0.151855
  C     -0.814823   -1.608306    0.444942
  C     -2.204699   -1.204942   -0.086428
  C     -2.323203   -1.498674   -1.579127
  F     -2.318109   -2.825081   -1.801770
  F     -3.466121   -1.010297   -2.098536
  F     -1.314538   -0.973348   -2.296503
  C     -2.555433    0.266899    0.218687
  C     -2.827987    0.477815    1.702143
  F     -3.788065   -0.361547    2.139839
  F     -1.748797    0.284220    2.481399
  F     -3.256908    1.730505    1.933868
  C     -1.511614    1.255228   -0.330133
  C      1.180684    2.955209   -0.826564
  C      0.239018    3.787735   -1.306555
  H      2.106964   -1.726022    0.401106
  H     -0.894267   -1.759136    1.532134
  H     -0.527781   -2.581384    0.018813
  H     -2.967051   -1.845157    0.380731
  H     -3.524519    0.490192   -0.250913
  H     -1.653192    2.236558    0.146835
  H     -1.727103    1.408894   -1.400168
  H      2.203093    3.344106   -0.749862
  H     -0.799295    3.492597   -1.457901
  H      0.509632    4.805518   -1.595669

 Multiplicity           Mult            ....    1
 Number of Electrons    NEL             ....  152
 Basis Dimension        Dim             ....  320

ORBITAL ENERGIES
----------------

  NO   OCC          E(Eh)            E(eV)
   0   2.0000     -88.875548     -2418.4266
   1   2.0000     -24.729719      -672.9299
   2   2.0000     -24.729208      -672.9160
   3   2.0000     -24.729158      -672.9146
   4   2.0000     -24.727958      -672.8820
   5   2.0000     -24.727874      -672.8797
   6   2.0000     -24.727643      -672.8734
   7   2.0000     -10.440654      -284.1046
   8   2.0000     -10.440539      -284.1015
   9   2.0000     -10.238237      -278.5966
  10   2.0000     -10.237317      -278.5716
  11   2.0000     -10.219467      -278.0858
  12   2.0000     -10.216289      -277.9994
  13   2.0000     -10.215377      -277.9745
  14   2.0000     -10.213811      -277.9319
  15   2.0000     -10.209084      -277.8033
  16   2.0000     -10.204033      -277.6659
  17   2.0000     -10.203574      -277.6534
  18   2.0000     -10.193470      -277.3784
  19   2.0000      -7.970750      -216.8951
  20   2.0000      -5.938758      -161.6018
  21   2.0000      -5.934836      -161.4951
  22   2.0000      -5.932110      -161.4209
  23   2.0000      -1.307877       -35.5891
  24   2.0000      -1.307530       -35.5797
  25   2.0000      -1.215472       -33.0747
  26   2.0000      -1.215298       -33.0699
  27   2.0000      -1.214984       -33.0614
  28   2.0000      -1.214544       -33.0494
  29   2.0000      -0.896656       -24.3993
  30   2.0000      -0.862971       -23.4826
  31   2.0000      -0.800582       -21.7850
  32   2.0000      -0.779437       -21.2096
  33   2.0000      -0.764882       -20.8135
  34   2.0000      -0.732102       -19.9215
  35   2.0000      -0.693184       -18.8625
  36   2.0000      -0.691516       -18.8171
  37   2.0000      -0.656059       -17.8523
  38   2.0000      -0.643662       -17.5149
  39   2.0000      -0.609008       -16.5720
  40   2.0000      -0.606292       -16.4981
  41   2.0000      -0.603828       -16.4310
  42   2.0000      -0.602742       -16.4014
  43   2.0000      -0.598159       -16.2767
  44   2.0000      -0.572969       -15.5913
  45   2.0000      -0.554269       -15.0824
  46   2.0000      -0.544648       -14.8206
  47   2.0000      -0.510248       -13.8846
  48   2.0000      -0.495181       -13.4746
  49   2.0000      -0.484123       -13.1736
  50   2.0000      -0.480294       -13.0695
  51   2.0000      -0.479184       -13.0393
  52   2.0000      -0.476705       -12.9718
  53   2.0000      -0.468376       -12.7452
  54   2.0000      -0.464046       -12.6273
  55   2.0000      -0.461194       -12.5497
  56   2.0000      -0.453896       -12.3511
  57   2.0000      -0.442774       -12.0485
  58   2.0000      -0.431279       -11.7357
  59   2.0000      -0.429625       -11.6907
  60   2.0000      -0.426438       -11.6040
  61   2.0000      -0.423498       -11.5240
  62   2.0000      -0.421265       -11.4632
  63   2.0000      -0.418013       -11.3747
  64   2.0000      -0.415892       -11.3170
  65   2.0000      -0.405179       -11.0255
  66   2.0000      -0.401908       -10.9365
  67   2.0000      -0.380426       -10.3519
  68   2.0000      -0.371493       -10.1088
  69   2.0000      -0.366011        -9.9597
  70   2.0000      -0.359028        -9.7696
  71   2.0000      -0.348938        -9.4951
  72   2.0000      -0.340874        -9.2757
  73   2.0000      -0.304567        -8.2877
  74   2.0000      -0.249608        -6.7922
  75   2.0000      -0.221281        -6.0214
  76   0.0000      -0.048658        -1.3241
  77   0.0000       0.015439         0.4201
  78   0.0000       0.028645         0.7795
  79   0.0000       0.047172         1.2836
  80   0.0000       0.063485         1.7275

MULLIKEN ATOMIC CHARGES
-----------------------
   0 C :   -0.132123
   1 S :    0.107743
   2 C :   -0.159131
   3 C :   -0.011928
   4 C :   -0.035509
   5 C :    0.158377
   6 C :   -0.165472
   7 C :    0.532863
   8 F :   -0.169300
   9 F :   -0.173589
  10 F :   -0.166332
  11 C :   -0.132056
  12 C :    0.528356
  13 F :   -0.174593
  14 F :   -0.168862
  15 F :   -0.167487
  16 C :    0.107838
  17 C :    0.025492
  18 C :   -0.035427
  19 H :    0.013949
  20 H :    0.035209
  21 H :    0.015499
  22 H :    0.034637
  23 H :    0.032705
  24 H :    0.031286
  25 H :    0.041332
  26 H :   -0.009044
  27 H :    0.012737
  28 H :    0.022831
Sum of atomic charges:   -0.0000000

LOEWDIN ATOMIC CHARGES
----------------------
   0 C :   -0.195789
   1 S :    0.437209
   2 C :   -0.180103
   3 C :   -0.059280
   4 C :   -0.066627
   5 C :   -0.016509
   6 C :   -0.058539
   7 C :    0.174212
   8 F :   -0.061926
   9 F :   -0.064552
  10 F :   -0.055850
  11 C :   -0.059142
  12 C :    0.174060
  13 F :   -0.066219
  14 F :   -0.058473
  15 F :   -0.059437
  16 C :   -0.020117
  17 C :   -0.040824
  18 C :   -0.056131
  19 H :    0.023777
  20 H :    0.037698
  21 H :    0.035101
  22 H :    0.043479
  23 H :    0.044037
  24 H :    0.036611
  25 H :    0.037183
  26 H :    0.029114
  27 H :    0.019419
  28 H :    0.027616

  Mayer bond orders larger than 0.100000
B(  0-C ,  1-S ) :   1.1571 B(  0-C ,  4-C ) :   1.5391 B(  0-C , 19-H ) :   0.9678
B(  1-S ,  2-C ) :   1.1293 B(  2-C ,  3-C ) :   1.5149 B(  2-C , 17-C ) :   1.1148
B(  3-C ,  4-C ) :   1.2867 B(  3-C , 16-C ) :   1.0644 B(  4-C ,  5-C ) :   1.0277
B(  5-C ,  6-C ) :   1.0425 B(  5-C , 20-H ) :   0.9035 B(  5-C , 21-H ) :   0.9121
B(  6-C ,  7-C ) :   0.9835 B(  6-C , 11-C ) :   1.0087 B(  6-C , 22-H ) :   0.8921
B(  7-C ,  8-F ) :   1.1376 B(  7-C ,  9-F ) :   1.1237 B(  7-C , 10-F ) :   1.1298
B( 11-C , 12-C ) :   0.9853 B( 11-C , 16-C ) :   1.0217 B( 11-C , 23-H ) :   0.8871
B( 12-C , 13-F ) :   1.1251 B( 12-C , 14-F ) :   1.1346 B( 12-C , 15-F ) :   1.1324
B( 16-C , 24-H ) :   0.8987 B( 16-C , 25-H ) :   0.8964 B( 17-C , 18-C ) :   1.9176
B( 17-C , 26-H ) :   0.9424 B( 18-C , 27-H ) :   0.9494 B( 18-C , 28-H ) :   0.9370

Dispersion correction           -0.065602442
FINAL SINGLE POINT ENERGY     -1459.719006648929

DIPOLE MOMENT
-------------
                                X             Y             Z
Electronic contribution:    -11.85728      -9.95634       2.80027
Nuclear contribution   :     11.94877       9.86271      -2.78292
                        -----------------------------------------
Total Dipole Moment    :      0.09149      -0.09362       0.01734
                        -----------------------------------------
Magnitude (a.u.)       :      0.13205
Magnitude (Debye)      :      0.33564

Rotational constants in cm-1:     0.013940     0.009634     0.007826
Rotational constants in MHz :   417.915653   288.829780   234.622841

                             ****ORCA TERMINATED NORMALLY****
TOTAL RUN TIME: 0 days 0 hours 32 minutes 46 seconds 337 msec
