                         Program Version 4.2.0 -  RELEASE  -
|  1> # ORCA input file
|  2> # SCF done        -17.251035842310          0.000984079784
|  3> ! B3LYP/G D3BJ Opt RIJCOSX def2-SVP def2/J
|  4> * xyz 0 1
|  5>    C       -1.61785        -0.14561        -0.01961
|  6>    S       -0.18759        -1.11805         0.02789
|  7>    C        0.81436         0.30388         0.05635
|  8>    C        0.06285         1.44087         0.02767
|  9>    C       -1.32610         1.17515        -0.01369
| 10>    N        2.18273         0.18738         0.18199
| 11>    H       -2.57334        -0.62850        -0.04560
| 12>    H        0.48498         2.42951         0.03806
| 13>    H       -2.07423         1.94752        -0.04092
| 14>    H        2.57322        -0.68758        -0.13080
| 15>    H        2.70518         0.99357        -0.12737
| 16> *
| 17>
| 18>                          ****END OF INPUT****
 Total Charge           Charge          ....    0
 Multiplicity           Mult            ....    1
 Number of Electrons    NEL             ....   52
Dispersion correction           -0.019343909
FINAL SINGLE POINT ENERGY      -608.114799242785
Dispersion correction            ... done
Dispersion correction           -0.019286152
FINAL SINGLE POINT ENERGY      -608.116454523561
Dispersion correction            ... done
Dispersion correction           -0.019282494
FINAL SINGLE POINT ENERGY      -608.116522548242
Dispersion correction            ... done
FINAL SINGLE POINT ENERGY      -608.116553770941
FINAL SINGLE POINT ENERGY      -608.116576024755
FINAL SINGLE POINT ENERGY      -608.116590309030
FINAL SINGLE POINT ENERGY      -608.116600829127
FINAL SINGLE POINT ENERGY      -608.116617029641
FINAL SINGLE POINT ENERGY      -608.116627196583
Dispersion correction            ... done
Dispersion correction           -0.019284912
FINAL SINGLE POINT ENERGY      -608.116633529470
Dispersion correction            ... done
Dispersion correction           -0.019284313
FINAL SINGLE POINT ENERGY      -608.116636301425
Dispersion correction            ... done
                    ***********************HURRAY********************

CARTESIAN COORDINATES (ANGSTROEM)
---------------------------------
  C     -1.639746   -0.155586   -0.005808
  S     -0.193251   -1.128237    0.079051
  C      0.825778    0.293317    0.076881
  C      0.069767    1.443859    0.023722
  C     -1.335597    1.177276   -0.019363
  N      2.202213    0.158677    0.202387
  H     -2.613861   -0.638215   -0.047379
  H      0.507707    2.443215    0.013309
  H     -2.094179    1.959706   -0.071710
  H      2.600126   -0.655957   -0.255168
  H      2.715253    1.000087   -0.041952

 Multiplicity           Mult            ....    1
 Number of Electrons    NEL             ....   52
 Basis Dimension        Dim             ....  113

ORBITAL ENERGIES
----------------

  NO   OCC          E(Eh)            E(eV)
   0   2.0000     -88.861119     -2418.0340
   1   2.0000     -14.344594      -390.3362
   2   2.0000     -10.241820      -278.6941
   3   2.0000     -10.194755      -277.4134
   4   2.0000     -10.183630      -277.1107
   5   2.0000     -10.173848      -276.8445
   6   2.0000      -7.956623      -216.5107
   7   2.0000      -5.925032      -161.2283
   8   2.0000      -5.920954      -161.1174
   9   2.0000      -5.917340      -161.0190
  10   2.0000      -0.920231       -25.0408
  11   2.0000      -0.844429       -22.9781
  12   2.0000      -0.720946       -19.6179
  13   2.0000      -0.691789       -18.8245
  14   2.0000      -0.562451       -15.3051
  15   2.0000      -0.557990       -15.1837
  16   2.0000      -0.506706       -13.7882
  17   2.0000      -0.496544       -13.5116
  18   2.0000      -0.430573       -11.7165
  19   2.0000      -0.393467       -10.7068
  20   2.0000      -0.387749       -10.5512
  21   2.0000      -0.372337       -10.1318
  22   2.0000      -0.336955        -9.1690
  23   2.0000      -0.311342        -8.4721
  24   2.0000      -0.244843        -6.6625
  25   2.0000      -0.194878        -5.3029
  26   0.0000       0.003985         0.1084
  27   0.0000       0.032373         0.8809
  28   0.0000       0.055928         1.5219
  29   0.0000       0.075103         2.0437
  30   0.0000       0.085415         2.3243

MULLIKEN ATOMIC CHARGES
-----------------------
   0 C :   -0.098655
   1 S :    0.057118
   2 C :   -0.120228
   3 C :    0.010664
   4 C :    0.037231
   5 N :   -0.086958
   6 H :    0.018844
   7 H :   -0.036998
   8 H :   -0.011516
   9 H :    0.117303
  10 H :    0.113195
Sum of atomic charges:   -0.0000000

LOEWDIN ATOMIC CHARGES
----------------------
   0 C :   -0.214969
   1 S :    0.372888
   2 C :   -0.131059
   3 C :   -0.134310
   4 C :   -0.059294
   5 N :   -0.050651
   6 H :    0.020730
   7 H :    0.020834
   8 H :    0.027907
   9 H :    0.071486
  10 H :    0.076437

  Mayer bond orders larger than 0.100000
B(  0-C ,  1-S ) :   1.0988 B(  0-C ,  4-C ) :   1.5999 B(  0-C ,  6-H ) :   0.9728
B(  1-S ,  2-C ) :   1.1368 B(  2-C ,  3-C ) :   1.5053 B(  2-C ,  5-N ) :   1.1917
B(  3-C ,  4-C ) :   1.2323 B(  3-C ,  7-H ) :   0.9935 B(  4-C ,  8-H ) :   0.9855
B(  5-N ,  9-H ) :   0.9488 B(  5-N , 10-H ) :   0.9538

Dispersion correction           -0.019284046
FINAL SINGLE POINT ENERGY      -608.116636900951

DIPOLE MOMENT
-------------
                                X             Y             Z
Electronic contribution:     -0.44024      -3.57565       0.25875
Nuclear contribution   :      1.02644       3.73160      -0.65545
                        -----------------------------------------
Total Dipole Moment    :      0.58620       0.15595      -0.39670
                        -----------------------------------------
Magnitude (a.u.)       :      0.72479
Magnitude (Debye)      :      1.84228

Rotational constants in cm-1:     0.175375     0.107073     0.066627
Rotational constants in MHz :  5257.601525  3209.961679  1997.415662

                             ****ORCA TERMINATED NORMALLY****
TOTAL RUN TIME: 0 days 0 hours 3 minutes 40 seconds 264 msec
