                         Program Version 4.2.0 -  RELEASE  -
|  1> # ORCA input file
|  2> # SCF done        -33.748011189484          0.000994686476
|  3> ! B3LYP/G D3BJ Opt RIJCOSX def2-SVP def2/J
|  4> * xyz 0 1
|  5>    C        0.92767         0.91881         0.63693
|  6>    S        1.37734         0.10987        -0.80499
|  7>    C       -0.38206        -0.05650        -1.35011
|  8>    O       -0.64587        -0.60001        -2.38450
|  9>    C       -1.19309         0.55549        -0.32923
| 10>    C       -0.41601         1.08241         0.76082
| 11>    C       -1.17650         1.70681         1.81578
| 12>    O       -0.84001         2.22880         2.83570
| 13>    S       -2.93295         1.56801         1.30853
| 14>    C       -2.55308         0.73817        -0.18579
| 15>    C       -3.67612         0.39106        -1.01075
| 16>    C       -3.63184        -0.23120        -2.19024
| 17>    H        1.67940         1.23933         1.33391
| 18>    H       -4.63041         0.68916        -0.59240
| 19>    H       -2.70941        -0.54789        -2.64425
| 20>    H       -4.54077        -0.43909        -2.72887
| 21> *
| 22>
| 23>                          ****END OF INPUT****
 Total Charge           Charge          ....    0
 Multiplicity           Mult            ....    1
 Number of Electrons    NEL             ....  100
Dispersion correction           -0.041191635
FINAL SINGLE POINT ENERGY     -1253.540734262994
Dispersion correction            ... done
Dispersion correction           -0.041063182
FINAL SINGLE POINT ENERGY     -1253.543535664539
Dispersion correction            ... done
Dispersion correction           -0.041070333
FINAL SINGLE POINT ENERGY     -1253.543772106833
Dispersion correction            ... done
FINAL SINGLE POINT ENERGY     -1253.543739640538
Dispersion correction            ... done
Dispersion correction           -0.041069047
FINAL SINGLE POINT ENERGY     -1253.543841656239
Dispersion correction            ... done
Dispersion correction           -0.041076518
FINAL SINGLE POINT ENERGY     -1253.543845866463
Dispersion correction            ... done
                    ***********************HURRAY********************

CARTESIAN COORDINATES (ANGSTROEM)
---------------------------------
  C      0.946747    0.920138    0.645327
  S      1.415208    0.122784   -0.823847
  C     -0.371088   -0.050946   -1.374368
  O     -0.647289   -0.587474   -2.417229
  C     -1.192353    0.558147   -0.325266
  C     -0.402450    1.073563    0.766571
  C     -1.170964    1.704945    1.842526
  O     -0.814637    2.222390    2.862846
  S     -2.957311    1.568506    1.331309
  C     -2.559288    0.747736   -0.182584
  C     -3.689552    0.407796   -1.026326
  C     -3.647895   -0.259390   -2.195091
  H      1.692064    1.253300    1.368753
  H     -4.658026    0.742222   -0.640805
  H     -2.710088   -0.611562   -2.626021
  H     -4.576789   -0.458925   -2.735255

 Multiplicity           Mult            ....    1
 Number of Electrons    NEL             ....  100
 Basis Dimension        Dim             ....  196

ORBITAL ENERGIES
----------------

  NO   OCC          E(Eh)            E(eV)
   0   2.0000     -88.885393     -2418.6945
   1   2.0000     -88.882731     -2418.6221
   2   2.0000     -19.159184      -521.3479
   3   2.0000     -19.156106      -521.2641
   4   2.0000     -10.320593      -280.8376
   5   2.0000     -10.317925      -280.7650
   6   2.0000     -10.274328      -279.5787
   7   2.0000     -10.259743      -279.1818
   8   2.0000     -10.229878      -278.3691
   9   2.0000     -10.229023      -278.3459
  10   2.0000     -10.226794      -278.2852
  11   2.0000     -10.221187      -278.1326
  12   2.0000      -7.981533      -217.1886
  13   2.0000      -7.979113      -217.1227
  14   2.0000      -5.949619      -161.8974
  15   2.0000      -5.947071      -161.8280
  16   2.0000      -5.945873      -161.7954
  17   2.0000      -5.943590      -161.7333
  18   2.0000      -5.942119      -161.6933
  19   2.0000      -5.939614      -161.6251
  20   2.0000      -1.068390       -29.0724
  21   2.0000      -1.066884       -29.0314
  22   2.0000      -0.910163       -24.7668
  23   2.0000      -0.857988       -23.3470
  24   2.0000      -0.797846       -21.7105
  25   2.0000      -0.751833       -20.4584
  26   2.0000      -0.742122       -20.1942
  27   2.0000      -0.675991       -18.3946
  28   2.0000      -0.619573       -16.8594
  29   2.0000      -0.612093       -16.6559
  30   2.0000      -0.560035       -15.2393
  31   2.0000      -0.527200       -14.3458
  32   2.0000      -0.514449       -13.9989
  33   2.0000      -0.488718       -13.2987
  34   2.0000      -0.472158       -12.8481
  35   2.0000      -0.464661       -12.6441
  36   2.0000      -0.453707       -12.3460
  37   2.0000      -0.447174       -12.1682
  38   2.0000      -0.433139       -11.7863
  39   2.0000      -0.430880       -11.7248
  40   2.0000      -0.401593       -10.9279
  41   2.0000      -0.387777       -10.5520
  42   2.0000      -0.382476       -10.4077
  43   2.0000      -0.374786       -10.1984
  44   2.0000      -0.360942        -9.8217
  45   2.0000      -0.298613        -8.1257
  46   2.0000      -0.286449        -7.7947
  47   2.0000      -0.284745        -7.7483
  48   2.0000      -0.277023        -7.5382
  49   2.0000      -0.236523        -6.4361
  50   0.0000      -0.122817        -3.3420
  51   0.0000      -0.067134        -1.8268
  52   0.0000      -0.022842        -0.6216
  53   0.0000      -0.010006        -0.2723
  54   0.0000       0.024296         0.6611

MULLIKEN ATOMIC CHARGES
-----------------------
   0 C :   -0.081597
   1 S :    0.046862
   2 C :    0.039202
   3 O :   -0.162631
   4 C :    0.088146
   5 C :    0.043474
   6 C :    0.065640
   7 O :   -0.140568
   8 S :    0.033220
   9 C :   -0.115663
  10 C :    0.018348
  11 C :    0.009496
  12 H :    0.052208
  13 H :   -0.001319
  14 H :    0.064732
  15 H :    0.040451
Sum of atomic charges:    0.0000000

LOEWDIN ATOMIC CHARGES
----------------------
   0 C :   -0.099726
   1 S :    0.337450
   2 C :   -0.028205
   3 O :   -0.136891
   4 C :   -0.134607
   5 C :   -0.132807
   6 C :   -0.033447
   7 O :   -0.128830
   8 S :    0.327624
   9 C :   -0.081588
  10 C :   -0.057261
  11 C :    0.028737
  12 H :    0.041704
  13 H :    0.031707
  14 H :    0.031674
  15 H :    0.034466

  Mayer bond orders larger than 0.100000
B(  0-C ,  1-S ) :   1.1445 B(  0-C ,  5-C ) :   1.5451 B(  0-C , 12-H ) :   0.9585
B(  1-S ,  2-C ) :   0.9679 B(  1-S ,  3-O ) :   0.1133 B(  2-C ,  3-O ) :   2.0688
B(  2-C ,  4-C ) :   0.9526 B(  4-C ,  5-C ) :   1.1414 B(  4-C ,  9-C ) :   1.4669
B(  5-C ,  6-C ) :   0.9344 B(  6-C ,  7-O ) :   2.1830 B(  6-C ,  8-S ) :   0.9434
B(  7-O ,  8-S ) :   0.1245 B(  8-S ,  9-C ) :   1.1051 B(  9-C , 10-C ) :   1.1526
B( 10-C , 11-C ) :   1.8784 B( 10-C , 13-H ) :   0.9452 B( 11-C , 14-H ) :   0.9233
B( 11-C , 15-H ) :   0.9393

Dispersion correction           -0.041081084
FINAL SINGLE POINT ENERGY     -1253.543846840095

DIPOLE MOMENT
-------------
                                X             Y             Z
Electronic contribution:      4.88068       1.72229       3.95498
Nuclear contribution   :     -5.26232      -1.86318      -4.28888
                        -----------------------------------------
Total Dipole Moment    :     -0.38163      -0.14090      -0.33391
                        -----------------------------------------
Magnitude (a.u.)       :      0.52630
Magnitude (Debye)      :      1.33774

Rotational constants in cm-1:     0.030151     0.026208     0.014022
Rotational constants in MHz :   903.913773   785.697297   420.354403

                             ****ORCA TERMINATED NORMALLY****
TOTAL RUN TIME: 0 days 0 hours 7 minutes 16 seconds 531 msec
