                         Program Version 4.2.0 -  RELEASE  -
|  1> # ORCA input file
|  2> # SCF done        -35.391900042274          0.000504117592
|  3> ! B3LYP/G D3BJ Opt RIJCOSX def2-SVP def2/J
|  4> * xyz 0 1
|  5>    C       -1.22802         1.19328        -0.22247
|  6>    C        0.00133         0.68916         0.03201
|  7>    C       -0.12383        -0.74817         0.01419
|  8>    C       -1.51451        -1.04589        -0.26874
|  9>    O       -2.12259        -2.06830        -0.38842
| 10>    O       -2.13075         0.21119        -0.40174
| 11>    C        1.11125        -1.27408         0.27376
| 12>    O        2.01326        -0.26693         0.45477
| 13>    C        1.40201         0.97981         0.32086
| 14>    O        2.01025         1.99918         0.43933
| 15>    C        1.52570        -2.64241         0.37147
| 16>    C        2.77994        -3.00349         0.64805
| 17>    H       -1.58913         2.20214        -0.30079
| 18>    H        0.73832        -3.36351         0.20491
| 19>    H        3.54651        -2.26410         0.81062
| 20>    H        3.06608        -4.03815         0.71595
| 21> *
| 22>
| 23>                          ****END OF INPUT****
 Total Charge           Charge          ....    0
 Multiplicity           Mult            ....    1
 Number of Electrons    NEL             ....   84
Dispersion correction           -0.029835793
FINAL SINGLE POINT ENERGY      -607.686660955490
Dispersion correction            ... done
Dispersion correction           -0.029780949
FINAL SINGLE POINT ENERGY      -607.688610554927
Dispersion correction            ... done
Dispersion correction           -0.029767475
FINAL SINGLE POINT ENERGY      -607.689005312974
Dispersion correction            ... done
FINAL SINGLE POINT ENERGY      -607.689155837187
FINAL SINGLE POINT ENERGY      -607.689173491949
FINAL SINGLE POINT ENERGY      -607.689228941590
Dispersion correction            ... done
Dispersion correction           -0.029786609
FINAL SINGLE POINT ENERGY      -607.689242190136
Dispersion correction            ... done
Dispersion correction           -0.029787464
FINAL SINGLE POINT ENERGY      -607.689249824660
Dispersion correction            ... done
                    ***********************HURRAY********************

CARTESIAN COORDINATES (ANGSTROEM)
---------------------------------
  C     -1.232875    1.203301   -0.237885
  C     -0.003248    0.692104    0.038663
  C     -0.129114   -0.736149    0.029859
  C     -1.511006   -1.071347   -0.274242
  O     -2.136390   -2.078966   -0.407092
  O     -2.143031    0.219276   -0.425598
  C      1.104084   -1.271478    0.296505
  O      2.016977   -0.271981    0.476369
  C      1.392295    1.015070    0.336173
  O      2.022801    2.016582    0.467613
  C      1.524881   -2.644721    0.400115
  C      2.797220   -3.016456    0.625920
  H     -1.600311    2.224397   -0.335701
  H      0.724281   -3.377665    0.270521
  H      3.586298   -2.271359    0.749342
  H      3.072958   -4.070877    0.693198

 Multiplicity           Mult            ....    1
 Number of Electrons    NEL             ....   84
 Basis Dimension        Dim             ....  188

ORBITAL ENERGIES
----------------

  NO   OCC          E(Eh)            E(eV)
   0   2.0000     -19.216177      -522.8988
   1   2.0000     -19.214702      -522.8586
   2   2.0000     -19.155242      -521.2406
   3   2.0000     -19.153763      -521.2004
   4   2.0000     -10.348542      -281.5982
   5   2.0000     -10.344590      -281.4906
   6   2.0000     -10.305010      -280.4136
   7   2.0000     -10.301349      -280.3139
   8   2.0000     -10.233334      -278.4632
   9   2.0000     -10.231322      -278.4084
  10   2.0000     -10.226458      -278.2761
  11   2.0000     -10.224577      -278.2249
  12   2.0000      -1.132075       -30.8053
  13   2.0000      -1.124750       -30.6060
  14   2.0000      -1.056433       -28.7470
  15   2.0000      -1.054181       -28.6857
  16   2.0000      -0.857379       -23.3305
  17   2.0000      -0.827283       -22.5115
  18   2.0000      -0.760143       -20.6845
  19   2.0000      -0.718346       -19.5472
  20   2.0000      -0.680942       -18.5294
  21   2.0000      -0.635361       -17.2891
  22   2.0000      -0.623177       -16.9575
  23   2.0000      -0.553167       -15.0524
  24   2.0000      -0.538712       -14.6591
  25   2.0000      -0.517481       -14.0814
  26   2.0000      -0.512422       -13.9437
  27   2.0000      -0.484348       -13.1798
  28   2.0000      -0.479400       -13.0451
  29   2.0000      -0.467113       -12.7108
  30   2.0000      -0.463350       -12.6084
  31   2.0000      -0.442124       -12.0308
  32   2.0000      -0.424539       -11.5523
  33   2.0000      -0.408601       -11.1186
  34   2.0000      -0.405171       -11.0253
  35   2.0000      -0.397819       -10.8252
  36   2.0000      -0.389285       -10.5930
  37   2.0000      -0.333322        -9.0701
  38   2.0000      -0.318857        -8.6765
  39   2.0000      -0.318435        -8.6651
  40   2.0000      -0.303893        -8.2693
  41   2.0000      -0.242841        -6.6080
  42   0.0000      -0.119276        -3.2457
  43   0.0000      -0.058564        -1.5936
  44   0.0000       0.000660         0.0180
  45   0.0000       0.062171         1.6918
  46   0.0000       0.070854         1.9280

MULLIKEN ATOMIC CHARGES
-----------------------
   0 C :    0.115872
   1 C :   -0.042742
   2 C :   -0.069639
   3 C :    0.248955
   4 O :   -0.124182
   5 O :   -0.265554
   6 C :    0.108016
   7 O :   -0.282200
   8 C :    0.263739
   9 O :   -0.116437
  10 C :   -0.031784
  11 C :    0.032421
  12 H :    0.042094
  13 H :    0.023282
  14 H :    0.055266
  15 H :    0.042892
Sum of atomic charges:   -0.0000000

LOEWDIN ATOMIC CHARGES
----------------------
   0 C :    0.133256
   1 C :   -0.133140
   2 C :   -0.128536
   3 C :    0.114551
   4 O :   -0.115443
   5 O :   -0.065523
   6 C :    0.110059
   7 O :   -0.072137
   8 C :    0.120654
   9 O :   -0.107957
  10 C :   -0.043498
  11 C :    0.023833
  12 H :    0.040100
  13 H :    0.048322
  14 H :    0.038572
  15 H :    0.036887

  Mayer bond orders larger than 0.100000
B(  0-C ,  1-C ) :   1.4983 B(  0-C ,  5-O ) :   1.1588 B(  0-C , 12-H ) :   0.9952
B(  1-C ,  2-C ) :   1.1519 B(  1-C ,  8-C ) :   0.9376 B(  2-C ,  3-C ) :   0.9774
B(  2-C ,  6-C ) :   1.4106 B(  3-C ,  4-O ) :   2.2317 B(  3-C ,  5-O ) :   0.9358
B(  6-C ,  7-O ) :   1.1448 B(  6-C , 10-C ) :   1.1818 B(  7-O ,  8-C ) :   0.9396
B(  8-C ,  9-O ) :   2.2580 B( 10-C , 11-C ) :   1.8434 B( 10-C , 13-H ) :   0.9501
B( 11-C , 14-H ) :   0.9515 B( 11-C , 15-H ) :   0.9430

Dispersion correction           -0.029787615
FINAL SINGLE POINT ENERGY      -607.689248652969

DIPOLE MOMENT
-------------
                                X             Y             Z
Electronic contribution:     -3.90349       4.82632      -0.80717
Nuclear contribution   :      4.27601      -5.18922       0.88126
                        -----------------------------------------
Total Dipole Moment    :      0.37252      -0.36290       0.07410
                        -----------------------------------------
Magnitude (a.u.)       :      0.52532
Magnitude (Debye)      :      1.33525

Rotational constants in cm-1:     0.042498     0.032160     0.018308
Rotational constants in MHz :  1274.051694   964.132418   548.851902

                             ****ORCA TERMINATED NORMALLY****
TOTAL RUN TIME: 0 days 0 hours 8 minutes 45 seconds 804 msec
