                         Program Version 4.2.0 -  RELEASE  -
|  1> # ORCA input file
|  2> # SCF done        -46.489891097011          0.000262277120
|  3> ! B3LYP/G D3BJ Opt RIJCOSX def2-SVP def2/J
|  4> * xyz 0 1
|  5>    C       -1.67123        -1.24752         0.22771
|  6>    S       -2.80475         0.01982         0.32017
|  7>    C       -1.59192         1.21719         0.19225
|  8>    C       -0.33739         0.66566         0.08014
|  9>    C       -0.38492        -0.77309         0.10117
| 10>    C        0.81939        -1.50538        -0.00331
| 11>    C        1.99697        -0.83271        -0.12306
| 12>    C        3.29833        -1.57375        -0.23554
| 13>    F        3.13227        -2.90815        -0.20349
| 14>    F        3.95037        -1.31368        -1.38086
| 15>    F        4.14997        -1.28702         0.76317
| 16>    C        2.05555         0.60326        -0.14686
| 17>    O        3.30468         1.10807        -0.27346
| 18>    C        3.46581         2.50538        -0.31226
| 19>    C        0.90510         1.33331        -0.04559
| 20>    H       -1.99745        -2.26701         0.26985
| 21>    H       -1.86174         2.25366         0.20587
| 22>    H        0.79463        -2.58377         0.01271
| 23>    H        4.53510         2.67202        -0.42687
| 24>    H        3.12066         2.97153         0.61585
| 25>    H        2.93453         2.94385        -1.16265
| 26>    H        0.91111         2.41055        -0.05825
| 27> *
| 28>
| 29>                          ****END OF INPUT****
 Total Charge           Charge          ....    0
 Multiplicity           Mult            ....    1
 Number of Electrons    NEL             ....  118
Dispersion correction           -0.046816231
FINAL SINGLE POINT ENERGY     -1157.579399275874
Dispersion correction            ... done
Dispersion correction           -0.046670790
FINAL SINGLE POINT ENERGY     -1157.582127898302
Dispersion correction            ... done
Dispersion correction           -0.046650327
FINAL SINGLE POINT ENERGY     -1157.582236180180
Dispersion correction            ... done
FINAL SINGLE POINT ENERGY     -1157.582204427971
Dispersion correction            ... done
Dispersion correction           -0.046649374
FINAL SINGLE POINT ENERGY     -1157.582213964124
Dispersion correction            ... done
Dispersion correction           -0.046654872
FINAL SINGLE POINT ENERGY     -1157.582217337248
Dispersion correction            ... done
                    ***********************HURRAY********************

CARTESIAN COORDINATES (ANGSTROEM)
---------------------------------
  C     -1.688411   -1.258714    0.234823
  S     -2.822850    0.019458    0.331313
  C     -1.614919    1.234386    0.191521
  C     -0.347849    0.677756    0.072815
  C     -0.391642   -0.773569    0.099899
  C      0.829579   -1.508262   -0.003022
  C      2.021043   -0.845255   -0.126730
  C      3.321036   -1.603523   -0.242287
  F      3.126346   -2.933082   -0.146432
  F      3.924931   -1.383383   -1.423405
  F      4.194259   -1.263132    0.721527
  C      2.062803    0.602162   -0.163140
  O      3.303237    1.116221   -0.299707
  C      3.468043    2.513704   -0.294475
  C      0.910314    1.344508   -0.063174
  H     -2.015589   -2.295734    0.278817
  H     -1.888689    2.287554    0.197207
  H      0.814033   -2.598684    0.021902
  H      4.544964    2.701800   -0.387887
  H      3.099668    2.958067    0.647796
  H      2.939759    2.987250   -1.140730
  H      0.935004    2.432693   -0.089942

 Multiplicity           Mult            ....    1
 Number of Electrons    NEL             ....  118
 Basis Dimension        Dim             ....  249

ORBITAL ENERGIES
----------------

  NO   OCC          E(Eh)            E(eV)
   0   2.0000     -88.892040     -2418.8754
   1   2.0000     -24.710740      -672.4134
   2   2.0000     -24.703587      -672.2188
   3   2.0000     -24.703387      -672.2133
   4   2.0000     -19.176551      -521.8205
   5   2.0000     -10.426290      -283.7138
   6   2.0000     -10.265315      -279.3334
   7   2.0000     -10.253976      -279.0249
   8   2.0000     -10.222811      -278.1768
   9   2.0000     -10.216155      -277.9957
  10   2.0000     -10.215989      -277.9912
  11   2.0000     -10.214881      -277.9610
  12   2.0000     -10.210383      -277.8386
  13   2.0000     -10.208978      -277.8004
  14   2.0000     -10.197681      -277.4930
  15   2.0000      -7.986671      -217.3284
  16   2.0000      -5.954393      -162.0273
  17   2.0000      -5.950232      -161.9140
  18   2.0000      -5.949039      -161.8816
  19   2.0000      -1.286083       -34.9961
  20   2.0000      -1.194975       -32.5169
  21   2.0000      -1.190703       -32.4007
  22   2.0000      -1.075735       -29.2722
  23   2.0000      -0.899588       -24.4790
  24   2.0000      -0.846538       -23.0355
  25   2.0000      -0.778953       -21.1964
  26   2.0000      -0.764616       -20.8063
  27   2.0000      -0.728182       -19.8148
  28   2.0000      -0.698547       -19.0084
  29   2.0000      -0.682561       -18.5734
  30   2.0000      -0.627605       -17.0780
  31   2.0000      -0.601618       -16.3709
  32   2.0000      -0.584499       -15.9050
  33   2.0000      -0.579497       -15.7689
  34   2.0000      -0.579125       -15.7588
  35   2.0000      -0.551962       -15.0197
  36   2.0000      -0.528352       -14.3772
  37   2.0000      -0.519241       -14.1293
  38   2.0000      -0.484532       -13.1848
  39   2.0000      -0.474884       -12.9222
  40   2.0000      -0.468064       -12.7367
  41   2.0000      -0.457281       -12.4433
  42   2.0000      -0.455514       -12.3952
  43   2.0000      -0.431905       -11.7527
  44   2.0000      -0.425868       -11.5885
  45   2.0000      -0.423395       -11.5212
  46   2.0000      -0.415434       -11.3045
  47   2.0000      -0.411843       -11.2068
  48   2.0000      -0.410610       -11.1733
  49   2.0000      -0.396519       -10.7898
  50   2.0000      -0.387139       -10.5346
  51   2.0000      -0.372604       -10.1391
  52   2.0000      -0.371370       -10.1055
  53   2.0000      -0.356672        -9.7056
  54   2.0000      -0.340351        -9.2614
  55   2.0000      -0.321283        -8.7426
  56   2.0000      -0.293618        -7.9897
  57   2.0000      -0.248591        -6.7645
  58   2.0000      -0.211275        -5.7491
  59   0.0000      -0.067656        -1.8410
  60   0.0000       0.003869         0.1053
  61   0.0000       0.018245         0.4965
  62   0.0000       0.042946         1.1686
  63   0.0000       0.056308         1.5322

MULLIKEN ATOMIC CHARGES
-----------------------
   0 C :   -0.134707
   1 S :    0.140759
   2 C :   -0.152080
   3 C :    0.116882
   4 C :    0.106140
   5 C :   -0.040152
   6 C :   -0.147451
   7 C :    0.568398
   8 F :   -0.172447
   9 F :   -0.172071
  10 F :   -0.171102
  11 C :    0.241248
  12 O :   -0.303101
  13 C :    0.186582
  14 C :   -0.135921
  15 H :    0.022188
  16 H :    0.016068
  17 H :   -0.012154
  18 H :    0.040012
  19 H :    0.020509
  20 H :    0.022303
  21 H :   -0.039902
Sum of atomic charges:   -0.0000000

LOEWDIN ATOMIC CHARGES
----------------------
   0 C :   -0.199871
   1 S :    0.484363
   2 C :   -0.220827
   3 C :   -0.039239
   4 C :   -0.060752
   5 C :    0.011750
   6 C :   -0.098144
   7 C :    0.175736
   8 F :   -0.065164
   9 F :   -0.064960
  10 F :   -0.063650
  11 C :    0.057062
  12 O :   -0.087797
  13 C :    0.082583
  14 C :   -0.086048
  15 H :    0.027108
  16 H :    0.024040
  17 H :    0.035034
  18 H :    0.030359
  19 H :    0.015000
  20 H :    0.014730
  21 H :    0.028686

  Mayer bond orders larger than 0.100000
B(  0-C ,  1-S ) :   1.2211 B(  0-C ,  2-C ) :   0.1135 B(  0-C ,  4-C ) :   1.4001
B(  0-C , 15-H ) :   0.9655 B(  1-S ,  2-C ) :   1.1838 B(  2-C ,  3-C ) :   1.4232
B(  2-C , 16-H ) :   0.9642 B(  3-C ,  4-C ) :   1.2026 B(  3-C , 14-C ) :   1.1340
B(  4-C ,  5-C ) :   1.1465 B(  5-C ,  6-C ) :   1.5868 B(  5-C , 17-H ) :   0.9998
B(  6-C ,  7-C ) :   0.9387 B(  6-C , 11-C ) :   1.1796 B(  7-C ,  8-F ) :   1.1353
B(  7-C ,  9-F ) :   1.1515 B(  7-C , 10-F ) :   1.1490 B( 11-C , 12-O ) :   1.1840
B( 11-C , 14-C ) :   1.4608 B( 12-O , 13-C ) :   0.9612 B( 13-C , 18-H ) :   0.9761
B( 13-C , 19-H ) :   0.9643 B( 13-C , 20-H ) :   0.9646 B( 14-C , 21-H ) :   1.0012

Dispersion correction           -0.046654060
FINAL SINGLE POINT ENERGY     -1157.582211314514

DIPOLE MOMENT
-------------
                                X             Y             Z
Electronic contribution:      6.22078     -13.36148      -0.47404
Nuclear contribution   :     -7.05126      14.34332       0.56064
                        -----------------------------------------
Total Dipole Moment    :     -0.83048       0.98185       0.08660
                        -----------------------------------------
Magnitude (a.u.)       :      1.28888
Magnitude (Debye)      :      3.27608

Rotational constants in cm-1:     0.032895     0.011350     0.008848
Rotational constants in MHz :   986.168146   340.273612   265.241635

                             ****ORCA TERMINATED NORMALLY****
TOTAL RUN TIME: 0 days 0 hours 11 minutes 2 seconds 881 msec
