                         Program Version 4.2.0 -  RELEASE  -
|  1> # ORCA input file
|  2> # SCF done        -43.772835563657          0.000598390137
|  3> ! B3LYP/G D3BJ Opt RIJCOSX def2-SVP def2/J
|  4> * xyz 0 1
|  5>    C       -1.48088        -1.19051         0.15694
|  6>    S       -2.65002         0.04581         0.25254
|  7>    C       -1.47492         1.27574         0.16462
|  8>    C       -0.20090         0.76040         0.06286
|  9>    C       -0.20599        -0.68186         0.05849
| 10>    C        1.01715        -1.38649        -0.04061
| 11>    C        2.18247        -0.68766        -0.13037
| 12>    C        3.50050        -1.40179        -0.23879
| 13>    F        3.36374        -2.73716        -0.22460
| 14>    F        4.15170        -1.10452        -1.37587
| 15>    F        4.33226        -1.10018         0.77207
| 16>    C        2.19445         0.74529        -0.12685
| 17>    C        3.42018         1.44676        -0.22269
| 18>    N        4.39464         2.04429        -0.29764
| 19>    C        1.02430         1.45390        -0.03152
| 20>    H       -1.77958        -2.21912         0.17692
| 21>    H       -1.76795         2.30587         0.19078
| 22>    H        1.01316        -2.46535        -0.04404
| 23>    H        1.03730         2.53310        -0.02877
| 24> *
| 25>
| 26>                          ****END OF INPUT****
 Total Charge           Charge          ....    0
 Multiplicity           Mult            ....    1
 Number of Electrons    NEL             ....  114
Dispersion correction           -0.045104602
FINAL SINGLE POINT ENERGY     -1135.307340462716
Dispersion correction            ... done
Dispersion correction           -0.044832357
FINAL SINGLE POINT ENERGY     -1135.310616518770
Dispersion correction            ... done
Dispersion correction           -0.044802455
FINAL SINGLE POINT ENERGY     -1135.310652664297
Dispersion correction            ... done
FINAL SINGLE POINT ENERGY     -1135.310569318805
Dispersion correction            ... done
Dispersion correction           -0.044808182
FINAL SINGLE POINT ENERGY     -1135.310613082176
Dispersion correction            ... done
Dispersion correction           -0.044811140
FINAL SINGLE POINT ENERGY     -1135.310619390112
Dispersion correction            ... done
                    ***********************HURRAY********************

CARTESIAN COORDINATES (ANGSTROEM)
---------------------------------
  C     -1.503551   -1.204825    0.148551
  S     -2.668156    0.048194    0.251591
  C     -1.494938    1.290991    0.165365
  C     -0.211908    0.763055    0.060257
  C     -0.216127   -0.689653    0.051080
  C      1.024863   -1.392163   -0.045270
  C      2.202932   -0.698421   -0.123094
  C      3.518093   -1.432592   -0.245558
  F      3.365900   -2.762061   -0.139814
  F      4.096837   -1.190379   -1.434430
  F      4.385375   -1.049384    0.707151
  C      2.209100    0.751685   -0.116260
  C      3.439403    1.484978   -0.196443
  N      4.418791    2.104046   -0.258168
  C      1.027227    1.457408   -0.028070
  H     -1.812550   -2.248240    0.160548
  H     -1.789492    2.338349    0.193434
  H      1.032536   -2.482899   -0.054740
  H      1.047274    2.548430   -0.022661

 Multiplicity           Mult            ....    1
 Number of Electrons    NEL             ....  114
 Basis Dimension        Dim             ....  234

ORBITAL ENERGIES
----------------

  NO   OCC          E(Eh)            E(eV)
   0   2.0000     -88.917702     -2419.5737
   1   2.0000     -24.727703      -672.8750
   2   2.0000     -24.720506      -672.6792
   3   2.0000     -24.719885      -672.6623
   4   2.0000     -14.331314      -389.9749
   5   2.0000     -10.442517      -284.1553
   6   2.0000     -10.255268      -279.0600
   7   2.0000     -10.244858      -278.7768
   8   2.0000     -10.244194      -278.7587
   9   2.0000     -10.240235      -278.6510
  10   2.0000     -10.238786      -278.6115
  11   2.0000     -10.235149      -278.5126
  12   2.0000     -10.233992      -278.4811
  13   2.0000     -10.233689      -278.4728
  14   2.0000     -10.231453      -278.4120
  15   2.0000      -8.012308      -218.0260
  16   2.0000      -5.979910      -162.7216
  17   2.0000      -5.975685      -162.6066
  18   2.0000      -5.974934      -162.5862
  19   2.0000      -1.303342       -35.4657
  20   2.0000      -1.212823       -33.0026
  21   2.0000      -1.207403       -32.8551
  22   2.0000      -0.926893       -25.2220
  23   2.0000      -0.903758       -24.5925
  24   2.0000      -0.872479       -23.7414
  25   2.0000      -0.806016       -21.9328
  26   2.0000      -0.786982       -21.4149
  27   2.0000      -0.748299       -20.3622
  28   2.0000      -0.702348       -19.1119
  29   2.0000      -0.667967       -18.1763
  30   2.0000      -0.637353       -17.3433
  31   2.0000      -0.615673       -16.7533
  32   2.0000      -0.597843       -16.2681
  33   2.0000      -0.595358       -16.2005
  34   2.0000      -0.574486       -15.6326
  35   2.0000      -0.548687       -14.9305
  36   2.0000      -0.531668       -14.4674
  37   2.0000      -0.487577       -13.2676
  38   2.0000      -0.475938       -12.9509
  39   2.0000      -0.473823       -12.8934
  40   2.0000      -0.471650       -12.8343
  41   2.0000      -0.451688       -12.2910
  42   2.0000      -0.446350       -12.1458
  43   2.0000      -0.437590       -11.9074
  44   2.0000      -0.431737       -11.7482
  45   2.0000      -0.430818       -11.7231
  46   2.0000      -0.413089       -11.2407
  47   2.0000      -0.402568       -10.9544
  48   2.0000      -0.393505       -10.7078
  49   2.0000      -0.390426       -10.6240
  50   2.0000      -0.377949       -10.2845
  51   2.0000      -0.361765        -9.8441
  52   2.0000      -0.347562        -9.4576
  53   2.0000      -0.339549        -9.2396
  54   2.0000      -0.319498        -8.6940
  55   2.0000      -0.281801        -7.6682
  56   2.0000      -0.241721        -6.5776
  57   0.0000      -0.098213        -2.6725
  58   0.0000      -0.047535        -1.2935
  59   0.0000      -0.011647        -0.3169
  60   0.0000       0.019907         0.5417
  61   0.0000       0.029674         0.8075

MULLIKEN ATOMIC CHARGES
-----------------------
   0 C :   -0.129788
   1 S :    0.169421
   2 C :   -0.127475
   3 C :    0.104031
   4 C :    0.109422
   5 C :   -0.050143
   6 C :   -0.061594
   7 C :    0.556325
   8 F :   -0.161565
   9 F :   -0.165271
  10 F :   -0.164009
  11 C :   -0.070832
  12 C :   -0.140639
  13 N :    0.081160
  14 C :   -0.007826
  15 H :    0.032745
  16 H :    0.033661
  17 H :   -0.003309
  18 H :   -0.004316
Sum of atomic charges:   -0.0000000

LOEWDIN ATOMIC CHARGES
----------------------
   0 C :   -0.195099
   1 S :    0.515021
   2 C :   -0.194119
   3 C :   -0.051323
   4 C :   -0.048482
   5 C :    0.010754
   6 C :   -0.069189
   7 C :    0.174114
   8 F :   -0.055634
   9 F :   -0.058332
  10 F :   -0.054302
  11 C :   -0.059491
  12 C :   -0.035869
  13 N :   -0.053876
  14 C :    0.029586
  15 H :    0.031650
  16 H :    0.032164
  17 H :    0.038803
  18 H :    0.043625

  Mayer bond orders larger than 0.100000
B(  0-C ,  1-S ) :   1.2163 B(  0-C ,  2-C ) :   0.1085 B(  0-C ,  4-C ) :   1.4090
B(  0-C , 15-H ) :   0.9654 B(  1-S ,  2-C ) :   1.2206 B(  2-C ,  3-C ) :   1.3886
B(  2-C , 16-H ) :   0.9660 B(  3-C ,  4-C ) :   1.1954 B(  3-C , 14-C ) :   1.1637
B(  4-C ,  5-C ) :   1.1532 B(  5-C ,  6-C ) :   1.5643 B(  5-C , 17-H ) :   0.9993
B(  6-C ,  7-C ) :   0.9462 B(  6-C , 11-C ) :   1.1827 B(  7-C ,  8-F ) :   1.1498
B(  7-C ,  9-F ) :   1.1485 B(  7-C , 10-F ) :   1.1363 B( 11-C , 12-C ) :   1.0773
B( 11-C , 14-C ) :   1.5483 B( 12-C , 13-N ) :   3.0034 B( 14-C , 18-H ) :   0.9991

Dispersion correction           -0.044812336
FINAL SINGLE POINT ENERGY     -1135.310615502887

DIPOLE MOMENT
-------------
                                X             Y             Z
Electronic contribution:     10.99342      -5.43379      -0.91666
Nuclear contribution   :    -13.64159       5.04086       1.11980
                        -----------------------------------------
Total Dipole Moment    :     -2.64817      -0.39293       0.20313
                        -----------------------------------------
Magnitude (a.u.)       :      2.68485
Magnitude (Debye)      :      6.82435

Rotational constants in cm-1:     0.037493     0.011086     0.008961
Rotational constants in MHz :  1124.005930   332.356837   268.656518

                             ****ORCA TERMINATED NORMALLY****
TOTAL RUN TIME: 0 days 0 hours 10 minutes 52 seconds 53 msec
