                         Program Version 4.2.0 -  RELEASE  -
|  1> # ORCA input file
|  2> # SCF done        -43.632010681399          0.000362306155
|  3> ! B3LYP/G D3BJ Opt RIJCOSX def2-SVP def2/J
|  4> * xyz 0 1
|  5>    C       -3.44614        -0.78328        -0.11852
|  6>    C       -2.37229        -1.59628        -0.11542
|  7>    C       -1.13191        -0.88644        -0.09752
|  8>    C       -1.33744         0.51426        -0.08713
|  9>    S       -3.04236         0.89945        -0.09929
| 10>    C       -0.31033         1.44176        -0.06859
| 11>    C       -0.58766         2.91444        -0.01708
| 12>    C       -0.59618         3.40984         1.43036
| 13>    C        0.98853         0.92566        -0.04745
| 14>    C        1.19405        -0.47491        -0.05794
| 15>    C        0.16713        -1.40238        -0.08897
| 16>    C        0.44469        -2.87559        -0.05676
| 17>    C        0.42939        -3.39581         1.38194
| 18>    S        2.89855        -0.86032        -0.02265
| 19>    C        3.30228         0.82243         0.00054
| 20>    C        2.22859         1.63548        -0.01438
| 21>    H       -4.48311        -1.05813        -0.12933
| 22>    H       -2.44540        -2.66879        -0.12364
| 23>    H       -1.56270         3.11034        -0.46894
| 24>    H        0.16791         3.45768        -0.58705
| 25>    H       -1.36644         2.89332         1.99846
| 26>    H       -0.79831         4.47765         1.46384
| 27>    H        0.36497         3.22072         1.90345
| 28>    H        1.42744        -3.06327        -0.49516
| 29>    H       -0.30040        -3.40972        -0.64846
| 30>    H        1.18977        -2.88879         1.97147
| 31>    H        0.63173        -4.46399         1.40067
| 32>    H       -0.53966        -3.21511         1.84204
| 33>    H        4.33898         1.09719         0.02800
| 34>    H        2.30141         2.70795        -0.00028
| 35> *
| 36>
| 37>                          ****END OF INPUT****
 Total Charge           Charge          ....    0
 Multiplicity           Mult            ....    1
 Number of Electrons    NEL             ....  130
Dispersion correction           -0.074775183
FINAL SINGLE POINT ENERGY     -1337.785011471376
Dispersion correction            ... done
Dispersion correction           -0.074229035
FINAL SINGLE POINT ENERGY     -1337.789572314445
Dispersion correction            ... done
Dispersion correction           -0.074135395
FINAL SINGLE POINT ENERGY     -1337.789767580183
Dispersion correction            ... done
FINAL SINGLE POINT ENERGY     -1337.789755210819
FINAL SINGLE POINT ENERGY     -1337.789721883252
Dispersion correction            ... done
Dispersion correction           -0.074116463
FINAL SINGLE POINT ENERGY     -1337.789696145813
Dispersion correction            ... done
Dispersion correction           -0.074118275
FINAL SINGLE POINT ENERGY     -1337.789713379699
Dispersion correction            ... done
                    ***********************HURRAY********************

CARTESIAN COORDINATES (ANGSTROEM)
---------------------------------
  C     -3.488289   -0.731074   -0.157579
  C     -2.416834   -1.569190   -0.146087
  C     -1.150780   -0.874366   -0.120801
  C     -1.334483    0.543257   -0.111246
  S     -3.045675    0.958736   -0.133688
  C     -0.281852    1.462159   -0.081150
  C     -0.533518    2.946623    0.020280
  C     -0.739668    3.404583    1.472877
  C      1.017380    0.915897   -0.075958
  C      1.201079   -0.501868   -0.087640
  C      0.148249   -1.420745   -0.102362
  C      0.395977   -2.907074   -0.022441
  C      0.548541   -3.394985    1.426592
  S      2.912311   -0.917583   -0.073849
  C      3.355192    0.772229   -0.056820
  C      2.283738    1.610424   -0.056514
  H     -4.541697   -1.008443   -0.183046
  H     -2.516616   -2.654981   -0.158446
  H     -1.423179    3.205302   -0.578693
  H      0.302200    3.502666   -0.432201
  H     -1.575453    2.861467    1.938338
  H     -0.963615    4.482183    1.524738
  H      0.160617    3.209522    2.076440
  H      1.307128   -3.154294   -0.593299
  H     -0.422651   -3.452940   -0.516531
  H      1.367825   -2.863339    1.932636
  H      0.768982   -4.473921    1.464282
  H     -0.372731   -3.210666    2.001341
  H      4.408886    1.049593   -0.048236
  H      2.384027    2.696190   -0.044728

 Multiplicity           Mult            ....    1
 Number of Electrons    NEL             ....  130
 Basis Dimension        Dim             ....  302

ORBITAL ENERGIES
----------------

  NO   OCC          E(Eh)            E(eV)
   0   2.0000     -88.866577     -2418.1825
   1   2.0000     -88.866547     -2418.1817
   2   2.0000     -10.215962      -277.9905
   3   2.0000     -10.215955      -277.9903
   4   2.0000     -10.212899      -277.9071
   5   2.0000     -10.212799      -277.9044
   6   2.0000     -10.200411      -277.5673
   7   2.0000     -10.200340      -277.5654
   8   2.0000     -10.197973      -277.5009
   9   2.0000     -10.197873      -277.4982
  10   2.0000     -10.195515      -277.4341
  11   2.0000     -10.195425      -277.4316
  12   2.0000     -10.195138      -277.4238
  13   2.0000     -10.195112      -277.4231
  14   2.0000     -10.183133      -277.0971
  15   2.0000     -10.183090      -277.0960
  16   2.0000      -7.961348      -216.6393
  17   2.0000      -7.961329      -216.6388
  18   2.0000      -5.929769      -161.3572
  19   2.0000      -5.929757      -161.3569
  20   2.0000      -5.925807      -161.2494
  21   2.0000      -5.925796      -161.2491
  22   2.0000      -5.921938      -161.1441
  23   2.0000      -5.921926      -161.1438
  24   2.0000      -0.894732       -24.3469
  25   2.0000      -0.867007       -23.5925
  26   2.0000      -0.809883       -22.0380
  27   2.0000      -0.808137       -21.9905
  28   2.0000      -0.754590       -20.5334
  29   2.0000      -0.732790       -19.9402
  30   2.0000      -0.731243       -19.8981
  31   2.0000      -0.706331       -19.2203
  32   2.0000      -0.681602       -18.5473
  33   2.0000      -0.642213       -17.4755
  34   2.0000      -0.604072       -16.4376
  35   2.0000      -0.604007       -16.4359
  36   2.0000      -0.568109       -15.4590
  37   2.0000      -0.546170       -14.8620
  38   2.0000      -0.540289       -14.7020
  39   2.0000      -0.524428       -14.2704
  40   2.0000      -0.477886       -13.0039
  41   2.0000      -0.459872       -12.5137
  42   2.0000      -0.442871       -12.0511
  43   2.0000      -0.442447       -12.0396
  44   2.0000      -0.441126       -12.0036
  45   2.0000      -0.434953       -11.8357
  46   2.0000      -0.422933       -11.5086
  47   2.0000      -0.410481       -11.1698
  48   2.0000      -0.392204       -10.6724
  49   2.0000      -0.391714       -10.6591
  50   2.0000      -0.383771       -10.4429
  51   2.0000      -0.375556       -10.2194
  52   2.0000      -0.375024       -10.2049
  53   2.0000      -0.371884       -10.1195
  54   2.0000      -0.361009        -9.8236
  55   2.0000      -0.359820        -9.7912
  56   2.0000      -0.350181        -9.5289
  57   2.0000      -0.343192        -9.3387
  58   2.0000      -0.336870        -9.1667
  59   2.0000      -0.319820        -8.7028
  60   2.0000      -0.300645        -8.1810
  61   2.0000      -0.285728        -7.7751
  62   2.0000      -0.253692        -6.9033
  63   2.0000      -0.229769        -6.2523
  64   2.0000      -0.198305        -5.3962
  65   0.0000      -0.044838        -1.2201
  66   0.0000      -0.006063        -0.1650
  67   0.0000       0.012483         0.3397
  68   0.0000       0.027973         0.7612
  69   0.0000       0.038125         1.0374

MULLIKEN ATOMIC CHARGES
-----------------------
   0 C :   -0.056191
   1 C :   -0.011097
   2 C :    0.090103
   3 C :   -0.124185
   4 S :    0.079422
   5 C :   -0.103239
   6 C :    0.040938
   7 C :    0.023896
   8 C :    0.090472
   9 C :   -0.124529
  10 C :   -0.103877
  11 C :    0.042761
  12 C :    0.023913
  13 S :    0.079179
  14 C :   -0.056205
  15 C :   -0.011375
  16 H :    0.024455
  17 H :   -0.014726
  18 H :    0.006557
  19 H :    0.001429
  20 H :    0.013336
  21 H :    0.015623
  22 H :    0.013765
  23 H :    0.005653
  24 H :    0.001576
  25 H :    0.013374
  26 H :    0.015819
  27 H :    0.013427
  28 H :    0.024473
  29 H :   -0.014746
Sum of atomic charges:   -0.0000000

LOEWDIN ATOMIC CHARGES
----------------------
   0 C :   -0.167997
   1 C :   -0.066827
   2 C :   -0.046590
   3 C :   -0.154250
   4 S :    0.381636
   5 C :   -0.037739
   6 C :   -0.030983
   7 C :   -0.049949
   8 C :   -0.046563
   9 C :   -0.154306
  10 C :   -0.037738
  11 C :   -0.030816
  12 C :   -0.049863
  13 S :    0.381427
  14 C :   -0.168005
  15 C :   -0.066844
  16 H :    0.025475
  17 H :    0.028779
  18 H :    0.023182
  19 H :    0.025697
  20 H :    0.021925
  21 H :    0.023562
  22 H :    0.024125
  23 H :    0.022950
  24 H :    0.025711
  25 H :    0.022144
  26 H :    0.023596
  27 H :    0.024021
  28 H :    0.025475
  29 H :    0.028764

  Mayer bond orders larger than 0.100000
B(  0-C ,  1-C ) :   1.6229 B(  0-C ,  4-S ) :   1.1033 B(  0-C , 16-H ) :   0.9636
B(  1-C ,  2-C ) :   1.1706 B(  1-C , 17-H ) :   0.9835 B(  2-C ,  3-C ) :   1.2706
B(  2-C , 10-C ) :   1.3456 B(  3-C ,  4-S ) :   1.0504 B(  3-C ,  5-C ) :   1.4358
B(  5-C ,  6-C ) :   1.0860 B(  5-C ,  8-C ) :   1.3456 B(  6-C ,  7-C ) :   1.1070
B(  6-C , 18-H ) :   0.9142 B(  6-C , 19-H ) :   0.9146 B(  7-C , 20-H ) :   0.9654
B(  7-C , 21-H ) :   0.9646 B(  7-C , 22-H ) :   0.9669 B(  8-C ,  9-C ) :   1.2701
B(  8-C , 15-C ) :   1.1704 B(  9-C , 10-C ) :   1.4363 B(  9-C , 13-S ) :   1.0504
B( 10-C , 11-C ) :   1.0867 B( 11-C , 12-C ) :   1.1069 B( 11-C , 23-H ) :   0.9137
B( 11-C , 24-H ) :   0.9144 B( 12-C , 25-H ) :   0.9654 B( 12-C , 26-H ) :   0.9647
B( 12-C , 27-H ) :   0.9668 B( 13-S , 14-C ) :   1.1032 B( 14-C , 15-C ) :   1.6233
B( 14-C , 28-H ) :   0.9636 B( 15-C , 29-H ) :   0.9836

Dispersion correction           -0.074116201
FINAL SINGLE POINT ENERGY     -1337.789718866069

DIPOLE MOMENT
-------------
                                X             Y             Z
Electronic contribution:      0.12099       0.06666      -6.47988
Nuclear contribution   :     -0.12231      -0.06771       6.56312
                        -----------------------------------------
Total Dipole Moment    :     -0.00132      -0.00105       0.08324
                        -----------------------------------------
Magnitude (a.u.)       :      0.08326
Magnitude (Debye)      :      0.21163

Rotational constants in cm-1:     0.019515     0.013627     0.008611
Rotational constants in MHz :   585.043191   408.523070   258.138794

                             ****ORCA TERMINATED NORMALLY****
TOTAL RUN TIME: 0 days 0 hours 23 minutes 51 seconds 156 msec
