                         Program Version 4.2.0 -  RELEASE  -
|  1> # ORCA input file
|  2> # SCF done        -36.944033157655          0.000747464056
|  3> ! B3LYP/G D3BJ Opt RIJCOSX def2-SVP def2/J
|  4> * xyz 0 1
|  5>    C        1.32401        -1.32974         0.38550
|  6>    S        2.59130        -0.17705         0.34812
|  7>    C        1.46981         1.10670        -0.02227
|  8>    C        0.18254         0.62659        -0.08714
|  9>    C        0.10572        -0.77254         0.14504
| 10>    C       -1.18514        -1.53291         0.15882
| 11>    C       -2.32025        -0.71012        -0.44534
| 12>    C       -2.30837         0.72457         0.10805
| 13>    C       -2.40198         0.66912         1.61141
| 14>    O       -3.42409         0.56943         2.22987
| 15>    C       -1.04098         1.44836        -0.34953
| 16>    C        2.01618         2.42971        -0.18939
| 17>    C        1.44561         3.47087        -0.78949
| 18>    H        1.54950        -2.35845         0.58600
| 19>    H       -1.43326        -1.79353         1.19301
| 20>    H       -1.06810        -2.47006        -0.39063
| 21>    H       -3.27770        -1.18258        -0.22152
| 22>    H       -2.20692        -0.66162        -1.53063
| 23>    H       -3.19551         1.24620        -0.26630
| 24>    H       -1.42232         0.72000         2.12795
| 25>    H       -0.95585         2.41195         0.15954
| 26>    H       -1.12029         1.64611        -1.42343
| 27>    H        3.01617         2.54222         0.21179
| 28>    H        0.47795         3.42662        -1.25348
| 29>    H        1.95827         4.41528        -0.85000
| 30> *
| 31>
| 32>                          ****END OF INPUT****
 Total Charge           Charge          ....    0
 Multiplicity           Mult            ....    1
 Number of Electrons    NEL             ....  102
Dispersion correction           -0.055665998
FINAL SINGLE POINT ENERGY      -899.355344004999
Dispersion correction            ... done
Dispersion correction           -0.055012718
FINAL SINGLE POINT ENERGY      -899.358755851443
Dispersion correction            ... done
Dispersion correction           -0.054735430
FINAL SINGLE POINT ENERGY      -899.358704648755
Dispersion correction            ... done
FINAL SINGLE POINT ENERGY      -899.358932286557
FINAL SINGLE POINT ENERGY      -899.358939642527
FINAL SINGLE POINT ENERGY      -899.358984811159
FINAL SINGLE POINT ENERGY      -899.358869344445
FINAL SINGLE POINT ENERGY      -899.358783908077
FINAL SINGLE POINT ENERGY      -899.358721695613
FINAL SINGLE POINT ENERGY      -899.358777716638
FINAL SINGLE POINT ENERGY      -899.361863396986
FINAL SINGLE POINT ENERGY      -899.361879711419
FINAL SINGLE POINT ENERGY      -899.361894543723
FINAL SINGLE POINT ENERGY      -899.361929650303
FINAL SINGLE POINT ENERGY      -899.361958489402
FINAL SINGLE POINT ENERGY      -899.362028027248
FINAL SINGLE POINT ENERGY      -899.362067233663
Dispersion correction            ... done
Dispersion correction           -0.054625942
FINAL SINGLE POINT ENERGY      -899.362085926388
Dispersion correction            ... done
Dispersion correction           -0.054634563
FINAL SINGLE POINT ENERGY      -899.362084616604
Dispersion correction            ... done
                    ***********************HURRAY********************

CARTESIAN COORDINATES (ANGSTROEM)
---------------------------------
  C      1.368392   -1.410435    0.268926
  S      2.638873   -0.250662    0.227912
  C      1.519715    1.060415   -0.058113
  C      0.213633    0.584996   -0.105589
  C      0.130245   -0.834564    0.090839
  C     -1.181932   -1.576625    0.155546
  C     -2.355673   -0.752258   -0.391539
  C     -2.306091    0.700893    0.091486
  C     -2.516333    0.825070    1.589254
  O     -2.854728   -0.069546    2.321926
  C     -1.014369    1.423540   -0.341542
  C      2.074987    2.399283   -0.190134
  C      1.492746    3.506746   -0.684715
  H      1.591026   -2.461865    0.445475
  H     -1.394955   -1.834332    1.205220
  H     -1.104376   -2.530500   -0.389025
  H     -3.301927   -1.213315   -0.072255
  H     -2.343444   -0.756099   -1.494308
  H     -3.153482    1.265206   -0.344426
  H     -2.349795    1.862422    1.989862
  H     -0.923757    2.388145    0.185488
  H     -1.091201    1.678972   -1.413314
  H      3.108722    2.492222    0.163400
  H      0.484139    3.518513   -1.097863
  H      2.045885    4.448905   -0.706562

 Multiplicity           Mult            ....    1
 Number of Electrons    NEL             ....  102
 Basis Dimension        Dim             ....  246

ORBITAL ENERGIES
----------------

  NO   OCC          E(Eh)            E(eV)
   0   2.0000     -88.870889     -2418.2998
   1   2.0000     -19.141747      -520.8734
   2   2.0000     -10.280193      -279.7383
   3   2.0000     -10.215468      -277.9770
   4   2.0000     -10.209196      -277.8063
   5   2.0000     -10.207432      -277.7583
   6   2.0000     -10.207272      -277.7540
   7   2.0000     -10.206176      -277.7242
   8   2.0000     -10.198419      -277.5131
   9   2.0000     -10.195671      -277.4383
  10   2.0000     -10.194182      -277.3978
  11   2.0000     -10.191254      -277.3181
  12   2.0000     -10.191056      -277.3127
  13   2.0000      -7.966096      -216.7685
  14   2.0000      -5.934091      -161.4748
  15   2.0000      -5.930129      -161.3670
  16   2.0000      -5.927553      -161.2969
  17   2.0000      -1.045241       -28.4424
  18   2.0000      -0.886214       -24.1151
  19   2.0000      -0.828963       -22.5572
  20   2.0000      -0.788461       -21.4551
  21   2.0000      -0.753652       -20.5079
  22   2.0000      -0.740730       -20.1563
  23   2.0000      -0.695806       -18.9338
  24   2.0000      -0.648760       -17.6536
  25   2.0000      -0.627918       -17.0865
  26   2.0000      -0.595308       -16.1992
  27   2.0000      -0.565321       -15.3832
  28   2.0000      -0.540314       -14.7027
  29   2.0000      -0.520880       -14.1739
  30   2.0000      -0.489132       -13.3099
  31   2.0000      -0.479502       -13.0479
  32   2.0000      -0.459973       -12.5165
  33   2.0000      -0.458606       -12.4793
  34   2.0000      -0.445461       -12.1216
  35   2.0000      -0.436095       -11.8667
  36   2.0000      -0.421399       -11.4668
  37   2.0000      -0.411838       -11.2067
  38   2.0000      -0.406201       -11.0533
  39   2.0000      -0.393249       -10.7009
  40   2.0000      -0.384757       -10.4698
  41   2.0000      -0.373403       -10.1608
  42   2.0000      -0.370289       -10.0761
  43   2.0000      -0.354857        -9.6562
  44   2.0000      -0.341330        -9.2881
  45   2.0000      -0.335858        -9.1392
  46   2.0000      -0.326764        -8.8917
  47   2.0000      -0.300040        -8.1645
  48   2.0000      -0.260870        -7.0986
  49   2.0000      -0.243997        -6.6395
  50   2.0000      -0.216587        -5.8936
  51   0.0000      -0.047631        -1.2961
  52   0.0000      -0.030365        -0.8263
  53   0.0000       0.021518         0.5855
  54   0.0000       0.034536         0.9398
  55   0.0000       0.046764         1.2725

MULLIKEN ATOMIC CHARGES
-----------------------
   0 C :   -0.128160
   1 S :    0.104782
   2 C :   -0.166574
   3 C :   -0.042688
   4 C :   -0.052563
   5 C :    0.124286
   6 C :    0.071282
   7 C :   -0.095837
   8 C :    0.153320
   9 O :   -0.186051
  10 C :    0.109557
  11 C :    0.036366
  12 C :   -0.043974
  13 H :    0.011809
  14 H :    0.031442
  15 H :   -0.000775
  16 H :    0.003155
  17 H :    0.004462
  18 H :    0.016802
  19 H :   -0.012200
  20 H :    0.014737
  21 H :    0.023559
  22 H :   -0.010476
  23 H :    0.010906
  24 H :    0.022833
Sum of atomic charges:    0.0000000

LOEWDIN ATOMIC CHARGES
----------------------
   0 C :   -0.199042
   1 S :    0.433300
   2 C :   -0.185093
   3 C :   -0.062318
   4 C :   -0.062824
   5 C :   -0.023921
   6 C :   -0.018726
   7 C :   -0.070421
   8 C :    0.121917
   9 O :   -0.128473
  10 C :   -0.015466
  11 C :   -0.039675
  12 C :   -0.062007
  13 H :    0.022848
  14 H :    0.036019
  15 H :    0.030514
  16 H :    0.028230
  17 H :    0.023436
  18 H :    0.044475
  19 H :   -0.008363
  20 H :    0.028754
  21 H :    0.033388
  22 H :    0.028475
  23 H :    0.018524
  24 H :    0.026450

  Mayer bond orders larger than 0.100000
B(  0-C ,  1-S ) :   1.1558 B(  0-C ,  4-C ) :   1.5379 B(  0-C , 13-H ) :   0.9656
B(  1-S ,  2-C ) :   1.1308 B(  2-C ,  3-C ) :   1.4998 B(  2-C , 11-C ) :   1.1132
B(  3-C ,  4-C ) :   1.2965 B(  3-C , 10-C ) :   1.0620 B(  4-C ,  5-C ) :   1.0390
B(  5-C ,  6-C ) :   1.0884 B(  5-C , 14-H ) :   0.9118 B(  5-C , 15-H ) :   0.9161
B(  6-C ,  7-C ) :   1.0540 B(  6-C , 16-H ) :   0.9224 B(  6-C , 17-H ) :   0.9389
B(  7-C ,  8-C ) :   0.9237 B(  7-C , 10-C ) :   1.0400 B(  7-C , 18-H ) :   0.8830
B(  8-C ,  9-O ) :   2.1620 B(  8-C , 19-H ) :   0.9352 B( 10-C , 20-H ) :   0.9078
B( 10-C , 21-H ) :   0.9012 B( 11-C , 12-C ) :   1.9151 B( 11-C , 22-H ) :   0.9401
B( 12-C , 23-H ) :   0.9494 B( 12-C , 24-H ) :   0.9407

Dispersion correction           -0.054640253
FINAL SINGLE POINT ENERGY      -899.362083203575

DIPOLE MOMENT
-------------
                                X             Y             Z
Electronic contribution:      7.91011      -3.79486       3.52069
Nuclear contribution   :     -8.00142       4.16664      -4.21377
                        -----------------------------------------
Total Dipole Moment    :     -0.09131       0.37178      -0.69308
                        -----------------------------------------
Magnitude (a.u.)       :      0.79178
Magnitude (Debye)      :      2.01254

Rotational constants in cm-1:     0.036429     0.018269     0.014110
Rotational constants in MHz :  1092.120342   547.686092   423.012612

                             ****ORCA TERMINATED NORMALLY****
TOTAL RUN TIME: 0 days 1 hours 56 minutes 35 seconds 496 msec
