                         Program Version 4.2.0 -  RELEASE  -
|  1> # ORCA input file
|  2> # SCF done        -39.919117442654          0.000860727625
|  3> ! B3LYP/G D3BJ Opt RIJCOSX def2-SVP def2/J
|  4> * xyz 0 1
|  5>    C        1.16330         1.10567         0.68510
|  6>    S        2.33282         0.28304        -0.26522
|  7>    C        1.12210        -0.72988        -0.94054
|  8>    C       -0.11375        -0.44647        -0.45290
|  9>    C       -0.09056         0.62158         0.48738
| 10>    C       -1.32631         1.15092         1.15770
| 11>    O       -0.99913         1.43494         2.50547
| 12>    C       -1.94343         2.21706         3.18968
| 13>    C       -2.46796         0.13369         1.01492
| 14>    C       -2.59226        -0.33647        -0.42979
| 15>    C       -1.37088        -1.17592        -0.83168
| 16>    O       -1.31380        -1.44824        -2.21956
| 17>    C       -2.24226        -2.39859        -2.67313
| 18>    H        1.46486         1.89280         1.34527
| 19>    H        1.38534        -1.47164        -1.66636
| 20>    H       -1.62661         2.09199         0.65684
| 21>    H       -1.48600         2.48014         4.14198
| 22>    H       -2.87441         1.66977         3.37995
| 23>    H       -2.17888         3.13423         2.63328
| 24>    H       -3.40830         0.58673         1.33476
| 25>    H       -2.25625        -0.71649         1.66796
| 26>    H       -2.65549         0.52429        -1.09989
| 27>    H       -3.50182        -0.92895        -0.54516
| 28>    H       -1.40464        -2.13560        -0.27996
| 29>    H       -1.97378        -2.61604        -3.70536
| 30>    H       -3.26998        -2.01987        -2.64391
| 31>    H       -2.18759        -3.32118        -2.08140
| 32> *
| 33>
| 34>                          ****END OF INPUT****
 Total Charge           Charge          ....    0
 Multiplicity           Mult            ....    1
 Number of Electrons    NEL             ....  106
Dispersion correction           -0.052167778
FINAL SINGLE POINT ENERGY      -937.640882130561
Dispersion correction            ... done
Dispersion correction           -0.051954081
FINAL SINGLE POINT ENERGY      -937.643398776057
Dispersion correction            ... done
Dispersion correction           -0.051932342
FINAL SINGLE POINT ENERGY      -937.643557571198
Dispersion correction            ... done
FINAL SINGLE POINT ENERGY      -937.643561583407
Dispersion correction            ... done
Dispersion correction           -0.051939829
FINAL SINGLE POINT ENERGY      -937.643531377046
Dispersion correction            ... done
Dispersion correction           -0.051940023
FINAL SINGLE POINT ENERGY      -937.643540875649
Dispersion correction            ... done
                    ***********************HURRAY********************

CARTESIAN COORDINATES (ANGSTROEM)
---------------------------------
  C      1.213347    1.046224    0.766542
  S      2.371486    0.257306   -0.247067
  C      1.142963   -0.692672   -1.007382
  C     -0.100409   -0.418036   -0.492917
  C     -0.061653    0.600641    0.518136
  C     -1.308504    1.134559    1.173556
  O     -0.999891    1.466627    2.513207
  C     -1.960778    2.248507    3.169266
  C     -2.459122    0.127983    1.033901
  C     -2.603699   -0.350071   -0.415803
  C     -1.367512   -1.145630   -0.862583
  O     -1.337274   -1.425323   -2.249690
  C     -2.249369   -2.400915   -2.680132
  H      1.517554    1.797237    1.492263
  H      1.386760   -1.407754   -1.789804
  H     -1.612547    2.065017    0.642812
  H     -1.516717    2.596731    4.113370
  H     -2.882279    1.684209    3.408852
  H     -2.251484    3.135440    2.570026
  H     -3.400431    0.583858    1.377631
  H     -2.248329   -0.726114    1.700929
  H     -2.722327    0.513203   -1.093344
  H     -3.507796   -0.970005   -0.521124
  H     -1.377283   -2.112438   -0.312414
  H     -1.990786   -2.665798   -3.715968
  H     -3.297789   -2.043327   -2.667462
  H     -2.191801   -3.317950   -2.059370

 Multiplicity           Mult            ....    1
 Number of Electrons    NEL             ....  106
 Basis Dimension        Dim             ....  256

ORBITAL ENERGIES
----------------

  NO   OCC          E(Eh)            E(eV)
   0   2.0000     -88.865632     -2418.1568
   1   2.0000     -19.134913      -520.6875
   2   2.0000     -19.134431      -520.6743
   3   2.0000     -10.241675      -278.6901
   4   2.0000     -10.241570      -278.6873
   5   2.0000     -10.233384      -278.4645
   6   2.0000     -10.233074      -278.4561
   7   2.0000     -10.200197      -277.5615
   8   2.0000     -10.200049      -277.5574
   9   2.0000     -10.190589      -277.3000
  10   2.0000     -10.190368      -277.2940
  11   2.0000     -10.185716      -277.1674
  12   2.0000     -10.185513      -277.1619
  13   2.0000      -7.960593      -216.6188
  14   2.0000      -5.928613      -161.3257
  15   2.0000      -5.924507      -161.2140
  16   2.0000      -5.922224      -161.1519
  17   2.0000      -1.029006       -28.0007
  18   2.0000      -1.027624       -27.9631
  19   2.0000      -0.874180       -23.7877
  20   2.0000      -0.811646       -22.0860
  21   2.0000      -0.757206       -20.6046
  22   2.0000      -0.730249       -19.8711
  23   2.0000      -0.691923       -18.8282
  24   2.0000      -0.687427       -18.7058
  25   2.0000      -0.656984       -17.8774
  26   2.0000      -0.603962       -16.4346
  27   2.0000      -0.588679       -16.0188
  28   2.0000      -0.559416       -15.2225
  29   2.0000      -0.526252       -14.3200
  30   2.0000      -0.512876       -13.9561
  31   2.0000      -0.497187       -13.5291
  32   2.0000      -0.491434       -13.3726
  33   2.0000      -0.463563       -12.6142
  34   2.0000      -0.454745       -12.3742
  35   2.0000      -0.449390       -12.2285
  36   2.0000      -0.426526       -11.6064
  37   2.0000      -0.426121       -11.5954
  38   2.0000      -0.416553       -11.3350
  39   2.0000      -0.399371       -10.8675
  40   2.0000      -0.391737       -10.6597
  41   2.0000      -0.388714       -10.5774
  42   2.0000      -0.370515       -10.0822
  43   2.0000      -0.361463        -9.8359
  44   2.0000      -0.355500        -9.6736
  45   2.0000      -0.342140        -9.3101
  46   2.0000      -0.333522        -9.0756
  47   2.0000      -0.315630        -8.5887
  48   2.0000      -0.309256        -8.4153
  49   2.0000      -0.263709        -7.1759
  50   2.0000      -0.263523        -7.1708
  51   2.0000      -0.235992        -6.4217
  52   2.0000      -0.227685        -6.1956
  53   0.0000      -0.014870        -0.4046
  54   0.0000       0.037244         1.0135
  55   0.0000       0.055491         1.5100
  56   0.0000       0.061539         1.6746
  57   0.0000       0.062071         1.6890

MULLIKEN ATOMIC CHARGES
-----------------------
   0 C :   -0.130442
   1 S :    0.091929
   2 C :   -0.130982
   3 C :   -0.005013
   4 C :   -0.011116
   5 C :    0.226654
   6 O :   -0.374155
   7 C :    0.204387
   8 C :    0.025000
   9 C :    0.028795
  10 C :    0.225285
  11 O :   -0.375476
  12 C :    0.201868
  13 H :    0.016169
  14 H :    0.016459
  15 H :   -0.010310
  16 H :    0.019914
  17 H :   -0.000568
  18 H :   -0.008965
  19 H :   -0.008763
  20 H :    0.002311
  21 H :    0.002167
  22 H :   -0.007049
  23 H :   -0.011293
  24 H :    0.020384
  25 H :    0.000043
  26 H :   -0.007233
Sum of atomic charges:   -0.0000000

LOEWDIN ATOMIC CHARGES
----------------------
   0 C :   -0.187051
   1 S :    0.428698
   2 C :   -0.187590
   3 C :   -0.073764
   4 C :   -0.074124
   5 C :    0.073491
   6 O :   -0.162618
   7 C :    0.068294
   8 C :   -0.037121
   9 C :   -0.037418
  10 C :    0.074269
  11 O :   -0.164136
  12 C :    0.068584
  13 H :    0.024834
  14 H :    0.024698
  15 H :    0.010356
  16 H :    0.020913
  17 H :    0.001481
  18 H :    0.002801
  19 H :    0.020455
  20 H :    0.023989
  21 H :    0.023973
  22 H :    0.020913
  23 H :    0.010549
  24 H :    0.020812
  25 H :    0.001659
  26 H :    0.003053

  Mayer bond orders larger than 0.100000
B(  0-C ,  1-S ) :   1.1625 B(  0-C ,  4-C ) :   1.5519 B(  0-C , 13-H ) :   0.9631
B(  1-S ,  2-C ) :   1.1636 B(  2-C ,  3-C ) :   1.5525 B(  2-C , 14-H ) :   0.9630
B(  3-C ,  4-C ) :   1.3127 B(  3-C , 10-C ) :   0.9678 B(  4-C ,  5-C ) :   0.9671
B(  5-C ,  6-O ) :   1.0454 B(  5-C ,  8-C ) :   1.0656 B(  5-C , 15-H ) :   0.9012
B(  6-O ,  7-C ) :   1.0010 B(  7-C , 16-H ) :   0.9787 B(  7-C , 17-H ) :   0.9630
B(  7-C , 18-H ) :   0.9560 B(  8-C ,  9-C ) :   1.0632 B(  8-C , 19-H ) :   0.9190
B(  8-C , 20-H ) :   0.9257 B(  9-C , 10-C ) :   1.0659 B(  9-C , 21-H ) :   0.9254
B(  9-C , 22-H ) :   0.9187 B( 10-C , 11-O ) :   1.0459 B( 10-C , 23-H ) :   0.9001
B( 11-O , 12-C ) :   0.9989 B( 12-C , 24-H ) :   0.9790 B( 12-C , 25-H ) :   0.9632
B( 12-C , 26-H ) :   0.9570

Dispersion correction           -0.051937603
FINAL SINGLE POINT ENERGY      -937.643548916860

DIPOLE MOMENT
-------------
                                X             Y             Z
Electronic contribution:     16.66102       1.36950      -1.91425
Nuclear contribution   :    -17.64065      -1.47301       2.04140
                        -----------------------------------------
Total Dipole Moment    :     -0.97963      -0.10352       0.12715
                        -----------------------------------------
Magnitude (a.u.)       :      0.99325
Magnitude (Debye)      :      2.52465

Rotational constants in cm-1:     0.027406     0.020187     0.011927
Rotational constants in MHz :   821.625922   605.202797   357.551530

                             ****ORCA TERMINATED NORMALLY****
TOTAL RUN TIME: 0 days 0 hours 12 minutes 37 seconds 830 msec
