                         Program Version 4.2.0 -  RELEASE  -
|  1> # ORCA input file
|  2> # SCF done        -45.441768567274          0.000510527811
|  3> ! B3LYP/G D3BJ Opt RIJCOSX def2-SVP def2/J
|  4> * xyz 0 1
|  5>    C       -1.66132        -0.96126         0.35851
|  6>    S       -2.74631         0.35572         0.27459
|  7>    C       -1.49170         1.47742         0.03394
|  8>    C       -0.25505         0.86602         0.01699
|  9>    C       -0.35736        -0.56153         0.20702
| 10>    C        0.84302        -1.35059         0.22043
| 11>    C        0.73498        -2.78544         0.40659
| 12>    O       -0.28944        -3.42058         0.51059
| 13>    C        2.07301        -3.58360         0.48643
| 14>    F        2.86985        -3.15442         1.48265
| 15>    F        1.84377        -4.87594         0.70490
| 16>    F        2.79391        -3.50138        -0.64720
| 17>    C        2.05197        -0.70153         0.04926
| 18>    C        2.13067         0.68768        -0.13715
| 19>    C        1.00793         1.46791        -0.15545
| 20>    H       -2.03593        -1.95151         0.51355
| 21>    H       -1.70902         2.52007        -0.08195
| 22>    H        2.97880        -1.25124         0.04824
| 23>    H        3.10352         1.13568        -0.26776
| 24>    H        1.07013         2.53597        -0.29945
| 25> *
| 26>
| 27>                          ****END OF INPUT****
 Total Charge           Charge          ....    0
 Multiplicity           Mult            ....    1
 Number of Electrons    NEL             ....  116
Dispersion correction           -0.046113736
FINAL SINGLE POINT ENERGY     -1156.376935898588
Dispersion correction            ... done
Dispersion correction           -0.045931133
FINAL SINGLE POINT ENERGY     -1156.379837080060
Dispersion correction            ... done
Dispersion correction           -0.045887160
FINAL SINGLE POINT ENERGY     -1156.379925205337
Dispersion correction            ... done
FINAL SINGLE POINT ENERGY     -1156.379857458325
FINAL SINGLE POINT ENERGY     -1156.379805181305
FINAL SINGLE POINT ENERGY     -1156.379579450849
FINAL SINGLE POINT ENERGY     -1156.379892274832
FINAL SINGLE POINT ENERGY     -1156.379934901923
FINAL SINGLE POINT ENERGY     -1156.379909398972
Dispersion correction            ... done
Dispersion correction           -0.045899097
FINAL SINGLE POINT ENERGY     -1156.379916382576
Dispersion correction            ... done
Dispersion correction           -0.045897430
FINAL SINGLE POINT ENERGY     -1156.379923845380
Dispersion correction            ... done
                    ***********************HURRAY********************

CARTESIAN COORDINATES (ANGSTROEM)
---------------------------------
  C     -1.688522   -0.965806    0.367683
  S     -2.768839    0.358663    0.204574
  C     -1.514643    1.491228   -0.041825
  C     -0.267460    0.873563   -0.002986
  C     -0.366418   -0.559244    0.237736
  C      0.849157   -1.341070    0.298271
  C      0.770578   -2.795300    0.516434
  O     -0.255095   -3.404488    0.736261
  C      2.085828   -3.626812    0.419269
  F      2.966195   -3.280156    1.380361
  F      1.826786   -4.920258    0.542817
  F      2.686926   -3.430655   -0.769510
  C      2.063123   -0.689003    0.138385
  C      2.146143    0.710425   -0.092518
  C      1.010825    1.480836   -0.166887
  H     -2.055367   -1.968130    0.563788
  H     -1.733010    2.543013   -0.214798
  H      2.994436   -1.249824    0.189460
  H      3.129522    1.166573   -0.221173
  H      1.075263    2.553895   -0.360611

 Multiplicity           Mult            ....    1
 Number of Electrons    NEL             ....  116
 Basis Dimension        Dim             ....  239

ORBITAL ENERGIES
----------------

  NO   OCC          E(Eh)            E(eV)
   0   2.0000     -88.899347     -2419.0742
   1   2.0000     -24.727915      -672.8808
   2   2.0000     -24.727530      -672.8703
   3   2.0000     -24.725334      -672.8105
   4   2.0000     -19.151200      -521.1307
   5   2.0000     -10.436127      -283.9814
   6   2.0000     -10.299448      -280.2622
   7   2.0000     -10.228731      -278.3379
   8   2.0000     -10.223279      -278.1896
   9   2.0000     -10.223252      -278.1888
  10   2.0000     -10.222036      -278.1557
  11   2.0000     -10.220703      -278.1195
  12   2.0000     -10.217942      -278.0443
  13   2.0000     -10.217608      -278.0352
  14   2.0000     -10.212619      -277.8995
  15   2.0000      -7.994133      -217.5314
  16   2.0000      -5.961717      -162.2266
  17   2.0000      -5.957535      -162.1128
  18   2.0000      -5.956714      -162.0904
  19   2.0000      -1.307392       -35.5759
  20   2.0000      -1.216232       -33.0954
  21   2.0000      -1.213597       -33.0237
  22   2.0000      -1.058547       -28.8045
  23   2.0000      -0.907295       -24.6888
  24   2.0000      -0.852149       -23.1882
  25   2.0000      -0.793985       -21.6054
  26   2.0000      -0.752527       -20.4773
  27   2.0000      -0.741163       -20.1681
  28   2.0000      -0.710230       -19.3263
  29   2.0000      -0.659767       -17.9532
  30   2.0000      -0.629083       -17.1182
  31   2.0000      -0.604407       -16.4467
  32   2.0000      -0.601565       -16.3694
  33   2.0000      -0.600685       -16.3455
  34   2.0000      -0.586330       -15.9548
  35   2.0000      -0.543738       -14.7959
  36   2.0000      -0.514255       -13.9936
  37   2.0000      -0.493846       -13.4382
  38   2.0000      -0.478986       -13.0339
  39   2.0000      -0.477458       -12.9923
  40   2.0000      -0.475056       -12.9269
  41   2.0000      -0.465624       -12.6703
  42   2.0000      -0.450510       -12.2590
  43   2.0000      -0.439953       -11.9717
  44   2.0000      -0.435414       -11.8482
  45   2.0000      -0.427168       -11.6238
  46   2.0000      -0.420369       -11.4388
  47   2.0000      -0.417682       -11.3657
  48   2.0000      -0.414800       -11.2873
  49   2.0000      -0.404628       -11.0105
  50   2.0000      -0.383072       -10.4239
  51   2.0000      -0.379389       -10.3237
  52   2.0000      -0.364802        -9.9268
  53   2.0000      -0.356251        -9.6941
  54   2.0000      -0.304072        -8.2742
  55   2.0000      -0.281189        -7.6516
  56   2.0000      -0.269742        -7.3400
  57   2.0000      -0.227906        -6.2016
  58   0.0000      -0.101798        -2.7701
  59   0.0000      -0.041590        -1.1317
  60   0.0000       0.001650         0.0449
  61   0.0000       0.026604         0.7239
  62   0.0000       0.039448         1.0734

MULLIKEN ATOMIC CHARGES
-----------------------
   0 C :   -0.137180
   1 S :    0.157743
   2 C :   -0.132634
   3 C :    0.075168
   4 C :    0.054640
   5 C :    0.024112
   6 C :    0.008876
   7 O :   -0.172785
   8 C :    0.509817
   9 F :   -0.179736
  10 F :   -0.134543
  11 F :   -0.177051
  12 C :    0.011409
  13 C :    0.014407
  14 C :    0.029437
  15 H :    0.043436
  16 H :    0.024596
  17 H :    0.005751
  18 H :   -0.010355
  19 H :   -0.015110
Sum of atomic charges:   -0.0000000

LOEWDIN ATOMIC CHARGES
----------------------
   0 C :   -0.195066
   1 S :    0.503288
   2 C :   -0.203179
   3 C :   -0.054180
   4 C :   -0.039064
   5 C :   -0.069359
   6 C :    0.036432
   7 O :   -0.116189
   8 C :    0.144390
   9 F :   -0.065810
  10 F :   -0.029708
  11 F :   -0.063724
  12 C :    0.015945
  13 C :   -0.037484
  14 C :    0.019823
  15 H :    0.030766
  16 H :    0.027873
  17 H :    0.028944
  18 H :    0.032282
  19 H :    0.034018

  Mayer bond orders larger than 0.100000
B(  0-C ,  1-S ) :   1.1895 B(  0-C ,  2-C ) :   0.1073 B(  0-C ,  4-C ) :   1.4733
B(  0-C , 15-H ) :   0.9434 B(  1-S ,  2-C ) :   1.2267 B(  2-C ,  3-C ) :   1.3889
B(  2-C , 16-H ) :   0.9636 B(  3-C ,  4-C ) :   1.1878 B(  3-C , 14-C ) :   1.1981
B(  4-C ,  5-C ) :   1.1643 B(  5-C ,  6-C ) :   0.9849 B(  5-C , 12-C ) :   1.4756
B(  6-C ,  7-O ) :   2.1064 B(  6-C ,  8-C ) :   0.8762 B(  8-C ,  9-F ) :   1.0946
B(  8-C , 10-F ) :   1.1855 B(  8-C , 11-F ) :   1.1121 B( 12-C , 13-C ) :   1.2256
B( 12-C , 17-H ) :   0.9552 B( 13-C , 14-C ) :   1.5014 B( 13-C , 18-H ) :   0.9802
B( 14-C , 19-H ) :   0.9915

Dispersion correction           -0.045894416
FINAL SINGLE POINT ENERGY     -1156.379927517860

DIPOLE MOMENT
-------------
                                X             Y             Z
Electronic contribution:      4.55481     -14.68526       1.36053
Nuclear contribution   :     -4.59195      16.25952      -1.60164
                        -----------------------------------------
Total Dipole Moment    :     -0.03714       1.57426      -0.24112
                        -----------------------------------------
Magnitude (a.u.)       :      1.59305
Magnitude (Debye)      :      4.04922

Rotational constants in cm-1:     0.036713     0.011402     0.009130
Rotational constants in MHz :  1100.642181   341.816736   273.696525

                             ****ORCA TERMINATED NORMALLY****
TOTAL RUN TIME: 0 days 0 hours 18 minutes 46 seconds 732 msec
