                         Program Version 4.2.0 -  RELEASE  -
|  1> # ORCA input file
|  2> # SCF done        -45.843030474503          0.000700301559
|  3> ! B3LYP/G D3BJ Opt RIJCOSX def2-SVP def2/J
|  4> * xyz 0 1
|  5>    C        1.52635         1.19365        -0.77097
|  6>    S        2.73772        -0.00948        -0.60171
|  7>    C        1.56604        -1.16211        -0.10858
|  8>    C        0.31014        -0.64214        -0.07792
|  9>    C        0.28694         0.72625        -0.46417
| 10>    C       -0.97753         1.52511        -0.56110
| 11>    C       -2.12448         0.86420         0.21161
| 12>    C       -1.99564         1.14378         1.70579
| 13>    F       -2.26575         2.43203         1.97234
| 14>    F       -2.86499         0.41784         2.43140
| 15>    F       -0.78512         0.90314         2.21966
| 16>    C       -2.19260        -0.64833        -0.07811
| 17>    C       -2.39408        -0.83696        -1.49913
| 18>    N       -2.54487        -0.99916        -2.61953
| 19>    C       -0.91526        -1.38286         0.36001
| 20>    H        1.79756         2.17933        -1.09183
| 21>    H        1.87206        -2.15940         0.13593
| 22>    H       -1.27107         1.59962        -1.61300
| 23>    H       -0.81451         2.54076        -0.19230
| 24>    H       -3.07503         1.32579        -0.08260
| 25>    H       -3.05734        -1.08236         0.43952
| 26>    H       -0.91412        -2.39314        -0.05687
| 27>    H       -0.91193        -1.48035         1.44994
| 28> *
| 29>
| 30>                          ****END OF INPUT****
 Total Charge           Charge          ....    0
 Multiplicity           Mult            ....    1
 Number of Electrons    NEL             ....  118
Dispersion correction           -0.053371967
FINAL SINGLE POINT ENERGY     -1137.733534909987
Dispersion correction            ... done
Dispersion correction           -0.052929582
FINAL SINGLE POINT ENERGY     -1137.736839555950
Dispersion correction            ... done
Dispersion correction           -0.052761507
FINAL SINGLE POINT ENERGY     -1137.737027004781
Dispersion correction            ... done
FINAL SINGLE POINT ENERGY     -1137.736992991917
Dispersion correction            ... done
Dispersion correction           -0.052723609
FINAL SINGLE POINT ENERGY     -1137.737061455166
Dispersion correction            ... done
Dispersion correction           -0.052730946
FINAL SINGLE POINT ENERGY     -1137.737065666008
Dispersion correction            ... done
                    ***********************HURRAY********************

CARTESIAN COORDINATES (ANGSTROEM)
---------------------------------
  C      1.578633    1.210703   -0.753242
  S      2.785589   -0.015380   -0.587099
  C      1.603191   -1.185584   -0.126415
  C      0.338111   -0.652559   -0.095444
  C      0.321593    0.737386   -0.465149
  C     -0.956895    1.532878   -0.555582
  C     -2.116415    0.874750    0.214301
  C     -2.032180    1.149596    1.713232
  F     -2.358777    2.425355    1.976771
  F     -2.875915    0.364776    2.414684
  F     -0.800748    0.942413    2.210964
  C     -2.190074   -0.647042   -0.077589
  C     -2.471861   -0.855426   -1.502036
  N     -2.687234   -1.028338   -2.626632
  C     -0.900337   -1.382591    0.350665
  H      1.857209    2.212354   -1.077748
  H      1.904305   -2.201257    0.124417
  H     -1.268167    1.610755   -1.610758
  H     -0.807508    2.563572   -0.199971
  H     -3.062137    1.336314   -0.106890
  H     -3.040611   -1.068108    0.479092
  H     -0.917316   -2.409896   -0.041001
  H     -0.909966   -1.459460    1.449810

 Multiplicity           Mult            ....    1
 Number of Electrons    NEL             ....  118
 Basis Dimension        Dim             ....  254

ORBITAL ENERGIES
----------------

  NO   OCC          E(Eh)            E(eV)
   0   2.0000     -88.879062     -2418.5222
   1   2.0000     -24.734504      -673.0601
   2   2.0000     -24.732880      -673.0159
   3   2.0000     -24.732347      -673.0014
   4   2.0000     -14.335246      -390.0819
   5   2.0000     -10.445527      -284.2372
   6   2.0000     -10.259530      -279.1760
   7   2.0000     -10.245285      -278.7884
   8   2.0000     -10.234719      -278.5009
   9   2.0000     -10.222719      -278.1743
  10   2.0000     -10.220809      -278.1224
  11   2.0000     -10.215156      -277.9685
  12   2.0000     -10.214998      -277.9642
  13   2.0000     -10.206196      -277.7247
  14   2.0000     -10.205741      -277.7123
  15   2.0000      -7.974222      -216.9896
  16   2.0000      -5.942280      -161.6977
  17   2.0000      -5.938166      -161.5857
  18   2.0000      -5.935697      -161.5185
  19   2.0000      -1.312384       -35.7118
  20   2.0000      -1.220137       -33.2016
  21   2.0000      -1.219636       -33.1880
  22   2.0000      -0.912804       -24.8387
  23   2.0000      -0.893041       -24.3009
  24   2.0000      -0.860796       -23.4235
  25   2.0000      -0.794513       -21.6198
  26   2.0000      -0.764264       -20.7967
  27   2.0000      -0.734037       -19.9742
  28   2.0000      -0.697906       -18.9910
  29   2.0000      -0.663324       -18.0500
  30   2.0000      -0.650378       -17.6977
  31   2.0000      -0.609860       -16.5951
  32   2.0000      -0.606655       -16.5079
  33   2.0000      -0.582577       -15.8527
  34   2.0000      -0.568341       -15.4653
  35   2.0000      -0.535379       -14.5684
  36   2.0000      -0.523000       -14.2316
  37   2.0000      -0.500933       -13.6311
  38   2.0000      -0.484668       -13.1885
  39   2.0000      -0.483272       -13.1505
  40   2.0000      -0.472018       -12.8443
  41   2.0000      -0.460330       -12.5262
  42   2.0000      -0.454034       -12.3549
  43   2.0000      -0.438803       -11.9404
  44   2.0000      -0.433356       -11.7922
  45   2.0000      -0.425133       -11.5684
  46   2.0000      -0.423677       -11.5288
  47   2.0000      -0.422621       -11.5001
  48   2.0000      -0.412332       -11.2201
  49   2.0000      -0.389960       -10.6113
  50   2.0000      -0.376272       -10.2389
  51   2.0000      -0.370773       -10.0893
  52   2.0000      -0.365374        -9.9423
  53   2.0000      -0.363441        -9.8897
  54   2.0000      -0.351388        -9.5618
  55   2.0000      -0.336791        -9.1645
  56   2.0000      -0.334930        -9.1139
  57   2.0000      -0.251930        -6.8554
  58   2.0000      -0.243066        -6.6142
  59   0.0000      -0.029857        -0.8125
  60   0.0000       0.019359         0.5268
  61   0.0000       0.021377         0.5817
  62   0.0000       0.034207         0.9308
  63   0.0000       0.042483         1.1560

MULLIKEN ATOMIC CHARGES
-----------------------
   0 C :   -0.143371
   1 S :    0.109831
   2 C :   -0.137059
   3 C :   -0.021584
   4 C :   -0.030718
   5 C :    0.159131
   6 C :   -0.158343
   7 C :    0.542960
   8 F :   -0.165693
   9 F :   -0.175232
  10 F :   -0.164843
  11 C :   -0.082435
  12 C :   -0.219375
  13 N :    0.089341
  14 C :    0.164799
  15 H :    0.015010
  16 H :    0.014642
  17 H :    0.043359
  18 H :    0.019497
  19 H :    0.034130
  20 H :    0.043363
  21 H :    0.023507
  22 H :    0.039085
Sum of atomic charges:    0.0000000

LOEWDIN ATOMIC CHARGES
----------------------
   0 C :   -0.196953
   1 S :    0.439339
   2 C :   -0.195318
   3 C :   -0.071804
   4 C :   -0.070134
   5 C :   -0.012008
   6 C :   -0.050835
   7 C :    0.173572
   8 F :   -0.058903
   9 F :   -0.065829
  10 F :   -0.053952
  11 C :   -0.042275
  12 C :   -0.029697
  13 N :   -0.067577
  14 C :   -0.006012
  15 H :    0.024018
  16 H :    0.024118
  17 H :    0.045186
  18 H :    0.037044
  19 H :    0.047003
  20 H :    0.054554
  21 H :    0.039918
  22 H :    0.036549

  Mayer bond orders larger than 0.100000
B(  0-C ,  1-S ) :   1.1679 B(  0-C ,  4-C ) :   1.5583 B(  0-C , 15-H ) :   0.9650
B(  1-S ,  2-C ) :   1.1696 B(  2-C ,  3-C ) :   1.5573 B(  2-C , 16-H ) :   0.9635
B(  3-C ,  4-C ) :   1.2865 B(  3-C , 14-C ) :   1.0273 B(  4-C ,  5-C ) :   1.0305
B(  5-C ,  6-C ) :   1.0369 B(  5-C , 17-H ) :   0.9070 B(  5-C , 18-H ) :   0.9153
B(  6-C ,  7-C ) :   0.9878 B(  6-C , 11-C ) :   1.0228 B(  6-C , 19-H ) :   0.8956
B(  7-C ,  8-F ) :   1.1437 B(  7-C ,  9-F ) :   1.1165 B(  7-C , 10-F ) :   1.1307
B( 11-C , 12-C ) :   1.0793 B( 11-C , 14-C ) :   1.0535 B( 11-C , 20-H ) :   0.8637
B( 12-C , 13-N ) :   3.0777 B( 14-C , 21-H ) :   0.9169 B( 14-C , 22-H ) :   0.9068

Dispersion correction           -0.052733421
FINAL SINGLE POINT ENERGY     -1137.737064529517

DIPOLE MOMENT
-------------
                                X             Y             Z
Electronic contribution:     -2.50510       4.38987       8.76743
Nuclear contribution   :      2.71485      -4.25750      -8.11993
                        -----------------------------------------
Total Dipole Moment    :      0.20975       0.13238       0.64751
                        -----------------------------------------
Magnitude (a.u.)       :      0.69338
Magnitude (Debye)      :      1.76244

Rotational constants in cm-1:     0.025980     0.014590     0.011659
Rotational constants in MHz :   778.852517   437.406186   349.517092

                             ****ORCA TERMINATED NORMALLY****
TOTAL RUN TIME: 0 days 0 hours 13 minutes 4 seconds 932 msec
