                         Program Version 4.2.0 -  RELEASE  -
|  1> # ORCA input file
|  2> # SCF done        -28.391071940715          0.000517304708
|  3> ! B3LYP/G D3BJ Opt RIJCOSX def2-SVP def2/J
|  4> * xyz 0 1
|  5>    C        1.00767        -0.38106        -0.14074
|  6>    C        0.29706         0.80999        -0.20887
|  7>    O        0.86614         2.02150        -0.47485
|  8>    C        2.25116         2.08519        -0.70180
|  9>    C       -1.09615         0.81020         0.01578
| 10>    C       -1.72095        -0.40101         0.29383
| 11>    C       -1.00813        -1.58345         0.36107
| 12>    C        0.35696        -1.57015         0.14420
| 13>    C       -1.82806         2.06845        -0.07032
| 14>    C       -3.04314         2.30064         0.41072
| 15>    H        2.07313        -0.39678        -0.30897
| 16>    H        2.54579         1.49526        -1.57598
| 17>    H        2.81911         1.74959         0.17203
| 18>    H        2.46966         3.13577        -0.88847
| 19>    H       -2.78899        -0.41577         0.44463
| 20>    H       -1.51622        -2.51155         0.57495
| 21>    H        0.92594        -2.48699         0.18976
| 22>    H       -1.28869         2.86603        -0.56235
| 23>    H       -3.61390         1.55515         0.93910
| 24>    H       -3.51298         3.26310         0.30100
| 25> *
| 26>
| 27>                          ****END OF INPUT****
 Total Charge           Charge          ....    0
 Multiplicity           Mult            ....    1
 Number of Electrons    NEL             ....   72
Dispersion correction           -0.035096461
FINAL SINGLE POINT ENERGY      -423.898692412695
Dispersion correction            ... done
Dispersion correction           -0.034880513
FINAL SINGLE POINT ENERGY      -423.901038611312
Dispersion correction            ... done
Dispersion correction           -0.034848596
FINAL SINGLE POINT ENERGY      -423.901101207938
Dispersion correction            ... done
FINAL SINGLE POINT ENERGY      -423.901091780346
FINAL SINGLE POINT ENERGY      -423.901058841985
Dispersion correction            ... done
Dispersion correction           -0.034847405
FINAL SINGLE POINT ENERGY      -423.901035612300
Dispersion correction            ... done
Dispersion correction           -0.034848905
FINAL SINGLE POINT ENERGY      -423.901027482798
Dispersion correction            ... done
                    ***********************HURRAY********************

CARTESIAN COORDINATES (ANGSTROEM)
---------------------------------
  C      1.034924   -0.380097   -0.091508
  C      0.313121    0.819689   -0.152128
  O      0.891994    2.024603   -0.395002
  C      2.255937    2.079013   -0.741904
  C     -1.092161    0.825494    0.047951
  C     -1.723152   -0.405600    0.283717
  C     -1.010647   -1.603035    0.337379
  C      0.372683   -1.586062    0.152291
  C     -1.827403    2.097607   -0.010329
  C     -3.089136    2.308873    0.393009
  H      2.114567   -0.381134   -0.238717
  H      2.485190    1.430795   -1.606220
  H      2.907564    1.786439    0.100766
  H      2.470132    3.121679   -1.012694
  H     -2.806884   -0.420607    0.418773
  H     -1.534992   -2.542670    0.522798
  H      0.948507   -2.513667    0.195001
  H     -1.258989    2.936409   -0.418469
  H     -3.705543    1.521767    0.836174
  H     -3.550302    3.294615    0.293833

 Multiplicity           Mult            ....    1
 Number of Electrons    NEL             ....   72
 Basis Dimension        Dim             ....  190

ORBITAL ENERGIES
----------------

  NO   OCC          E(Eh)            E(eV)
   0   2.0000     -19.167760      -521.5813
   1   2.0000     -10.249692      -278.9083
   2   2.0000     -10.249514      -278.9035
   3   2.0000     -10.192419      -277.3498
   4   2.0000     -10.191992      -277.3382
   5   2.0000     -10.189166      -277.2613
   6   2.0000     -10.188991      -277.2565
   7   2.0000     -10.186308      -277.1835
   8   2.0000     -10.183970      -277.1199
   9   2.0000     -10.179910      -277.0094
  10   2.0000      -1.063370       -28.9358
  11   2.0000      -0.848727       -23.0950
  12   2.0000      -0.780372       -21.2350
  13   2.0000      -0.748190       -20.3593
  14   2.0000      -0.720700       -19.6112
  15   2.0000      -0.688539       -18.7361
  16   2.0000      -0.622152       -16.9296
  17   2.0000      -0.588020       -16.0008
  18   2.0000      -0.555240       -15.1089
  19   2.0000      -0.531507       -14.4630
  20   2.0000      -0.495458       -13.4821
  21   2.0000      -0.476290       -12.9605
  22   2.0000      -0.475430       -12.9371
  23   2.0000      -0.447524       -12.1777
  24   2.0000      -0.443056       -12.0562
  25   2.0000      -0.422325       -11.4921
  26   2.0000      -0.409891       -11.1537
  27   2.0000      -0.386209       -10.5093
  28   2.0000      -0.380735       -10.3603
  29   2.0000      -0.365455        -9.9445
  30   2.0000      -0.346875        -9.4389
  31   2.0000      -0.328317        -8.9340
  32   2.0000      -0.322061        -8.7637
  33   2.0000      -0.298680        -8.1275
  34   2.0000      -0.241164        -6.5624
  35   2.0000      -0.214817        -5.8455
  36   0.0000      -0.036878        -1.0035
  37   0.0000       0.004416         0.1202
  38   0.0000       0.051239         1.3943
  39   0.0000       0.058772         1.5993
  40   0.0000       0.072235         1.9656

MULLIKEN ATOMIC CHARGES
-----------------------
   0 C :   -0.083596
   1 C :    0.193367
   2 O :   -0.316325
   3 C :    0.187733
   4 C :    0.030667
   5 C :   -0.043041
   6 C :    0.030620
   7 C :    0.024970
   8 C :    0.005739
   9 C :   -0.024633
  10 H :   -0.029909
  11 H :    0.018116
  12 H :    0.023000
  13 H :    0.030789
  14 H :   -0.026765
  15 H :   -0.026757
  16 H :   -0.019343
  17 H :   -0.006124
  18 H :    0.013018
  19 H :    0.018474
Sum of atomic charges:   -0.0000000

LOEWDIN ATOMIC CHARGES
----------------------
   0 C :   -0.078727
   1 C :    0.059864
   2 O :   -0.097831
   3 C :    0.080290
   4 C :   -0.052117
   5 C :   -0.006450
   6 C :   -0.045891
   7 C :   -0.016686
   8 C :   -0.016945
   9 C :   -0.053208
  10 H :    0.026157
  11 H :    0.013215
  12 H :    0.013916
  13 H :    0.026458
  14 H :    0.026482
  15 H :    0.024918
  16 H :    0.026459
  17 H :    0.028276
  18 H :    0.017737
  19 H :    0.024084

  Mayer bond orders larger than 0.100000
B(  0-C ,  1-C ) :   1.3220 B(  0-C ,  7-C ) :   1.3505 B(  0-C , 10-H ) :   0.9869
B(  1-C ,  2-O ) :   1.1489 B(  1-C ,  4-C ) :   1.3188 B(  2-O ,  3-C ) :   0.9654
B(  3-C , 11-H ) :   0.9633 B(  3-C , 12-H ) :   0.9662 B(  3-C , 13-H ) :   0.9762
B(  4-C ,  5-C ) :   1.3843 B(  4-C ,  8-C ) :   1.0904 B(  5-C ,  6-C ) :   1.3733
B(  5-C , 14-H ) :   0.9840 B(  6-C ,  7-C ) :   1.3699 B(  6-C , 15-H ) :   0.9857
B(  7-C , 16-H ) :   0.9839 B(  8-C ,  9-C ) :   1.9282 B(  8-C , 17-H ) :   0.9531
B(  9-C , 18-H ) :   0.9435 B(  9-C , 19-H ) :   0.9472

Dispersion correction           -0.034848294
FINAL SINGLE POINT ENERGY      -423.901027969559

DIPOLE MOMENT
-------------
                                X             Y             Z
Electronic contribution:     -0.69512      -1.47428       0.37560
Nuclear contribution   :      1.34741       1.40925      -0.53547
                        -----------------------------------------
Total Dipole Moment    :      0.65229      -0.06502      -0.15987
                        -----------------------------------------
Magnitude (a.u.)       :      0.67474
Magnitude (Debye)      :      1.71505

Rotational constants in cm-1:     0.054207     0.045425     0.024883
Rotational constants in MHz :  1625.097828  1361.793682   745.969997

                             ****ORCA TERMINATED NORMALLY****
TOTAL RUN TIME: 0 days 0 hours 7 minutes 34 seconds 440 msec
