                         Program Version 4.2.0 -  RELEASE  -
|  1> # ORCA input file
|  2> # SCF done        -45.385725928441          0.000638207743
|  3> ! B3LYP/G D3BJ Opt RIJCOSX def2-SVP def2/J
|  4> * xyz 0 1
|  5>    C       -2.69240        -1.21319         0.07187
|  6>    S       -3.89042        -0.00604         0.03420
|  7>    C       -2.70286         1.26999        -0.09039
|  8>    C       -1.41815         0.74063        -0.09379
|  9>    C       -1.43366        -0.68837         0.00112
| 10>    C       -0.23864        -1.53810         0.02651
| 11>    O       -0.29856        -2.75262         0.07858
| 12>    C        1.03960        -0.80043        -0.00313
| 13>    C        2.22954        -1.52152         0.05960
| 14>    C        3.44870        -0.87141         0.04676
| 15>    C        3.48974         0.51329        -0.03062
| 16>    C        2.31439         1.23713        -0.09981
| 17>    C        1.07687         0.59621        -0.08725
| 18>    C       -0.13779         1.44967        -0.17593
| 19>    O       -0.01991         2.65490        -0.31093
| 20>    C       -3.28814         2.58625        -0.15322
| 21>    C       -2.68410         3.76387        -0.30056
| 22>    H       -2.94830        -2.25181         0.14719
| 23>    H        2.16701        -2.59809         0.11947
| 24>    H        4.36524        -1.43993         0.09717
| 25>    H        4.43919         1.02759        -0.03851
| 26>    H        2.32824         2.31515        -0.16476
| 27>    H       -4.36998         2.55804        -0.07186
| 28>    H       -1.61768         3.85714        -0.39230
| 29>    H       -3.26655         4.66926        -0.33096
| 30> *
| 31>
| 32>                          ****END OF INPUT****
 Total Charge           Charge          ....    0
 Multiplicity           Mult            ....    1
 Number of Electrons    NEL             ....  124
Dispersion correction           -0.063573904
FINAL SINGLE POINT ENERGY     -1086.387513181319
Dispersion correction            ... done
Dispersion correction           -0.063094377
FINAL SINGLE POINT ENERGY     -1086.390936008838
Dispersion correction            ... done
Dispersion correction           -0.063104484
FINAL SINGLE POINT ENERGY     -1086.391136989584
Dispersion correction            ... done
FINAL SINGLE POINT ENERGY     -1086.391173245687
FINAL SINGLE POINT ENERGY     -1086.391143201818
FINAL SINGLE POINT ENERGY     -1086.391201996764
Dispersion correction            ... done
Dispersion correction           -0.063094229
FINAL SINGLE POINT ENERGY     -1086.391192630190
Dispersion correction            ... done
Dispersion correction           -0.063089567
FINAL SINGLE POINT ENERGY     -1086.391198778546
Dispersion correction            ... done
                    ***********************HURRAY********************

CARTESIAN COORDINATES (ANGSTROEM)
---------------------------------
  C     -2.716589   -1.238502    0.061863
  S     -3.908520   -0.011379   -0.023685
  C     -2.722224    1.278938   -0.099170
  C     -1.432158    0.733081   -0.051927
  C     -1.451102   -0.706185    0.036104
  C     -0.235752   -1.549792    0.081621
  O     -0.292159   -2.767187    0.148706
  C      1.058711   -0.812721    0.029771
  C      2.252772   -1.544831    0.055984
  C      3.480328   -0.888940    0.000204
  C      3.521436    0.509182   -0.082621
  C      2.337848    1.244082   -0.105562
  C      1.096968    0.595290   -0.049931
  C     -0.141176    1.447595   -0.080111
  O     -0.033464    2.665545   -0.124544
  C     -3.305165    2.609943   -0.211610
  C     -2.707434    3.811652   -0.303110
  H     -2.969032   -2.295073    0.132524
  H      2.182009   -2.632340    0.122665
  H      4.408646   -1.464280    0.020528
  H      4.482394    1.026682   -0.131957
  H      2.342179    2.333346   -0.171830
  H     -4.401778    2.590883   -0.228821
  H     -1.623882    3.918138   -0.292674
  H     -3.331477    4.704486   -0.393967

 Multiplicity           Mult            ....    1
 Number of Electrons    NEL             ....  124
 Basis Dimension        Dim             ....  282

ORBITAL ENERGIES
----------------

  NO   OCC          E(Eh)            E(eV)
   0   2.0000     -88.900638     -2419.1093
   1   2.0000     -19.133610      -520.6520
   2   2.0000     -19.130048      -520.5551
   3   2.0000     -10.289203      -279.9834
   4   2.0000     -10.284568      -279.8573
   5   2.0000     -10.251756      -278.9645
   6   2.0000     -10.237176      -278.5677
   7   2.0000     -10.218789      -278.0674
   8   2.0000     -10.215414      -277.9755
   9   2.0000     -10.215042      -277.9654
  10   2.0000     -10.214783      -277.9584
  11   2.0000     -10.213680      -277.9284
  12   2.0000     -10.213327      -277.9187
  13   2.0000     -10.212981      -277.9093
  14   2.0000     -10.209526      -277.8153
  15   2.0000     -10.208707      -277.7930
  16   2.0000     -10.197227      -277.4807
  17   2.0000      -7.995885      -217.5791
  18   2.0000      -5.963648      -162.2791
  19   2.0000      -5.959626      -162.1697
  20   2.0000      -5.957763      -162.1190
  21   2.0000      -1.040275       -28.3073
  22   2.0000      -1.036242       -28.1976
  23   2.0000      -0.908390       -24.7185
  24   2.0000      -0.873334       -23.7646
  25   2.0000      -0.807252       -21.9664
  26   2.0000      -0.792660       -21.5694
  27   2.0000      -0.764347       -20.7989
  28   2.0000      -0.755258       -20.5516
  29   2.0000      -0.733940       -19.9715
  30   2.0000      -0.670926       -18.2568
  31   2.0000      -0.651675       -17.7330
  32   2.0000      -0.630413       -17.1544
  33   2.0000      -0.595278       -16.1983
  34   2.0000      -0.589476       -16.0405
  35   2.0000      -0.547472       -14.8975
  36   2.0000      -0.545011       -14.8305
  37   2.0000      -0.509816       -13.8728
  38   2.0000      -0.494416       -13.4538
  39   2.0000      -0.473657       -12.8889
  40   2.0000      -0.464620       -12.6430
  41   2.0000      -0.461040       -12.5455
  42   2.0000      -0.457920       -12.4606
  43   2.0000      -0.451716       -12.2918
  44   2.0000      -0.443930       -12.0800
  45   2.0000      -0.442202       -12.0329
  46   2.0000      -0.412078       -11.2132
  47   2.0000      -0.409617       -11.1462
  48   2.0000      -0.405215       -11.0265
  49   2.0000      -0.402952       -10.9649
  50   2.0000      -0.382237       -10.4012
  51   2.0000      -0.373322       -10.1586
  52   2.0000      -0.368665       -10.0319
  53   2.0000      -0.367519       -10.0007
  54   2.0000      -0.364176        -9.9097
  55   2.0000      -0.318525        -8.6675
  56   2.0000      -0.284614        -7.7447
  57   2.0000      -0.274145        -7.4599
  58   2.0000      -0.273840        -7.4516
  59   2.0000      -0.271302        -7.3825
  60   2.0000      -0.265801        -7.2328
  61   2.0000      -0.240033        -6.5316
  62   0.0000      -0.103369        -2.8128
  63   0.0000      -0.080517        -2.1910
  64   0.0000      -0.037945        -1.0325
  65   0.0000      -0.012284        -0.3343
  66   0.0000       0.010856         0.2954

MULLIKEN ATOMIC CHARGES
-----------------------
   0 C :   -0.098915
   1 S :    0.143888
   2 C :   -0.171824
   3 C :    0.078087
   4 C :   -0.013540
   5 C :    0.140544
   6 O :   -0.174552
   7 C :   -0.014378
   8 C :   -0.027358
   9 C :    0.051871
  10 C :    0.052177
  11 C :   -0.029687
  12 C :   -0.002791
  13 C :    0.133229
  14 O :   -0.187006
  15 C :    0.020551
  16 C :   -0.009112
  17 H :    0.040647
  18 H :    0.001927
  19 H :   -0.005797
  20 H :   -0.006860
  21 H :    0.002149
  22 H :   -0.006951
  23 H :    0.061280
  24 H :    0.022422
Sum of atomic charges:    0.0000000

LOEWDIN ATOMIC CHARGES
----------------------
   0 C :   -0.145221
   1 S :    0.480949
   2 C :   -0.122655
   3 C :   -0.093318
   4 C :   -0.091656
   5 C :    0.078838
   6 O :   -0.153544
   7 C :   -0.049895
   8 C :    0.012782
   9 C :   -0.006203
  10 C :   -0.005592
  11 C :    0.011508
  12 C :   -0.044881
  13 C :    0.087288
  14 O :   -0.148180
  15 C :   -0.063488
  16 C :   -0.004590
  17 H :    0.038287
  18 H :    0.037145
  19 H :    0.032255
  20 H :    0.032073
  21 H :    0.036028
  22 H :    0.026464
  23 H :    0.028450
  24 H :    0.027155

  Mayer bond orders larger than 0.100000
B(  0-C ,  1-S ) :   1.1676 B(  0-C ,  4-C ) :   1.5185 B(  0-C , 17-H ) :   0.9614
B(  1-S ,  2-C ) :   1.1667 B(  2-C ,  3-C ) :   1.4187 B(  2-C , 15-C ) :   1.1290
B(  3-C ,  4-C ) :   1.2101 B(  3-C , 13-C ) :   0.9825 B(  4-C ,  5-C ) :   0.9606
B(  5-C ,  6-O ) :   2.1940 B(  5-C ,  7-C ) :   0.9378 B(  7-C ,  8-C ) :   1.3870
B(  7-C , 12-C ) :   1.3249 B(  8-C ,  9-C ) :   1.3469 B(  8-C , 18-H ) :   0.9893
B(  9-C , 10-C ) :   1.3429 B(  9-C , 19-H ) :   0.9883 B( 10-C , 11-C ) :   1.3491
B( 10-C , 20-H ) :   0.9883 B( 11-C , 12-C ) :   1.3923 B( 11-C , 21-H ) :   0.9865
B( 12-C , 13-C ) :   0.9452 B( 13-C , 14-O ) :   2.0948 B( 15-C , 16-C ) :   1.9127
B( 15-C , 22-H ) :   0.9365 B( 16-C , 23-H ) :   0.9291 B( 16-C , 24-H ) :   0.9342

Dispersion correction           -0.063089093
FINAL SINGLE POINT ENERGY     -1086.391199445509

DIPOLE MOMENT
-------------
                                X             Y             Z
Electronic contribution:     -5.56511      -5.20647       0.51890
Nuclear contribution   :      5.53455       5.41992      -0.57321
                        -----------------------------------------
Total Dipole Moment    :     -0.03056       0.21345      -0.05431
                        -----------------------------------------
Magnitude (a.u.)       :      0.22236
Magnitude (Debye)      :      0.56519

Rotational constants in cm-1:     0.026033     0.011499     0.007977
Rotational constants in MHz :   780.461081   344.733942   239.150703

                             ****ORCA TERMINATED NORMALLY****
TOTAL RUN TIME: 0 days 0 hours 19 minutes 51 seconds 6 msec
