                         Program Version 4.2.0 -  RELEASE  -
|  1> # ORCA input file
|  2> # SCF done        -44.073501512967          0.000740284846
|  3> ! B3LYP/G D3BJ Opt RIJCOSX def2-SVP def2/J
|  4> * xyz 0 1
|  5>    C        1.65939         0.56877        -0.01131
|  6>    C        0.98655         1.78568        -0.09348
|  7>    O        1.74950         2.86856        -0.43258
|  8>    C        1.12088         4.12144        -0.53511
|  9>    C       -0.37437         1.81954         0.16234
| 10>    C       -1.07987         0.66333         0.49969
| 11>    C       -0.38524        -0.56258         0.57117
| 12>    C        0.98047        -0.58830         0.31561
| 13>    O       -1.12176        -1.66056         0.90576
| 14>    C       -0.48603        -2.91804         0.98965
| 15>    C       -1.54483        -3.94217         1.36827
| 16>    C       -2.50383         0.67688         0.76569
| 17>    C       -3.27741         1.75398         0.97429
| 18>    C       -4.69017         1.66443         1.23331
| 19>    C       -5.47009         2.71816         1.46804
| 20>    H        2.71853         0.54738        -0.21154
| 21>    H        1.90651         4.82400        -0.80942
| 22>    H        0.67852         4.42993         0.41806
| 23>    H        0.34872         4.12312        -1.31181
| 24>    H       -0.92077         2.74493         0.09036
| 25>    H        1.53368        -1.51253         0.36745
| 26>    H        0.30463        -2.89316         1.75270
| 27>    H       -0.03368        -3.18053         0.02297
| 28>    H       -1.99798        -3.67190         2.31782
| 29>    H       -1.09357        -4.92609         1.45487
| 30>    H       -2.32197        -3.97154         0.60955
| 31>    H       -2.95880        -0.30302         0.81632
| 32>    H       -2.86140         2.75227         0.96897
| 33>    H       -5.11384         0.66828         1.23156
| 34>    H       -5.07513         3.72087         1.47813
| 35>    H       -6.52427         2.61832         1.65953
| 36> *
| 37>
| 38>                          ****END OF INPUT****
 Total Charge           Charge          ....    0
 Multiplicity           Mult            ....    1
 Number of Electrons    NEL             ....  110
Dispersion correction           -0.054075074
FINAL SINGLE POINT ENERGY      -654.994905660441
Dispersion correction            ... done
Dispersion correction           -0.053788974
FINAL SINGLE POINT ENERGY      -654.998055881330
Dispersion correction            ... done
Dispersion correction           -0.053754537
FINAL SINGLE POINT ENERGY      -654.998164065564
Dispersion correction            ... done
FINAL SINGLE POINT ENERGY      -654.998117439042
FINAL SINGLE POINT ENERGY      -654.998008091669
FINAL SINGLE POINT ENERGY      -654.997642913738
FINAL SINGLE POINT ENERGY      -654.997155117310
FINAL SINGLE POINT ENERGY      -654.997428066033
FINAL SINGLE POINT ENERGY      -654.997396645459
FINAL SINGLE POINT ENERGY      -654.997219828614
FINAL SINGLE POINT ENERGY      -654.997279437563
FINAL SINGLE POINT ENERGY      -654.997227258475
FINAL SINGLE POINT ENERGY      -654.997300404372
Dispersion correction            ... done
Dispersion correction           -0.053751049
FINAL SINGLE POINT ENERGY      -654.997299888577
Dispersion correction            ... done
Dispersion correction           -0.053750946
FINAL SINGLE POINT ENERGY      -654.997328690496
Dispersion correction            ... done
                    ***********************HURRAY********************

CARTESIAN COORDINATES (ANGSTROEM)
---------------------------------
  C      1.687792    0.556720   -0.025471
  C      1.022816    1.791331   -0.041256
  O      1.746742    2.859649   -0.476275
  C      1.108439    4.106161   -0.605137
  C     -0.306073    1.854976    0.383641
  C     -0.998959    0.701817    0.802170
  C     -0.315068   -0.538017    0.797862
  C      1.026617   -0.594070    0.393208
  O     -1.030540   -1.631420    1.178397
  C     -0.500948   -2.925094    0.949496
  C     -1.616485   -3.935844    1.114587
  C     -2.398136    0.742132    1.222982
  C     -3.287932    1.728467    0.968734
  C     -4.663639    1.705648    1.427658
  C     -5.576702    2.652062    1.145077
  H      2.726896    0.520569   -0.355974
  H      1.851871    4.799742   -1.021042
  H      0.760091    4.497956    0.368099
  H      0.241753    4.056119   -1.289381
  H     -0.828900    2.809291    0.412783
  H      1.565748   -1.540857    0.397217
  H      0.325394   -3.129565    1.656599
  H     -0.081140   -2.982253   -0.071551
  H     -2.040927   -3.897301    2.129648
  H     -1.229723   -4.951619    0.934928
  H     -2.426378   -3.735974    0.397139
  H     -2.744532   -0.135839    1.773634
  H     -2.989803    2.597070    0.369971
  H     -4.956680    0.845877    2.042934
  H     -5.319595    3.522427    0.532738
  H     -6.599632    2.589288    1.523444

 Multiplicity           Mult            ....    1
 Number of Electrons    NEL             ....  110
 Basis Dimension        Dim             ....  290

ORBITAL ENERGIES
----------------

  NO   OCC          E(Eh)            E(eV)
   0   2.0000     -19.160739      -521.3902
   1   2.0000     -19.158857      -521.3390
   2   2.0000     -10.246988      -278.8347
   3   2.0000     -10.243408      -278.7373
   4   2.0000     -10.243367      -278.7362
   5   2.0000     -10.241314      -278.6803
   6   2.0000     -10.194405      -277.4039
   7   2.0000     -10.190188      -277.2891
   8   2.0000     -10.190053      -277.2854
   9   2.0000     -10.189714      -277.2762
  10   2.0000     -10.187253      -277.2092
  11   2.0000     -10.186773      -277.1962
  12   2.0000     -10.186556      -277.1903
  13   2.0000     -10.186527      -277.1895
  14   2.0000     -10.182393      -277.0770
  15   2.0000      -1.056862       -28.7587
  16   2.0000      -1.054237       -28.6873
  17   2.0000      -0.849323       -23.1112
  18   2.0000      -0.800373       -21.7793
  19   2.0000      -0.776750       -21.1364
  20   2.0000      -0.757326       -20.6079
  21   2.0000      -0.734140       -19.9770
  22   2.0000      -0.710645       -19.3376
  23   2.0000      -0.684235       -18.6190
  24   2.0000      -0.636938       -17.3320
  25   2.0000      -0.624932       -17.0053
  26   2.0000      -0.581163       -15.8142
  27   2.0000      -0.570956       -15.5365
  28   2.0000      -0.544928       -14.8282
  29   2.0000      -0.536059       -14.5869
  30   2.0000      -0.522110       -14.2073
  31   2.0000      -0.499497       -13.5920
  32   2.0000      -0.487811       -13.2740
  33   2.0000      -0.468443       -12.7470
  34   2.0000      -0.459856       -12.5133
  35   2.0000      -0.451669       -12.2905
  36   2.0000      -0.440948       -11.9988
  37   2.0000      -0.432001       -11.7553
  38   2.0000      -0.420902       -11.4533
  39   2.0000      -0.405666       -11.0387
  40   2.0000      -0.399812       -10.8794
  41   2.0000      -0.398856       -10.8534
  42   2.0000      -0.390702       -10.6315
  43   2.0000      -0.380888       -10.3645
  44   2.0000      -0.373918       -10.1748
  45   2.0000      -0.361671        -9.8416
  46   2.0000      -0.347436        -9.4542
  47   2.0000      -0.343902        -9.3580
  48   2.0000      -0.335844        -9.1388
  49   2.0000      -0.326869        -8.8946
  50   2.0000      -0.319675        -8.6988
  51   2.0000      -0.292738        -7.9658
  52   2.0000      -0.271534        -7.3888
  53   2.0000      -0.223732        -6.0881
  54   2.0000      -0.195423        -5.3177
  55   0.0000      -0.051815        -1.4099
  56   0.0000       0.009075         0.2469
  57   0.0000       0.026939         0.7331
  58   0.0000       0.057126         1.5545
  59   0.0000       0.058683         1.5968

MULLIKEN ATOMIC CHARGES
-----------------------
   0 C :   -0.012389
   1 C :    0.253371
   2 O :   -0.319173
   3 C :    0.188316
   4 C :   -0.151807
   5 C :    0.044929
   6 C :    0.204602
   7 C :   -0.083066
   8 O :   -0.325687
   9 C :    0.159687
  10 C :    0.019352
  11 C :    0.005439
  12 C :    0.014139
  13 C :    0.001211
  14 C :   -0.027677
  15 H :   -0.024278
  16 H :    0.031110
  17 H :    0.015863
  18 H :    0.014402
  19 H :   -0.046246
  20 H :   -0.027976
  21 H :    0.008574
  22 H :    0.007450
  23 H :    0.022926
  24 H :    0.010937
  25 H :    0.027405
  26 H :   -0.010318
  27 H :   -0.018528
  28 H :   -0.011438
  29 H :    0.010389
  30 H :    0.018482
Sum of atomic charges:    0.0000000

LOEWDIN ATOMIC CHARGES
----------------------
   0 C :   -0.035289
   1 C :    0.037287
   2 O :   -0.107696
   3 C :    0.077167
   4 C :   -0.060052
   5 C :   -0.043430
   6 C :    0.045721
   7 C :   -0.065498
   8 O :   -0.104941
   9 C :    0.084184
  10 C :   -0.058891
  11 C :   -0.012278
  12 C :   -0.030695
  13 C :   -0.025880
  14 C :   -0.058691
  15 H :    0.031120
  16 H :    0.025888
  17 H :    0.011020
  18 H :    0.011222
  19 H :    0.023607
  20 H :    0.027806
  21 H :    0.009647
  22 H :    0.010976
  23 H :    0.028568
  24 H :    0.029729
  25 H :    0.029779
  26 H :    0.027683
  27 H :    0.021153
  28 H :    0.027361
  29 H :    0.019952
  30 H :    0.023470

  Mayer bond orders larger than 0.100000
B(  0-C ,  1-C ) :   1.3508 B(  0-C ,  7-C ) :   1.3392 B(  0-C , 15-H ) :   0.9866
B(  1-C ,  2-O ) :   1.1098 B(  1-C ,  4-C ) :   1.2968 B(  2-O ,  3-C ) :   0.9791
B(  3-C , 16-H ) :   0.9756 B(  3-C , 17-H ) :   0.9630 B(  3-C , 18-H ) :   0.9631
B(  4-C ,  5-C ) :   1.3168 B(  4-C , 19-H ) :   0.9861 B(  5-C ,  6-C ) :   1.3329
B(  5-C , 11-C ) :   1.0822 B(  6-C ,  7-C ) :   1.2959 B(  6-C ,  8-O ) :   1.1411
B(  7-C , 20-H ) :   0.9905 B(  8-O ,  9-C ) :   0.9461 B(  9-C , 10-C ) :   1.1061
B(  9-C , 21-H ) :   0.9461 B(  9-C , 22-H ) :   0.9401 B( 10-C , 23-H ) :   0.9656
B( 10-C , 24-H ) :   0.9586 B( 10-C , 25-H ) :   0.9678 B( 11-C , 12-C ) :   1.6931
B( 11-C , 14-C ) :   0.1155 B( 11-C , 26-H ) :   0.9665 B( 12-C , 13-C ) :   1.1288
B( 12-C , 27-H ) :   0.9595 B( 13-C , 14-C ) :   1.8790 B( 13-C , 28-H ) :   0.9677
B( 14-C , 29-H ) :   0.9511 B( 14-C , 30-H ) :   0.9455

Dispersion correction           -0.053749349
FINAL SINGLE POINT ENERGY      -654.997320374794

DIPOLE MOMENT
-------------
                                X             Y             Z
Electronic contribution:      6.65142       3.04819      -0.25954
Nuclear contribution   :     -6.51542      -3.30071       0.10423
                        -----------------------------------------
Total Dipole Moment    :      0.13599      -0.25252      -0.15531
                        -----------------------------------------
Magnitude (a.u.)       :      0.32616
Magnitude (Debye)      :      0.82903

Rotational constants in cm-1:     0.016515     0.015384     0.008055
Rotational constants in MHz :   495.111621   461.209150   241.496434

                             ****ORCA TERMINATED NORMALLY****
TOTAL RUN TIME: 0 days 0 hours 35 minutes 36 seconds 181 msec
