                         Program Version 4.2.0 -  RELEASE  -
|  1> # ORCA input file
|  2> # SCF done        -17.891949009584          0.000218415653
|  3> ! B3LYP/G D3BJ Opt RIJCOSX def2-SVP def2/J
|  4> * xyz 0 1
|  5>    C       -1.13982        -0.04586        -0.00042
|  6>    O       -0.36001         1.04942        -0.00345
|  7>    C        0.91347         0.63160        -0.00175
|  8>    C        0.98045        -0.72635         0.00275
|  9>    C       -0.36816        -1.17210         0.00309
| 10>    S       -0.94693        -2.82958         0.00756
| 11>    H       -2.20207         0.08800        -0.00118
| 12>    H        1.67987         1.38092        -0.00377
| 13>    H        1.85943        -1.33773         0.00519
| 14>    H        0.26826        -3.37290         0.01219
| 15> *
| 16>
| 17>                          ****END OF INPUT****
 Total Charge           Charge          ....    0
 Multiplicity           Mult            ....    1
 Number of Electrons    NEL             ....   52
Dispersion correction           -0.016259550
FINAL SINGLE POINT ENERGY      -627.948434187072
Dispersion correction            ... done
Dispersion correction           -0.016273512
FINAL SINGLE POINT ENERGY      -627.950052330689
Dispersion correction            ... done
Dispersion correction           -0.016266114
FINAL SINGLE POINT ENERGY      -627.950154353861
Dispersion correction            ... done
FINAL SINGLE POINT ENERGY      -627.950189259420
FINAL SINGLE POINT ENERGY      -627.950247752956
FINAL SINGLE POINT ENERGY      -627.950105367728
FINAL SINGLE POINT ENERGY      -627.950220530674
FINAL SINGLE POINT ENERGY      -627.950251007647
Dispersion correction            ... done
Dispersion correction           -0.016259903
FINAL SINGLE POINT ENERGY      -627.950336283899
Dispersion correction            ... done
Dispersion correction           -0.016259307
FINAL SINGLE POINT ENERGY      -627.950337966393
Dispersion correction            ... done
                    ***********************HURRAY********************

CARTESIAN COORDINATES (ANGSTROEM)
---------------------------------
  C     -1.148099   -0.054921    0.004216
  O     -0.360681    1.055467    0.019082
  C      0.927241    0.643340    0.004785
  C      0.994331   -0.720169   -0.023798
  C     -0.369882   -1.183359   -0.025976
  S     -0.956757   -2.851715   -0.087002
  H     -2.221976    0.110805    0.016058
  H      1.683089    1.424239    0.015881
  H      1.893651   -1.331864   -0.046251
  H      0.243574   -3.426401    0.143215

 Multiplicity           Mult            ....    1
 Number of Electrons    NEL             ....   52
 Basis Dimension        Dim             ....  108

ORBITAL ENERGIES
----------------

  NO   OCC          E(Eh)            E(eV)
   0   2.0000     -88.856023     -2417.8953
   1   2.0000     -19.204974      -522.5939
   2   2.0000     -10.244198      -278.7588
   3   2.0000     -10.238538      -278.6048
   4   2.0000     -10.219037      -278.0741
   5   2.0000     -10.197083      -277.4767
   6   2.0000      -7.950277      -216.3380
   7   2.0000      -5.919649      -161.0818
   8   2.0000      -5.915832      -160.9780
   9   2.0000      -5.908989      -160.7918
  10   2.0000      -1.108445       -30.1623
  11   2.0000      -0.822334       -22.3768
  12   2.0000      -0.756474       -20.5847
  13   2.0000      -0.722761       -19.6673
  14   2.0000      -0.598417       -16.2838
  15   2.0000      -0.569033       -15.4842
  16   2.0000      -0.527031       -14.3412
  17   2.0000      -0.460514       -12.5312
  18   2.0000      -0.451284       -12.2801
  19   2.0000      -0.435953       -11.8629
  20   2.0000      -0.416993       -11.3470
  21   2.0000      -0.380081       -10.3425
  22   2.0000      -0.349497        -9.5103
  23   2.0000      -0.323268        -8.7966
  24   2.0000      -0.257206        -6.9989
  25   2.0000      -0.216506        -5.8914
  26   0.0000       0.002789         0.0759
  27   0.0000       0.017611         0.4792
  28   0.0000       0.058144         1.5822
  29   0.0000       0.066981         1.8226
  30   0.0000       0.097000         2.6395

MULLIKEN ATOMIC CHARGES
-----------------------
   0 C :    0.071642
   1 O :   -0.206767
   2 C :    0.134888
   3 C :   -0.043173
   4 C :   -0.049892
   5 S :    0.017996
   6 H :    0.011095
   7 H :    0.015760
   8 H :   -0.010733
   9 H :    0.059184
Sum of atomic charges:   -0.0000000

LOEWDIN ATOMIC CHARGES
----------------------
   0 C :   -0.001996
   1 O :    0.005151
   2 C :    0.034819
   3 C :   -0.095632
   4 C :   -0.210265
   5 S :    0.210651
   6 H :    0.023261
   7 H :    0.024478
   8 H :    0.028881
   9 H :   -0.019349

  Mayer bond orders larger than 0.100000
B(  0-C ,  1-O ) :   1.1251 B(  0-C ,  4-C ) :   1.5557 B(  0-C ,  6-H ) :   1.0095
B(  1-O ,  2-C ) :   1.1522 B(  2-C ,  3-C ) :   1.5595 B(  2-C ,  7-H ) :   0.9965
B(  3-C ,  4-C ) :   1.2419 B(  3-C ,  8-H ) :   1.0015 B(  4-C ,  5-S ) :   1.0231
B(  5-S ,  9-H ) :   0.9552

Dispersion correction           -0.016259175
FINAL SINGLE POINT ENERGY      -627.950337578443

DIPOLE MOMENT
-------------
                                X             Y             Z
Electronic contribution:     -2.13008      -0.64794      -0.17058
Nuclear contribution   :      2.64140       0.56819       0.22991
                        -----------------------------------------
Total Dipole Moment    :      0.51131      -0.07975       0.05932
                        -----------------------------------------
Magnitude (a.u.)       :      0.52088
Magnitude (Debye)      :      1.32398

Rotational constants in cm-1:     0.302443     0.066636     0.054627
Rotational constants in MHz :  9067.013040  1997.699324  1637.679972

                             ****ORCA TERMINATED NORMALLY****
TOTAL RUN TIME: 0 days 0 hours 3 minutes 25 seconds 605 msec
