                         Program Version 4.2.0 -  RELEASE  -
|  1> # ORCA input file
|  2> # SCF done        -37.087833697352          0.000791236751
|  3> ! B3LYP/G D3BJ Opt RIJCOSX def2-SVP def2/J
|  4> * xyz 0 1
|  5>    C       -2.66243        -0.69585         0.04339
|  6>    C       -1.47222        -1.41639         0.01731
|  7>    C       -0.29308        -0.70245        -0.01967
|  8>    C       -0.29299         0.69520        -0.03155
|  9>    C        1.11809         1.15396        -0.07704
| 10>    O        1.55964         2.27458        -0.10211
| 11>    N        1.88139        -0.00436        -0.09757
| 12>    C        1.11796        -1.16208        -0.05742
| 13>    O        1.55938        -2.28302        -0.06353
| 14>    C        3.32886        -0.00452        -0.11183
| 15>    C        3.89609         0.00161         1.30318
| 16>    C       -1.47203         1.40983        -0.00676
| 17>    C       -2.66234         0.69000         0.03157
| 18>    H       -3.60252        -1.22591         0.07300
| 19>    H       -1.46456        -2.49504         0.02517
| 20>    H        3.64950         0.88797        -0.65466
| 21>    H        3.64983        -0.90161        -0.64684
| 22>    H        3.56360         0.88885         1.83700
| 23>    H        4.98156         0.00293         1.26403
| 24>    H        3.56595        -0.88243         1.84369
| 25>    H       -1.46421         2.48845        -0.01728
| 26>    H       -3.60236         1.22062         0.05212
| 27> *
| 28>
| 29>                          ****END OF INPUT****
 Total Charge           Charge          ....    0
 Multiplicity           Mult            ....    1
 Number of Electrons    NEL             ....   92
Dispersion correction           -0.043878128
FINAL SINGLE POINT ENERGY      -591.340301968073
Dispersion correction            ... done
Dispersion correction           -0.043620819
FINAL SINGLE POINT ENERGY      -591.342581706703
Dispersion correction            ... done
Dispersion correction           -0.043571971
FINAL SINGLE POINT ENERGY      -591.342676366095
Dispersion correction            ... done
FINAL SINGLE POINT ENERGY      -591.342695936522
FINAL SINGLE POINT ENERGY      -591.342689301346
Dispersion correction            ... done
Dispersion correction           -0.043604961
FINAL SINGLE POINT ENERGY      -591.342680598589
Dispersion correction            ... done
Dispersion correction           -0.043608599
FINAL SINGLE POINT ENERGY      -591.342677922961
Dispersion correction            ... done
                    ***********************HURRAY********************

CARTESIAN COORDINATES (ANGSTROEM)
---------------------------------
  C     -2.679652   -0.704454    0.062840
  C     -1.478352   -1.427558    0.014568
  C     -0.296870   -0.701545   -0.046469
  C     -0.297892    0.696499   -0.060915
  C      1.121533    1.164184   -0.121206
  O      1.550589    2.293952   -0.143065
  N      1.901078   -0.001954   -0.146820
  C      1.123270   -1.168074   -0.093585
  O      1.554680   -2.297146   -0.084527
  C      3.353934   -0.001591   -0.106373
  C      3.892852   -0.003699    1.322767
  C     -1.480509    1.421657   -0.012431
  C     -2.680672    0.697704    0.050242
  H     -3.629555   -1.241068    0.116249
  H     -1.460803   -2.519575    0.027755
  H      3.692714    0.891461   -0.651016
  H      3.694308   -0.892879   -0.653025
  H      3.551948    0.889408    1.868816
  H      4.994274   -0.003473    1.320716
  H      3.552441   -0.899016    1.865444
  H     -1.464831    2.513754   -0.020201
  H     -3.631376    1.233754    0.094436

 Multiplicity           Mult            ....    1
 Number of Electrons    NEL             ....   92
 Basis Dimension        Dim             ....  227

ORBITAL ENERGIES
----------------

  NO   OCC          E(Eh)            E(eV)
   0   2.0000     -19.133876      -520.6592
   1   2.0000     -19.133843      -520.6583
   2   2.0000     -14.376496      -391.2044
   3   2.0000     -10.310554      -280.5644
   4   2.0000     -10.310423      -280.5609
   5   2.0000     -10.232266      -278.4341
   6   2.0000     -10.221698      -278.1466
   7   2.0000     -10.221600      -278.1439
   8   2.0000     -10.220375      -278.1105
   9   2.0000     -10.220043      -278.1015
  10   2.0000     -10.217552      -278.0337
  11   2.0000     -10.217194      -278.0240
  12   2.0000     -10.188996      -277.2567
  13   2.0000      -1.064953       -28.9788
  14   2.0000      -1.045559       -28.4511
  15   2.0000      -0.956689       -26.0328
  16   2.0000      -0.879733       -23.9387
  17   2.0000      -0.804993       -21.9050
  18   2.0000      -0.771200       -20.9854
  19   2.0000      -0.745694       -20.2914
  20   2.0000      -0.669206       -18.2100
  21   2.0000      -0.668804       -18.1991
  22   2.0000      -0.616581       -16.7780
  23   2.0000      -0.615051       -16.7364
  24   2.0000      -0.567597       -15.4451
  25   2.0000      -0.523797       -14.2532
  26   2.0000      -0.507592       -13.8123
  27   2.0000      -0.487453       -13.2643
  28   2.0000      -0.481657       -13.1066
  29   2.0000      -0.461759       -12.5651
  30   2.0000      -0.457981       -12.4623
  31   2.0000      -0.450081       -12.2473
  32   2.0000      -0.441928       -12.0255
  33   2.0000      -0.433491       -11.7959
  34   2.0000      -0.410740       -11.1768
  35   2.0000      -0.405435       -11.0324
  36   2.0000      -0.393082       -10.6963
  37   2.0000      -0.385809       -10.4984
  38   2.0000      -0.380461       -10.3529
  39   2.0000      -0.377555       -10.2738
  40   2.0000      -0.358311        -9.7501
  41   2.0000      -0.295745        -8.0476
  42   2.0000      -0.290777        -7.9125
  43   2.0000      -0.284413        -7.7393
  44   2.0000      -0.273264        -7.4359
  45   2.0000      -0.271810        -7.3963
  46   0.0000      -0.086604        -2.3566
  47   0.0000      -0.048646        -1.3237
  48   0.0000       0.021079         0.5736
  49   0.0000       0.054718         1.4890
  50   0.0000       0.062678         1.7056

MULLIKEN ATOMIC CHARGES
-----------------------
   0 C :    0.037674
   1 C :   -0.040387
   2 C :    0.003850
   3 C :    0.003374
   4 C :    0.200915
   5 O :   -0.175466
   6 N :   -0.313806
   7 C :    0.200881
   8 O :   -0.175836
   9 C :    0.154089
  10 C :   -0.028513
  11 C :   -0.040387
  12 C :    0.037618
  13 H :   -0.002748
  14 H :    0.003924
  15 H :    0.024963
  16 H :    0.024545
  17 H :    0.028030
  18 H :    0.027251
  19 H :    0.028817
  20 H :    0.003942
  21 H :   -0.002728
Sum of atomic charges:   -0.0000000

LOEWDIN ATOMIC CHARGES
----------------------
   0 C :   -0.005734
   1 C :    0.006476
   2 C :   -0.049975
   3 C :   -0.049988
   4 C :    0.088678
   5 O :   -0.160157
   6 N :   -0.039767
   7 C :    0.088660
   8 O :   -0.160357
   9 C :    0.047268
  10 C :   -0.061648
  11 C :    0.006492
  12 C :   -0.005770
  13 H :    0.033062
  14 H :    0.040119
  15 H :    0.030752
  16 H :    0.030670
  17 H :    0.028166
  18 H :    0.031494
  19 H :    0.028379
  20 H :    0.040117
  21 H :    0.033065

  Mayer bond orders larger than 0.100000
B(  0-C ,  1-C ) :   1.3387 B(  0-C , 12-C ) :   1.3894 B(  0-C , 13-H ) :   0.9851
B(  1-C ,  2-C ) :   1.3973 B(  1-C , 14-H ) :   1.0013 B(  2-C ,  3-C ) :   1.3667
B(  2-C ,  7-C ) :   0.8926 B(  3-C ,  4-C ) :   0.8924 B(  3-C , 11-C ) :   1.3973
B(  4-C ,  5-O ) :   2.1758 B(  4-C ,  6-N ) :   1.0526 B(  6-N ,  7-C ) :   1.0528
B(  6-N ,  9-C ) :   0.9264 B(  7-C ,  8-O ) :   2.1750 B(  9-C , 10-C ) :   1.1227
B(  9-C , 15-H ) :   0.9395 B(  9-C , 16-H ) :   0.9396 B( 10-C , 17-H ) :   0.9684
B( 10-C , 18-H ) :   0.9674 B( 10-C , 19-H ) :   0.9683 B( 11-C , 12-C ) :   1.3389
B( 11-C , 20-H ) :   1.0013 B( 12-C , 21-H ) :   0.9851

Dispersion correction           -0.043612151
FINAL SINGLE POINT ENERGY      -591.342675083072

DIPOLE MOMENT
-------------
                                X             Y             Z
Electronic contribution:     -5.13001       0.00465      -3.09972
Nuclear contribution   :      4.29795      -0.00521       3.21494
                        -----------------------------------------
Total Dipole Moment    :     -0.83206      -0.00057       0.11522
                        -----------------------------------------
Magnitude (a.u.)       :      0.84000
Magnitude (Debye)      :      2.13512

Rotational constants in cm-1:     0.052593     0.021238     0.015924
Rotational constants in MHz :  1576.697732   636.705654   477.403570

                             ****ORCA TERMINATED NORMALLY****
TOTAL RUN TIME: 0 days 0 hours 10 minutes 39 seconds 124 msec
