                         Program Version 4.2.0 -  RELEASE  -
|  1> # ORCA input file
|  2> # SCF done        -37.864025879349          0.000840178603
|  3> ! B3LYP/G D3BJ Opt RIJCOSX def2-SVP def2/J
|  4> * xyz 0 1
|  5>    C       -1.76485        -1.16861         0.09450
|  6>    S       -2.99638         0.01471         0.01644
|  7>    C       -1.86549         1.29644         0.03183
|  8>    C       -0.57232         0.83484         0.09651
|  9>    C       -0.51477        -0.60012         0.13238
| 10>    C        0.74505        -1.24352         0.18673
| 11>    C        1.89750        -0.51275         0.21254
| 12>    O        3.14719        -1.07232         0.22141
| 13>    C        3.25626        -2.47239         0.19501
| 14>    C        1.84279         0.93132         0.20950
| 15>    O        2.93016         1.75530         0.21185
| 16>    C        4.16215         1.34390         0.76240
| 17>    C        0.63407         1.56711         0.14637
| 18>    H       -2.02515        -2.20784         0.10682
| 19>    H       -2.20771         2.31066        -0.00390
| 20>    H        0.76094        -2.32127         0.19064
| 21>    H        2.80394        -2.89381        -0.70846
| 22>    H        2.79810        -2.92879         1.07823
| 23>    H        4.32507        -2.68194         0.19514
| 24>    H        4.73297         2.26281         0.89830
| 25>    H        4.70567         0.67576         0.09115
| 26>    H        4.02935         0.85382         1.72965
| 27>    H        0.61553         2.64494         0.13067
| 28> *
| 29>
| 30>                          ****END OF INPUT****
 Total Charge           Charge          ....    0
 Multiplicity           Mult            ....    1
 Number of Electrons    NEL             ....  102
Dispersion correction           -0.047018101
FINAL SINGLE POINT ENERGY      -935.221235484639
Dispersion correction            ... done
Dispersion correction           -0.046758856
FINAL SINGLE POINT ENERGY      -935.224073725526
Dispersion correction            ... done
Dispersion correction           -0.046792499
FINAL SINGLE POINT ENERGY      -935.224271115155
Dispersion correction            ... done
FINAL SINGLE POINT ENERGY      -935.224393007637
FINAL SINGLE POINT ENERGY      -935.224523865532
FINAL SINGLE POINT ENERGY      -935.224798884743
FINAL SINGLE POINT ENERGY      -935.225288070583
FINAL SINGLE POINT ENERGY      -935.225658123390
FINAL SINGLE POINT ENERGY      -935.224982133188
FINAL SINGLE POINT ENERGY      -935.224420721719
FINAL SINGLE POINT ENERGY      -935.225829696703
FINAL SINGLE POINT ENERGY      -935.225831939299
FINAL SINGLE POINT ENERGY      -935.225812464685
FINAL SINGLE POINT ENERGY      -935.226194818579
FINAL SINGLE POINT ENERGY      -935.226272634867
FINAL SINGLE POINT ENERGY      -935.226315251547
FINAL SINGLE POINT ENERGY      -935.226312884254
Dispersion correction            ... done
Dispersion correction           -0.046785589
FINAL SINGLE POINT ENERGY      -935.226298912542
Dispersion correction            ... done
Dispersion correction           -0.046795634
FINAL SINGLE POINT ENERGY      -935.226301948864
Dispersion correction            ... done
                    ***********************HURRAY********************

CARTESIAN COORDINATES (ANGSTROEM)
---------------------------------
  C     -1.756027   -1.145537    0.254399
  S     -2.934786    0.104077    0.302425
  C     -1.758398    1.347127    0.178638
  C     -0.473883    0.824011    0.102563
  C     -0.470940   -0.628172    0.149906
  C      0.772134   -1.336482    0.092692
  C      1.949217   -0.633335    0.001061
  O      3.182504   -1.189334   -0.061987
  C      3.286056   -2.592094   -0.017572
  C      1.947135    0.820663   -0.045768
  O      3.133938    1.482095   -0.177695
  C      3.921613    1.557843    1.000838
  C      0.772465    1.518986    0.003148
  H     -2.055015   -2.190594    0.305982
  H     -2.056103    2.393618    0.163394
  H      0.762994   -2.425430    0.122423
  H      2.764864   -3.064545   -0.869245
  H      2.868022   -3.001919    0.920425
  H      4.355383   -2.833760   -0.071463
  H      4.822715    2.133237    0.748122
  H      4.220995    0.558687    1.357610
  H      3.374571    2.080081    1.807465
  H      0.810616    2.609026   -0.041653

 Multiplicity           Mult            ....    1
 Number of Electrons    NEL             ....  102
 Basis Dimension        Dim             ....  236

ORBITAL ENERGIES
----------------

  NO   OCC          E(Eh)            E(eV)
   0   2.0000     -88.877267     -2418.4734
   1   2.0000     -19.171082      -521.6716
   2   2.0000     -19.143865      -520.9311
   3   2.0000     -10.250319      -278.9254
   4   2.0000     -10.249925      -278.9147
   5   2.0000     -10.240609      -278.6611
   6   2.0000     -10.232160      -278.4312
   7   2.0000     -10.206028      -277.7201
   8   2.0000     -10.204132      -277.6686
   9   2.0000     -10.196677      -277.4657
  10   2.0000     -10.195229      -277.4263
  11   2.0000     -10.188586      -277.2455
  12   2.0000     -10.187818      -277.2246
  13   2.0000      -7.971880      -216.9259
  14   2.0000      -5.939673      -161.6267
  15   2.0000      -5.935555      -161.5147
  16   2.0000      -5.934108      -161.4753
  17   2.0000      -1.070394       -29.1269
  18   2.0000      -1.037033       -28.2191
  19   2.0000      -0.883926       -24.0529
  20   2.0000      -0.820554       -22.3284
  21   2.0000      -0.758711       -20.6456
  22   2.0000      -0.744936       -20.2707
  23   2.0000      -0.712692       -19.3933
  24   2.0000      -0.687201       -18.6997
  25   2.0000      -0.669455       -18.2168
  26   2.0000      -0.605633       -16.4801
  27   2.0000      -0.573319       -15.6008
  28   2.0000      -0.566383       -15.4121
  29   2.0000      -0.529368       -14.4048
  30   2.0000      -0.515453       -14.0262
  31   2.0000      -0.501380       -13.6432
  32   2.0000      -0.479808       -13.0562
  33   2.0000      -0.465037       -12.6543
  34   2.0000      -0.454654       -12.3718
  35   2.0000      -0.448734       -12.2107
  36   2.0000      -0.440893       -11.9973
  37   2.0000      -0.416658       -11.3378
  38   2.0000      -0.410489       -11.1700
  39   2.0000      -0.399637       -10.8747
  40   2.0000      -0.397380       -10.8133
  41   2.0000      -0.365246        -9.9389
  42   2.0000      -0.361077        -9.8254
  43   2.0000      -0.353752        -9.6261
  44   2.0000      -0.343967        -9.3598
  45   2.0000      -0.333229        -9.0676
  46   2.0000      -0.301168        -8.1952
  47   2.0000      -0.280299        -7.6273
  48   2.0000      -0.271630        -7.3914
  49   2.0000      -0.225364        -6.1325
  50   2.0000      -0.197514        -5.3746
  51   0.0000      -0.048952        -1.3320
  52   0.0000       0.026848         0.7306
  53   0.0000       0.032851         0.8939
  54   0.0000       0.055193         1.5019
  55   0.0000       0.059726         1.6252

MULLIKEN ATOMIC CHARGES
-----------------------
   0 C :   -0.153885
   1 S :    0.123622
   2 C :   -0.147529
   3 C :    0.119522
   4 C :    0.116885
   5 C :   -0.151907
   6 C :    0.202535
   7 O :   -0.309625
   8 C :    0.185531
   9 C :    0.152885
  10 O :   -0.333879
  11 C :    0.216649
  12 C :   -0.067810
  13 H :    0.009519
  14 H :    0.013205
  15 H :   -0.044470
  16 H :    0.022494
  17 H :    0.017563
  18 H :    0.032074
  19 H :    0.025642
  20 H :    0.010482
  21 H :   -0.001258
  22 H :   -0.038242
Sum of atomic charges:    0.0000000

LOEWDIN ATOMIC CHARGES
----------------------
   0 C :   -0.222971
   1 S :    0.465724
   2 C :   -0.214428
   3 C :   -0.055283
   4 C :   -0.046432
   5 C :   -0.088428
   6 C :    0.034193
   7 O :   -0.088521
   8 C :    0.080121
   9 C :    0.025847
  10 O :   -0.126361
  11 C :    0.084161
  12 C :   -0.038792
  13 H :    0.021218
  14 H :    0.023170
  15 H :    0.025970
  16 H :    0.014683
  17 H :    0.012727
  18 H :    0.026432
  19 H :    0.021637
  20 H :    0.006652
  21 H :    0.006153
  22 H :    0.032527

  Mayer bond orders larger than 0.100000
B(  0-C ,  1-S ) :   1.1850 B(  0-C ,  2-C ) :   0.1149 B(  0-C ,  4-C ) :   1.4243
B(  0-C , 13-H ) :   0.9642 B(  1-S ,  2-C ) :   1.1981 B(  2-C ,  3-C ) :   1.4143
B(  2-C , 14-H ) :   0.9644 B(  3-C ,  4-C ) :   1.2053 B(  3-C , 12-C ) :   1.1019
B(  4-C ,  5-C ) :   1.1260 B(  5-C ,  6-C ) :   1.4490 B(  5-C , 12-C ) :   0.1027
B(  5-C , 15-H ) :   1.0023 B(  6-C ,  7-O ) :   1.1411 B(  6-C ,  9-C ) :   1.1480
B(  7-O ,  8-C ) :   0.9693 B(  8-C , 16-H ) :   0.9649 B(  8-C , 17-H ) :   0.9641
B(  8-C , 18-H ) :   0.9759 B(  9-C , 10-O ) :   1.0873 B(  9-C , 12-C ) :   1.5788
B( 10-O , 11-C ) :   0.9528 B( 11-C , 19-H ) :   0.9816 B( 11-C , 20-H ) :   0.9631
B( 11-C , 21-H ) :   0.9600 B( 12-C , 22-H ) :   1.0083

Dispersion correction           -0.046799225
FINAL SINGLE POINT ENERGY      -935.226307408208

DIPOLE MOMENT
-------------
                                X             Y             Z
Electronic contribution:    -12.50659       2.93295      -2.18300
Nuclear contribution   :     12.76411      -3.55931       2.65886
                        -----------------------------------------
Total Dipole Moment    :      0.25752      -0.62636       0.47586
                        -----------------------------------------
Magnitude (a.u.)       :      0.82770
Magnitude (Debye)      :      2.10384

Rotational constants in cm-1:     0.047107     0.014895     0.011604
Rotational constants in MHz :  1412.246090   446.541506   347.879024

                             ****ORCA TERMINATED NORMALLY****
TOTAL RUN TIME: 0 days 0 hours 35 minutes 16 seconds 128 msec
