                         Program Version 4.2.0 -  RELEASE  -
|  1> # ORCA input file
|  2> # SCF done        -26.229294132401          0.000331076068
|  3> ! B3LYP/G D3BJ Opt RIJCOSX def2-SVP def2/J
|  4> * xyz 0 1
|  5>    C        2.06575         0.64142        -0.11634
|  6>    C        2.06032        -0.68610        -0.10854
|  7>    O        0.92692        -1.46556        -0.06574
|  8>    C       -0.22692        -0.72763        -0.03280
|  9>    C       -0.22107         0.70254        -0.04123
| 10>    C       -1.46739         1.23065        -0.00422
| 11>    S       -2.67425        -0.00204         0.04337
| 12>    C       -1.47752        -1.24505         0.01034
| 13>    O        0.93876         1.43058        -0.08279
| 14>    H        2.96727         1.22644        -0.15046
| 15>    H        2.95702        -1.27884        -0.13571
| 16>    H       -1.74459         2.26401        -0.00128
| 17>    H       -1.76316        -2.27600         0.02538
| 18> *
| 19>
| 20>                          ****END OF INPUT****
 Total Charge           Charge          ....    0
 Multiplicity           Mult            ....    1
 Number of Electrons    NEL             ....   72
Dispersion correction           -0.025668715
FINAL SINGLE POINT ENERGY      -779.250756310425
Dispersion correction            ... done
Dispersion correction           -0.025654264
FINAL SINGLE POINT ENERGY      -779.252179676777
Dispersion correction            ... done
Dispersion correction           -0.025660073
FINAL SINGLE POINT ENERGY      -779.252265170572
Dispersion correction            ... done
Dispersion correction           -0.025665028
FINAL SINGLE POINT ENERGY      -779.252281912825
Dispersion correction            ... done
Dispersion correction           -0.025666940
FINAL SINGLE POINT ENERGY      -779.252284042921
Dispersion correction            ... done
                    ***********************HURRAY********************

CARTESIAN COORDINATES (ANGSTROEM)
---------------------------------
  C      2.075737    0.646242   -0.117503
  C      2.070382   -0.690986   -0.108674
  O      0.926343   -1.457533   -0.084084
  C     -0.232209   -0.731356   -0.042632
  C     -0.226328    0.706003   -0.050991
  C     -1.480212    1.244594    0.000117
  S     -2.692271   -0.001772    0.058502
  C     -1.490653   -1.258856    0.013107
  O      0.937850    1.422175   -0.103620
  H      2.990482    1.234582   -0.136366
  H      2.980397   -1.286800   -0.119598
  H     -1.749606    2.298035    0.003335
  H     -1.768772   -2.309910    0.028386

 Multiplicity           Mult            ....    1
 Number of Electrons    NEL             ....   72
 Basis Dimension        Dim             ....  150

ORBITAL ENERGIES
----------------

  NO   OCC          E(Eh)            E(eV)
   0   2.0000     -88.878062     -2418.4950
   1   2.0000     -19.190304      -522.1947
   2   2.0000     -19.190164      -522.1909
   3   2.0000     -10.259363      -279.1715
   4   2.0000     -10.259125      -279.1650
   5   2.0000     -10.252177      -278.9759
   6   2.0000     -10.251488      -278.9572
   7   2.0000     -10.214979      -277.9637
   8   2.0000     -10.214930      -277.9624
   9   2.0000      -7.972619      -216.9460
  10   2.0000      -5.940992      -161.6626
  11   2.0000      -5.937112      -161.5570
  12   2.0000      -5.933320      -161.4539
  13   2.0000      -1.104730       -30.0612
  14   2.0000      -1.069748       -29.1093
  15   2.0000      -0.884915       -24.0798
  16   2.0000      -0.776953       -21.1420
  17   2.0000      -0.742163       -20.1953
  18   2.0000      -0.715416       -19.4675
  19   2.0000      -0.646890       -17.6028
  20   2.0000      -0.601403       -16.3650
  21   2.0000      -0.581721       -15.8294
  22   2.0000      -0.518882       -14.1195
  23   2.0000      -0.504542       -13.7293
  24   2.0000      -0.475593       -12.9415
  25   2.0000      -0.454802       -12.3758
  26   2.0000      -0.439868       -11.9694
  27   2.0000      -0.426242       -11.5986
  28   2.0000      -0.413530       -11.2527
  29   2.0000      -0.406729       -11.0677
  30   2.0000      -0.373302       -10.1581
  31   2.0000      -0.362381        -9.8609
  32   2.0000      -0.343292        -9.3415
  33   2.0000      -0.277418        -7.5489
  34   2.0000      -0.241057        -6.5595
  35   2.0000      -0.201141        -5.4733
  36   0.0000      -0.016719        -0.4550
  37   0.0000       0.006211         0.1690
  38   0.0000       0.038921         1.0591
  39   0.0000       0.062564         1.7025
  40   0.0000       0.076184         2.0731

MULLIKEN ATOMIC CHARGES
-----------------------
   0 C :    0.128388
   1 C :    0.128568
   2 O :   -0.258875
   3 C :    0.206006
   4 C :    0.206236
   5 C :   -0.166437
   6 S :    0.093686
   7 C :   -0.166224
   8 O :   -0.258892
   9 H :    0.018306
  10 H :    0.018388
  11 H :    0.025516
  12 H :    0.025334
Sum of atomic charges:   -0.0000000

LOEWDIN ATOMIC CHARGES
----------------------
   0 C :    0.009924
   1 C :    0.009930
   2 O :   -0.066115
   3 C :   -0.004801
   4 C :   -0.004835
   5 C :   -0.214376
   6 S :    0.421524
   7 C :   -0.214268
   8 O :   -0.066076
   9 H :    0.033642
  10 H :    0.033657
  11 H :    0.030920
  12 H :    0.030873

  Mayer bond orders larger than 0.100000
B(  0-C ,  1-C ) :   1.7796 B(  0-C ,  8-O ) :   1.0286 B(  0-C ,  9-H ) :   0.9769
B(  1-C ,  2-O ) :   1.0286 B(  1-C , 10-H ) :   0.9769 B(  2-O ,  3-C ) :   1.0627
B(  3-C ,  4-C ) :   1.1966 B(  3-C ,  7-C ) :   1.5596 B(  4-C ,  5-C ) :   1.5597
B(  4-C ,  8-O ) :   1.0627 B(  5-C ,  6-S ) :   1.1277 B(  5-C , 11-H ) :   0.9684
B(  6-S ,  7-C ) :   1.1277 B(  7-C , 12-H ) :   0.9685

Dispersion correction           -0.025667617
FINAL SINGLE POINT ENERGY      -779.252281451877

DIPOLE MOMENT
-------------
                                X             Y             Z
Electronic contribution:     -3.30391       0.01383       0.08369
Nuclear contribution   :      3.62241      -0.01507      -0.07999
                        -----------------------------------------
Total Dipole Moment    :      0.31850      -0.00124       0.00370
                        -----------------------------------------
Magnitude (a.u.)       :      0.31853
Magnitude (Debye)      :      0.80963

Rotational constants in cm-1:     0.119518     0.039406     0.029636
Rotational constants in MHz :  3583.049839  1181.361947   888.474524

                             ****ORCA TERMINATED NORMALLY****
TOTAL RUN TIME: 0 days 0 hours 3 minutes 19 seconds 720 msec
