                         Program Version 4.2.0 -  RELEASE  -
|  1> # ORCA input file
|  2> # SCF done        -37.063285455475          0.000531422718
|  3> ! B3LYP/G D3BJ Opt RIJCOSX def2-SVP def2/J
|  4> * xyz 0 1
|  5>    C        3.35286         0.21133         0.02591
|  6>    S        2.65227        -1.37211         0.04071
|  7>    C        1.04413        -0.69313         0.01235
|  8>    C       -0.13858        -1.42989        -0.00251
|  9>    C       -1.31558        -0.66883        -0.00634
| 10>    C       -2.71172        -0.97437         0.05120
| 11>    C       -3.35859         0.21286         0.04155
| 12>    O       -2.51138         1.26577        -0.01340
| 13>    C       -1.25893         0.74830        -0.03016
| 14>    C       -0.08070         1.46474        -0.04566
| 15>    C        1.09572         0.72128        -0.01818
| 16>    C        2.44084         1.20169        -0.00840
| 17>    C       -0.09237        -2.88417        -0.00796
| 18>    C       -0.98461        -3.68630        -0.57399
| 19>    H        4.42209         0.29540         0.04212
| 20>    H       -3.16407        -1.94145         0.11711
| 21>    H       -4.40563         0.44581         0.07108
| 22>    H       -0.07011         2.54184        -0.06746
| 23>    H        2.68887         2.24795        -0.02488
| 24>    H        0.79092        -3.30623         0.45808
| 25>    H       -1.84207        -3.30811        -1.10259
| 26>    H       -0.86975        -4.75637        -0.55038
| 27> *
| 28>
| 29>                          ****END OF INPUT****
 Total Charge           Charge          ....    0
 Multiplicity           Mult            ....    1
 Number of Electrons    NEL             ....  104
Dispersion correction           -0.052434886
FINAL SINGLE POINT ENERGY      -935.031541351937
Dispersion correction            ... done
Dispersion correction           -0.052283187
FINAL SINGLE POINT ENERGY      -935.035196603371
Dispersion correction            ... done
Dispersion correction           -0.052238284
FINAL SINGLE POINT ENERGY      -935.035334264255
Dispersion correction            ... done
FINAL SINGLE POINT ENERGY      -935.035348274089
Dispersion correction            ... done
Dispersion correction           -0.052225503
FINAL SINGLE POINT ENERGY      -935.035354296119
Dispersion correction            ... done
Dispersion correction           -0.052226137
FINAL SINGLE POINT ENERGY      -935.035353366252
Dispersion correction            ... done
                    ***********************HURRAY********************

CARTESIAN COORDINATES (ANGSTROEM)
---------------------------------
  C      3.390467    0.227515    0.012098
  S      2.686516   -1.371203   -0.009471
  C      1.062463   -0.692528   -0.004333
  C     -0.134334   -1.435549   -0.022813
  C     -1.323528   -0.671746   -0.025602
  C     -2.738669   -0.972625    0.009768
  C     -3.381529    0.226379    0.022657
  O     -2.511585    1.277638    0.000978
  C     -1.255042    0.747153   -0.021265
  C     -0.081712    1.479404   -0.013383
  C      1.110449    0.736395   -0.003742
  C      2.466214    1.224802    0.008363
  C     -0.091523   -2.901474   -0.027888
  C     -1.010588   -3.737757   -0.533198
  H      4.474647    0.335373    0.019460
  H     -3.213023   -1.948254    0.040125
  H     -4.435347    0.494768    0.050659
  H     -0.088495    2.570249   -0.005280
  H      2.720345    2.285643    0.012501
  H      0.811053   -3.338426    0.416227
  H     -1.909827   -3.380251   -1.038590
  H     -0.863343   -4.819497   -0.479070

 Multiplicity           Mult            ....    1
 Number of Electrons    NEL             ....  104
 Basis Dimension        Dim             ....  240

ORBITAL ENERGIES
----------------

  NO   OCC          E(Eh)            E(eV)
   0   2.0000     -88.869350     -2418.2580
   1   2.0000     -19.200515      -522.4726
   2   2.0000     -10.251875      -278.9677
   3   2.0000     -10.246776      -278.8289
   4   2.0000     -10.219111      -278.0762
   5   2.0000     -10.217622      -278.0356
   6   2.0000     -10.210383      -277.8387
   7   2.0000     -10.204467      -277.6777
   8   2.0000     -10.202529      -277.6249
   9   2.0000     -10.201975      -277.6099
  10   2.0000     -10.200717      -277.5756
  11   2.0000     -10.196429      -277.4589
  12   2.0000     -10.196373      -277.4574
  13   2.0000     -10.193195      -277.3709
  14   2.0000      -7.964175      -216.7162
  15   2.0000      -5.932688      -161.4366
  16   2.0000      -5.928638      -161.3265
  17   2.0000      -5.924667      -161.2184
  18   2.0000      -1.106160       -30.1001
  19   2.0000      -0.889639       -24.2083
  20   2.0000      -0.835395       -22.7323
  21   2.0000      -0.801022       -21.7969
  22   2.0000      -0.781998       -21.2792
  23   2.0000      -0.742608       -20.2074
  24   2.0000      -0.728351       -19.8194
  25   2.0000      -0.696735       -18.9591
  26   2.0000      -0.641960       -17.4686
  27   2.0000      -0.614785       -16.7292
  28   2.0000      -0.582330       -15.8460
  29   2.0000      -0.570966       -15.5368
  30   2.0000      -0.544857       -14.8263
  31   2.0000      -0.530003       -14.4221
  32   2.0000      -0.494504       -13.4561
  33   2.0000      -0.489480       -13.3194
  34   2.0000      -0.468122       -12.7382
  35   2.0000      -0.464366       -12.6360
  36   2.0000      -0.446443       -12.1483
  37   2.0000      -0.441203       -12.0058
  38   2.0000      -0.418106       -11.3772
  39   2.0000      -0.408721       -11.1219
  40   2.0000      -0.401634       -10.9290
  41   2.0000      -0.393260       -10.7012
  42   2.0000      -0.380198       -10.3457
  43   2.0000      -0.375760       -10.2249
  44   2.0000      -0.357455        -9.7269
  45   2.0000      -0.339734        -9.2446
  46   2.0000      -0.335003        -9.1159
  47   2.0000      -0.309854        -8.4316
  48   2.0000      -0.283234        -7.7072
  49   2.0000      -0.260455        -7.0874
  50   2.0000      -0.233000        -6.3403
  51   2.0000      -0.205365        -5.5883
  52   0.0000      -0.057123        -1.5544
  53   0.0000      -0.017987        -0.4895
  54   0.0000       0.021435         0.5833
  55   0.0000       0.025853         0.7035
  56   0.0000       0.034901         0.9497

MULLIKEN ATOMIC CHARGES
-----------------------
   0 C :   -0.063122
   1 S :    0.082428
   2 C :   -0.121224
   3 C :    0.058445
   4 C :    0.009991
   5 C :   -0.050142
   6 C :    0.160100
   7 O :   -0.225819
   8 C :    0.186876
   9 C :   -0.109445
  10 C :    0.099149
  11 C :    0.023804
  12 C :   -0.063913
  13 C :   -0.024625
  14 H :    0.030454
  15 H :   -0.014285
  16 H :    0.013990
  17 H :   -0.026853
  18 H :   -0.016667
  19 H :    0.001168
  20 H :    0.022038
  21 H :    0.027653
Sum of atomic charges:   -0.0000000

LOEWDIN ATOMIC CHARGES
----------------------
   0 C :   -0.168531
   1 S :    0.385253
   2 C :   -0.151561
   3 C :   -0.043999
   4 C :   -0.039130
   5 C :   -0.076050
   6 C :    0.061146
   7 O :   -0.019471
   8 C :    0.043873
   9 C :   -0.041123
  10 C :   -0.044168
  11 C :   -0.062456
  12 C :   -0.025704
  13 C :   -0.044021
  14 H :    0.026858
  15 H :    0.031060
  16 H :    0.026050
  17 H :    0.035760
  18 H :    0.030781
  19 H :    0.025004
  20 H :    0.022548
  21 H :    0.027879

  Mayer bond orders larger than 0.100000
B(  0-C ,  1-S ) :   1.1039 B(  0-C , 11-C ) :   1.6213 B(  0-C , 14-H ) :   0.9655
B(  1-S ,  2-C ) :   1.0683 B(  2-C ,  3-C ) :   1.3859 B(  2-C , 10-C ) :   1.2791
B(  3-C ,  4-C ) :   1.2888 B(  3-C ,  9-C ) :   0.1016 B(  3-C , 12-C ) :   1.0789
B(  4-C ,  5-C ) :   1.1570 B(  4-C ,  8-C ) :   1.2567 B(  5-C ,  6-C ) :   1.5709
B(  5-C , 15-H ) :   0.9982 B(  6-C ,  7-O ) :   1.0996 B(  6-C , 16-H ) :   0.9972
B(  7-O ,  8-C ) :   1.0967 B(  8-C ,  9-C ) :   1.3656 B(  9-C , 10-C ) :   1.2749
B(  9-C , 17-H ) :   1.0137 B( 10-C , 11-C ) :   1.1706 B( 11-C , 18-H ) :   0.9908
B( 12-C , 13-C ) :   1.9437 B( 12-C , 19-H ) :   0.9454 B( 13-C , 20-H ) :   0.9498
B( 13-C , 21-H ) :   0.9419

Dispersion correction           -0.052226457
FINAL SINGLE POINT ENERGY      -935.035349147187

DIPOLE MOMENT
-------------
                                X             Y             Z
Electronic contribution:      3.03482       3.49634       0.61793
Nuclear contribution   :     -3.19555      -3.49302      -0.60568
                        -----------------------------------------
Total Dipole Moment    :     -0.16073       0.00332       0.01225
                        -----------------------------------------
Magnitude (a.u.)       :      0.16123
Magnitude (Debye)      :      0.40982

Rotational constants in cm-1:     0.035380     0.018381     0.012150
Rotational constants in MHz :  1060.668790   551.041200   364.242731

                             ****ORCA TERMINATED NORMALLY****
TOTAL RUN TIME: 0 days 0 hours 11 minutes 27 seconds 461 msec
