                         Program Version 4.2.0 -  RELEASE  -
|  1> # ORCA input file
|  2> # SCF done        -31.115150220856          0.000833144128
|  3> ! B3LYP/G D3BJ Opt RIJCOSX def2-SVP def2/J
|  4> * xyz 0 1
|  5>    C        2.79918        -0.52903         0.00581
|  6>    N        1.74230        -1.29158         0.00610
|  7>    C        0.68348        -0.43593         0.00781
|  8>    C        1.16015         0.97551         0.00899
|  9>    C        0.01087         1.90631         0.01021
| 10>    O        0.01468         3.11246         0.01195
| 11>    C       -1.14425         0.98279         0.00851
| 12>    C       -0.67651        -0.43165         0.00754
| 13>    N       -1.74072        -1.28058         0.00537
| 14>    C       -2.79277        -0.51136         0.00471
| 15>    C       -2.49435         0.91566         0.00606
| 16>    C        2.50979         0.89984         0.00716
| 17>    H        3.78400        -0.96406         0.00448
| 18>    H       -3.78031        -0.94016         0.00281
| 19>    H       -3.22281         1.70204         0.00545
| 20>    H        3.24322         1.68159         0.00693
| 21> *
| 22>
| 23>                          ****END OF INPUT****
 Total Charge           Charge          ....    0
 Multiplicity           Mult            ....    1
 Number of Electrons    NEL             ....   80
Dispersion correction           -0.032915264
FINAL SINGLE POINT ENERGY      -529.634067472986
Dispersion correction            ... done
Dispersion correction           -0.032985575
FINAL SINGLE POINT ENERGY      -529.637100605513
Dispersion correction            ... done
Dispersion correction           -0.032964086
FINAL SINGLE POINT ENERGY      -529.637326048336
Dispersion correction            ... done
Dispersion correction           -0.032939790
FINAL SINGLE POINT ENERGY      -529.637362003627
Dispersion correction            ... done
Dispersion correction           -0.032930249
FINAL SINGLE POINT ENERGY      -529.637361476995
Dispersion correction            ... done
                    ***********************HURRAY********************

CARTESIAN COORDINATES (ANGSTROEM)
---------------------------------
  C      2.805070   -0.547822    0.006293
  N      1.731466   -1.314462    0.005133
  C      0.690821   -0.422028    0.006243
  C      1.171172    0.984317    0.008046
  C      0.010884    1.932466    0.008518
  O      0.014418    3.141778    0.010311
  C     -1.155186    0.991620    0.007545
  C     -0.683723   -0.417705    0.005962
  N     -1.730015   -1.303464    0.004415
  C     -2.798742   -0.530056    0.005146
  C     -2.512179    0.918537    0.007048
  C      2.527717    0.902537    0.008177
  H      3.804882   -0.993401    0.005749
  H     -3.801330   -0.969356    0.004144
  H     -3.248752    1.719829    0.007820
  H      3.269448    1.699060    0.009339

 Multiplicity           Mult            ....    1
 Number of Electrons    NEL             ....   80
 Basis Dimension        Dim             ....  188

ORBITAL ENERGIES
----------------

  NO   OCC          E(Eh)            E(eV)
   0   2.0000     -19.141404      -520.8641
   1   2.0000     -14.345176      -390.3521
   2   2.0000     -14.345120      -390.3506
   3   2.0000     -10.302542      -280.3464
   4   2.0000     -10.267259      -279.3863
   5   2.0000     -10.267256      -279.3862
   6   2.0000     -10.264007      -279.2978
   7   2.0000     -10.263473      -279.2833
   8   2.0000     -10.230042      -278.3736
   9   2.0000     -10.230017      -278.3729
  10   2.0000     -10.225899      -278.2609
  11   2.0000     -10.225858      -278.2598
  12   2.0000      -1.047481       -28.5034
  13   2.0000      -0.993912       -27.0457
  14   2.0000      -0.976892       -26.5826
  15   2.0000      -0.852389       -23.1947
  16   2.0000      -0.787814       -21.4375
  17   2.0000      -0.783189       -21.3116
  18   2.0000      -0.694654       -18.9025
  19   2.0000      -0.681026       -18.5317
  20   2.0000      -0.625845       -17.0301
  21   2.0000      -0.574802       -15.6412
  22   2.0000      -0.567060       -15.4305
  23   2.0000      -0.546040       -14.8585
  24   2.0000      -0.500228       -13.6119
  25   2.0000      -0.493340       -13.4245
  26   2.0000      -0.470888       -12.8135
  27   2.0000      -0.463337       -12.6080
  28   2.0000      -0.449153       -12.2221
  29   2.0000      -0.436338       -11.8734
  30   2.0000      -0.414662       -11.2835
  31   2.0000      -0.410724       -11.1764
  32   2.0000      -0.408647       -11.1198
  33   2.0000      -0.398929       -10.8554
  34   2.0000      -0.300783        -8.1847
  35   2.0000      -0.300417        -8.1748
  36   2.0000      -0.292057        -7.9473
  37   2.0000      -0.289568        -7.8796
  38   2.0000      -0.283058        -7.7024
  39   2.0000      -0.270551        -7.3621
  40   0.0000      -0.150107        -4.0846
  41   0.0000      -0.090877        -2.4729
  42   0.0000       0.004050         0.1102
  43   0.0000       0.035830         0.9750
  44   0.0000       0.074789         2.0351

MULLIKEN ATOMIC CHARGES
-----------------------
   0 C :    0.107576
   1 N :   -0.082245
   2 C :    0.032286
   3 C :   -0.033109
   4 C :    0.223947
   5 O :   -0.131554
   6 C :   -0.032987
   7 C :    0.032679
   8 N :   -0.082359
   9 C :    0.107391
  10 C :   -0.095562
  11 C :   -0.095646
  12 H :    0.017372
  13 H :    0.017441
  14 H :    0.007386
  15 H :    0.007384
Sum of atomic charges:   -0.0000000

LOEWDIN ATOMIC CHARGES
----------------------
   0 C :    0.090578
   1 N :   -0.097975
   2 C :    0.044350
   3 C :   -0.039619
   4 C :    0.065997
   5 O :   -0.128674
   6 C :   -0.039601
   7 C :    0.044364
   8 N :   -0.097969
   9 C :    0.090578
  10 C :   -0.031242
  11 C :   -0.031252
  12 H :    0.026683
  13 H :    0.026695
  14 H :    0.038546
  15 H :    0.038542

  Mayer bond orders larger than 0.100000
B(  0-C ,  1-N ) :   1.6370 B(  0-C , 11-C ) :   1.0474 B(  0-C , 12-H ) :   0.9815
B(  1-N ,  2-C ) :   1.2945 B(  2-C ,  3-C ) :   1.0248 B(  2-C ,  7-C ) :   1.4648
B(  3-C ,  4-C ) :   0.8851 B(  3-C , 11-C ) :   1.6156 B(  4-C ,  5-O ) :   2.2677
B(  4-C ,  6-C ) :   0.8853 B(  6-C ,  7-C ) :   1.0247 B(  6-C , 10-C ) :   1.6155
B(  7-C ,  8-N ) :   1.2943 B(  8-N ,  9-C ) :   1.6370 B(  9-C , 10-C ) :   1.0474
B(  9-C , 13-H ) :   0.9815 B( 10-C , 14-H ) :   1.0020 B( 11-C , 15-H ) :   1.0019

Dispersion correction           -0.032928854
FINAL SINGLE POINT ENERGY      -529.637362773284

DIPOLE MOMENT
-------------
                                X             Y             Z
Electronic contribution:      0.00053       0.24239       0.00068
Nuclear contribution   :      0.00008      -0.07430      -0.00061
                        -----------------------------------------
Total Dipole Moment    :      0.00060       0.16809       0.00008
                        -----------------------------------------
Magnitude (a.u.)       :      0.16809
Magnitude (Debye)      :      0.42725

Rotational constants in cm-1:     0.058235     0.032451     0.020839
Rotational constants in MHz :  1745.848801   972.871222   624.737396

                             ****ORCA TERMINATED NORMALLY****
TOTAL RUN TIME: 0 days 0 hours 5 minutes 40 seconds 194 msec
