                         Program Version 4.2.0 -  RELEASE  -
|  1> # ORCA input file
|  2> # SCF done        -31.148317714932          0.000870329664
|  3> ! B3LYP/G D3BJ Opt RIJCOSX def2-SVP def2/J
|  4> * xyz 0 1
|  5>    C       -1.32787        -1.35145         0.11728
|  6>    S       -2.48853        -0.08656         0.05100
|  7>    C       -1.27780         1.15829        -0.07117
|  8>    C       -0.01320         0.58839        -0.05468
|  9>    C       -0.06999        -0.84088         0.05220
| 10>    S        1.50628        -1.57475         0.07950
| 11>    C        2.23147         0.02787        -0.04461
| 12>    C        3.62301         0.15756        -0.06917
| 13>    N        4.76490         0.27269        -0.08947
| 14>    C        1.32727         1.04678        -0.10395
| 15>    C       -1.72436         2.51842        -0.16610
| 16>    C       -0.96468         3.59685        -0.35104
| 17>    H       -1.64102        -2.37185         0.19888
| 18>    H        1.62962         2.07496        -0.17341
| 19>    H       -2.79739         2.63503        -0.08032
| 20>    H        0.10402         3.54603        -0.45698
| 21>    H       -1.40551         4.57642        -0.40959
| 22> *
| 23>
| 24>                          ****END OF INPUT****
 Total Charge           Charge          ....    0
 Multiplicity           Mult            ....    1
 Number of Electrons    NEL             ....   98
Dispersion correction           -0.043336962
FINAL SINGLE POINT ENERGY     -1196.573227649628
Dispersion correction            ... done
Dispersion correction           -0.043110138
FINAL SINGLE POINT ENERGY     -1196.576337556041
Dispersion correction            ... done
Dispersion correction           -0.043073755
FINAL SINGLE POINT ENERGY     -1196.576432308792
Dispersion correction            ... done
FINAL SINGLE POINT ENERGY     -1196.576447197254
FINAL SINGLE POINT ENERGY     -1196.576450813579
FINAL SINGLE POINT ENERGY     -1196.576455748585
Dispersion correction            ... done
Dispersion correction           -0.043062979
FINAL SINGLE POINT ENERGY     -1196.576453537297
Dispersion correction            ... done
Dispersion correction           -0.043061473
FINAL SINGLE POINT ENERGY     -1196.576451682160
Dispersion correction            ... done
                    ***********************HURRAY********************

CARTESIAN COORDINATES (ANGSTROEM)
---------------------------------
  C     -1.342888   -1.374142    0.136384
  S     -2.495770   -0.093089    0.055703
  C     -1.287611    1.154857   -0.075805
  C     -0.013333    0.575896   -0.051959
  C     -0.068800   -0.861982    0.068045
  S      1.524976   -1.587136    0.091538
  C      2.252750    0.024660   -0.054350
  C      3.665324    0.146237   -0.087301
  N      4.824737    0.227748   -0.111728
  C      1.338844    1.047076   -0.117556
  C     -1.739556    2.528180   -0.198844
  C     -0.983242    3.633211   -0.316716
  H     -1.666951   -2.407521    0.236655
  H      1.643966    2.087125   -0.208041
  H     -2.828431    2.652433   -0.195764
  H      0.107613    3.606704   -0.333780
  H     -1.455408    4.613543   -0.408110

 Multiplicity           Mult            ....    1
 Number of Electrons    NEL             ....   98
 Basis Dimension        Dim             ....  201

ORBITAL ENERGIES
----------------

  NO   OCC          E(Eh)            E(eV)
   0   2.0000     -88.901884     -2419.1432
   1   2.0000     -88.895168     -2418.9605
   2   2.0000     -14.338495      -390.1703
   3   2.0000     -10.265352      -279.3344
   4   2.0000     -10.244768      -278.7743
   5   2.0000     -10.242986      -278.7258
   6   2.0000     -10.240348      -278.6540
   7   2.0000     -10.237900      -278.5874
   8   2.0000     -10.233965      -278.4803
   9   2.0000     -10.226197      -278.2690
  10   2.0000     -10.222446      -278.1669
  11   2.0000     -10.207356      -277.7563
  12   2.0000      -7.996504      -217.5959
  13   2.0000      -7.989925      -217.4169
  14   2.0000      -5.964463      -162.3013
  15   2.0000      -5.960396      -162.1906
  16   2.0000      -5.958697      -162.1444
  17   2.0000      -5.958196      -162.1308
  18   2.0000      -5.954759      -162.0372
  19   2.0000      -5.949627      -161.8976
  20   2.0000      -0.928098       -25.2548
  21   2.0000      -0.906503       -24.6672
  22   2.0000      -0.868885       -23.6436
  23   2.0000      -0.806931       -21.9577
  24   2.0000      -0.766614       -20.8606
  25   2.0000      -0.757056       -20.6005
  26   2.0000      -0.711491       -19.3606
  27   2.0000      -0.657815       -17.9001
  28   2.0000      -0.620683       -16.8896
  29   2.0000      -0.581468       -15.8225
  30   2.0000      -0.550538       -14.9809
  31   2.0000      -0.512406       -13.9433
  32   2.0000      -0.496527       -13.5112
  33   2.0000      -0.478474       -13.0199
  34   2.0000      -0.465706       -12.6725
  35   2.0000      -0.440945       -11.9987
  36   2.0000      -0.425596       -11.5810
  37   2.0000      -0.412745       -11.2314
  38   2.0000      -0.395950       -10.7744
  39   2.0000      -0.387343       -10.5401
  40   2.0000      -0.377697       -10.2777
  41   2.0000      -0.368530       -10.0282
  42   2.0000      -0.361591        -9.8394
  43   2.0000      -0.347347        -9.4518
  44   2.0000      -0.344302        -9.3689
  45   2.0000      -0.327311        -8.9066
  46   2.0000      -0.286289        -7.7903
  47   2.0000      -0.262444        -7.1415
  48   2.0000      -0.221249        -6.0205
  49   0.0000      -0.092064        -2.5052
  50   0.0000      -0.031236        -0.8500
  51   0.0000      -0.015576        -0.4238
  52   0.0000       0.006383         0.1737
  53   0.0000       0.007217         0.1964

MULLIKEN ATOMIC CHARGES
-----------------------
   0 C :   -0.142979
   1 S :    0.140919
   2 C :   -0.156522
   3 C :    0.117469
   4 C :   -0.005505
   5 S :    0.166169
   6 C :   -0.225250
   7 C :   -0.127893
   8 N :    0.085729
   9 C :    0.052320
  10 C :    0.053542
  11 C :   -0.038059
  12 H :    0.031753
  13 H :    0.004994
  14 H :   -0.006182
  15 H :    0.018693
  16 H :    0.030800
Sum of atomic charges:   -0.0000000

LOEWDIN ATOMIC CHARGES
----------------------
   0 C :   -0.215910
   1 S :    0.477254
   2 C :   -0.175940
   3 C :   -0.074596
   4 C :   -0.184227
   5 S :    0.411207
   6 C :   -0.195300
   7 C :   -0.048848
   8 N :   -0.052839
   9 C :   -0.010523
  10 C :   -0.043798
  11 C :   -0.042563
  12 H :    0.031338
  13 H :    0.040144
  14 H :    0.031577
  15 H :    0.022054
  16 H :    0.030970

  Mayer bond orders larger than 0.100000
B(  0-C ,  1-S ) :   1.1621 B(  0-C ,  2-C ) :   0.1009 B(  0-C ,  4-C ) :   1.5074
B(  0-C , 12-H ) :   0.9727 B(  1-S ,  2-C ) :   1.1576 B(  2-C ,  3-C ) :   1.3685
B(  2-C , 10-C ) :   1.1351 B(  3-C ,  4-C ) :   1.2213 B(  3-C ,  9-C ) :   1.1687
B(  4-C ,  5-S ) :   1.0306 B(  5-S ,  6-C ) :   1.0605 B(  6-C ,  7-C ) :   1.1822
B(  6-C ,  9-C ) :   1.5810 B(  7-C ,  8-N ) :   2.9742 B(  9-C , 13-H ) :   0.9918
B( 10-C , 11-C ) :   1.8969 B( 10-C , 14-H ) :   0.9439 B( 11-C , 15-H ) :   0.9561
B( 11-C , 16-H ) :   0.9415

Dispersion correction           -0.043060795
FINAL SINGLE POINT ENERGY     -1196.576452570230

DIPOLE MOMENT
-------------
                                X             Y             Z
Electronic contribution:      3.38945      -8.79740       0.72527
Nuclear contribution   :     -5.19697       8.91857      -0.70868
                        -----------------------------------------
Total Dipole Moment    :     -1.80752       0.12118       0.01660
                        -----------------------------------------
Magnitude (a.u.)       :      1.81166
Magnitude (Debye)      :      4.60487

Rotational constants in cm-1:     0.043037     0.017376     0.012378
Rotational constants in MHz :  1290.214351   520.919600   371.098047

                             ****ORCA TERMINATED NORMALLY****
TOTAL RUN TIME: 0 days 0 hours 9 minutes 38 seconds 728 msec
