                         Program Version 4.2.0 -  RELEASE  -
|  1> # ORCA input file
|  2> # SCF done        -22.830895108627          0.000684066829
|  3> ! B3LYP/G D3BJ Opt RIJCOSX def2-SVP def2/J
|  4> * xyz 0 1
|  5>    N        1.32870         1.16279         0.24206
|  6>    C        0.02072         0.72715         0.09133
|  7>    C       -1.20912         1.27479        -0.00359
|  8>    S       -2.41624         0.02186        -0.08429
|  9>    C       -1.21924        -1.24081        -0.00469
| 10>    C        0.01498        -0.70316         0.09072
| 11>    N        1.31941        -1.14935         0.24110
| 12>    C        2.19243         0.00329         0.05706
| 13>    H        1.61317         2.01925        -0.20698
| 14>    H       -1.51106         2.30060        -0.03018
| 15>    H       -1.52943        -2.26413        -0.03213
| 16>    H        1.59712        -2.00785        -0.20825
| 17>    H        2.68199         0.00174        -0.93855
| 18>    H        2.97892        -0.00018         0.82468
| 19> *
| 20>
| 21>                          ****END OF INPUT****
 Total Charge           Charge          ....    0
 Multiplicity           Mult            ....    1
 Number of Electrons    NEL             ....   66
Dispersion correction           -0.026368960
FINAL SINGLE POINT ENERGY      -701.491096734809
Dispersion correction            ... done
Dispersion correction           -0.026361679
FINAL SINGLE POINT ENERGY      -701.493131353509
Dispersion correction            ... done
Dispersion correction           -0.026373520
FINAL SINGLE POINT ENERGY      -701.493281689220
Dispersion correction            ... done
FINAL SINGLE POINT ENERGY      -701.493386502755
FINAL SINGLE POINT ENERGY      -701.493417296327
Dispersion correction            ... done
Dispersion correction           -0.026397542
FINAL SINGLE POINT ENERGY      -701.493423583107
Dispersion correction            ... done
Dispersion correction           -0.026395371
FINAL SINGLE POINT ENERGY      -701.493429637302
Dispersion correction            ... done
                    ***********************HURRAY********************

CARTESIAN COORDINATES (ANGSTROEM)
---------------------------------
  N      1.339476    1.155432    0.313406
  C      0.019549    0.729626    0.123727
  C     -1.220875    1.282981   -0.023602
  S     -2.431395    0.022028   -0.166968
  C     -1.231028   -1.248835   -0.024827
  C      0.013762   -0.705563    0.123123
  N      1.330192   -1.142011    0.312736
  C      2.206308    0.003203    0.039643
  H      1.620866    2.030198   -0.114854
  H     -1.516859    2.329192   -0.055666
  H     -1.535090   -2.292711   -0.058061
  H      1.604770   -2.018845   -0.115759
  H      2.573358    0.002021   -1.015122
  H      3.089316   -0.000726    0.700513

 Multiplicity           Mult            ....    1
 Number of Electrons    NEL             ....   66
 Basis Dimension        Dim             ....  146

ORBITAL ENERGIES
----------------

  NO   OCC          E(Eh)            E(eV)
   0   2.0000     -88.849733     -2417.7241
   1   2.0000     -14.341185      -390.2435
   2   2.0000     -14.341161      -390.2428
   3   2.0000     -10.259945      -279.1873
   4   2.0000     -10.213624      -277.9268
   5   2.0000     -10.213366      -277.9198
   6   2.0000     -10.192118      -277.3416
   7   2.0000     -10.192052      -277.3398
   8   2.0000      -7.944070      -216.1691
   9   2.0000      -5.912872      -160.8974
  10   2.0000      -5.908610      -160.7815
  11   2.0000      -5.904418      -160.6674
  12   2.0000      -0.979632       -26.6571
  13   2.0000      -0.869315       -23.6553
  14   2.0000      -0.847173       -23.0527
  15   2.0000      -0.720209       -19.5979
  16   2.0000      -0.695996       -18.9390
  17   2.0000      -0.641080       -17.4447
  18   2.0000      -0.599068       -16.3015
  19   2.0000      -0.547463       -14.8972
  20   2.0000      -0.521216       -14.1830
  21   2.0000      -0.479827       -13.0568
  22   2.0000      -0.461574       -12.5601
  23   2.0000      -0.444619       -12.0987
  24   2.0000      -0.440032       -11.9739
  25   2.0000      -0.384859       -10.4726
  26   2.0000      -0.381131       -10.3711
  27   2.0000      -0.374322       -10.1858
  28   2.0000      -0.331127        -9.0104
  29   2.0000      -0.313553        -8.5322
  30   2.0000      -0.286822        -7.8048
  31   2.0000      -0.207863        -5.6562
  32   2.0000      -0.181546        -4.9401
  33   0.0000       0.008542         0.2324
  34   0.0000       0.044557         1.2125
  35   0.0000       0.045141         1.2283
  36   0.0000       0.075423         2.0524
  37   0.0000       0.090127         2.4525

MULLIKEN ATOMIC CHARGES
-----------------------
   0 N :   -0.205020
   1 C :    0.153626
   2 C :   -0.226961
   3 S :    0.044122
   4 C :   -0.226694
   5 C :    0.153681
   6 N :   -0.204990
   7 C :    0.279792
   8 H :    0.116239
   9 H :    0.001305
  10 H :    0.001169
  11 H :    0.116209
  12 H :   -0.012154
  13 H :    0.009675
Sum of atomic charges:   -0.0000000

LOEWDIN ATOMIC CHARGES
----------------------
   0 N :   -0.061572
   1 C :   -0.030634
   2 C :   -0.246675
   3 S :    0.374077
   4 C :   -0.246612
   5 C :   -0.030622
   6 N :   -0.061545
   7 C :    0.118288
   8 H :    0.072790
   9 H :    0.018767
  10 H :    0.018744
  11 H :    0.072798
  12 H :   -0.009851
  13 H :    0.012047

  Mayer bond orders larger than 0.100000
B(  0-N ,  1-C ) :   1.1081 B(  0-N ,  7-C ) :   1.0221 B(  0-N ,  8-H ) :   0.9369
B(  1-C ,  2-C ) :   1.5279 B(  1-C ,  5-C ) :   1.2358 B(  2-C ,  3-S ) :   1.0866
B(  2-C ,  9-H ) :   0.9885 B(  3-S ,  4-C ) :   1.0866 B(  4-C ,  5-C ) :   1.5279
B(  4-C , 10-H ) :   0.9885 B(  5-C ,  6-N ) :   1.1080 B(  6-N ,  7-C ) :   1.0222
B(  6-N , 11-H ) :   0.9369 B(  7-C , 12-H ) :   0.9375 B(  7-C , 13-H ) :   0.9514

Dispersion correction           -0.026394549
FINAL SINGLE POINT ENERGY      -701.493430307833

DIPOLE MOMENT
-------------
                                X             Y             Z
Electronic contribution:     -6.10497       0.02474       0.28625
Nuclear contribution   :      7.21595      -0.02924      -0.85952
                        -----------------------------------------
Total Dipole Moment    :      1.11098      -0.00451      -0.57327
                        -----------------------------------------
Magnitude (a.u.)       :      1.25017
Magnitude (Debye)      :      3.17768

Rotational constants in cm-1:     0.153213     0.047535     0.036780
Rotational constants in MHz :  4593.220154  1425.068977  1102.644686

                             ****ORCA TERMINATED NORMALLY****
TOTAL RUN TIME: 0 days 0 hours 4 minutes 23 seconds 229 msec
