                         Program Version 4.2.0 -  RELEASE  -
|  1> # ORCA input file
|  2> # SCF done        -46.831599525662          0.000978587632
|  3> ! B3LYP/G D3BJ Opt RIJCOSX def2-SVP def2/J
|  4> * xyz 0 1
|  5>    C       -0.45516        -1.47956         0.06538
|  6>    N       -1.67079        -0.88374         0.20147
|  7>    C       -2.94388        -1.55850         0.21814
|  8>    C       -3.38838        -1.94978        -1.18916
|  9>    C       -1.55557         0.52399         0.23886
| 10>    O       -2.51336         1.26528         0.35067
| 11>    C       -0.13777         0.76122         0.12431
| 12>    C        0.51018        -0.51714         0.01910
| 13>    C        1.93354        -0.28518        -0.09333
| 14>    O        2.88134        -1.03154        -0.20059
| 15>    N        2.05408         1.12067        -0.04337
| 16>    C        3.33845         1.75632        -0.20253
| 17>    C        3.54213         2.27140        -1.62545
| 18>    C        0.83274         1.74321         0.08019
| 19>    C        0.68173         3.17065         0.16307
| 20>    C       -0.50674         3.76750         0.25526
| 21>    H       -0.36645        -2.54947         0.02018
| 22>    H       -3.66197        -0.85808         0.65322
| 23>    H       -2.87156        -2.44396         0.85642
| 24>    H       -3.47706        -1.06221        -1.81083
| 25>    H       -4.35443        -2.44497        -1.14849
| 26>    H       -2.66720        -2.62435        -1.64569
| 27>    H        4.08357         0.98685         0.01856
| 28>    H        3.44399         2.56613         0.52457
| 29>    H        3.48805         1.44396        -2.32867
| 30>    H        4.51858         2.73984        -1.71297
| 31>    H        2.77758         2.99918        -1.88915
| 32>    H        1.58806         3.75911         0.15244
| 33>    H       -1.42217         3.20079         0.27247
| 34>    H       -0.58893         4.83861         0.32323
| 35> *
| 36>
| 37>                          ****END OF INPUT****
 Total Charge           Charge          ....    0
 Multiplicity           Mult            ....    1
 Number of Electrons    NEL             ....  116
Dispersion correction           -0.058924208
FINAL SINGLE POINT ENERGY      -725.182251479746
Dispersion correction            ... done
Dispersion correction           -0.058530330
FINAL SINGLE POINT ENERGY      -725.186228526867
Dispersion correction            ... done
Dispersion correction           -0.058491075
FINAL SINGLE POINT ENERGY      -725.186453783756
Dispersion correction            ... done
FINAL SINGLE POINT ENERGY      -725.186457746942
FINAL SINGLE POINT ENERGY      -725.186473645636
FINAL SINGLE POINT ENERGY      -725.186470328720
FINAL SINGLE POINT ENERGY      -725.186457519186
FINAL SINGLE POINT ENERGY      -725.186433668530
FINAL SINGLE POINT ENERGY      -725.186443554910
FINAL SINGLE POINT ENERGY      -725.186480809201
Dispersion correction            ... done
Dispersion correction           -0.058559612
FINAL SINGLE POINT ENERGY      -725.186514971014
Dispersion correction            ... done
Dispersion correction           -0.058552875
FINAL SINGLE POINT ENERGY      -725.186536120742
Dispersion correction            ... done
                    ***********************HURRAY********************

CARTESIAN COORDINATES (ANGSTROEM)
---------------------------------
  C     -0.403855   -1.537300    0.144656
  N     -1.647530   -0.954924    0.257466
  C     -2.933273   -1.630014    0.214387
  C     -3.456388   -1.811823   -1.209445
  C     -1.552291    0.477180    0.251317
  O     -2.533014    1.204925    0.309707
  C     -0.122589    0.718183    0.147820
  C      0.547678   -0.549834    0.082656
  C      1.984896   -0.309352   -0.022965
  O      2.949694   -1.039118   -0.117193
  N      2.079945    1.127969   -0.003669
  C      3.357491    1.790178   -0.205123
  C      3.561316    2.265113   -1.643799
  C      0.829745    1.727024    0.093360
  C      0.653530    3.165809    0.134863
  C     -0.553729    3.759551    0.192521
  H     -0.295220   -2.621841    0.120670
  H     -3.631705   -1.010255    0.795238
  H     -2.833904   -2.597892    0.729823
  H     -3.584542   -0.832835   -1.694475
  H     -4.432165   -2.322152   -1.199992
  H     -2.760947   -2.412790   -1.816107
  H      4.119494    1.042942    0.059531
  H      3.455476    2.624787    0.507325
  H      3.506155    1.412449   -2.337120
  H      4.547467    2.742722   -1.758803
  H      2.793426    2.995852   -1.940466
  H      1.558902    3.777253    0.117965
  H     -1.479044    3.175116    0.213105
  H     -0.632418    4.849305    0.224058

 Multiplicity           Mult            ....    1
 Number of Electrons    NEL             ....  116
 Basis Dimension        Dim             ....  294

ORBITAL ENERGIES
----------------

  NO   OCC          E(Eh)            E(eV)
   0   2.0000     -19.113988      -520.1180
   1   2.0000     -19.112917      -520.0889
   2   2.0000     -14.377049      -391.2194
   3   2.0000     -14.374616      -391.1532
   4   2.0000     -10.294248      -280.1207
   5   2.0000     -10.291775      -280.0534
   6   2.0000     -10.260688      -279.2075
   7   2.0000     -10.252294      -278.9791
   8   2.0000     -10.235831      -278.5311
   9   2.0000     -10.234245      -278.4880
  10   2.0000     -10.214888      -277.9612
  11   2.0000     -10.207355      -277.7563
  12   2.0000     -10.193216      -277.3715
  13   2.0000     -10.191981      -277.3379
  14   2.0000     -10.185516      -277.1620
  15   2.0000     -10.183194      -277.0988
  16   2.0000      -1.038515       -28.2594
  17   2.0000      -1.033450       -28.1216
  18   2.0000      -0.968924       -26.3658
  19   2.0000      -0.958822       -26.0909
  20   2.0000      -0.834890       -22.7185
  21   2.0000      -0.801896       -21.8207
  22   2.0000      -0.779916       -21.2226
  23   2.0000      -0.733345       -19.9553
  24   2.0000      -0.718577       -19.5535
  25   2.0000      -0.683793       -18.6069
  26   2.0000      -0.675394       -18.3784
  27   2.0000      -0.627282       -17.0692
  28   2.0000      -0.609209       -16.5774
  29   2.0000      -0.575469       -15.6593
  30   2.0000      -0.567309       -15.4373
  31   2.0000      -0.526739       -14.3333
  32   2.0000      -0.511080       -13.9072
  33   2.0000      -0.501051       -13.6343
  34   2.0000      -0.496596       -13.5131
  35   2.0000      -0.467752       -12.7282
  36   2.0000      -0.466101       -12.6833
  37   2.0000      -0.454772       -12.3750
  38   2.0000      -0.446301       -12.1445
  39   2.0000      -0.439303       -11.9541
  40   2.0000      -0.434276       -11.8173
  41   2.0000      -0.428939       -11.6720
  42   2.0000      -0.423326       -11.5193
  43   2.0000      -0.406900       -11.0723
  44   2.0000      -0.394472       -10.7341
  45   2.0000      -0.390885       -10.6365
  46   2.0000      -0.385591       -10.4925
  47   2.0000      -0.384743       -10.4694
  48   2.0000      -0.372795       -10.1443
  49   2.0000      -0.364744        -9.9252
  50   2.0000      -0.361651        -9.8410
  51   2.0000      -0.353043        -9.6068
  52   2.0000      -0.335980        -9.1425
  53   2.0000      -0.285880        -7.7792
  54   2.0000      -0.276480        -7.5234
  55   2.0000      -0.262553        -7.1444
  56   2.0000      -0.251185        -6.8351
  57   2.0000      -0.200968        -5.4686
  58   0.0000      -0.094001        -2.5579
  59   0.0000      -0.021658        -0.5894
  60   0.0000       0.025728         0.7001
  61   0.0000       0.051705         1.4070
  62   0.0000       0.056489         1.5372

MULLIKEN ATOMIC CHARGES
-----------------------
   0 C :    0.038469
   1 N :   -0.277206
   2 C :    0.128541
   3 C :   -0.004659
   4 C :    0.187986
   5 O :   -0.225727
   6 C :   -0.082393
   7 C :    0.005361
   8 C :    0.185985
   9 O :   -0.196453
  10 N :   -0.301935
  11 C :    0.114726
  12 C :   -0.003361
  13 C :    0.126142
  14 C :   -0.027019
  15 C :   -0.002163
  16 H :    0.017672
  17 H :    0.033337
  18 H :    0.010249
  19 H :    0.035209
  20 H :    0.019584
  21 H :    0.016102
  22 H :    0.035342
  23 H :    0.019551
  24 H :    0.032070
  25 H :    0.019086
  26 H :    0.017031
  27 H :   -0.015742
  28 H :    0.060446
  29 H :    0.033770
Sum of atomic charges:    0.0000000

LOEWDIN ATOMIC CHARGES
----------------------
   0 C :    0.080895
   1 N :   -0.005371
   2 C :    0.041414
   3 C :   -0.060994
   4 C :    0.079535
   5 O :   -0.203743
   6 C :   -0.125657
   7 C :   -0.123508
   8 C :    0.085024
   9 O :   -0.186546
  10 N :   -0.015644
  11 C :    0.037886
  12 C :   -0.061376
  13 C :    0.079939
  14 C :   -0.051593
  15 C :    0.017984
  16 H :    0.032749
  17 H :    0.034110
  18 H :    0.023726
  19 H :    0.032474
  20 H :    0.029690
  21 H :    0.022933
  22 H :    0.035102
  23 H :    0.021683
  24 H :    0.032447
  25 H :    0.029793
  26 H :    0.022013
  27 H :    0.029556
  28 H :    0.034851
  29 H :    0.030629

  Mayer bond orders larger than 0.100000
B(  0-C ,  1-N ) :   1.1866 B(  0-C ,  7-C ) :   1.4210 B(  0-C , 16-H ) :   0.9874
B(  1-N ,  2-C ) :   0.9554 B(  1-N ,  4-C ) :   1.0234 B(  2-C ,  3-C ) :   1.1222
B(  2-C , 17-H ) :   0.9325 B(  2-C , 18-H ) :   0.9471 B(  3-C , 19-H ) :   0.9654
B(  3-C , 20-H ) :   0.9632 B(  3-C , 21-H ) :   0.9657 B(  4-C ,  5-O ) :   1.9947
B(  4-C ,  6-C ) :   1.0142 B(  6-C ,  7-C ) :   1.2177 B(  6-C , 13-C ) :   1.3703
B(  7-C ,  8-C ) :   0.9672 B(  8-C ,  9-O ) :   2.1295 B(  8-C , 10-N ) :   0.9835
B( 10-N , 11-C ) :   0.9552 B( 10-N , 13-C ) :   1.1553 B( 11-C , 12-C ) :   1.1200
B( 11-C , 22-H ) :   0.9257 B( 11-C , 23-H ) :   0.9450 B( 12-C , 24-H ) :   0.9629
B( 12-C , 25-H ) :   0.9642 B( 12-C , 26-H ) :   0.9668 B( 13-C , 14-C ) :   1.1453
B( 14-C , 15-C ) :   1.8602 B( 14-C , 27-H ) :   0.9474 B( 15-C , 28-H ) :   0.9245
B( 15-C , 29-H ) :   0.9417

Dispersion correction           -0.058554045
FINAL SINGLE POINT ENERGY      -725.186538345158

DIPOLE MOMENT
-------------
                                X             Y             Z
Electronic contribution:      1.72506      -3.07904       5.92574
Nuclear contribution   :     -1.85580       3.34469      -6.07729
                        -----------------------------------------
Total Dipole Moment    :     -0.13074       0.26565      -0.15155
                        -----------------------------------------
Magnitude (a.u.)       :      0.33261
Magnitude (Debye)      :      0.84544

Rotational constants in cm-1:     0.029816     0.012594     0.009551
Rotational constants in MHz :   893.850389   377.570223   286.342980

                             ****ORCA TERMINATED NORMALLY****
TOTAL RUN TIME: 0 days 0 hours 31 minutes 18 seconds 894 msec
