                         Program Version 4.2.0 -  RELEASE  -
|  1> # ORCA input file
|  2> # SCF done        -23.821623553586          0.000882766208
|  3> ! B3LYP/G D3BJ Opt RIJCOSX def2-SVP def2/J
|  4> * xyz 0 1
|  5>    C       -0.42225        -1.28633         0.04838
|  6>    S        1.31226        -0.75704        -0.21607
|  7>    C        0.96762         0.77351         0.39207
|  8>    C       -0.41511         1.13832         0.26134
|  9>    N       -0.76774         2.39670         0.34454
| 10>    N       -2.03188         2.76809         0.43050
| 11>    C       -1.23949        -0.02620         0.10383
| 12>    S       -2.87872        -0.14756         0.00135
| 13>    H       -0.46469        -1.79149         1.01765
| 14>    H       -0.74488        -1.97808        -0.72752
| 15>    H        1.13658        -0.87618        -1.66925
| 16>    H        1.75799         1.49101         0.45875
| 17>    H       -2.18248         3.76009         0.35462
| 18>    H       -2.79114         2.11625         0.25242
| 19> *
| 20>
| 21>                          ****END OF INPUT****
 Total Charge           Charge          ....    0
 Multiplicity           Mult            ....    1
 Number of Electrons    NEL             ....   76
Dispersion correction           -0.030948932
FINAL SINGLE POINT ENERGY     -1061.395356248429
Dispersion correction            ... done
Dispersion correction           -0.030835087
FINAL SINGLE POINT ENERGY     -1061.397525027657
Dispersion correction            ... done
Dispersion correction           -0.030818793
FINAL SINGLE POINT ENERGY     -1061.397769118474
Dispersion correction            ... done
FINAL SINGLE POINT ENERGY     -1061.397832572592
FINAL SINGLE POINT ENERGY     -1061.397902652602
FINAL SINGLE POINT ENERGY     -1061.397955773471
FINAL SINGLE POINT ENERGY     -1061.397989409097
FINAL SINGLE POINT ENERGY     -1061.398015562580
FINAL SINGLE POINT ENERGY     -1061.398022847050
Dispersion correction            ... done
Dispersion correction           -0.030840666
FINAL SINGLE POINT ENERGY     -1061.398023043889
Dispersion correction            ... done
Dispersion correction           -0.030836222
FINAL SINGLE POINT ENERGY     -1061.398018956098
Dispersion correction            ... done
                    ***********************HURRAY********************

CARTESIAN COORDINATES (ANGSTROEM)
---------------------------------
  C     -0.425808   -1.293422    0.069999
  S      1.305870   -0.754505   -0.255930
  C      1.002759    0.767230    0.394924
  C     -0.401639    1.146092    0.238744
  N     -0.769427    2.412217    0.352543
  N     -2.028806    2.772456    0.293260
  C     -1.253567   -0.016294    0.053501
  S     -2.904014   -0.124172   -0.075696
  H     -0.437302   -1.730425    1.082033
  H     -0.751384   -2.037893   -0.666853
  H      1.080988   -0.862403   -1.693947
  H      1.816246    1.481221    0.502959
  H     -2.213100    3.742353    0.519162
  H     -2.784747    2.078635    0.237911

 Multiplicity           Mult            ....    1
 Number of Electrons    NEL             ....   76
 Basis Dimension        Dim             ....  150

ORBITAL ENERGIES
----------------

  NO   OCC          E(Eh)            E(eV)
   0   2.0000     -88.929562     -2419.8964
   1   2.0000     -88.822451     -2416.9818
   2   2.0000     -14.377037      -391.2191
   3   2.0000     -14.361175      -390.7874
   4   2.0000     -10.254095      -279.0281
   5   2.0000     -10.242975      -278.7255
   6   2.0000     -10.223610      -278.1986
   7   2.0000     -10.172939      -276.8197
   8   2.0000      -8.017808      -218.1756
   9   2.0000      -7.917635      -215.4498
  10   2.0000      -5.984697      -162.8519
  11   2.0000      -5.984318      -162.8416
  12   2.0000      -5.979359      -162.7066
  13   2.0000      -5.885448      -160.1512
  14   2.0000      -5.884046      -160.1130
  15   2.0000      -5.877009      -159.9215
  16   2.0000      -1.006567       -27.3901
  17   2.0000      -0.890310       -24.2266
  18   2.0000      -0.803289       -21.8586
  19   2.0000      -0.784982       -21.3604
  20   2.0000      -0.697482       -18.9795
  21   2.0000      -0.668591       -18.1933
  22   2.0000      -0.590055       -16.0562
  23   2.0000      -0.580355       -15.7923
  24   2.0000      -0.537491       -14.6259
  25   2.0000      -0.492959       -13.4141
  26   2.0000      -0.471940       -12.8421
  27   2.0000      -0.448307       -12.1990
  28   2.0000      -0.430659       -11.7188
  29   2.0000      -0.411194       -11.1892
  30   2.0000      -0.396856       -10.7990
  31   2.0000      -0.373537       -10.1645
  32   2.0000      -0.348050        -9.4709
  33   2.0000      -0.311582        -8.4786
  34   2.0000      -0.291793        -7.9401
  35   2.0000      -0.256189        -6.9712
  36   2.0000      -0.221206        -6.0193
  37   2.0000      -0.168141        -4.5753
  38   0.0000      -0.091554        -2.4913
  39   0.0000      -0.016176        -0.4402
  40   0.0000       0.021486         0.5847
  41   0.0000       0.063711         1.7337
  42   0.0000       0.072035         1.9602

MULLIKEN ATOMIC CHARGES
-----------------------
   0 C :   -0.001278
   1 S :    0.249183
   2 C :   -0.242987
   3 C :    0.048304
   4 N :   -0.092874
   5 N :   -0.019205
   6 C :   -0.127138
   7 S :   -0.173546
   8 H :    0.085548
   9 H :    0.062008
  10 H :   -0.047100
  11 H :    0.010770
  12 H :    0.134841
  13 H :    0.113475
Sum of atomic charges:   -0.0000000

LOEWDIN ATOMIC CHARGES
----------------------
   0 C :   -0.121140
   1 S :    0.671560
   2 C :   -0.403492
   3 C :   -0.110230
   4 N :   -0.036802
   5 N :    0.075264
   6 C :   -0.168200
   7 S :    0.024112
   8 H :    0.047896
   9 H :    0.033874
  10 H :   -0.115052
  11 H :    0.015664
  12 H :    0.072452
  13 H :    0.014094

  Mayer bond orders larger than 0.100000
B(  0-C ,  1-S ) :   0.9711 B(  0-C ,  6-C ) :   0.9855 B(  0-C ,  8-H ) :   0.9137
B(  0-C ,  9-H ) :   0.9339 B(  1-S ,  2-C ) :   1.1971 B(  1-S , 10-H ) :   0.6958
B(  2-C ,  3-C ) :   1.0758 B(  2-C , 10-H ) :   0.1795 B(  2-C , 11-H ) :   0.9672
B(  3-C ,  4-N ) :   1.6165 B(  3-C ,  6-C ) :   1.1909 B(  4-N ,  5-N ) :   1.2342
B(  5-N , 12-H ) :   0.9509 B(  5-N , 13-H ) :   0.8873 B(  6-C ,  7-S ) :   1.6071
B(  7-S , 13-H ) :   0.1399

Dispersion correction           -0.030840503
FINAL SINGLE POINT ENERGY     -1061.398018804643

DIPOLE MOMENT
-------------
                                X             Y             Z
Electronic contribution:     -0.96281      -0.65387       0.20999
Nuclear contribution   :      1.01810       0.48382      -0.29032
                        -----------------------------------------
Total Dipole Moment    :      0.05530      -0.17006      -0.08033
                        -----------------------------------------
Magnitude (a.u.)       :      0.19604
Magnitude (Debye)      :      0.49828

Rotational constants in cm-1:     0.075473     0.039958     0.026719
Rotational constants in MHz :  2262.615944  1197.908323   801.017496

                             ****ORCA TERMINATED NORMALLY****
TOTAL RUN TIME: 0 days 0 hours 8 minutes 0 seconds 78 msec
