                         Program Version 4.2.0 -  RELEASE  -
|  1> # ORCA input file
|  2> # SCF done        -19.379817624637          0.000272126420
|  3> ! B3LYP/G D3BJ Opt RIJCOSX def2-SVP def2/J
|  4> * xyz 0 1
|  5>    C        0.25844        -1.12165        -0.10100
|  6>    S       -1.11369        -0.08709         0.18724
|  7>    C       -0.03354         1.24499         0.15204
|  8>    C        1.25366         0.83012        -0.07067
|  9>    N        1.37844        -0.52218        -0.20942
| 10>    C        2.40602         1.70293        -0.15920
| 11>    C        3.63613         1.26098        -0.39033
| 12>    H        0.13285        -2.18318        -0.17722
| 13>    H       -0.39482         2.24348         0.29295
| 14>    H        2.19903         2.75608        -0.02433
| 15>    H        3.82462         0.20983        -0.52418
| 16>    H        4.47733         1.92915        -0.45262
| 17> *
| 18>
| 19>                          ****END OF INPUT****
 Total Charge           Charge          ....    0
 Multiplicity           Mult            ....    1
 Number of Electrons    NEL             ....   58
Dispersion correction           -0.021682171
FINAL SINGLE POINT ENERGY      -646.183321546390
Dispersion correction            ... done
Dispersion correction           -0.021611501
FINAL SINGLE POINT ENERGY      -646.185630436280
Dispersion correction            ... done
Dispersion correction           -0.021600027
FINAL SINGLE POINT ENERGY      -646.185685617233
Dispersion correction            ... done
FINAL SINGLE POINT ENERGY      -646.185665460517
Dispersion correction            ... done
Dispersion correction           -0.021595101
FINAL SINGLE POINT ENERGY      -646.185703406658
Dispersion correction            ... done
Dispersion correction           -0.021595310
FINAL SINGLE POINT ENERGY      -646.185705391152
Dispersion correction            ... done
                    ***********************HURRAY********************

CARTESIAN COORDINATES (ANGSTROEM)
---------------------------------
  C      0.227533   -1.145031   -0.104794
  S     -1.130863   -0.093830    0.213498
  C     -0.043937    1.248608    0.161330
  C      1.245417    0.820663   -0.083853
  N      1.369269   -0.548081   -0.233041
  C      2.411334    1.698770   -0.178010
  C      3.667000    1.276355   -0.381550
  H      0.081488   -2.224866   -0.186263
  H     -0.390390    2.268094    0.319365
  H      2.204418    2.768129   -0.063093
  H      3.885218    0.212139   -0.497598
  H      4.497984    1.982511   -0.442731

 Multiplicity           Mult            ....    1
 Number of Electrons    NEL             ....   58
 Basis Dimension        Dim             ....  127

ORBITAL ENERGIES
----------------

  NO   OCC          E(Eh)            E(eV)
   0   2.0000     -88.886264     -2418.7182
   1   2.0000     -14.331475      -389.9792
   2   2.0000     -10.252309      -278.9795
   3   2.0000     -10.228555      -278.3331
   4   2.0000     -10.221742      -278.1477
   5   2.0000     -10.196982      -277.4740
   6   2.0000     -10.186477      -277.1881
   7   2.0000      -7.982014      -217.2016
   8   2.0000      -5.949820      -161.9028
   9   2.0000      -5.945926      -161.7969
  10   2.0000      -5.943614      -161.7340
  11   2.0000      -0.964238       -26.2382
  12   2.0000      -0.803179       -21.8556
  13   2.0000      -0.788368       -21.4526
  14   2.0000      -0.718398       -19.5486
  15   2.0000      -0.606131       -16.4937
  16   2.0000      -0.597537       -16.2598
  17   2.0000      -0.534550       -14.5458
  18   2.0000      -0.510310       -13.8862
  19   2.0000      -0.443521       -12.0688
  20   2.0000      -0.437695       -11.9103
  21   2.0000      -0.422267       -11.4905
  22   2.0000      -0.418901       -11.3989
  23   2.0000      -0.378028       -10.2867
  24   2.0000      -0.359133        -9.7725
  25   2.0000      -0.312299        -8.4981
  26   2.0000      -0.289375        -7.8743
  27   2.0000      -0.279379        -7.6023
  28   2.0000      -0.231661        -6.3038
  29   0.0000      -0.040327        -1.0974
  30   0.0000      -0.014082        -0.3832
  31   0.0000       0.029597         0.8054
  32   0.0000       0.068520         1.8645
  33   0.0000       0.091225         2.4823

MULLIKEN ATOMIC CHARGES
-----------------------
   0 C :   -0.007613
   1 S :    0.086214
   2 C :   -0.114346
   3 C :    0.040138
   4 N :   -0.109514
   5 C :   -0.000739
   6 C :   -0.001515
   7 H :    0.049454
   8 H :    0.024131
   9 H :   -0.018879
  10 H :    0.032186
  11 H :    0.020483
Sum of atomic charges:   -0.0000000

LOEWDIN ATOMIC CHARGES
----------------------
   0 C :   -0.128488
   1 S :    0.406574
   2 C :   -0.204530
   3 C :   -0.039646
   4 N :   -0.099380
   5 C :   -0.037984
   6 C :   -0.029770
   7 H :    0.022223
   8 H :    0.028451
   9 H :    0.028330
  10 H :    0.028990
  11 H :    0.025230

  Mayer bond orders larger than 0.100000
B(  0-C ,  1-S ) :   1.1472 B(  0-C ,  4-N ) :   1.7101 B(  0-C ,  7-H ) :   0.9594
B(  1-S ,  2-C ) :   1.1528 B(  1-S ,  4-N ) :   0.1110 B(  2-C ,  3-C ) :   1.5220
B(  2-C ,  8-H ) :   0.9610 B(  3-C ,  4-N ) :   1.3222 B(  3-C ,  5-C ) :   1.1065
B(  5-C ,  6-C ) :   1.9340 B(  5-C ,  9-H ) :   0.9575 B(  6-C , 10-H ) :   0.9444
B(  6-C , 11-H ) :   0.9420

Dispersion correction           -0.021594981
FINAL SINGLE POINT ENERGY      -646.185704908524

DIPOLE MOMENT
-------------
                                X             Y             Z
Electronic contribution:     -6.64702      -2.72727       0.74351
Nuclear contribution   :      6.17942       2.96648      -0.64151
                        -----------------------------------------
Total Dipole Moment    :     -0.46760       0.23921       0.10200
                        -----------------------------------------
Magnitude (a.u.)       :      0.53505
Magnitude (Debye)      :      1.35998

Rotational constants in cm-1:     0.231746     0.050114     0.041206
Rotational constants in MHz :  6947.560959  1502.365730  1235.333288

                             ****ORCA TERMINATED NORMALLY****
TOTAL RUN TIME: 0 days 0 hours 2 minutes 54 seconds 479 msec
