                         Program Version 4.2.0 -  RELEASE  -
|  1> # ORCA input file
|  2> # SCF done        -26.487833895823          0.000543794856
|  3> ! B3LYP/G D3BJ Opt RIJCOSX def2-SVP def2/J
|  4> * xyz 0 1
|  5>    C        0.06901         1.17635        -0.03887
|  6>    S       -0.99791        -0.17078        -0.04119
|  7>    C        0.34017        -1.24921        -0.03035
|  8>    C        1.53730        -0.60593        -0.02489
|  9>    C        1.37857         0.81333        -0.02629
| 10>    C        2.50322         1.80196        -0.07438
| 11>    C        2.90419         2.09895        -1.52072
| 12>    C        2.85147        -1.32237         0.04144
| 13>    C        3.27926        -1.54084         1.49411
| 14>    H       -0.33913         2.16781        -0.04352
| 15>    H        0.16115        -2.30634        -0.02956
| 16>    H        3.36475         1.41374         0.47091
| 17>    H        2.18757         2.72980         0.40727
| 18>    H        3.21715         1.18873        -2.02755
| 19>    H        3.72539         2.81169        -1.54860
| 20>    H        2.06157         2.51819        -2.06584
| 21>    H        3.61678        -0.74709        -0.48142
| 22>    H        2.75849        -2.29119        -0.45389
| 23>    H        3.37863        -0.58974         2.01270
| 24>    H        4.23421        -2.05993         1.53507
| 25>    H        2.53667        -2.13746         2.01884
| 26> *
| 27>
| 28>                          ****END OF INPUT****
 Total Charge           Charge          ....    0
 Multiplicity           Mult            ....    1
 Number of Electrons    NEL             ....   76
Dispersion correction           -0.038347169
FINAL SINGLE POINT ENERGY      -709.967946105512
Dispersion correction            ... done
Dispersion correction           -0.037941890
FINAL SINGLE POINT ENERGY      -709.970984012264
Dispersion correction            ... done
Dispersion correction           -0.037881921
FINAL SINGLE POINT ENERGY      -709.971154661485
Dispersion correction            ... done
FINAL SINGLE POINT ENERGY      -709.971193173884
Dispersion correction            ... done
Dispersion correction           -0.037873074
FINAL SINGLE POINT ENERGY      -709.971226845671
Dispersion correction            ... done
Dispersion correction           -0.037883949
FINAL SINGLE POINT ENERGY      -709.971237198986
Dispersion correction            ... done
                    ***********************HURRAY********************

CARTESIAN COORDINATES (ANGSTROEM)
---------------------------------
  C      0.023710    1.184473   -0.029271
  S     -1.041079   -0.178307   -0.039835
  C      0.298762   -1.269531   -0.037470
  C      1.510215   -0.618778   -0.028814
  C      1.349416    0.817343   -0.025313
  C      2.487912    1.806202   -0.088836
  C      2.936772    2.116932   -1.525946
  C      2.837289   -1.331913    0.054156
  C      3.310808   -1.547416    1.498896
  H     -0.381951    2.195492   -0.033930
  H      0.124362   -2.345095   -0.033645
  H      3.344337    1.422222    0.489585
  H      2.179607    2.740715    0.407036
  H      3.271086    1.204927   -2.044819
  H      3.769628    2.838539   -1.542318
  H      2.105594    2.542913   -2.109656
  H      3.599524   -0.763234   -0.503100
  H      2.757099   -2.307228   -0.451809
  H      3.429560   -0.588142    2.026079
  H      4.277498   -2.075797    1.528448
  H      2.578361   -2.144648    2.063832

 Multiplicity           Mult            ....    1
 Number of Electrons    NEL             ....   76
 Basis Dimension        Dim             ....  190

ORBITAL ENERGIES
----------------

  NO   OCC          E(Eh)            E(eV)
   0   2.0000     -88.864064     -2418.1141
   1   2.0000     -10.200436      -277.5680
   2   2.0000     -10.200389      -277.5667
   3   2.0000     -10.192050      -277.3398
   4   2.0000     -10.191739      -277.3313
   5   2.0000     -10.188422      -277.2411
   6   2.0000     -10.188240      -277.2361
   7   2.0000     -10.182246      -277.0730
   8   2.0000     -10.181892      -277.0634
   9   2.0000      -7.959188      -216.5805
  10   2.0000      -5.927259      -161.2889
  11   2.0000      -5.923182      -161.1780
  12   2.0000      -5.920686      -161.1100
  13   2.0000      -0.871909       -23.7259
  14   2.0000      -0.781925       -21.2773
  15   2.0000      -0.770319       -20.9615
  16   2.0000      -0.700623       -19.0649
  17   2.0000      -0.698218       -18.9995
  18   2.0000      -0.618664       -16.8347
  19   2.0000      -0.609852       -16.5949
  20   2.0000      -0.560081       -15.2406
  21   2.0000      -0.513548       -13.9744
  22   2.0000      -0.481401       -13.0996
  23   2.0000      -0.454566       -12.3694
  24   2.0000      -0.437400       -11.9023
  25   2.0000      -0.427861       -11.6427
  26   2.0000      -0.403657       -10.9841
  27   2.0000      -0.398229       -10.8364
  28   2.0000      -0.387665       -10.5489
  29   2.0000      -0.383922       -10.4470
  30   2.0000      -0.367900       -10.0111
  31   2.0000      -0.355044        -9.6612
  32   2.0000      -0.349922        -9.5219
  33   2.0000      -0.339833        -9.2473
  34   2.0000      -0.332188        -9.0393
  35   2.0000      -0.328705        -8.9445
  36   2.0000      -0.236141        -6.4257
  37   2.0000      -0.228703        -6.2233
  38   0.0000      -0.010289        -0.2800
  39   0.0000       0.040056         1.0900
  40   0.0000       0.055689         1.5154
  41   0.0000       0.069108         1.8805
  42   0.0000       0.076796         2.0897

MULLIKEN ATOMIC CHARGES
-----------------------
   0 C :   -0.139991
   1 S :    0.086947
   2 C :   -0.144486
   3 C :   -0.036524
   4 C :   -0.043097
   5 C :    0.088472
   6 C :    0.006164
   7 C :    0.086030
   8 C :    0.017705
   9 H :    0.011158
  10 H :    0.012382
  11 H :   -0.002531
  12 H :   -0.005919
  13 H :    0.013663
  14 H :    0.015740
  15 H :    0.010885
  16 H :   -0.002704
  17 H :   -0.007306
  18 H :    0.012495
  19 H :    0.010581
  20 H :    0.010332
Sum of atomic charges:   -0.0000000

LOEWDIN ATOMIC CHARGES
----------------------
   0 C :   -0.203572
   1 S :    0.416227
   2 C :   -0.204918
   3 C :   -0.062523
   4 C :   -0.063076
   5 C :   -0.027841
   6 C :   -0.052118
   7 C :   -0.028757
   8 C :   -0.050231
   9 H :    0.019924
  10 H :    0.020274
  11 H :    0.024059
  12 H :    0.027224
  13 H :    0.021655
  14 H :    0.022564
  15 H :    0.023442
  16 H :    0.023964
  17 H :    0.027317
  18 H :    0.021396
  19 H :    0.021833
  20 H :    0.023158

  Mayer bond orders larger than 0.100000
B(  0-C ,  1-S ) :   1.1575 B(  0-C ,  4-C ) :   1.5538 B(  0-C ,  9-H ) :   0.9651
B(  1-S ,  2-C ) :   1.1587 B(  2-C ,  3-C ) :   1.5540 B(  2-C , 10-H ) :   0.9636
B(  3-C ,  4-C ) :   1.2799 B(  3-C ,  7-C ) :   1.0785 B(  4-C ,  5-C ) :   1.0733
B(  5-C ,  6-C ) :   1.1061 B(  5-C , 11-H ) :   0.9165 B(  5-C , 12-H ) :   0.9217
B(  6-C , 13-H ) :   0.9684 B(  6-C , 14-H ) :   0.9649 B(  6-C , 15-H ) :   0.9651
B(  7-C ,  8-C ) :   1.1070 B(  7-C , 16-H ) :   0.9160 B(  7-C , 17-H ) :   0.9179
B(  8-C , 18-H ) :   0.9681 B(  8-C , 19-H ) :   0.9631 B(  8-C , 20-H ) :   0.9657

Dispersion correction           -0.037883955
FINAL SINGLE POINT ENERGY      -709.971237713327

DIPOLE MOMENT
-------------
                                X             Y             Z
Electronic contribution:    -14.77223      -1.64152      -0.10032
Nuclear contribution   :     15.14111       1.68276       0.10384
                        -----------------------------------------
Total Dipole Moment    :      0.36888       0.04125       0.00352
                        -----------------------------------------
Magnitude (a.u.)       :      0.37120
Magnitude (Debye)      :      0.94352

Rotational constants in cm-1:     0.052775     0.040330     0.025637
Rotational constants in MHz :  1582.144583  1209.073050   768.584263

                             ****ORCA TERMINATED NORMALLY****
TOTAL RUN TIME: 0 days 0 hours 6 minutes 51 seconds 44 msec
