                         Program Version 4.2.0 -  RELEASE  -
|  1> # ORCA input file
|  2> # SCF done        -43.147925602362          0.000316340283
|  3> ! B3LYP/G D3BJ Opt RIJCOSX def2-SVP def2/J
|  4> * xyz 0 1
|  5>    C       -1.77962         1.27129         0.20619
|  6>    S       -3.12854         0.22720         0.24540
|  7>    C       -0.59256         0.57984         0.12320
|  8>    C        0.72211         1.09284         0.09550
|  9>    C        1.80207         0.25793         0.01639
| 10>    O        3.01642         0.87725        -0.03553
| 11>    C        4.18469         0.22651         0.41483
| 12>    C        1.59746        -1.16719        -0.06097
| 13>    O        2.72189        -1.93442        -0.20245
| 14>    C        2.57859        -3.32692        -0.31947
| 15>    C        0.33254        -1.68472        -0.01289
| 16>    C       -0.79370        -0.83857         0.08687
| 17>    C       -2.13825        -1.19396         0.14810
| 18>    C       -2.70678        -2.50781         0.14270
| 19>    C       -4.00781        -2.78437         0.22484
| 20>    H       -1.92514         2.33176         0.24986
| 21>    H        0.88931         2.15706         0.13517
| 22>    H        4.91337         1.02291         0.56936
| 23>    H        4.56896        -0.47823        -0.32556
| 24>    H        4.01667        -0.29733         1.35864
| 25>    H        3.58943        -3.71510        -0.43763
| 26>    H        1.98201        -3.59788        -1.19668
| 27>    H        2.12720        -3.76319         0.57781
| 28>    H        0.17267        -2.74885        -0.06552
| 29>    H       -1.99146        -3.31643         0.06623
| 30>    H       -4.74427        -2.00197         0.30243
| 31>    H       -4.37183        -3.79613         0.21586
| 32> *
| 33>
| 34>                          ****END OF INPUT****
 Total Charge           Charge          ....    0
 Multiplicity           Mult            ....    1
 Number of Electrons    NEL             ....  116
Dispersion correction           -0.057052436
FINAL SINGLE POINT ENERGY     -1012.578288421893
Dispersion correction            ... done
Dispersion correction           -0.056616419
FINAL SINGLE POINT ENERGY     -1012.581845036876
Dispersion correction            ... done
Dispersion correction           -0.056625150
FINAL SINGLE POINT ENERGY     -1012.582123214867
Dispersion correction            ... done
FINAL SINGLE POINT ENERGY     -1012.582266909946
FINAL SINGLE POINT ENERGY     -1012.582461366151
FINAL SINGLE POINT ENERGY     -1012.582742502778
FINAL SINGLE POINT ENERGY     -1012.583066094986
FINAL SINGLE POINT ENERGY     -1012.583273681910
FINAL SINGLE POINT ENERGY     -1012.583370541867
FINAL SINGLE POINT ENERGY     -1012.583492589910
FINAL SINGLE POINT ENERGY     -1012.583167611506
FINAL SINGLE POINT ENERGY     -1012.583639906593
FINAL SINGLE POINT ENERGY     -1012.583867031218
FINAL SINGLE POINT ENERGY     -1012.583944578803
FINAL SINGLE POINT ENERGY     -1012.583957299210
FINAL SINGLE POINT ENERGY     -1012.583963774246
Dispersion correction            ... done
Dispersion correction           -0.056554032
FINAL SINGLE POINT ENERGY     -1012.583973496985
Dispersion correction            ... done
Dispersion correction           -0.056557776
FINAL SINGLE POINT ENERGY     -1012.583977685949
Dispersion correction            ... done
                    ***********************HURRAY********************

CARTESIAN COORDINATES (ANGSTROEM)
---------------------------------
  C     -1.685836    1.295278    0.266410
  S     -3.062031    0.278129    0.372200
  C     -0.514211    0.564762    0.118185
  C      0.826131    1.047582   -0.004983
  C      1.862166    0.169473   -0.167752
  O      3.126368    0.639559   -0.359131
  C      4.055902    0.422069    0.691031
  C      1.613156   -1.262924   -0.217995
  O      2.719363   -2.014413   -0.430771
  C      2.573077   -3.407759   -0.569466
  C      0.337863   -1.761324   -0.079252
  C     -0.760777   -0.863299    0.090918
  C     -2.122329   -1.178783    0.221647
  C     -2.721713   -2.495491    0.232147
  C     -4.029951   -2.803070    0.289613
  H     -1.795613    2.376907    0.321909
  H      1.043926    2.116759    0.012219
  H      5.006288    0.870355    0.369645
  H      4.210430   -0.650749    0.886637
  H      3.721669    0.917348    1.621193
  H      3.571693   -3.810700   -0.782552
  H      1.894854   -3.660318   -1.403277
  H      2.183086   -3.871899    0.354242
  H      0.151739   -2.833391   -0.124491
  H     -1.999896   -3.317905    0.186271
  H     -4.805297   -2.032563    0.332434
  H     -4.364627   -3.842114    0.295648

 Multiplicity           Mult            ....    1
 Number of Electrons    NEL             ....  116
 Basis Dimension        Dim             ....  274

ORBITAL ENERGIES
----------------

  NO   OCC          E(Eh)            E(eV)
   0   2.0000     -88.876603     -2418.4553
   1   2.0000     -19.174651      -521.7688
   2   2.0000     -19.146860      -521.0126
   3   2.0000     -10.254697      -279.0445
   4   2.0000     -10.252529      -278.9855
   5   2.0000     -10.243900      -278.7507
   6   2.0000     -10.233677      -278.4725
   7   2.0000     -10.211685      -277.8741
   8   2.0000     -10.211184      -277.8604
   9   2.0000     -10.200525      -277.5704
  10   2.0000     -10.199930      -277.5542
  11   2.0000     -10.198288      -277.5095
  12   2.0000     -10.191587      -277.3272
  13   2.0000     -10.190689      -277.3028
  14   2.0000     -10.184082      -277.1230
  15   2.0000      -7.971303      -216.9102
  16   2.0000      -5.939150      -161.6125
  17   2.0000      -5.935126      -161.5030
  18   2.0000      -5.933209      -161.4508
  19   2.0000      -1.073768       -29.2187
  20   2.0000      -1.039948       -28.2984
  21   2.0000      -0.888555       -24.1788
  22   2.0000      -0.825146       -22.4534
  23   2.0000      -0.784200       -21.3392
  24   2.0000      -0.752003       -20.4630
  25   2.0000      -0.747958       -20.3530
  26   2.0000      -0.710803       -19.3419
  27   2.0000      -0.689954       -18.7746
  28   2.0000      -0.669272       -18.2118
  29   2.0000      -0.609613       -16.5884
  30   2.0000      -0.604953       -16.4616
  31   2.0000      -0.573192       -15.5973
  32   2.0000      -0.548916       -14.9368
  33   2.0000      -0.520156       -14.1542
  34   2.0000      -0.513165       -13.9639
  35   2.0000      -0.506012       -13.7693
  36   2.0000      -0.482939       -13.1414
  37   2.0000      -0.474825       -12.9206
  38   2.0000      -0.457084       -12.4379
  39   2.0000      -0.453086       -12.3291
  40   2.0000      -0.449145       -12.2219
  41   2.0000      -0.434994       -11.8368
  42   2.0000      -0.421724       -11.4757
  43   2.0000      -0.417342       -11.3565
  44   2.0000      -0.405604       -11.0371
  45   2.0000      -0.397535       -10.8175
  46   2.0000      -0.372082       -10.1249
  47   2.0000      -0.368553       -10.0288
  48   2.0000      -0.363063        -9.8795
  49   2.0000      -0.354888        -9.6570
  50   2.0000      -0.338127        -9.2009
  51   2.0000      -0.335185        -9.1209
  52   2.0000      -0.315698        -8.5906
  53   2.0000      -0.297452        -8.0941
  54   2.0000      -0.279231        -7.5983
  55   2.0000      -0.259625        -7.0648
  56   2.0000      -0.227000        -6.1770
  57   2.0000      -0.189989        -5.1699
  58   0.0000      -0.062553        -1.7022
  59   0.0000      -0.005781        -0.1573
  60   0.0000       0.029375         0.7993
  61   0.0000       0.043373         1.1802
  62   0.0000       0.052747         1.4353

MULLIKEN ATOMIC CHARGES
-----------------------
   0 C :   -0.136925
   1 S :    0.126379
   2 C :    0.110706
   3 C :   -0.074797
   4 C :    0.159232
   5 O :   -0.332043
   6 C :    0.214616
   7 C :    0.205551
   8 O :   -0.309983
   9 C :    0.187614
  10 C :   -0.173245
  11 C :    0.142072
  12 C :   -0.148170
  13 C :    0.001372
  14 C :   -0.042984
  15 H :    0.016557
  16 H :   -0.036289
  17 H :    0.023610
  18 H :    0.016462
  19 H :   -0.002149
  20 H :    0.033299
  21 H :    0.021980
  22 H :    0.020706
  23 H :   -0.043067
  24 H :   -0.014310
  25 H :    0.016652
  26 H :    0.017152
Sum of atomic charges:   -0.0000000

LOEWDIN ATOMIC CHARGES
----------------------
   0 C :   -0.201976
   1 S :    0.463853
   2 C :   -0.055098
   3 C :   -0.037424
   4 C :    0.026029
   5 O :   -0.123503
   6 C :    0.084309
   7 C :    0.037205
   8 O :   -0.086893
   9 C :    0.080741
  10 C :   -0.087726
  11 C :   -0.037515
  12 C :   -0.199553
  13 C :   -0.040843
  14 C :   -0.068239
  15 H :    0.024759
  16 H :    0.033316
  17 H :    0.021887
  18 H :    0.007158
  19 H :    0.006380
  20 H :    0.027245
  21 H :    0.015327
  22 H :    0.013665
  23 H :    0.024376
  24 H :    0.030767
  25 H :    0.017332
  26 H :    0.024419

  Mayer bond orders larger than 0.100000
B(  0-C ,  1-S ) :   1.1874 B(  0-C ,  2-C ) :   1.4109 B(  0-C , 12-C ) :   0.1051
B(  0-C , 15-H ) :   0.9648 B(  1-S , 12-C ) :   1.1310 B(  2-C ,  3-C ) :   1.1017
B(  2-C , 11-C ) :   1.1973 B(  3-C ,  4-C ) :   1.5683 B(  3-C , 10-C ) :   0.1008
B(  3-C , 16-H ) :   1.0095 B(  4-C ,  5-O ) :   1.0913 B(  4-C ,  7-C ) :   1.1499
B(  5-O ,  6-C ) :   0.9511 B(  6-C , 17-H ) :   0.9819 B(  6-C , 18-H ) :   0.9634
B(  6-C , 19-H ) :   0.9601 B(  7-C ,  8-O ) :   1.1369 B(  7-C , 10-C ) :   1.4441
B(  8-O ,  9-C ) :   0.9659 B(  9-C , 20-H ) :   0.9749 B(  9-C , 21-H ) :   0.9640
B(  9-C , 22-H ) :   0.9648 B( 10-C , 11-C ) :   1.1525 B( 10-C , 23-H ) :   0.9874
B( 11-C , 12-C ) :   1.3610 B( 12-C , 13-C ) :   1.1577 B( 13-C , 14-C ) :   1.8907
B( 13-C , 24-H ) :   0.9483 B( 14-C , 25-H ) :   0.9539 B( 14-C , 26-H ) :   0.9446

Dispersion correction           -0.056561316
FINAL SINGLE POINT ENERGY     -1012.583980405755

DIPOLE MOMENT
-------------
                                X             Y             Z
Electronic contribution:     -8.13260       8.18509      -0.98932
Nuclear contribution   :      8.57894      -8.78100       1.31446
                        -----------------------------------------
Total Dipole Moment    :      0.44634      -0.59591       0.32514
                        -----------------------------------------
Magnitude (a.u.)       :      0.81244
Magnitude (Debye)      :      2.06505

Rotational constants in cm-1:     0.032991     0.011444     0.008655
Rotational constants in MHz :   989.043979   343.068418   259.483587

                             ****ORCA TERMINATED NORMALLY****
TOTAL RUN TIME: 0 days 0 hours 42 minutes 30 seconds 943 msec
