                         Program Version 4.2.0 -  RELEASE  -
|  1> # ORCA input file
|  2> # SCF done        -31.209809168916          0.000817892630
|  3> ! B3LYP/G D3BJ Opt RIJCOSX def2-SVP def2/J
|  4> * xyz 0 1
|  5>    C       -1.19457        -1.35898         0.15172
|  6>    S       -2.43252        -0.15397         0.08575
|  7>    C       -1.29348         1.17201        -0.07687
|  8>    C       -0.02596         0.65228        -0.07414
|  9>    C        0.02317        -0.76960         0.05412
| 10>    N        1.35207        -1.12678         0.03962
| 11>    C        2.14340         0.00022        -0.09066
| 12>    O        3.34642         0.03784        -0.13555
| 13>    N        1.27918         1.07917        -0.16055
| 14>    C       -1.78963         2.51577        -0.17681
| 15>    C       -1.04780         3.61309        -0.31066
| 16>    H       -1.45688        -2.39095         0.25536
| 17>    H        1.72701        -2.05589         0.11304
| 18>    H        1.60175         2.02608        -0.25420
| 19>    H       -2.86722         2.59834        -0.13203
| 20>    H        0.02658         3.58410        -0.36151
| 21>    H       -1.50237         4.58530        -0.37663
| 22> *
| 23>
| 24>                          ****END OF INPUT****
 Total Charge           Charge          ....    0
 Multiplicity           Mult            ....    1
 Number of Electrons    NEL             ....   86
Dispersion correction           -0.035583365
FINAL SINGLE POINT ENERGY      -852.863751096744
Dispersion correction            ... done
Dispersion correction           -0.035483206
FINAL SINGLE POINT ENERGY      -852.866353715214
Dispersion correction            ... done
Dispersion correction           -0.035469034
FINAL SINGLE POINT ENERGY      -852.866483438369
Dispersion correction            ... done
FINAL SINGLE POINT ENERGY      -852.866515101965
FINAL SINGLE POINT ENERGY      -852.866525799894
Dispersion correction            ... done
Dispersion correction           -0.035469231
FINAL SINGLE POINT ENERGY      -852.866529242929
Dispersion correction            ... done
Dispersion correction           -0.035468388
FINAL SINGLE POINT ENERGY      -852.866529018394
Dispersion correction            ... done
                    ***********************HURRAY********************

CARTESIAN COORDINATES (ANGSTROEM)
---------------------------------
  C     -1.211823   -1.378875    0.152385
  S     -2.456044   -0.161950    0.093992
  C     -1.305926    1.165025   -0.071728
  C     -0.030226    0.639375   -0.073995
  C      0.019295   -0.786500    0.053482
  N      1.360502   -1.139858    0.035682
  C      2.173195   -0.007471   -0.091817
  O      3.379852    0.032739   -0.132615
  N      1.282487    1.073451   -0.160784
  C     -1.792705    2.525798   -0.179160
  C     -1.054796    3.642186   -0.308273
  H     -1.470807   -2.428836    0.265173
  H      1.757605   -2.065894    0.111112
  H      1.618171    2.020219   -0.262028
  H     -2.882843    2.630237   -0.147147
  H      0.037355    3.628125   -0.352179
  H     -1.534143    4.620260   -0.382100

 Multiplicity           Mult            ....    1
 Number of Electrons    NEL             ....   86
 Basis Dimension        Dim             ....  188

ORBITAL ENERGIES
----------------

  NO   OCC          E(Eh)            E(eV)
   0   2.0000     -88.877878     -2418.4900
   1   2.0000     -19.108980      -519.9818
   2   2.0000     -14.382591      -391.3702
   3   2.0000     -14.381218      -391.3328
   4   2.0000     -10.325114      -280.9606
   5   2.0000     -10.244704      -278.7726
   6   2.0000     -10.242730      -278.7189
   7   2.0000     -10.225380      -278.2467
   8   2.0000     -10.221580      -278.1433
   9   2.0000     -10.212271      -277.8900
  10   2.0000     -10.195630      -277.4372
  11   2.0000      -7.972221      -216.9352
  12   2.0000      -5.940695      -161.6545
  13   2.0000      -5.936725      -161.5465
  14   2.0000      -5.932850      -161.4411
  15   2.0000      -1.060553       -28.8591
  16   2.0000      -0.989379       -26.9224
  17   2.0000      -0.908479       -24.7210
  18   2.0000      -0.877951       -23.8903
  19   2.0000      -0.788774       -21.4636
  20   2.0000      -0.733230       -19.9522
  21   2.0000      -0.714445       -19.4410
  22   2.0000      -0.661119       -17.9900
  23   2.0000      -0.620283       -16.8787
  24   2.0000      -0.598009       -16.2727
  25   2.0000      -0.581364       -15.8197
  26   2.0000      -0.528896       -14.3920
  27   2.0000      -0.515597       -14.0301
  28   2.0000      -0.481689       -13.1074
  29   2.0000      -0.479886       -13.0584
  30   2.0000      -0.466158       -12.6848
  31   2.0000      -0.432788       -11.7768
  32   2.0000      -0.423822       -11.5328
  33   2.0000      -0.399667       -10.8755
  34   2.0000      -0.396565       -10.7911
  35   2.0000      -0.371666       -10.1135
  36   2.0000      -0.357824        -9.7369
  37   2.0000      -0.349663        -9.5148
  38   2.0000      -0.324779        -8.8377
  39   2.0000      -0.297518        -8.0959
  40   2.0000      -0.284546        -7.7429
  41   2.0000      -0.222250        -6.0477
  42   2.0000      -0.214457        -5.8357
  43   0.0000      -0.049812        -1.3555
  44   0.0000       0.017995         0.4897
  45   0.0000       0.025366         0.6902
  46   0.0000       0.037011         1.0071
  47   0.0000       0.061584         1.6758

MULLIKEN ATOMIC CHARGES
-----------------------
   0 C :   -0.217798
   1 S :    0.093383
   2 C :   -0.216304
   3 C :    0.144290
   4 C :    0.185364
   5 N :   -0.132869
   6 C :    0.190646
   7 O :   -0.215399
   8 N :   -0.136240
   9 C :    0.058267
  10 C :   -0.046775
  11 H :    0.016876
  12 H :    0.132695
  13 H :    0.135556
  14 H :   -0.010632
  15 H :   -0.005728
  16 H :    0.024669
Sum of atomic charges:   -0.0000000

LOEWDIN ATOMIC CHARGES
----------------------
   0 C :   -0.230128
   1 S :    0.417752
   2 C :   -0.212928
   3 C :   -0.013813
   4 C :   -0.021861
   5 N :    0.005350
   6 C :    0.080308
   7 O :   -0.213780
   8 N :    0.010917
   9 C :   -0.036252
  10 C :   -0.068268
  11 H :    0.026489
  12 H :    0.093230
  13 H :    0.090206
  14 H :    0.031533
  15 H :    0.013097
  16 H :    0.028149

  Mayer bond orders larger than 0.100000
B(  0-C ,  1-S ) :   1.1064 B(  0-C ,  4-C ) :   1.4790 B(  0-C , 11-H ) :   0.9887
B(  1-S ,  2-C ) :   1.0875 B(  2-C ,  3-C ) :   1.4705 B(  2-C ,  9-C ) :   1.1388
B(  3-C ,  4-C ) :   1.2375 B(  3-C ,  8-N ) :   1.1267 B(  4-C ,  5-N ) :   1.0976
B(  5-N ,  6-C ) :   1.0665 B(  5-N , 12-H ) :   0.9309 B(  6-C ,  7-O ) :   2.1458
B(  6-C ,  8-N ) :   1.0535 B(  8-N , 13-H ) :   0.9271 B(  9-C , 10-C ) :   1.9056
B(  9-C , 14-H ) :   0.9400 B( 10-C , 15-H ) :   0.9533 B( 10-C , 16-H ) :   0.9415

Dispersion correction           -0.035467150
FINAL SINGLE POINT ENERGY      -852.866528859813

DIPOLE MOMENT
-------------
                                X             Y             Z
Electronic contribution:      0.49111      -5.66276       0.50328
Nuclear contribution   :     -1.21750       5.43412      -0.45874
                        -----------------------------------------
Total Dipole Moment    :     -0.72640      -0.22864       0.04453
                        -----------------------------------------
Magnitude (a.u.)       :      0.76283
Magnitude (Debye)      :      1.93896

Rotational constants in cm-1:     0.052306     0.027473     0.018012
Rotational constants in MHz :  1568.098006   823.616645   539.996556

                             ****ORCA TERMINATED NORMALLY****
TOTAL RUN TIME: 0 days 0 hours 7 minutes 10 seconds 740 msec
