                         Program Version 4.2.0 -  RELEASE  -
|  1> # ORCA input file
|  2> # SCF done        -29.534880606622          0.000598061461
|  3> ! B3LYP/G D3BJ Opt RIJCOSX def2-SVP def2/J
|  4> * xyz 0 1
|  5>    C       -1.76390         1.11538         0.38842
|  6>    S       -2.84744        -0.20376         0.58475
|  7>    C       -1.62671        -1.31077         0.09967
|  8>    C       -0.45364        -0.70470        -0.21717
|  9>    C       -0.53527         0.71424        -0.04555
| 10>    O        0.43640         1.63902        -0.28058
| 11>    C        1.79497         1.22824        -0.25461
| 12>    C        2.09611         0.14676         0.78221
| 13>    C        1.95601        -1.27543         0.22917
| 14>    C        0.75826        -1.42731        -0.71632
| 15>    H       -2.08886         2.11661         0.58076
| 16>    H       -1.85131        -2.35803         0.05877
| 17>    H        2.33851         2.14737        -0.01421
| 18>    H        2.10765         0.90382        -1.25570
| 19>    H        1.41167         0.28875         1.62201
| 20>    H        3.11062         0.28474         1.15863
| 21>    H        1.84672        -1.96561         1.06797
| 22>    H        2.86451        -1.55073        -0.31071
| 23>    H        0.52070        -2.48574        -0.83578
| 24>    H        1.01484        -1.03757        -1.70488
| 25> *
| 26>
| 27>                          ****END OF INPUT****
 Total Charge           Charge          ....    0
 Multiplicity           Mult            ....    1
 Number of Electrons    NEL             ....   82
Dispersion correction           -0.040054232
FINAL SINGLE POINT ENERGY      -783.909100266260
Dispersion correction            ... done
Dispersion correction           -0.039760358
FINAL SINGLE POINT ENERGY      -783.911507116710
Dispersion correction            ... done
Dispersion correction           -0.039697023
FINAL SINGLE POINT ENERGY      -783.911744198408
Dispersion correction            ... done
FINAL SINGLE POINT ENERGY      -783.911839876066
FINAL SINGLE POINT ENERGY      -783.911901864534
FINAL SINGLE POINT ENERGY      -783.911923492857
FINAL SINGLE POINT ENERGY      -783.911944259496
FINAL SINGLE POINT ENERGY      -783.911946614231
FINAL SINGLE POINT ENERGY      -783.911932148342
FINAL SINGLE POINT ENERGY      -783.911886336252
FINAL SINGLE POINT ENERGY      -783.912327317546
FINAL SINGLE POINT ENERGY      -783.912435907878
FINAL SINGLE POINT ENERGY      -783.912506506816
FINAL SINGLE POINT ENERGY      -783.912536469988
FINAL SINGLE POINT ENERGY      -783.912491509331
FINAL SINGLE POINT ENERGY      -783.912525652914
FINAL SINGLE POINT ENERGY      -783.912523735615
Dispersion correction            ... done
Dispersion correction           -0.039757719
FINAL SINGLE POINT ENERGY      -783.912513374646
Dispersion correction            ... done
Dispersion correction           -0.039755711
FINAL SINGLE POINT ENERGY      -783.912510209731
Dispersion correction            ... done
                    ***********************HURRAY********************

CARTESIAN COORDINATES (ANGSTROEM)
---------------------------------
  C     -1.665073    1.201434    0.230589
  S     -2.773065   -0.026328    0.750026
  C     -1.658652   -1.289882    0.329209
  C     -0.498441   -0.797312   -0.205593
  C     -0.508810    0.643397   -0.253763
  O      0.529346    1.335157   -0.802535
  C      1.782964    1.316779   -0.103730
  C      2.035714    0.087583    0.765275
  C      1.993433   -1.272751    0.055963
  C      0.690064   -1.542806   -0.738189
  H     -1.923921    2.256111    0.295265
  H     -1.936286   -2.331029    0.489200
  H      1.845439    2.219124    0.533492
  H      2.552175    1.411278   -0.886795
  H      1.308547    0.083812    1.594552
  H      3.022975    0.226600    1.237228
  H      2.121551   -2.049500    0.827446
  H      2.853603   -1.373574   -0.627428
  H      0.482662   -2.622720   -0.773418
  H      0.835614   -1.210093   -1.779944

 Multiplicity           Mult            ....    1
 Number of Electrons    NEL             ....   82
 Basis Dimension        Dim             ....  194

ORBITAL ENERGIES
----------------

  NO   OCC          E(Eh)            E(eV)
   0   2.0000     -88.865386     -2418.1501
   1   2.0000     -19.147350      -521.0259
   2   2.0000     -10.241668      -278.6900
   3   2.0000     -10.234627      -278.4983
   4   2.0000     -10.205322      -277.7009
   5   2.0000     -10.200031      -277.5569
   6   2.0000     -10.192931      -277.3637
   7   2.0000     -10.192811      -277.3605
   8   2.0000     -10.192449      -277.3506
   9   2.0000     -10.189097      -277.2594
  10   2.0000      -7.960499      -216.6162
  11   2.0000      -5.928787      -161.3305
  12   2.0000      -5.924613      -161.2169
  13   2.0000      -5.921576      -161.1343
  14   2.0000      -1.041811       -28.3491
  15   2.0000      -0.869165       -23.6512
  16   2.0000      -0.802870       -21.8472
  17   2.0000      -0.758467       -20.6389
  18   2.0000      -0.715833       -19.4788
  19   2.0000      -0.686091       -18.6695
  20   2.0000      -0.646956       -17.6046
  21   2.0000      -0.588042       -16.0014
  22   2.0000      -0.564731       -15.3671
  23   2.0000      -0.528328       -14.3765
  24   2.0000      -0.492629       -13.4051
  25   2.0000      -0.483504       -13.1568
  26   2.0000      -0.474076       -12.9003
  27   2.0000      -0.445004       -12.1092
  28   2.0000      -0.429504       -11.6874
  29   2.0000      -0.413423       -11.2498
  30   2.0000      -0.406519       -11.0619
  31   2.0000      -0.394843       -10.7442
  32   2.0000      -0.378010       -10.2862
  33   2.0000      -0.361583        -9.8392
  34   2.0000      -0.355128        -9.6635
  35   2.0000      -0.337837        -9.1930
  36   2.0000      -0.331883        -9.0310
  37   2.0000      -0.322033        -8.7630
  38   2.0000      -0.278553        -7.5798
  39   2.0000      -0.235449        -6.4069
  40   2.0000      -0.224433        -6.1071
  41   0.0000      -0.008400        -0.2286
  42   0.0000       0.046000         1.2517
  43   0.0000       0.052454         1.4273
  44   0.0000       0.059812         1.6276
  45   0.0000       0.081049         2.2055

MULLIKEN ATOMIC CHARGES
-----------------------
   0 C :   -0.145175
   1 S :    0.078714
   2 C :   -0.142239
   3 C :   -0.069092
   4 C :    0.180181
   5 O :   -0.346411
   6 C :    0.259049
   7 C :   -0.053200
   8 C :    0.023413
   9 C :    0.143201
  10 H :    0.012525
  11 H :    0.012877
  12 H :   -0.001428
  13 H :    0.006373
  14 H :    0.033111
  15 H :    0.004849
  16 H :    0.003666
  17 H :   -0.004997
  18 H :   -0.008230
  19 H :    0.012813
Sum of atomic charges:   -0.0000000

LOEWDIN ATOMIC CHARGES
----------------------
   0 C :   -0.222668
   1 S :    0.410532
   2 C :   -0.200051
   3 C :   -0.083341
   4 C :   -0.002306
   5 O :   -0.134172
   6 C :    0.094637
   7 C :   -0.055566
   8 C :   -0.027526
   9 C :   -0.025718
  10 H :    0.025326
  11 H :    0.021494
  12 H :    0.012429
  13 H :    0.017715
  14 H :    0.030048
  15 H :    0.031724
  16 H :    0.024652
  17 H :    0.020300
  18 H :    0.028399
  19 H :    0.034093

  Mayer bond orders larger than 0.100000
B(  0-C ,  1-S ) :   1.1353 B(  0-C ,  4-C ) :   1.5477 B(  0-C , 10-H ) :   0.9704
B(  1-S ,  2-C ) :   1.1467 B(  2-C ,  3-C ) :   1.5637 B(  2-C , 11-H ) :   0.9629
B(  3-C ,  4-C ) :   1.2154 B(  3-C ,  9-C ) :   1.0758 B(  4-C ,  5-O ) :   1.1149
B(  5-O ,  6-C ) :   0.9446 B(  6-C ,  7-C ) :   1.0876 B(  6-C , 12-H ) :   0.9430
B(  6-C , 13-H ) :   0.9505 B(  7-C ,  8-C ) :   1.1134 B(  7-C , 14-H ) :   0.9184
B(  7-C , 15-H ) :   0.9270 B(  8-C ,  9-C ) :   1.0771 B(  8-C , 16-H ) :   0.9352
B(  8-C , 17-H ) :   0.9352 B(  9-C , 18-H ) :   0.9224 B(  9-C , 19-H ) :   0.9005

Dispersion correction           -0.039753765
FINAL SINGLE POINT ENERGY      -783.912510711084

DIPOLE MOMENT
-------------
                                X             Y             Z
Electronic contribution:    -12.55271       2.69999       0.30284
Nuclear contribution   :     13.17856      -2.99221       0.02526
                        -----------------------------------------
Total Dipole Moment    :      0.62585      -0.29222       0.32809
                        -----------------------------------------
Magnitude (a.u.)       :      0.76468
Magnitude (Debye)      :      1.94365

Rotational constants in cm-1:     0.075034     0.030682     0.024641
Rotational constants in MHz :  2249.459166   919.823721   738.722310

                             ****ORCA TERMINATED NORMALLY****
TOTAL RUN TIME: 0 days 0 hours 25 minutes 23 seconds 140 msec
