                         Program Version 4.2.0 -  RELEASE  -
|  1> # ORCA input file
|  2> # SCF done        -29.382212377074          0.000486865160
|  3> ! B3LYP/G D3BJ Opt RIJCOSX def2-SVP def2/J
|  4> * xyz 0 1
|  5>    C       -1.17433         1.41032        -0.16477
|  6>    S       -2.44495         0.23002        -0.11498
|  7>    C       -1.33663        -1.12238         0.06379
|  8>    C       -0.06884        -0.62366         0.07689
|  9>    C        0.01693         0.78542        -0.05056
| 10>    O        1.32770         1.16486        -0.02368
| 11>    C        2.06522        -0.03506         0.11086
| 12>    O        1.18921        -1.14382         0.18540
| 13>    C       -1.82012        -2.47250         0.16578
| 14>    C       -1.02473        -3.52932         0.30395
| 15>    H       -1.40147         2.44934        -0.27197
| 16>    H        2.67350         0.01129         1.02745
| 17>    H        2.73005        -0.15402        -0.75963
| 18>    H       -2.89497        -2.58020         0.12155
| 19>    H        0.04557        -3.42025         0.34764
| 20>    H       -1.42246        -4.52588         0.37665
| 21> *
| 22>
| 23>                          ****END OF INPUT****
 Total Charge           Charge          ....    0
 Multiplicity           Mult            ....    1
 Number of Electrons    NEL             ....   80
Dispersion correction           -0.030601545
FINAL SINGLE POINT ENERGY      -818.533565549522
Dispersion correction            ... done
Dispersion correction           -0.030492132
FINAL SINGLE POINT ENERGY      -818.535751472861
Dispersion correction            ... done
Dispersion correction           -0.030468826
FINAL SINGLE POINT ENERGY      -818.535907190226
Dispersion correction            ... done
FINAL SINGLE POINT ENERGY      -818.535938520036
Dispersion correction            ... done
Dispersion correction           -0.030458717
FINAL SINGLE POINT ENERGY      -818.535944810607
Dispersion correction            ... done
Dispersion correction           -0.030459725
FINAL SINGLE POINT ENERGY      -818.535948106725
Dispersion correction            ... done
                    ***********************HURRAY********************

CARTESIAN COORDINATES (ANGSTROEM)
---------------------------------
  C     -1.181245    1.431586   -0.172661
  S     -2.456895    0.232337   -0.114334
  C     -1.329074   -1.119615    0.072047
  C     -0.058161   -0.602706    0.081478
  C      0.023186    0.801779   -0.057977
  O      1.331861    1.185309   -0.038382
  C      2.096883   -0.013446    0.117354
  O      1.195778   -1.124790    0.198053
  C     -1.813849   -2.482718    0.179982
  C     -1.041074   -3.576164    0.289998
  H     -1.412869    2.486356   -0.295125
  H      2.688836    0.044906    1.047436
  H      2.760383   -0.144527   -0.755622
  H     -2.903134   -2.598853    0.164973
  H      0.050081   -3.506939    0.309108
  H     -1.491025   -4.568356    0.368042

 Multiplicity           Mult            ....    1
 Number of Electrons    NEL             ....   80
 Basis Dimension        Dim             ....  174

ORBITAL ENERGIES
----------------

  NO   OCC          E(Eh)            E(eV)
   0   2.0000     -88.872555     -2418.3452
   1   2.0000     -19.189881      -522.1832
   2   2.0000     -19.187167      -522.1094
   3   2.0000     -10.318129      -280.7706
   4   2.0000     -10.254516      -279.0396
   5   2.0000     -10.251453      -278.9562
   6   2.0000     -10.220460      -278.1128
   7   2.0000     -10.216103      -277.9943
   8   2.0000     -10.203707      -277.6570
   9   2.0000     -10.185713      -277.1673
  10   2.0000      -7.966836      -216.7886
  11   2.0000      -5.935419      -161.5109
  12   2.0000      -5.931531      -161.4052
  13   2.0000      -5.927128      -161.2854
  14   2.0000      -1.129589       -30.7377
  15   2.0000      -1.037063       -28.2199
  16   2.0000      -0.883605       -24.0441
  17   2.0000      -0.784296       -21.3418
  18   2.0000      -0.757574       -20.6146
  19   2.0000      -0.710735       -19.3401
  20   2.0000      -0.672000       -18.2861
  21   2.0000      -0.616859       -16.7856
  22   2.0000      -0.601132       -16.3576
  23   2.0000      -0.564850       -15.3704
  24   2.0000      -0.529582       -14.4107
  25   2.0000      -0.503378       -13.6976
  26   2.0000      -0.489532       -13.3209
  27   2.0000      -0.473535       -12.8855
  28   2.0000      -0.458663       -12.4808
  29   2.0000      -0.413429       -11.2500
  30   2.0000      -0.402228       -10.9452
  31   2.0000      -0.389075       -10.5873
  32   2.0000      -0.388547       -10.5729
  33   2.0000      -0.385381       -10.4868
  34   2.0000      -0.356983        -9.7140
  35   2.0000      -0.352205        -9.5840
  36   2.0000      -0.333357        -9.0711
  37   2.0000      -0.297097        -8.0844
  38   2.0000      -0.219220        -5.9653
  39   2.0000      -0.212851        -5.7920
  40   0.0000      -0.039963        -1.0875
  41   0.0000       0.016617         0.4522
  42   0.0000       0.036789         1.0011
  43   0.0000       0.066956         1.8220
  44   0.0000       0.080386         2.1874

MULLIKEN ATOMIC CHARGES
-----------------------
   0 C :   -0.197637
   1 S :    0.084500
   2 C :   -0.190815
   3 C :    0.159124
   4 C :    0.228757
   5 O :   -0.315849
   6 C :    0.409024
   7 O :   -0.320958
   8 C :    0.046041
   9 C :   -0.036377
  10 H :    0.027926
  11 H :    0.034850
  12 H :    0.036088
  13 H :   -0.013910
  14 H :    0.030484
  15 H :    0.018752
Sum of atomic charges:    0.0000000

LOEWDIN ATOMIC CHARGES
----------------------
   0 C :   -0.224842
   1 S :    0.405400
   2 C :   -0.208418
   3 C :   -0.005580
   4 C :   -0.009346
   5 O :   -0.112590
   6 C :    0.218023
   7 O :   -0.108940
   8 C :   -0.041123
   9 C :   -0.053386
  10 H :    0.029909
  11 H :    0.015684
  12 H :    0.015646
  13 H :    0.028935
  14 H :    0.025366
  15 H :    0.025261

  Mayer bond orders larger than 0.100000
B(  0-C ,  1-S ) :   1.0937 B(  0-C ,  4-C ) :   1.5321 B(  0-C , 10-H ) :   0.9829
B(  1-S ,  2-C ) :   1.0792 B(  2-C ,  3-C ) :   1.5221 B(  2-C ,  8-C ) :   1.1200
B(  3-C ,  4-C ) :   1.2326 B(  3-C ,  7-O ) :   1.0731 B(  4-C ,  5-O ) :   1.0673
B(  5-O ,  6-C ) :   0.9829 B(  6-C ,  7-O ) :   0.9723 B(  6-C , 11-H ) :   0.9549
B(  6-C , 12-H ) :   0.9546 B(  8-C ,  9-C ) :   1.9202 B(  8-C , 13-H ) :   0.9460
B(  9-C , 14-H ) :   0.9484 B(  9-C , 15-H ) :   0.9421

Dispersion correction           -0.030458982
FINAL SINGLE POINT ENERGY      -818.535946882854

DIPOLE MOMENT
-------------
                                X             Y             Z
Electronic contribution:     -2.20390       5.42155      -0.57049
Nuclear contribution   :      2.67932      -5.34425       0.57856
                        -----------------------------------------
Total Dipole Moment    :      0.47542       0.07730       0.00806
                        -----------------------------------------
Magnitude (a.u.)       :      0.48173
Magnitude (Debye)      :      1.22445

Rotational constants in cm-1:     0.055745     0.039965     0.023385
Rotational constants in MHz :  1671.190565  1198.134328   701.076415

                             ****ORCA TERMINATED NORMALLY****
TOTAL RUN TIME: 0 days 0 hours 5 minutes 23 seconds 390 msec
