                         Program Version 4.2.0 -  RELEASE  -
|  1> # ORCA input file
|  2> # SCF done        -37.979214000079          0.000302065578
|  3> ! B3LYP/G D3BJ Opt RIJCOSX def2-SVP def2/J
|  4> * xyz 0 1
|  5>    C        1.64204        -1.36592         0.04183
|  6>    S        2.85344        -0.15363         0.02897
|  7>    C        1.65637         1.10313        -0.15416
|  8>    C        0.38986         0.56737        -0.18650
|  9>    C        0.38969        -0.84729        -0.07423
| 10>    C       -0.86950        -1.65403        -0.04448
| 11>    C       -2.02602        -0.85962        -0.64318
| 12>    C       -2.11467         0.51445         0.03492
| 13>    O       -2.18196         0.43333         1.44612
| 14>    C       -3.41006        -0.01220         1.95463
| 15>    C       -0.87891         1.35023        -0.31420
| 16>    C        2.14224         2.45698        -0.22814
| 17>    C        1.47941         3.54179        -0.62054
| 18>    H        1.92420        -2.39585         0.13740
| 19>    H       -1.10216        -1.89349         0.99757
| 20>    H       -0.73046        -2.59548        -0.58053
| 21>    H       -2.96128        -1.40882        -0.52012
| 22>    H       -1.86511        -0.70359        -1.71140
| 23>    H       -3.01384         1.04096        -0.33373
| 24>    H       -3.35661         0.11325         3.03479
| 25>    H       -3.59836        -1.06797         1.72719
| 26>    H       -4.24298         0.58502         1.56079
| 27>    H       -0.84520         2.21248         0.35498
| 28>    H       -0.98401         1.71307        -1.34109
| 29>    H        3.18154         2.55990         0.06068
| 30>    H        0.45949         3.52138        -0.95559
| 31>    H        1.96318         4.50352        -0.62784
| 32> *
| 33>
| 34>                          ****END OF INPUT****
 Total Charge           Charge          ....    0
 Multiplicity           Mult            ....    1
 Number of Electrons    NEL             ....  104
Dispersion correction           -0.055805770
FINAL SINGLE POINT ENERGY      -900.560046753696
Dispersion correction            ... done
Dispersion correction           -0.055365074
FINAL SINGLE POINT ENERGY      -900.563078634415
Dispersion correction            ... done
Dispersion correction           -0.055222113
FINAL SINGLE POINT ENERGY      -900.563182827955
Dispersion correction            ... done
FINAL SINGLE POINT ENERGY      -900.563083611729
FINAL SINGLE POINT ENERGY      -900.562939302933
FINAL SINGLE POINT ENERGY      -900.562904653013
FINAL SINGLE POINT ENERGY      -900.562848760896
FINAL SINGLE POINT ENERGY      -900.562888120365
FINAL SINGLE POINT ENERGY      -900.562966530027
FINAL SINGLE POINT ENERGY      -900.562917351509
FINAL SINGLE POINT ENERGY      -900.562895830554
Dispersion correction            ... done
Dispersion correction           -0.055093884
FINAL SINGLE POINT ENERGY      -900.562850102282
Dispersion correction            ... done
Dispersion correction           -0.055094957
FINAL SINGLE POINT ENERGY      -900.562851757834
Dispersion correction            ... done
                    ***********************HURRAY********************

CARTESIAN COORDINATES (ANGSTROEM)
---------------------------------
  C      1.739901   -1.403317   -0.129312
  S      2.932240   -0.170629   -0.280520
  C      1.720449    1.092519   -0.274191
  C      0.447521    0.544893   -0.156395
  C      0.466856   -0.885685   -0.063817
  C     -0.802117   -1.679646    0.089891
  C     -1.982522   -0.934049   -0.538548
  C     -2.102868    0.480929    0.045045
  O     -2.321952    0.458871    1.449689
  C     -3.614496    0.070303    1.836372
  C     -0.841964    1.320132   -0.204485
  C      2.190374    2.462702   -0.400516
  C      1.478665    3.604184   -0.442576
  H      2.032803   -2.451311   -0.085019
  H     -1.014571   -1.826275    1.162923
  H     -0.686116   -2.680031   -0.354518
  H     -2.917786   -1.494927   -0.381746
  H     -1.843539   -0.852082   -1.630236
  H     -2.958939    0.996459   -0.434659
  H     -3.713713    0.263030    2.914884
  H     -3.817771   -1.003226    1.655468
  H     -4.390745    0.654950    1.303908
  H     -0.841781    2.130345    0.541881
  H     -0.926016    1.808513   -1.191231
  H      3.281212    2.554434   -0.468758
  H      0.391072    3.636263   -0.381990
  H      1.996132    4.561622   -0.537405

 Multiplicity           Mult            ....    1
 Number of Electrons    NEL             ....  104
 Basis Dimension        Dim             ....  256

ORBITAL ENERGIES
----------------

  NO   OCC          E(Eh)            E(eV)
   0   2.0000     -88.864267     -2418.1196
   1   2.0000     -19.134709      -520.6819
   2   2.0000     -10.239475      -278.6303
   3   2.0000     -10.233873      -278.4778
   4   2.0000     -10.208157      -277.7781
   5   2.0000     -10.202360      -277.6203
   6   2.0000     -10.199353      -277.5385
   7   2.0000     -10.190792      -277.3055
   8   2.0000     -10.190337      -277.2932
   9   2.0000     -10.189808      -277.2788
  10   2.0000     -10.189059      -277.2584
  11   2.0000     -10.189036      -277.2578
  12   2.0000     -10.183293      -277.1015
  13   2.0000      -7.959380      -216.5857
  14   2.0000      -5.927343      -161.2912
  15   2.0000      -5.923499      -161.1866
  16   2.0000      -5.920827      -161.1139
  17   2.0000      -1.027029       -27.9469
  18   2.0000      -0.878511       -23.9055
  19   2.0000      -0.810708       -22.0605
  20   2.0000      -0.780270       -21.2322
  21   2.0000      -0.746518       -20.3138
  22   2.0000      -0.728071       -19.8118
  23   2.0000      -0.692494       -18.8437
  24   2.0000      -0.666486       -18.1360
  25   2.0000      -0.629177       -17.1208
  26   2.0000      -0.599077       -16.3017
  27   2.0000      -0.571063       -15.5394
  28   2.0000      -0.545745       -14.8505
  29   2.0000      -0.515650       -14.0316
  30   2.0000      -0.486667       -13.2429
  31   2.0000      -0.483936       -13.1686
  32   2.0000      -0.468378       -12.7452
  33   2.0000      -0.462409       -12.5828
  34   2.0000      -0.451763       -12.2931
  35   2.0000      -0.434391       -11.8204
  36   2.0000      -0.418002       -11.3744
  37   2.0000      -0.407307       -11.0834
  38   2.0000      -0.404104       -10.9962
  39   2.0000      -0.394874       -10.7451
  40   2.0000      -0.383118       -10.4252
  41   2.0000      -0.377732       -10.2786
  42   2.0000      -0.367486        -9.9998
  43   2.0000      -0.358290        -9.7496
  44   2.0000      -0.336589        -9.1591
  45   2.0000      -0.334870        -9.1123
  46   2.0000      -0.325622        -8.8606
  47   2.0000      -0.310601        -8.4519
  48   2.0000      -0.294597        -8.0164
  49   2.0000      -0.261095        -7.1048
  50   2.0000      -0.236653        -6.4397
  51   2.0000      -0.209349        -5.6967
  52   0.0000      -0.038589        -1.0501
  53   0.0000       0.029166         0.7937
  54   0.0000       0.037901         1.0313
  55   0.0000       0.045822         1.2469
  56   0.0000       0.072017         1.9597

MULLIKEN ATOMIC CHARGES
-----------------------
   0 C :   -0.132817
   1 S :    0.096246
   2 C :   -0.162969
   3 C :   -0.039728
   4 C :   -0.067300
   5 C :    0.174943
   6 C :    0.004553
   7 C :    0.109526
   8 O :   -0.383245
   9 C :    0.197474
  10 C :    0.148921
  11 C :    0.037145
  12 C :   -0.044173
  13 H :    0.007750
  14 H :    0.014837
  15 H :   -0.009649
  16 H :   -0.006428
  17 H :    0.006591
  18 H :   -0.025094
  19 H :    0.025268
  20 H :   -0.001121
  21 H :   -0.008171
  22 H :    0.028070
  23 H :    0.015841
  24 H :   -0.012555
  25 H :    0.010228
  26 H :    0.015854
Sum of atomic charges:   -0.0000000

LOEWDIN ATOMIC CHARGES
----------------------
   0 C :   -0.202460
   1 S :    0.425624
   2 C :   -0.184558
   3 C :   -0.052096
   4 C :   -0.061328
   5 C :   -0.020836
   6 C :   -0.040199
   7 C :    0.072301
   8 O :   -0.171938
   9 C :    0.067908
  10 C :   -0.027889
  11 C :   -0.040965
  12 C :   -0.063835
  13 H :    0.021111
  14 H :    0.032990
  15 H :    0.026587
  16 H :    0.019781
  17 H :    0.026418
  18 H :    0.004707
  19 H :    0.022143
  20 H :    0.000375
  21 H :    0.003161
  22 H :    0.037848
  23 H :    0.034961
  24 H :    0.027284
  25 H :    0.018404
  26 H :    0.024500

  Mayer bond orders larger than 0.100000
B(  0-C ,  1-S ) :   1.1504 B(  0-C ,  4-C ) :   1.5338 B(  0-C , 13-H ) :   0.9651
B(  1-S ,  2-C ) :   1.1254 B(  2-C ,  3-C ) :   1.4958 B(  2-C , 11-C ) :   1.1280
B(  3-C ,  4-C ) :   1.3032 B(  3-C , 10-C ) :   1.0721 B(  4-C ,  5-C ) :   1.0445
B(  5-C ,  6-C ) :   1.0672 B(  5-C , 14-H ) :   0.9032 B(  5-C , 15-H ) :   0.9186
B(  6-C ,  7-C ) :   1.0562 B(  6-C , 16-H ) :   0.9242 B(  6-C , 17-H ) :   0.9337
B(  7-C ,  8-O ) :   1.0113 B(  7-C , 10-C ) :   1.0300 B(  7-C , 18-H ) :   0.9160
B(  8-O ,  9-C ) :   1.0033 B(  9-C , 19-H ) :   0.9787 B(  9-C , 20-H ) :   0.9603
B(  9-C , 21-H ) :   0.9575 B( 10-C , 22-H ) :   0.8914 B( 10-C , 23-H ) :   0.9039
B( 11-C , 12-C ) :   1.9021 B( 11-C , 24-H ) :   0.9420 B( 12-C , 25-H ) :   0.9529
B( 12-C , 26-H ) :   0.9397

Dispersion correction           -0.055093852
FINAL SINGLE POINT ENERGY      -900.562848802433

DIPOLE MOMENT
-------------
                                X             Y             Z
Electronic contribution:     15.52522      -1.86684      -1.31683
Nuclear contribution   :    -16.31239       1.57491       1.10309
                        -----------------------------------------
Total Dipole Moment    :     -0.78717      -0.29192      -0.21374
                        -----------------------------------------
Magnitude (a.u.)       :      0.86634
Magnitude (Debye)      :      2.20205

Rotational constants in cm-1:     0.038448     0.016674     0.012645
Rotational constants in MHz :  1152.630321   499.864886   379.080848

                             ****ORCA TERMINATED NORMALLY****
TOTAL RUN TIME: 0 days 0 hours 27 minutes 53 seconds 558 msec
