                         Program Version 4.2.0 -  RELEASE  -
|  1> # ORCA input file
|  2> # SCF done        -25.293695496912          0.000995051837
|  3> ! B3LYP/G D3BJ Opt RIJCOSX def2-SVP def2/J
|  4> * xyz 0 1
|  5>    C        0.05388         1.13538        -0.02968
|  6>    S       -1.12296        -0.10601        -0.00560
|  7>    C        0.11654        -1.32476         0.01629
|  8>    C       -0.28840        -2.70849         0.04303
|  9>    O        0.44188        -3.67222         0.05797
| 10>    C        1.38892        -0.76034         0.00450
| 11>    C        1.32481         0.65543        -0.02184
| 12>    C        2.60221        -1.54959         0.01816
| 13>    C        3.83513        -1.05022         0.01742
| 14>    H       -0.26223         2.16035        -0.04857
| 15>    H       -1.39044        -2.83001         0.04049
| 16>    H        2.18932         1.29343        -0.03497
| 17>    H        2.44993        -2.61885         0.03043
| 18>    H        4.03935         0.00730         0.00694
| 19>    H        4.69466        -1.69785         0.02852
| 20> *
| 21>
| 22>                          ****END OF INPUT****
 Total Charge           Charge          ....    0
 Multiplicity           Mult            ....    1
 Number of Electrons    NEL             ....   72
Dispersion correction           -0.030422129
FINAL SINGLE POINT ENERGY      -743.401171433715
Dispersion correction            ... done
Dispersion correction           -0.030215664
FINAL SINGLE POINT ENERGY      -743.403279874176
Dispersion correction            ... done
Dispersion correction           -0.030186608
FINAL SINGLE POINT ENERGY      -743.403117646090
Dispersion correction            ... done
Dispersion correction           -0.030190700
FINAL SINGLE POINT ENERGY      -743.403360736714
Dispersion correction            ... done
                    ***********************HURRAY********************

CARTESIAN COORDINATES (ANGSTROEM)
---------------------------------
  C      0.040230    1.151546   -0.028549
  S     -1.135939   -0.101944   -0.005771
  C      0.107764   -1.328962    0.013822
  C     -0.318068   -2.729121    0.039783
  O      0.409571   -3.700878    0.055105
  C      1.389297   -0.764009    0.003646
  C      1.323994    0.665345   -0.021553
  C      2.621588   -1.553122    0.019096
  C      3.864879   -1.045230    0.017089
  H     -0.277264    2.193712   -0.048521
  H     -1.432584   -2.857482    0.045354
  H      2.201277    1.311638   -0.035240
  H      2.473070   -2.634892    0.035236
  H      4.067881    0.029714    0.002692
  H      4.736905   -1.702765    0.030900

 Multiplicity           Mult            ....    1
 Number of Electrons    NEL             ....   72
 Basis Dimension        Dim             ....  160

ORBITAL ENERGIES
----------------

  NO   OCC          E(Eh)            E(eV)
   0   2.0000     -88.893016     -2418.9019
   1   2.0000     -19.131567      -520.5964
   2   2.0000     -10.282620      -279.8043
   3   2.0000     -10.237124      -278.5663
   4   2.0000     -10.226287      -278.2714
   5   2.0000     -10.222765      -278.1756
   6   2.0000     -10.212292      -277.8906
   7   2.0000     -10.201391      -277.5940
   8   2.0000     -10.199057      -277.5305
   9   2.0000      -7.988114      -217.3676
  10   2.0000      -5.956038      -162.0720
  11   2.0000      -5.952053      -161.9636
  12   2.0000      -5.949759      -161.9012
  13   2.0000      -1.034169       -28.1412
  14   2.0000      -0.899421       -24.4745
  15   2.0000      -0.796894       -21.6846
  16   2.0000      -0.757212       -20.6048
  17   2.0000      -0.726615       -19.7722
  18   2.0000      -0.646287       -17.5864
  19   2.0000      -0.603011       -16.4088
  20   2.0000      -0.572097       -15.5676
  21   2.0000      -0.521874       -14.2009
  22   2.0000      -0.511944       -13.9307
  23   2.0000      -0.461666       -12.5626
  24   2.0000      -0.452698       -12.3185
  25   2.0000      -0.435969       -11.8633
  26   2.0000      -0.430969       -11.7273
  27   2.0000      -0.424655       -11.5554
  28   2.0000      -0.394705       -10.7405
  29   2.0000      -0.381879       -10.3915
  30   2.0000      -0.372828       -10.1452
  31   2.0000      -0.358918        -9.7667
  32   2.0000      -0.318966        -8.6795
  33   2.0000      -0.265744        -7.2313
  34   2.0000      -0.261930        -7.1275
  35   2.0000      -0.241099        -6.5606
  36   0.0000      -0.082940        -2.2569
  37   0.0000      -0.016469        -0.4481
  38   0.0000       0.018489         0.5031
  39   0.0000       0.019909         0.5418
  40   0.0000       0.063860         1.7377

MULLIKEN ATOMIC CHARGES
-----------------------
   0 C :   -0.056378
   1 S :    0.128591
   2 C :   -0.211558
   3 C :    0.190763
   4 O :   -0.199784
   5 C :    0.088851
   6 C :    0.007930
   7 C :   -0.009019
   8 C :   -0.014239
   9 H :    0.038996
  10 H :   -0.020106
  11 H :   -0.004678
  12 H :    0.017755
  13 H :    0.012204
  14 H :    0.030673
Sum of atomic charges:    0.0000000

LOEWDIN ATOMIC CHARGES
----------------------
   0 C :   -0.165533
   1 S :    0.451151
   2 C :   -0.234857
   3 C :    0.081824
   4 O :   -0.149237
   5 C :   -0.022527
   6 C :   -0.050545
   7 C :   -0.020831
   8 C :   -0.029368
   9 H :    0.030612
  10 H :   -0.008674
  11 H :    0.032512
  12 H :    0.036331
  13 H :    0.019202
  14 H :    0.029940

  Mayer bond orders larger than 0.100000
B(  0-C ,  1-S ) :   1.1900 B(  0-C ,  6-C ) :   1.5351 B(  0-C ,  9-H ) :   0.9652
B(  1-S ,  2-C ) :   1.1059 B(  2-C ,  3-C ) :   1.0390 B(  2-C ,  5-C ) :   1.4261
B(  3-C ,  4-O ) :   2.0871 B(  3-C , 10-H ) :   0.9411 B(  5-C ,  6-C ) :   1.2648
B(  5-C ,  7-C ) :   1.1259 B(  6-C , 11-H ) :   0.9883 B(  7-C ,  8-C ) :   1.8928
B(  7-C , 12-H ) :   0.9504 B(  8-C , 13-H ) :   0.9492 B(  8-C , 14-H ) :   0.9469

Dispersion correction           -0.030194440
FINAL SINGLE POINT ENERGY      -743.403368333998

DIPOLE MOMENT
-------------
                                X             Y             Z
Electronic contribution:     -7.46224      -0.62755      -0.00036
Nuclear contribution   :      7.40517       1.93787      -0.02118
                        -----------------------------------------
Total Dipole Moment    :     -0.05707       1.31032      -0.02153
                        -----------------------------------------
Magnitude (a.u.)       :      1.31174
Magnitude (Debye)      :      3.33417

Rotational constants in cm-1:     0.060042     0.046757     0.026287
Rotational constants in MHz :  1800.018945  1401.735186   788.054140

                             ****ORCA TERMINATED NORMALLY****
TOTAL RUN TIME: 0 days 0 hours 4 minutes 20 seconds 247 msec
