                         Program Version 4.2.0 -  RELEASE  -
|  1> # ORCA input file
|  2> # SCF done        -35.757508241582          0.000835626012
|  3> ! B3LYP/G D3BJ Opt RIJCOSX def2-SVP def2/J
|  4> * xyz 0 1
|  5>    C        1.40882         1.22032        -0.30432
|  6>    S        2.66986         0.05548        -0.23119
|  7>    C        1.53146        -1.19711         0.06549
|  8>    C        0.25401        -0.73742         0.10375
|  9>    C        0.18286         0.66736        -0.11183
| 10>    C       -1.11821         1.40708        -0.16021
| 11>    C       -2.23032         0.58172         0.48669
| 12>    C       -2.22839        -0.85055        -0.07077
| 13>    C       -2.32578        -0.83495        -1.59383
| 14>    O       -1.50022        -1.27814        -2.33422
| 15>    O       -3.45644        -0.28188        -2.07856
| 16>    C       -0.95647        -1.57631         0.37230
| 17>    H        1.64935         2.24794        -0.49205
| 18>    H        1.87540        -2.20428         0.18997
| 19>    H       -1.36943         1.60794        -1.20761
| 20>    H       -1.02327         2.37237         0.34305
| 21>    H       -3.19373         1.07304         0.32311
| 22>    H       -2.06754         0.53041         1.56544
| 23>    H       -3.10401        -1.39340         0.30855
| 24>    H       -4.04998         0.02394        -1.38108
| 25>    H       -0.86832        -2.52777        -0.15437
| 26>    H       -1.02049        -1.78868         1.44408
| 27> *
| 28>
| 29>                          ****END OF INPUT****
 Total Charge           Charge          ....    0
 Multiplicity           Mult            ....    1
 Number of Electrons    NEL             ....   96
Dispersion correction           -0.048165767
FINAL SINGLE POINT ENERGY      -897.196930910113
Dispersion correction            ... done
Dispersion correction           -0.047657048
FINAL SINGLE POINT ENERGY      -897.199693274596
Dispersion correction            ... done
Dispersion correction           -0.047241482
FINAL SINGLE POINT ENERGY      -897.199541096462
Dispersion correction            ... done
FINAL SINGLE POINT ENERGY      -897.200059051030
FINAL SINGLE POINT ENERGY      -897.200072824049
FINAL SINGLE POINT ENERGY      -897.200055016247
FINAL SINGLE POINT ENERGY      -897.200046339854
FINAL SINGLE POINT ENERGY      -897.200001096117
FINAL SINGLE POINT ENERGY      -897.200048445615
Dispersion correction            ... done
Dispersion correction           -0.047248044
FINAL SINGLE POINT ENERGY      -897.200058017987
Dispersion correction            ... done
Dispersion correction           -0.047246375
FINAL SINGLE POINT ENERGY      -897.200068873196
Dispersion correction            ... done
                    ***********************HURRAY********************

CARTESIAN COORDINATES (ANGSTROEM)
---------------------------------
  C      1.459734    1.273822   -0.203139
  S      2.725294    0.099466   -0.143681
  C      1.586949   -1.185558    0.053977
  C      0.291127   -0.730037    0.078660
  C      0.217053    0.697480   -0.087268
  C     -1.102764    1.420590   -0.176033
  C     -2.235776    0.590642    0.437120
  C     -2.227995   -0.864186   -0.078791
  C     -2.453918   -0.956248   -1.591491
  O     -1.778071   -1.606064   -2.339312
  O     -3.521847   -0.266243   -2.060121
  C     -0.930432   -1.582152    0.318778
  H      1.697023    2.326940   -0.347322
  H      1.932856   -2.213036    0.156467
  H     -1.340372    1.623456   -1.236254
  H     -1.040950    2.402718    0.317731
  H     -3.206012    1.084459    0.248014
  H     -2.129384    0.562224    1.534241
  H     -3.079607   -1.398275    0.380580
  H     -3.960831    0.202030   -1.336394
  H     -0.851409   -2.527289   -0.234265
  H     -0.991505   -1.837629    1.390895

 Multiplicity           Mult            ....    1
 Number of Electrons    NEL             ....   96
 Basis Dimension        Dim             ....  222

ORBITAL ENERGIES
----------------

  NO   OCC          E(Eh)            E(eV)
   0   2.0000     -88.868463     -2418.2338
   1   2.0000     -19.182720      -521.9883
   2   2.0000     -19.120517      -520.2957
   3   2.0000     -10.315704      -280.7046
   4   2.0000     -10.219329      -278.0821
   5   2.0000     -10.215307      -277.9726
   6   2.0000     -10.204790      -277.6865
   7   2.0000     -10.204132      -277.6686
   8   2.0000     -10.203051      -277.6391
   9   2.0000     -10.198804      -277.5236
  10   2.0000     -10.193694      -277.3845
  11   2.0000     -10.192551      -277.3534
  12   2.0000      -7.963515      -216.6983
  13   2.0000      -5.931590      -161.4068
  14   2.0000      -5.927458      -161.2943
  15   2.0000      -5.925054      -161.2289
  16   2.0000      -1.093156       -29.7463
  17   2.0000      -1.011349       -27.5202
  18   2.0000      -0.881005       -23.9734
  19   2.0000      -0.832074       -22.6419
  20   2.0000      -0.767595       -20.8873
  21   2.0000      -0.739534       -20.1237
  22   2.0000      -0.699377       -19.0310
  23   2.0000      -0.647446       -17.6179
  24   2.0000      -0.629141       -17.1198
  25   2.0000      -0.604288       -16.4435
  26   2.0000      -0.568562       -15.4714
  27   2.0000      -0.539532       -14.6814
  28   2.0000      -0.507092       -13.7987
  29   2.0000      -0.486004       -13.2248
  30   2.0000      -0.474003       -12.8983
  31   2.0000      -0.461611       -12.5611
  32   2.0000      -0.438729       -11.9384
  33   2.0000      -0.436197       -11.8695
  34   2.0000      -0.423882       -11.5344
  35   2.0000      -0.409153       -11.1336
  36   2.0000      -0.402598       -10.9553
  37   2.0000      -0.399675       -10.8757
  38   2.0000      -0.390788       -10.6339
  39   2.0000      -0.367521       -10.0007
  40   2.0000      -0.355093        -9.6626
  41   2.0000      -0.345281        -9.3956
  42   2.0000      -0.341876        -9.3029
  43   2.0000      -0.333675        -9.0797
  44   2.0000      -0.322981        -8.7887
  45   2.0000      -0.275387        -7.4937
  46   2.0000      -0.240275        -6.5382
  47   2.0000      -0.231126        -6.2893
  48   0.0000      -0.018883        -0.5138
  49   0.0000       0.002153         0.0586
  50   0.0000       0.019771         0.5380
  51   0.0000       0.051521         1.4020
  52   0.0000       0.053236         1.4486

MULLIKEN ATOMIC CHARGES
-----------------------
   0 C :   -0.146329
   1 S :    0.096817
   2 C :   -0.136044
   3 C :   -0.041997
   4 C :   -0.035875
   5 C :    0.144120
   6 C :   -0.004986
   7 C :   -0.163528
   8 C :    0.155625
   9 O :   -0.180155
  10 O :   -0.161643
  11 C :    0.209356
  12 H :    0.009478
  13 H :    0.011182
  14 H :    0.024329
  15 H :    0.000759
  16 H :   -0.014413
  17 H :    0.020292
  18 H :    0.021462
  19 H :    0.169949
  20 H :    0.015343
  21 H :    0.006259
Sum of atomic charges:   -0.0000000

LOEWDIN ATOMIC CHARGES
----------------------
   0 C :   -0.203534
   1 S :    0.429223
   2 C :   -0.197505
   3 C :   -0.063041
   4 C :   -0.070763
   5 C :   -0.023607
   6 C :   -0.024793
   7 C :   -0.073116
   8 C :    0.080893
   9 O :   -0.147861
  10 O :   -0.037394
  11 C :   -0.010243
  12 H :    0.021155
  13 H :    0.022418
  14 H :    0.032799
  15 H :    0.031539
  16 H :    0.012411
  17 H :    0.030476
  18 H :    0.039104
  19 H :    0.083536
  20 H :    0.037048
  21 H :    0.031255

  Mayer bond orders larger than 0.100000
B(  0-C ,  1-S ) :   1.1660 B(  0-C ,  4-C ) :   1.5508 B(  0-C , 12-H ) :   0.9653
B(  1-S ,  2-C ) :   1.1628 B(  2-C ,  3-C ) :   1.5574 B(  2-C , 13-H ) :   0.9646
B(  3-C ,  4-C ) :   1.2952 B(  3-C , 11-C ) :   1.0368 B(  4-C ,  5-C ) :   1.0421
B(  5-C ,  6-C ) :   1.0815 B(  5-C , 14-H ) :   0.9109 B(  5-C , 15-H ) :   0.9147
B(  6-C ,  7-C ) :   1.0360 B(  6-C , 16-H ) :   0.9276 B(  6-C , 17-H ) :   0.9361
B(  7-C ,  8-C ) :   0.9085 B(  7-C , 11-C ) :   1.0695 B(  7-C , 18-H ) :   0.8902
B(  8-C ,  9-O ) :   2.1650 B(  8-C , 10-O ) :   1.1944 B( 10-O , 19-H ) :   0.9586
B( 11-C , 20-H ) :   0.9015 B( 11-C , 21-H ) :   0.9076

Dispersion correction           -0.047248210
FINAL SINGLE POINT ENERGY      -897.200069237405

DIPOLE MOMENT
-------------
                                X             Y             Z
Electronic contribution:      7.70116      -1.71715      -3.97707
Nuclear contribution   :     -8.44851       2.37336       5.34627
                        -----------------------------------------
Total Dipole Moment    :     -0.74734       0.65620       1.36919
                        -----------------------------------------
Magnitude (a.u.)       :      1.69228
Magnitude (Debye)      :      4.30144

Rotational constants in cm-1:     0.057565     0.017938     0.016412
Rotational constants in MHz :  1725.741953   537.763579   492.004940

                             ****ORCA TERMINATED NORMALLY****
TOTAL RUN TIME: 0 days 0 hours 22 minutes 53 seconds 844 msec
