                         Program Version 4.2.0 -  RELEASE  -
|  1> # ORCA input file
|  2> # SCF done        -29.385827038281          0.000471717068
|  3> ! B3LYP/G D3BJ Opt RIJCOSX def2-SVP def2/J
|  4> * xyz 0 1
|  5>    C        1.22976         0.75666         0.08224
|  6>    C        0.01445         1.23866        -0.26485
|  7>    S       -1.12383        -0.02182        -0.56537
|  8>    C        0.04650        -1.21228        -0.22221
|  9>    C        1.25747        -0.66576         0.10998
| 10>    C        2.42302        -1.48878         0.45154
| 11>    O        2.43348        -2.69433         0.48361
| 12>    O        3.49984        -0.71822         0.72842
| 13>    C        4.67240        -1.34089         1.07430
| 14>    C        5.76120        -0.64410         1.34128
| 15>    H        2.08320         1.36627         0.31362
| 16>    H       -0.29499         2.25977        -0.36454
| 17>    H       -0.19688        -2.25453        -0.27609
| 18>    H        4.61736        -2.42203         1.10560
| 19>    H        5.76630         0.43033         1.29430
| 20>    H        6.67380        -1.13882         1.61290
| 21> *
| 22>
| 23>                          ****END OF INPUT****
 Total Charge           Charge          ....    0
 Multiplicity           Mult            ....    1
 Number of Electrons    NEL             ....   80
Dispersion correction           -0.029295058
FINAL SINGLE POINT ENERGY      -818.581699845438
Dispersion correction            ... done
Dispersion correction           -0.029191080
FINAL SINGLE POINT ENERGY      -818.583813078194
Dispersion correction            ... done
Dispersion correction           -0.029185220
FINAL SINGLE POINT ENERGY      -818.583903672023
Dispersion correction            ... done
FINAL SINGLE POINT ENERGY      -818.583858785586
Dispersion correction            ... done
Dispersion correction           -0.029189622
FINAL SINGLE POINT ENERGY      -818.583920505480
Dispersion correction            ... done
Dispersion correction           -0.029190933
FINAL SINGLE POINT ENERGY      -818.583918782123
Dispersion correction            ... done
                    ***********************HURRAY********************

CARTESIAN COORDINATES (ANGSTROEM)
---------------------------------
  C      1.217453    0.782248    0.074407
  C     -0.015127    1.254996   -0.285633
  S     -1.138823   -0.036731   -0.571446
  C      0.043227   -1.223582   -0.207447
  C      1.255229   -0.650978    0.120444
  C      2.418829   -1.488946    0.458650
  O      2.432350   -2.695077    0.468620
  O      3.507061   -0.719206    0.761962
  C      4.686418   -1.353002    1.073087
  C      5.783963   -0.652769    1.351818
  H      2.075115    1.412513    0.304005
  H     -0.336661    2.288959   -0.403083
  H     -0.182311   -2.287590   -0.248647
  H      4.623121   -2.442955    1.062995
  H      5.785805    0.439812    1.346182
  H      6.707431   -1.177561    1.598815

 Multiplicity           Mult            ....    1
 Number of Electrons    NEL             ....   80
 Basis Dimension        Dim             ....  174

ORBITAL ENERGIES
----------------

  NO   OCC          E(Eh)            E(eV)
   0   2.0000     -88.892503     -2418.8880
   1   2.0000     -19.195868      -522.3461
   2   2.0000     -19.130235      -520.5602
   3   2.0000     -10.326637      -281.0021
   4   2.0000     -10.251040      -278.9450
   5   2.0000     -10.231555      -278.4148
   6   2.0000     -10.226390      -278.2742
   7   2.0000     -10.212947      -277.9084
   8   2.0000     -10.209416      -277.8123
   9   2.0000     -10.189482      -277.2699
  10   2.0000      -7.987855      -217.3606
  11   2.0000      -5.955830      -162.0664
  12   2.0000      -5.951556      -161.9501
  13   2.0000      -5.949572      -161.8961
  14   2.0000      -1.111703       -30.2510
  15   2.0000      -1.021951       -27.8087
  16   2.0000      -0.896523       -24.3956
  17   2.0000      -0.789124       -21.4732
  18   2.0000      -0.751002       -20.4358
  19   2.0000      -0.737956       -20.0808
  20   2.0000      -0.658975       -17.9316
  21   2.0000      -0.584316       -15.9000
  22   2.0000      -0.570484       -15.5237
  23   2.0000      -0.561638       -15.2829
  24   2.0000      -0.538767       -14.6606
  25   2.0000      -0.478043       -13.0082
  26   2.0000      -0.476126       -12.9560
  27   2.0000      -0.463359       -12.6086
  28   2.0000      -0.436290       -11.8721
  29   2.0000      -0.424400       -11.5485
  30   2.0000      -0.414085       -11.2678
  31   2.0000      -0.405295       -11.0286
  32   2.0000      -0.400178       -10.8894
  33   2.0000      -0.372563       -10.1379
  34   2.0000      -0.363125        -9.8811
  35   2.0000      -0.357480        -9.7275
  36   2.0000      -0.292302        -7.9539
  37   2.0000      -0.274856        -7.4792
  38   2.0000      -0.259321        -7.0565
  39   2.0000      -0.253927        -6.9097
  40   0.0000      -0.057496        -1.5645
  41   0.0000      -0.011887        -0.3235
  42   0.0000       0.019942         0.5427
  43   0.0000       0.034321         0.9339
  44   0.0000       0.071371         1.9421

MULLIKEN ATOMIC CHARGES
-----------------------
   0 C :    0.069533
   1 C :   -0.091327
   2 S :    0.125919
   3 C :   -0.089027
   4 C :   -0.048035
   5 C :    0.236933
   6 O :   -0.205973
   7 O :   -0.266078
   8 C :    0.129775
   9 C :   -0.048460
  10 H :    0.004332
  11 H :    0.036703
  12 H :    0.046089
  13 H :    0.036633
  14 H :    0.031728
  15 H :    0.031256
Sum of atomic charges:   -0.0000000

LOEWDIN ATOMIC CHARGES
----------------------
   0 C :   -0.042560
   1 C :   -0.186532
   2 S :    0.458240
   3 C :   -0.151144
   4 C :   -0.114253
   5 C :    0.099715
   6 O :   -0.169580
   7 O :   -0.060698
   8 C :    0.062406
   9 C :   -0.087190
  10 H :    0.036812
  11 H :    0.028312
  12 H :    0.036911
  13 H :    0.024439
  14 H :    0.030430
  15 H :    0.034693

  Mayer bond orders larger than 0.100000
B(  0-C ,  1-C ) :   1.5639 B(  0-C ,  4-C ) :   1.2399 B(  0-C , 10-H ) :   0.9941
B(  1-C ,  2-S ) :   1.1588 B(  1-C , 11-H ) :   0.9665 B(  2-S ,  3-C ) :   1.2085
B(  3-C ,  4-C ) :   1.5163 B(  3-C , 12-H ) :   0.9652 B(  4-C ,  5-C ) :   0.9769
B(  5-C ,  6-O ) :   2.1066 B(  5-C ,  7-O ) :   1.1344 B(  7-O ,  8-C ) :   0.9975
B(  8-C ,  9-C ) :   1.9477 B(  8-C , 13-H ) :   0.9575 B(  9-C , 14-H ) :   0.9508
B(  9-C , 15-H ) :   0.9454

Dispersion correction           -0.029191102
FINAL SINGLE POINT ENERGY      -818.583921555737

DIPOLE MOMENT
-------------
                                X             Y             Z
Electronic contribution:     -8.27704      -1.10904      -2.22544
Nuclear contribution   :      8.06574       1.85682       2.15026
                        -----------------------------------------
Total Dipole Moment    :     -0.21130       0.74778      -0.07518
                        -----------------------------------------
Magnitude (a.u.)       :      0.78069
Magnitude (Debye)      :      1.98436

Rotational constants in cm-1:     0.114745     0.019494     0.016664
Rotational constants in MHz :  3439.957192   584.424709   499.572701

                             ****ORCA TERMINATED NORMALLY****
TOTAL RUN TIME: 0 days 0 hours 6 minutes 47 seconds 414 msec
