                         Program Version 4.2.0 -  RELEASE  -
|  1> # ORCA input file
|  2> # SCF done        -14.098590476959          0.000481562957
|  3> ! B3LYP/G D3BJ Opt RIJCOSX def2-SVP def2/J
|  4> * xyz 0 1
|  5>    C        0.20415        -1.14324        -0.00900
|  6>    S       -1.13823        -0.03932         0.00248
|  7>    C       -0.00014         1.24903         0.00037
|  8>    C        1.26681         0.75791        -0.00629
|  9>    N        1.35925        -0.59197        -0.01290
| 10>    H        0.04218        -2.20226        -0.01138
| 11>    H       -0.32923         2.26789         0.00502
| 12>    H        2.16776         1.34349        -0.00840
| 13> *
| 14>
| 15>                          ****END OF INPUT****
 Total Charge           Charge          ....    0
 Multiplicity           Mult            ....    1
 Number of Electrons    NEL             ....   44
Dispersion correction           -0.013507759
FINAL SINGLE POINT ENERGY      -568.826684020745
Dispersion correction            ... done
Dispersion correction           -0.013522030
FINAL SINGLE POINT ENERGY      -568.828502526956
Dispersion correction            ... done
Dispersion correction           -0.013523285
FINAL SINGLE POINT ENERGY      -568.828559029957
Dispersion correction            ... done
Dispersion correction           -0.013522670
FINAL SINGLE POINT ENERGY      -568.828560821998
Dispersion correction            ... done
Dispersion correction           -0.013521624
FINAL SINGLE POINT ENERGY      -568.828578163007
Dispersion correction            ... done
                    ***********************HURRAY********************

CARTESIAN COORDINATES (ANGSTROEM)
---------------------------------
  C      0.200953   -1.159727   -0.008477
  S     -1.140832   -0.044388    0.001888
  C     -0.004962    1.259565    0.000623
  C      1.273062    0.761810   -0.006794
  N      1.376040   -0.606932   -0.012115
  H      0.023790   -2.237722   -0.011891
  H     -0.333795    2.297271    0.005597
  H      2.178293    1.371654   -0.008930

 Multiplicity           Mult            ....    1
 Number of Electrons    NEL             ....   44
 Basis Dimension        Dim             ....   89

ORBITAL ENERGIES
----------------

  NO   OCC          E(Eh)            E(eV)
   0   2.0000     -88.886074     -2418.7131
   1   2.0000     -14.330676      -389.9575
   2   2.0000     -10.249394      -278.9002
   3   2.0000     -10.224028      -278.2100
   4   2.0000     -10.223213      -278.1878
   5   2.0000      -7.981774      -217.1951
   6   2.0000      -5.949575      -161.8962
   7   2.0000      -5.945602      -161.7881
   8   2.0000      -5.943515      -161.7313
   9   2.0000      -0.962112       -26.1804
  10   2.0000      -0.801609       -21.8129
  11   2.0000      -0.739457       -20.1216
  12   2.0000      -0.595610       -16.2074
  13   2.0000      -0.570508       -15.5243
  14   2.0000      -0.511781       -13.9263
  15   2.0000      -0.436472       -11.8770
  16   2.0000      -0.419225       -11.4077
  17   2.0000      -0.416186       -11.3250
  18   2.0000      -0.373394       -10.1606
  19   2.0000      -0.291988        -7.9454
  20   2.0000      -0.277394        -7.5483
  21   2.0000      -0.258434        -7.0323
  22   0.0000      -0.033893        -0.9223
  23   0.0000       0.030676         0.8347
  24   0.0000       0.040487         1.1017
  25   0.0000       0.075859         2.0642
  26   0.0000       0.100643         2.7386

MULLIKEN ATOMIC CHARGES
-----------------------
   0 C :   -0.022572
   1 S :    0.084375
   2 C :   -0.103324
   3 C :    0.060107
   4 N :   -0.123242
   5 H :    0.052009
   6 H :    0.040589
   7 H :    0.012058
Sum of atomic charges:   -0.0000000

LOEWDIN ATOMIC CHARGES
----------------------
   0 C :   -0.137605
   1 S :    0.405504
   2 C :   -0.206918
   3 C :   -0.034013
   4 N :   -0.105799
   5 H :    0.021779
   6 H :    0.030090
   7 H :    0.026963

  Mayer bond orders larger than 0.100000
B(  0-C ,  1-S ) :   1.1562 B(  0-C ,  4-N ) :   1.7008 B(  0-C ,  5-H ) :   0.9614
B(  1-S ,  2-C ) :   1.1699 B(  1-S ,  4-N ) :   0.1089 B(  2-C ,  3-C ) :   1.5820
B(  2-C ,  6-H ) :   0.9678 B(  3-C ,  4-N ) :   1.3367 B(  3-C ,  7-H ) :   0.9901

Dispersion correction           -0.013520951
FINAL SINGLE POINT ENERGY      -568.828579398728

DIPOLE MOMENT
-------------
                                X             Y             Z
Electronic contribution:     -2.22953      -0.94215       0.00799
Nuclear contribution   :      1.72036       1.27943      -0.00455
                        -----------------------------------------
Total Dipole Moment    :     -0.50916       0.33728       0.00343
                        -----------------------------------------
Magnitude (a.u.)       :      0.61075
Magnitude (Debye)      :      1.55241

Rotational constants in cm-1:     0.282818     0.181148     0.110422
Rotational constants in MHz :  8478.682183  5430.687520  3310.363847

                             ****ORCA TERMINATED NORMALLY****
TOTAL RUN TIME: 0 days 0 hours 1 minutes 36 seconds 113 msec
