                         Program Version 4.2.0 -  RELEASE  -
|  1> # ORCA input file
|  2> # SCF done        -52.126955331791          0.000908344872
|  3> ! B3LYP/G D3BJ Opt RIJCOSX def2-SVP def2/J
|  4> * xyz 0 1
|  5>    C       -0.00851         1.48501         0.07949
|  6>    C        1.13918         0.71154         0.03831
|  7>    C        2.56795         1.12722         0.02177
|  8>    O        3.04274         2.21582         0.05202
|  9>    O        3.31510        -0.02277        -0.04039
| 10>    C        2.51825        -1.14387        -0.06005
| 11>    O        2.96483        -2.24578        -0.11740
| 12>    C        1.10681        -0.68172        -0.00779
| 13>    C       -0.07970        -1.43457         0.00445
| 14>    C       -1.23963        -0.63975         0.01619
| 15>    C       -1.18688         0.75715         0.05124
| 16>    C       -2.58358         1.26610         0.01746
| 17>    O       -2.98430         2.38427         0.05251
| 18>    O       -3.40162         0.17037        -0.07259
| 19>    C       -2.68163        -1.00232        -0.08742
| 20>    O       -3.21291        -2.06173        -0.18818
| 21>    C       -0.01920        -2.88434        -0.00810
| 22>    C       -0.89485        -3.70184         0.56752
| 23>    H        0.00945         2.56162         0.11495
| 24>    H        0.87163        -3.28683        -0.47180
| 25>    H       -1.76464        -3.35227         1.09479
| 26>    H       -0.74948        -4.76776         0.53477
| 27> *
| 28>
| 29>                          ****END OF INPUT****
 Total Charge           Charge          ....    0
 Multiplicity           Mult            ....    1
 Number of Electrons    NEL             ....  124
Dispersion correction           -0.052784730
FINAL SINGLE POINT ENERGY      -910.428059232620
Dispersion correction            ... done
Dispersion correction           -0.052516483
FINAL SINGLE POINT ENERGY      -910.429938965383
Dispersion correction            ... done
Dispersion correction           -0.052535495
FINAL SINGLE POINT ENERGY      -910.430228538736
Dispersion correction            ... done
FINAL SINGLE POINT ENERGY      -910.430353316775
FINAL SINGLE POINT ENERGY      -910.430433952274
FINAL SINGLE POINT ENERGY      -910.430594947988
FINAL SINGLE POINT ENERGY      -910.430793054273
FINAL SINGLE POINT ENERGY      -910.431013325550
FINAL SINGLE POINT ENERGY      -910.430891276100
FINAL SINGLE POINT ENERGY      -910.431405714153
FINAL SINGLE POINT ENERGY      -910.431381571894
FINAL SINGLE POINT ENERGY      -910.431310843404
FINAL SINGLE POINT ENERGY      -910.431360810497
FINAL SINGLE POINT ENERGY      -910.431353215388
Dispersion correction            ... done
Dispersion correction           -0.052411495
FINAL SINGLE POINT ENERGY      -910.431345485734
Dispersion correction            ... done
Dispersion correction           -0.052415789
FINAL SINGLE POINT ENERGY      -910.431363689563
Dispersion correction            ... done
                    ***********************HURRAY********************

CARTESIAN COORDINATES (ANGSTROEM)
---------------------------------
  C     -0.004285    1.499520   -0.049922
  C      1.141914    0.715169   -0.032840
  C      2.564720    1.146038   -0.119611
  O      3.028631    2.235643   -0.245119
  O      3.333916   -0.002356   -0.036896
  C      2.535873   -1.133184    0.080991
  O      3.012254   -2.221855    0.186732
  C      1.109489   -0.678586    0.061884
  C     -0.085032   -1.441744    0.128605
  C     -1.252525   -0.627452    0.123957
  C     -1.186313    0.772422    0.037696
  C     -2.570852    1.315785    0.050389
  O     -2.951281    2.443012   -0.013054
  O     -3.421516    0.231744    0.153342
  C     -2.712490   -0.960586    0.215657
  O     -3.287166   -2.000866    0.330969
  C      0.026663   -2.900997    0.168958
  C     -0.950908   -3.823345    0.162654
  H      0.017494    2.587735   -0.124755
  H      1.060002   -3.249977    0.187874
  H     -2.010283   -3.572339    0.149524
  H     -0.669295   -4.880231    0.174717

 Multiplicity           Mult            ....    1
 Number of Electrons    NEL             ....  124
 Basis Dimension        Dim             ....  272

ORBITAL ENERGIES
----------------

  NO   OCC          E(Eh)            E(eV)
   0   2.0000     -19.229718      -523.2672
   1   2.0000     -19.228594      -523.2366
   2   2.0000     -19.181720      -521.9611
   3   2.0000     -19.179760      -521.9078
   4   2.0000     -19.178116      -521.8631
   5   2.0000     -19.177837      -521.8555
   6   2.0000     -10.373202      -282.2692
   7   2.0000     -10.370085      -282.1844
   8   2.0000     -10.366783      -282.0945
   9   2.0000     -10.366648      -282.0908
  10   2.0000     -10.284119      -279.8451
  11   2.0000     -10.273684      -279.5612
  12   2.0000     -10.270287      -279.4687
  13   2.0000     -10.269440      -279.4457
  14   2.0000     -10.269048      -279.4350
  15   2.0000     -10.267933      -279.4047
  16   2.0000     -10.228447      -278.3302
  17   2.0000     -10.224608      -278.2257
  18   2.0000      -1.164966       -31.7003
  19   2.0000      -1.162921       -31.6447
  20   2.0000      -1.099230       -29.9116
  21   2.0000      -1.097974       -29.8774
  22   2.0000      -1.060796       -28.8657
  23   2.0000      -1.059911       -28.8416
  24   2.0000      -0.937040       -25.4982
  25   2.0000      -0.853104       -23.2141
  26   2.0000      -0.846817       -23.0431
  27   2.0000      -0.783102       -21.3093
  28   2.0000      -0.734843       -19.9961
  29   2.0000      -0.731834       -19.9142
  30   2.0000      -0.707341       -19.2477
  31   2.0000      -0.674903       -18.3650
  32   2.0000      -0.646399       -17.5894
  33   2.0000      -0.599267       -16.3069
  34   2.0000      -0.588362       -16.0101
  35   2.0000      -0.574198       -15.6247
  36   2.0000      -0.549675       -14.9574
  37   2.0000      -0.538080       -14.6419
  38   2.0000      -0.530786       -14.4434
  39   2.0000      -0.518227       -14.1017
  40   2.0000      -0.511065       -13.9068
  41   2.0000      -0.500799       -13.6274
  42   2.0000      -0.489863       -13.3299
  43   2.0000      -0.484486       -13.1835
  44   2.0000      -0.473439       -12.8829
  45   2.0000      -0.460325       -12.5261
  46   2.0000      -0.453694       -12.3456
  47   2.0000      -0.449872       -12.2416
  48   2.0000      -0.447196       -12.1688
  49   2.0000      -0.438598       -11.9349
  50   2.0000      -0.434822       -11.8321
  51   2.0000      -0.426505       -11.6058
  52   2.0000      -0.400180       -10.8894
  53   2.0000      -0.365409        -9.9433
  54   2.0000      -0.363091        -9.8802
  55   2.0000      -0.360700        -9.8152
  56   2.0000      -0.343097        -9.3361
  57   2.0000      -0.341325        -9.2879
  58   2.0000      -0.334300        -9.0968
  59   2.0000      -0.320807        -8.7296
  60   2.0000      -0.317238        -8.6325
  61   2.0000      -0.287497        -7.8232
  62   0.0000      -0.146953        -3.9988
  63   0.0000      -0.121484        -3.3057
  64   0.0000      -0.084210        -2.2915
  65   0.0000      -0.016192        -0.4406
  66   0.0000       0.014158         0.3853

MULLIKEN ATOMIC CHARGES
-----------------------
   0 C :   -0.074726
   1 C :   -0.031120
   2 C :    0.255725
   3 O :   -0.104641
   4 O :   -0.245003
   5 C :    0.261828
   6 O :   -0.112166
   7 C :   -0.075239
   8 C :    0.060234
   9 C :   -0.087341
  10 C :   -0.019496
  11 C :    0.249368
  12 O :   -0.106343
  13 O :   -0.241126
  14 C :    0.268625
  15 O :   -0.112137
  16 C :   -0.050375
  17 C :    0.004102
  18 H :    0.031532
  19 H :    0.020379
  20 H :    0.064962
  21 H :    0.042956
Sum of atomic charges:    0.0000000

LOEWDIN ATOMIC CHARGES
----------------------
   0 C :    0.038770
   1 C :   -0.039312
   2 C :    0.105288
   3 O :   -0.089393
   4 O :   -0.063599
   5 C :    0.112898
   6 O :   -0.092446
   7 C :   -0.045951
   8 C :    0.039053
   9 C :   -0.046575
  10 C :   -0.037988
  11 C :    0.103054
  12 O :   -0.090644
  13 O :   -0.061096
  14 C :    0.118317
  15 O :   -0.089873
  16 C :   -0.044998
  17 C :    0.024572
  18 H :    0.057147
  19 H :    0.038000
  20 H :    0.028244
  21 H :    0.036532

  Mayer bond orders larger than 0.100000
B(  0-C ,  1-C ) :   1.3173 B(  0-C , 10-C ) :   1.3221 B(  0-C , 18-H ) :   1.0228
B(  1-C ,  2-C ) :   0.8909 B(  1-C ,  7-C ) :   1.3547 B(  2-C ,  3-O ) :   2.2691
B(  2-C ,  4-O ) :   1.0311 B(  4-O ,  5-C ) :   1.0421 B(  5-C ,  6-O ) :   2.1846
B(  5-C ,  7-C ) :   0.9230 B(  7-C ,  8-C ) :   1.3261 B(  8-C ,  9-C ) :   1.2814
B(  8-C , 16-C ) :   1.1557 B(  9-C , 10-C ) :   1.3694 B(  9-C , 14-C ) :   0.9172
B( 10-C , 11-C ) :   0.8919 B( 11-C , 12-O ) :   2.2641 B( 11-C , 13-O ) :   1.0329
B( 13-O , 14-C ) :   1.0451 B( 14-C , 15-O ) :   2.1658 B( 16-C , 17-C ) :   1.8708
B( 16-C , 19-H ) :   0.9413 B( 17-C , 20-H ) :   0.9287 B( 17-C , 21-H ) :   0.9375

Dispersion correction           -0.052417332
FINAL SINGLE POINT ENERGY      -910.431358727576

DIPOLE MOMENT
-------------
                                X             Y             Z
Electronic contribution:      1.02291       6.83347      -0.13600
Nuclear contribution   :     -1.14857      -7.41317       0.11164
                        -----------------------------------------
Total Dipole Moment    :     -0.12566      -0.57971      -0.02436
                        -----------------------------------------
Magnitude (a.u.)       :      0.59367
Magnitude (Debye)      :      1.50899

Rotational constants in cm-1:     0.021870     0.012248     0.007856
Rotational constants in MHz :   655.636352   367.197393   235.521553

                             ****ORCA TERMINATED NORMALLY****
TOTAL RUN TIME: 0 days 0 hours 35 minutes 43 seconds 421 msec
