                         Program Version 4.2.0 -  RELEASE  -
|  1> # ORCA input file
|  2> # SCF done        -43.250557619265          0.000588979016
|  3> ! B3LYP/G D3BJ Opt RIJCOSX def2-SVP def2/J
|  4> * xyz 0 1
|  5>    C       -1.61388        -1.36870        -0.13407
|  6>    S       -2.76149        -0.09253        -0.05756
|  7>    C       -1.54113         1.13381         0.12659
|  8>    C       -0.28277         0.54973         0.11595
|  9>    C       -0.35061        -0.87666        -0.03037
| 10>    S        1.22126        -1.62101        -0.04654
| 11>    C        1.95308        -0.03786         0.11798
| 12>    C        3.41451         0.02539         0.15671
| 13>    O        4.13427        -0.94295         0.12328
| 14>    O        3.85164         1.29339         0.21764
| 15>    C        5.26654         1.47735         0.27019
| 16>    C        5.78859         1.36881         1.69554
| 17>    C        1.06249         0.98979         0.19095
| 18>    C       -1.97140         2.49560         0.26211
| 19>    C       -1.20317         3.54634         0.54637
| 20>    H       -1.93894        -2.38192        -0.24857
| 21>    H        5.43717         2.47563        -0.13835
| 22>    H        5.74501         0.72557        -0.36596
| 23>    H        5.27871         2.08242         2.33866
| 24>    H        6.85482         1.57525         1.70924
| 25>    H        5.61950         0.36476         2.07685
| 26>    H        1.37999         2.01089         0.28421
| 27>    H       -3.03652         2.63773         0.12654
| 28>    H       -0.14489         3.46257         0.71208
| 29>    H       -1.62456         4.53232         0.62839
| 30> *
| 31>
| 32>                          ****END OF INPUT****
 Total Charge           Charge          ....    0
 Multiplicity           Mult            ....    1
 Number of Electrons    NEL             ....  124
Dispersion correction           -0.055522209
FINAL SINGLE POINT ENERGY     -1371.416173451233
Dispersion correction            ... done
Dispersion correction           -0.055259406
FINAL SINGLE POINT ENERGY     -1371.419038808003
Dispersion correction            ... done
Dispersion correction           -0.055187970
FINAL SINGLE POINT ENERGY     -1371.418997811503
Dispersion correction            ... done
FINAL SINGLE POINT ENERGY     -1371.419245125829
FINAL SINGLE POINT ENERGY     -1371.419249341341
FINAL SINGLE POINT ENERGY     -1371.419223945523
Dispersion correction            ... done
Dispersion correction           -0.055252864
FINAL SINGLE POINT ENERGY     -1371.419213548863
Dispersion correction            ... done
Dispersion correction           -0.055240857
FINAL SINGLE POINT ENERGY     -1371.419217607292
Dispersion correction            ... done
                    ***********************HURRAY********************

CARTESIAN COORDINATES (ANGSTROEM)
---------------------------------
  C     -1.622115   -1.398710   -0.059755
  S     -2.767543   -0.114141    0.063981
  C     -1.549891    1.128250    0.169745
  C     -0.279306    0.543828    0.102442
  C     -0.343097   -0.894281   -0.025229
  S      1.246541   -1.626842   -0.093745
  C      1.978499   -0.026791    0.041702
  C      3.450303    0.038523    0.062924
  O      4.170107   -0.933505    0.003701
  O      3.889822    1.306523    0.163130
  C      5.308983    1.499269    0.300187
  C      5.748220    1.304835    1.740296
  C      1.079668    1.002663    0.134022
  C     -1.992124    2.501464    0.322300
  C     -1.227447    3.600925    0.443062
  H     -1.953401   -2.430070   -0.158002
  H      5.484363    2.529447   -0.041051
  H      5.832524    0.805607   -0.373278
  H      5.162505    1.948848    2.412706
  H      6.812253    1.567571    1.853089
  H      5.614521    0.257254    2.047742
  H      1.404260    2.036392    0.224876
  H     -3.080412    2.631254    0.344299
  H     -0.136623    3.565228    0.438480
  H     -1.692389    4.582180    0.560236

 Multiplicity           Mult            ....    1
 Number of Electrons    NEL             ....  124
 Basis Dimension        Dim             ....  268

ORBITAL ENERGIES
----------------

  NO   OCC          E(Eh)            E(eV)
   0   2.0000     -88.890344     -2418.8292
   1   2.0000     -88.875784     -2418.4330
   2   2.0000     -19.179990      -521.9141
   3   2.0000     -19.124683      -520.4091
   4   2.0000     -10.322482      -280.8890
   5   2.0000     -10.249547      -278.9044
   6   2.0000     -10.232773      -278.4479
   7   2.0000     -10.229560      -278.3605
   8   2.0000     -10.228162      -278.3224
   9   2.0000     -10.225665      -278.2545
  10   2.0000     -10.214947      -277.9628
  11   2.0000     -10.213274      -277.9173
  12   2.0000     -10.212688      -277.9014
  13   2.0000     -10.197747      -277.4948
  14   2.0000     -10.189763      -277.2775
  15   2.0000      -7.984977      -217.2823
  16   2.0000      -7.970345      -216.8841
  17   2.0000      -5.952934      -161.9876
  18   2.0000      -5.948898      -161.8778
  19   2.0000      -5.946662      -161.8169
  20   2.0000      -5.939011      -161.6087
  21   2.0000      -5.935104      -161.5024
  22   2.0000      -5.930280      -161.3711
  23   2.0000      -1.098847       -29.9012
  24   2.0000      -1.010547       -27.4984
  25   2.0000      -0.911457       -24.8020
  26   2.0000      -0.855877       -23.2896
  27   2.0000      -0.795917       -21.6580
  28   2.0000      -0.777173       -21.1479
  29   2.0000      -0.750589       -20.4246
  30   2.0000      -0.734339       -19.9824
  31   2.0000      -0.698471       -19.0064
  32   2.0000      -0.668467       -18.1899
  33   2.0000      -0.617480       -16.8025
  34   2.0000      -0.608597       -16.5608
  35   2.0000      -0.567889       -15.4530
  36   2.0000      -0.550767       -14.9871
  37   2.0000      -0.535241       -14.5646
  38   2.0000      -0.503970       -13.7137
  39   2.0000      -0.486806       -13.2467
  40   2.0000      -0.484216       -13.1762
  41   2.0000      -0.469415       -12.7734
  42   2.0000      -0.468448       -12.7471
  43   2.0000      -0.446515       -12.1503
  44   2.0000      -0.437810       -11.9134
  45   2.0000      -0.425538       -11.5795
  46   2.0000      -0.411702       -11.2030
  47   2.0000      -0.409727       -11.1492
  48   2.0000      -0.396812       -10.7978
  49   2.0000      -0.393921       -10.7191
  50   2.0000      -0.380399       -10.3512
  51   2.0000      -0.370191       -10.0734
  52   2.0000      -0.361737        -9.8434
  53   2.0000      -0.350681        -9.5425
  54   2.0000      -0.346992        -9.4421
  55   2.0000      -0.344912        -9.3855
  56   2.0000      -0.319171        -8.6851
  57   2.0000      -0.308420        -8.3925
  58   2.0000      -0.285813        -7.7774
  59   2.0000      -0.272200        -7.4070
  60   2.0000      -0.252262        -6.8644
  61   2.0000      -0.208662        -5.6780
  62   0.0000      -0.082110        -2.2343
  63   0.0000      -0.024423        -0.6646
  64   0.0000       0.014661         0.3989
  65   0.0000       0.018407         0.5009
  66   0.0000       0.028123         0.7653

MULLIKEN ATOMIC CHARGES
-----------------------
   0 C :   -0.148466
   1 S :    0.130431
   2 C :   -0.157043
   3 C :    0.116196
   4 C :   -0.008375
   5 S :    0.154761
   6 C :   -0.159418
   7 C :    0.234133
   8 O :   -0.219053
   9 O :   -0.316211
  10 C :    0.194506
  11 C :   -0.026803
  12 C :    0.019574
  13 C :    0.049230
  14 C :   -0.040463
  15 H :    0.027259
  16 H :    0.013424
  17 H :    0.027630
  18 H :    0.022186
  19 H :    0.020956
  20 H :    0.036886
  21 H :   -0.004641
  22 H :   -0.009515
  23 H :    0.017382
  24 H :    0.025432
Sum of atomic charges:   -0.0000000

LOEWDIN ATOMIC CHARGES
----------------------
   0 C :   -0.219047
   1 S :    0.467422
   2 C :   -0.179752
   3 C :   -0.074050
   4 C :   -0.184734
   5 S :    0.411958
   6 C :   -0.194881
   7 C :    0.065567
   8 O :   -0.184223
   9 O :   -0.096922
  10 C :    0.091030
  11 C :   -0.066654
  12 C :   -0.020043
  13 C :   -0.043681
  14 C :   -0.049626
  15 H :    0.029129
  16 H :    0.021205
  17 H :    0.021259
  18 H :    0.026852
  19 H :    0.032612
  20 H :    0.031863
  21 H :    0.034800
  22 H :    0.029856
  23 H :    0.021658
  24 H :    0.028405

  Mayer bond orders larger than 0.100000
B(  0-C ,  1-S ) :   1.1613 B(  0-C ,  2-C ) :   0.1013 B(  0-C ,  4-C ) :   1.5081
B(  0-C , 15-H ) :   0.9725 B(  1-S ,  2-C ) :   1.1537 B(  2-C ,  3-C ) :   1.3760
B(  2-C , 13-C ) :   1.1362 B(  3-C ,  4-C ) :   1.2266 B(  3-C , 12-C ) :   1.1480
B(  4-C ,  5-S ) :   1.0356 B(  5-S ,  6-C ) :   1.0752 B(  6-C ,  7-C ) :   0.9804
B(  6-C , 12-C ) :   1.5747 B(  7-C ,  8-O ) :   2.0801 B(  7-C ,  9-O ) :   1.2106
B(  9-O , 10-C ) :   0.8996 B( 10-C , 11-C ) :   1.1269 B( 10-C , 16-H ) :   0.9580
B( 10-C , 17-H ) :   0.9405 B( 11-C , 18-H ) :   0.9643 B( 11-C , 19-H ) :   0.9614
B( 11-C , 20-H ) :   0.9653 B( 12-C , 21-H ) :   0.9944 B( 13-C , 14-C ) :   1.8972
B( 13-C , 22-H ) :   0.9445 B( 14-C , 23-H ) :   0.9550 B( 14-C , 24-H ) :   0.9413

Dispersion correction           -0.055237845
FINAL SINGLE POINT ENERGY     -1371.419216796759

DIPOLE MOMENT
-------------
                                X             Y             Z
Electronic contribution:    -13.41894     -12.51908      -4.79224
Nuclear contribution   :     13.11233      13.34840       4.98065
                        -----------------------------------------
Total Dipole Moment    :     -0.30660       0.82933       0.18841
                        -----------------------------------------
Magnitude (a.u.)       :      0.90404
Magnitude (Debye)      :      2.29789

Rotational constants in cm-1:     0.030831     0.008939     0.007100
Rotational constants in MHz :   924.289413   267.992299   212.864573

                             ****ORCA TERMINATED NORMALLY****
TOTAL RUN TIME: 0 days 0 hours 18 minutes 5 seconds 194 msec
