                         Program Version 4.2.0 -  RELEASE  -
|  1> # ORCA input file
|  2> # SCF done        -57.031644139952          0.000462899524
|  3> ! B3LYP/G D3BJ Opt RIJCOSX def2-SVP def2/J
|  4> * xyz 0 1
|  5>    C        2.85665         0.32494        -2.19298
|  6>    C        1.62283        -0.00016        -1.56628
|  7>    C        0.35980         0.50688        -1.89476
|  8>    O        0.17549         1.42556        -2.90185
|  9>    C        0.55155         2.75791        -2.58552
| 10>    C       -0.35066         3.39109        -1.53210
| 11>    C       -0.71852         0.00074        -1.18735
| 12>    C       -0.57069        -0.95924        -0.16617
| 13>    C       -1.82711        -1.31909         0.40493
| 14>    C       -2.86243        -0.66631        -0.15956
| 15>    S       -2.38918         0.42983        -1.41668
| 16>    C        0.70022        -1.44471         0.19614
| 17>    O        0.69057        -2.33966         1.21405
| 18>    C        1.89049        -2.91104         1.69749
| 19>    C        1.51953        -3.82280         2.85676
| 20>    C        1.78251        -0.95438        -0.52413
| 21>    S        3.47928        -1.37677        -0.35620
| 22>    C        3.93482        -0.31705        -1.67158
| 23>    C        5.30429        -0.19383        -2.09287
| 24>    C        6.32965        -0.83061        -1.53559
| 25>    H        2.92352         0.99946        -3.02822
| 26>    H        0.46804         3.29521        -3.53342
| 27>    H        1.59561         2.79118        -2.24535
| 28>    H       -1.38872         3.33856        -1.85049
| 29>    H       -0.07205         4.43170        -1.38953
| 30>    H       -0.25075         2.86781        -0.58283
| 31>    H       -1.91732        -2.03769         1.19818
| 32>    H       -3.90473        -0.74987         0.07825
| 33>    H        2.57529        -2.12538         2.03976
| 34>    H        2.38304        -3.48787         0.90482
| 35>    H        1.03389        -3.24771         3.64055
| 36>    H        2.41442        -4.28940         3.25763
| 37>    H        0.83430        -4.59461         2.51725
| 38>    H        5.46072         0.47879        -2.92681
| 39>    H        6.18797        -1.50208        -0.70458
| 40>    H        7.33666        -0.70167        -1.89061
| 41> *
| 42>
| 43>                          ****END OF INPUT****
 Total Charge           Charge          ....    0
 Multiplicity           Mult            ....    1
 Number of Electrons    NEL             ....  160
Dispersion correction           -0.085444469
FINAL SINGLE POINT ENERGY     -1565.438685161970
Dispersion correction            ... done
Dispersion correction           -0.084616033
FINAL SINGLE POINT ENERGY     -1565.442867546926
Dispersion correction            ... done
Dispersion correction           -0.084775710
FINAL SINGLE POINT ENERGY     -1565.443155350420
Dispersion correction            ... done
FINAL SINGLE POINT ENERGY     -1565.443050434700
FINAL SINGLE POINT ENERGY     -1565.442665254661
FINAL SINGLE POINT ENERGY     -1565.441584884009
FINAL SINGLE POINT ENERGY     -1565.441642021284
FINAL SINGLE POINT ENERGY     -1565.441808293344
FINAL SINGLE POINT ENERGY     -1565.441656562512
FINAL SINGLE POINT ENERGY     -1565.441748098825
FINAL SINGLE POINT ENERGY     -1565.441812092829
FINAL SINGLE POINT ENERGY     -1565.442137952692
FINAL SINGLE POINT ENERGY     -1565.441964851824
FINAL SINGLE POINT ENERGY     -1565.441924268634
FINAL SINGLE POINT ENERGY     -1565.441938404166
FINAL SINGLE POINT ENERGY     -1565.441930352540
FINAL SINGLE POINT ENERGY     -1565.441914027335
Dispersion correction            ... done
Dispersion correction           -0.086235427
FINAL SINGLE POINT ENERGY     -1565.441891075958
Dispersion correction            ... done
Dispersion correction           -0.086228595
FINAL SINGLE POINT ENERGY     -1565.441878079677
Dispersion correction            ... done
                    ***********************HURRAY********************

CARTESIAN COORDINATES (ANGSTROEM)
---------------------------------
  C      2.705716    0.544331   -1.943496
  C      1.515507    0.159312   -1.226667
  C      0.146190    0.383069   -1.504598
  O     -0.389903    1.032754   -2.571925
  C      0.278821    2.096365   -3.241868
  C      0.731287    3.219388   -2.321627
  C     -0.787166   -0.156314   -0.610946
  C     -0.431245   -0.897899    0.547925
  C     -1.593639   -1.340357    1.273198
  C     -2.758075   -0.951859    0.680933
  S     -2.526705   -0.022396   -0.781928
  C      0.929281   -1.095393    0.849121
  O      1.309400   -1.755402    1.985050
  C      1.797535   -3.092317    1.812697
  C      0.680169   -4.106203    1.645089
  C      1.864125   -0.561029   -0.034037
  S      3.603361   -0.676778    0.179092
  C      3.879032    0.173310   -1.339226
  C      5.216423    0.415837   -1.848391
  C      6.367819   -0.000478   -1.296494
  H      2.712666    1.068420   -2.895242
  H     -0.468535    2.469984   -3.957384
  H      1.115298    1.698011   -3.840658
  H     -0.125291    3.625824   -1.762484
  H      1.175523    4.030874   -2.919785
  H      1.486101    2.883636   -1.596817
  H     -1.534514   -1.912497    2.197362
  H     -3.770283   -1.158405    1.027829
  H      2.386069   -3.304455    2.718344
  H      2.487453   -3.130553    0.951754
  H      0.008073   -4.100492    2.517585
  H      1.108639   -5.116672    1.541325
  H      0.078603   -3.894681    0.747348
  H      5.244953    0.989810   -2.781043
  H      6.387668   -0.580059   -0.368877
  H      7.328625    0.231043   -1.760810

 Multiplicity           Mult            ....    1
 Number of Electrons    NEL             ....  160
 Basis Dimension        Dim             ....  368

ORBITAL ENERGIES
----------------

  NO   OCC          E(Eh)            E(eV)
   0   2.0000     -88.867311     -2418.2025
   1   2.0000     -88.865782     -2418.1609
   2   2.0000     -19.165889      -521.5304
   3   2.0000     -19.149050      -521.0721
   4   2.0000     -10.257262      -279.1143
   5   2.0000     -10.252010      -278.9714
   6   2.0000     -10.242623      -278.7160
   7   2.0000     -10.239855      -278.6406
   8   2.0000     -10.222294      -278.1628
   9   2.0000     -10.216828      -278.0140
  10   2.0000     -10.213680      -277.9284
  11   2.0000     -10.210980      -277.8549
  12   2.0000     -10.206847      -277.7424
  13   2.0000     -10.206152      -277.7235
  14   2.0000     -10.201144      -277.5872
  15   2.0000     -10.197666      -277.4926
  16   2.0000     -10.194112      -277.3959
  17   2.0000     -10.192147      -277.3424
  18   2.0000     -10.191019      -277.3117
  19   2.0000     -10.184168      -277.1253
  20   2.0000      -7.961687      -216.6485
  21   2.0000      -7.960161      -216.6070
  22   2.0000      -5.930170      -161.3681
  23   2.0000      -5.928645      -161.3266
  24   2.0000      -5.926359      -161.2644
  25   2.0000      -5.924597      -161.2165
  26   2.0000      -5.922019      -161.1463
  27   2.0000      -5.920757      -161.1120
  28   2.0000      -1.059431       -28.8286
  29   2.0000      -1.043909       -28.4062
  30   2.0000      -0.891493       -24.2588
  31   2.0000      -0.871831       -23.7237
  32   2.0000      -0.812182       -22.1006
  33   2.0000      -0.785530       -21.3754
  34   2.0000      -0.772204       -21.0127
  35   2.0000      -0.755769       -20.5655
  36   2.0000      -0.742784       -20.2122
  37   2.0000      -0.733470       -19.9587
  38   2.0000      -0.704848       -19.1799
  39   2.0000      -0.686879       -18.6909
  40   2.0000      -0.654588       -17.8123
  41   2.0000      -0.625183       -17.0121
  42   2.0000      -0.617990       -16.8164
  43   2.0000      -0.578839       -15.7510
  44   2.0000      -0.573381       -15.6025
  45   2.0000      -0.559975       -15.2377
  46   2.0000      -0.541557       -14.7365
  47   2.0000      -0.520922       -14.1750
  48   2.0000      -0.514504       -14.0004
  49   2.0000      -0.505688       -13.7605
  50   2.0000      -0.480162       -13.0659
  51   2.0000      -0.478906       -13.0317
  52   2.0000      -0.470017       -12.7898
  53   2.0000      -0.463460       -12.6114
  54   2.0000      -0.449475       -12.2308
  55   2.0000      -0.439621       -11.9627
  56   2.0000      -0.427681       -11.6378
  57   2.0000      -0.424506       -11.5514
  58   2.0000      -0.413527       -11.2526
  59   2.0000      -0.404884       -11.0174
  60   2.0000      -0.398209       -10.8358
  61   2.0000      -0.395395       -10.7593
  62   2.0000      -0.384739       -10.4693
  63   2.0000      -0.383918       -10.4469
  64   2.0000      -0.382188       -10.3999
  65   2.0000      -0.379346       -10.3225
  66   2.0000      -0.373726       -10.1696
  67   2.0000      -0.369646       -10.0586
  68   2.0000      -0.355096        -9.6627
  69   2.0000      -0.347353        -9.4519
  70   2.0000      -0.343995        -9.3606
  71   2.0000      -0.334216        -9.0945
  72   2.0000      -0.321893        -8.7591
  73   2.0000      -0.312641        -8.5074
  74   2.0000      -0.283679        -7.7193
  75   2.0000      -0.272317        -7.4101
  76   2.0000      -0.267396        -7.2762
  77   2.0000      -0.251014        -6.8304
  78   2.0000      -0.221633        -6.0310
  79   2.0000      -0.189326        -5.1518
  80   0.0000      -0.059042        -1.6066
  81   0.0000      -0.006812        -0.1854
  82   0.0000      -0.000892        -0.0243
  83   0.0000       0.028135         0.7656
  84   0.0000       0.044193         1.2025

MULLIKEN ATOMIC CHARGES
-----------------------
   0 C :   -0.056245
   1 C :    0.058136
   2 C :    0.130154
   3 O :   -0.325579
   4 C :    0.194337
   5 C :   -0.039992
   6 C :   -0.140853
   7 C :    0.075261
   8 C :   -0.001015
   9 C :   -0.056146
  10 S :    0.116970
  11 C :    0.074322
  12 O :   -0.346627
  13 C :    0.198476
  14 C :   -0.027242
  15 C :   -0.118659
  16 S :    0.103029
  17 C :   -0.034193
  18 C :    0.011860
  19 C :   -0.033544
  20 H :   -0.040350
  21 H :    0.016799
  22 H :    0.006636
  23 H :    0.030201
  24 H :    0.018901
  25 H :    0.046640
  26 H :   -0.016633
  27 H :    0.024209
  28 H :    0.013484
  29 H :    0.008025
  30 H :    0.024423
  31 H :    0.011552
  32 H :    0.032340
  33 H :   -0.010662
  34 H :    0.026664
  35 H :    0.025322
Sum of atomic charges:    0.0000000

LOEWDIN ATOMIC CHARGES
----------------------
   0 C :   -0.057276
   1 C :   -0.080161
   2 C :    0.029994
   3 O :   -0.108729
   4 C :    0.086325
   5 C :   -0.072106
   6 C :   -0.179732
   7 C :   -0.058524
   8 C :   -0.058912
   9 C :   -0.167355
  10 S :    0.400907
  11 C :    0.005643
  12 O :   -0.134076
  13 C :    0.086122
  14 C :   -0.071215
  15 C :   -0.165945
  16 S :    0.394513
  17 C :   -0.159260
  18 C :   -0.039034
  19 C :   -0.052587
  20 H :    0.024554
  21 H :    0.026376
  22 H :    0.007452
  23 H :    0.032487
  24 H :    0.033133
  25 H :    0.031232
  26 H :    0.030975
  27 H :    0.024902
  28 H :    0.020155
  29 H :    0.004373
  30 H :    0.025067
  31 H :    0.029495
  32 H :    0.029408
  33 H :    0.033045
  34 H :    0.021130
  35 H :    0.027625

  Mayer bond orders larger than 0.100000
B(  0-C ,  1-C ) :   1.1249 B(  0-C , 17-C ) :   1.5551 B(  0-C , 20-H ) :   0.9893
B(  1-C ,  2-C ) :   1.2252 B(  1-C , 15-C ) :   1.2737 B(  2-C ,  3-O ) :   1.2193
B(  2-C ,  6-C ) :   1.4072 B(  3-O ,  4-C ) :   0.9407 B(  4-C ,  5-C ) :   1.1087
B(  4-C , 21-H ) :   0.9496 B(  4-C , 22-H ) :   0.9494 B(  5-C , 23-H ) :   0.9595
B(  5-C , 24-H ) :   0.9571 B(  5-C , 25-H ) :   0.9635 B(  6-C ,  7-C ) :   1.3187
B(  6-C , 10-S ) :   1.0481 B(  7-C ,  8-C ) :   1.1804 B(  7-C , 11-C ) :   1.2837
B(  8-C ,  9-C ) :   1.6003 B(  8-C , 26-H ) :   0.9939 B(  9-C , 10-S ) :   1.1079
B(  9-C , 27-H ) :   0.9644 B( 11-C , 12-O ) :   1.1665 B( 11-C , 15-C ) :   1.3998
B( 12-O , 13-C ) :   0.9340 B( 13-C , 14-C ) :   1.1124 B( 13-C , 28-H ) :   0.9562
B( 13-C , 29-H ) :   0.9394 B( 14-C , 30-H ) :   0.9655 B( 14-C , 31-H ) :   0.9557
B( 14-C , 32-H ) :   0.9641 B( 15-C , 16-S ) :   1.0401 B( 16-S , 17-C ) :   1.0464
B( 17-C , 18-C ) :   1.1353 B( 18-C , 19-C ) :   1.8885 B( 18-C , 33-H ) :   0.9573
B( 19-C , 34-H ) :   0.9502 B( 19-C , 35-H ) :   0.9465

Dispersion correction           -0.086225683
FINAL SINGLE POINT ENERGY     -1565.441871498818

DIPOLE MOMENT
-------------
                                X             Y             Z
Electronic contribution:     -7.91137       0.81104       2.05559
Nuclear contribution   :      8.18260      -0.74756      -2.56573
                        -----------------------------------------
Total Dipole Moment    :      0.27122       0.06348      -0.51014
                        -----------------------------------------
Magnitude (a.u.)       :      0.58124
Magnitude (Debye)      :      1.47739

Rotational constants in cm-1:     0.011972     0.008743     0.005310
Rotational constants in MHz :   358.908475   262.099525   159.196087

                             ****ORCA TERMINATED NORMALLY****
TOTAL RUN TIME: 0 days 2 hours 42 minutes 18 seconds 876 msec
