                         Program Version 4.2.0 -  RELEASE  -
|  1> # ORCA input file
|  2> # SCF done        -30.638867869678          0.000728297662
|  3> ! B3LYP/G D3BJ Opt RIJCOSX def2-SVP def2/J
|  4> * xyz 0 1
|  5>    C       -1.52584        -1.43845         0.29282
|  6>    S       -2.73516        -0.23424         0.38720
|  7>    C       -1.60283         1.02209         0.16329
|  8>    C       -0.32645         0.53558         0.01842
|  9>    C       -0.27670        -0.89930         0.09384
| 10>    C        0.96850        -1.56504        -0.03538
| 11>    C        2.08986        -0.82310        -0.22548
| 12>    C        2.05580         0.59147        -0.30051
| 13>    C        0.87929         1.27617        -0.18554
| 14>    O        0.72367         2.62753        -0.24531
| 15>    C        1.87072         3.41911        -0.43675
| 16>    H       -1.79276        -2.47151         0.38749
| 17>    H       -1.92176         2.04389         0.14902
| 18>    H        1.00236        -2.64196         0.02036
| 19>    H        3.04979        -1.30834        -0.32422
| 20>    H        2.98886         1.11053        -0.45163
| 21>    H        1.51906         4.44933        -0.46165
| 22>    H        2.36853         3.18309        -1.38348
| 23>    H        2.58188         3.29837         0.38726
| 24> *
| 25>
| 26>                          ****END OF INPUT****
 Total Charge           Charge          ....    0
 Multiplicity           Mult            ....    1
 Number of Electrons    NEL             ....   86
Dispersion correction           -0.039654663
FINAL SINGLE POINT ENERGY      -820.787617935892
Dispersion correction            ... done
Dispersion correction           -0.039553949
FINAL SINGLE POINT ENERGY      -820.790076934117
Dispersion correction            ... done
Dispersion correction           -0.039539936
FINAL SINGLE POINT ENERGY      -820.790158563004
Dispersion correction            ... done
FINAL SINGLE POINT ENERGY      -820.790132325691
Dispersion correction            ... done
Dispersion correction           -0.039541284
FINAL SINGLE POINT ENERGY      -820.790167605621
Dispersion correction            ... done
Dispersion correction           -0.039542465
FINAL SINGLE POINT ENERGY      -820.790167808041
Dispersion correction            ... done
                    ***********************HURRAY********************

CARTESIAN COORDINATES (ANGSTROEM)
---------------------------------
  C     -1.552233   -1.451653    0.285137
  S     -2.748955   -0.224881    0.391306
  C     -1.613547    1.040406    0.173550
  C     -0.330545    0.535759    0.024831
  C     -0.284910   -0.913019    0.088261
  C      0.974403   -1.583021   -0.043786
  C      2.107260   -0.833096   -0.216329
  C      2.077518    0.598819   -0.281893
  C      0.885119    1.278043   -0.170028
  O      0.727926    2.620363   -0.223525
  C      1.860415    3.426924   -0.446385
  H     -1.827419   -2.500552    0.374800
  H     -1.923849    2.082364    0.157396
  H      1.018727   -2.672965    0.000030
  H      3.075396   -1.330426   -0.314045
  H      3.013900    1.134944   -0.430117
  H      1.503502    4.465295   -0.474248
  H      2.349651    3.184333   -1.407637
  H      2.604460    3.317584    0.362432

 Multiplicity           Mult            ....    1
 Number of Electrons    NEL             ....   86
 Basis Dimension        Dim             ....  198

ORBITAL ENERGIES
----------------

  NO   OCC          E(Eh)            E(eV)
   0   2.0000     -88.880134     -2418.5514
   1   2.0000     -19.169598      -521.6313
   2   2.0000     -10.249846      -278.9125
   3   2.0000     -10.248818      -278.8845
   4   2.0000     -10.208133      -277.7774
   5   2.0000     -10.206136      -277.7231
   6   2.0000     -10.195424      -277.4316
   7   2.0000     -10.193404      -277.3766
   8   2.0000     -10.188738      -277.2497
   9   2.0000     -10.182506      -277.0801
  10   2.0000     -10.182487      -277.0796
  11   2.0000      -7.974820      -217.0059
  12   2.0000      -5.942589      -161.7061
  13   2.0000      -5.938387      -161.5917
  14   2.0000      -5.937136      -161.5577
  15   2.0000      -1.065502       -28.9938
  16   2.0000      -0.885138       -24.0858
  17   2.0000      -0.820413       -22.3246
  18   2.0000      -0.763294       -20.7703
  19   2.0000      -0.730089       -19.8667
  20   2.0000      -0.704104       -19.1596
  21   2.0000      -0.685689       -18.6585
  22   2.0000      -0.601739       -16.3741
  23   2.0000      -0.578872       -15.7519
  24   2.0000      -0.568630       -15.4732
  25   2.0000      -0.530138       -14.4258
  26   2.0000      -0.497370       -13.5341
  27   2.0000      -0.475730       -12.9453
  28   2.0000      -0.471760       -12.8372
  29   2.0000      -0.458031       -12.4637
  30   2.0000      -0.439592       -11.9619
  31   2.0000      -0.409197       -11.1348
  32   2.0000      -0.403694       -10.9851
  33   2.0000      -0.402371       -10.9491
  34   2.0000      -0.375917       -10.2292
  35   2.0000      -0.359972        -9.7953
  36   2.0000      -0.354796        -9.6545
  37   2.0000      -0.344411        -9.3719
  38   2.0000      -0.334991        -9.1156
  39   2.0000      -0.318685        -8.6719
  40   2.0000      -0.258143        -7.0244
  41   2.0000      -0.247439        -6.7331
  42   2.0000      -0.194201        -5.2845
  43   0.0000      -0.049007        -1.3335
  44   0.0000       0.024110         0.6561
  45   0.0000       0.037867         1.0304
  46   0.0000       0.053171         1.4469
  47   0.0000       0.061945         1.6856

MULLIKEN ATOMIC CHARGES
-----------------------
   0 C :   -0.152963
   1 S :    0.130057
   2 C :   -0.147535
   3 C :    0.063450
   4 C :    0.104171
   5 C :   -0.007852
   6 C :    0.025858
   7 C :   -0.126613
   8 C :    0.222804
   9 O :   -0.309571
  10 C :    0.183537
  11 H :    0.014354
  12 H :    0.021044
  13 H :   -0.034306
  14 H :   -0.023364
  15 H :   -0.039946
  16 H :    0.032913
  17 H :    0.019350
  18 H :    0.024612
Sum of atomic charges:   -0.0000000

LOEWDIN ATOMIC CHARGES
----------------------
   0 C :   -0.215726
   1 S :    0.475640
   2 C :   -0.199823
   3 C :   -0.066525
   4 C :   -0.046367
   5 C :   -0.046997
   6 C :   -0.022589
   7 C :   -0.102879
   8 C :    0.057742
   9 O :   -0.092362
  10 C :    0.080136
  11 H :    0.023089
  12 H :    0.027045
  13 H :    0.025283
  14 H :    0.025797
  15 H :    0.023387
  16 H :    0.026401
  17 H :    0.014228
  18 H :    0.014518

  Mayer bond orders larger than 0.100000
B(  0-C ,  1-S ) :   1.1984 B(  0-C ,  2-C ) :   0.1156 B(  0-C ,  4-C ) :   1.4091
B(  0-C , 11-H ) :   0.9629 B(  1-S ,  2-C ) :   1.2000 B(  2-C ,  3-C ) :   1.4172
B(  2-C , 12-H ) :   0.9670 B(  3-C ,  4-C ) :   1.2232 B(  3-C ,  8-C ) :   1.1727
B(  4-C ,  5-C ) :   1.1645 B(  5-C ,  6-C ) :   1.5555 B(  5-C , 13-H ) :   0.9949
B(  6-C ,  7-C ) :   1.1672 B(  6-C , 14-H ) :   0.9777 B(  7-C ,  8-C ) :   1.4540
B(  7-C , 15-H ) :   0.9879 B(  8-C ,  9-O ) :   1.1843 B(  9-O , 10-C ) :   0.9631
B( 10-C , 16-H ) :   0.9772 B( 10-C , 17-H ) :   0.9643 B( 10-C , 18-H ) :   0.9656

Dispersion correction           -0.039543044
FINAL SINGLE POINT ENERGY      -820.790165645405

DIPOLE MOMENT
-------------
                                X             Y             Z
Electronic contribution:     -9.66991      -3.78013       1.55736
Nuclear contribution   :     10.07642       4.16419      -1.64709
                        -----------------------------------------
Total Dipole Moment    :      0.40651       0.38406      -0.08973
                        -----------------------------------------
Magnitude (a.u.)       :      0.56639
Magnitude (Debye)      :      1.43966

Rotational constants in cm-1:     0.056111     0.026458     0.018043
Rotational constants in MHz :  1682.163176   793.198664   540.920155

                             ****ORCA TERMINATED NORMALLY****
TOTAL RUN TIME: 0 days 0 hours 7 minutes 33 seconds 183 msec
