                         Program Version 4.2.0 -  RELEASE  -
|  1> # ORCA input file
|  2> # SCF done        -32.699304495981          0.000890551153
|  3> ! B3LYP/G D3BJ Opt RIJCOSX def2-SVP def2/J
|  4> * xyz 0 1
|  5>    C        1.42727         1.20358         0.12946
|  6>    S        2.72142         0.08772        -0.03710
|  7>    C        1.61296        -1.22283        -0.15968
|  8>    C        0.31965        -0.81748        -0.06793
|  9>    C        0.21451         0.59258         0.09827
| 10>    C       -1.10166         1.31033         0.20146
| 11>    O       -0.96212         2.32448         1.18097
| 12>    C       -1.97505         3.29500         1.17482
| 13>    C       -2.22115         0.30952         0.52433
| 14>    C       -2.13691        -0.89979        -0.40161
| 15>    C       -0.87957        -1.71200        -0.10105
| 16>    H        1.63286         2.24693         0.25439
| 17>    H        1.98592        -2.21963        -0.28678
| 18>    H       -1.32351         1.78596        -0.77464
| 19>    H       -1.65713         4.07013         1.86874
| 20>    H       -2.93769         2.89160         1.50728
| 21>    H       -2.10112         3.73167         0.17606
| 22>    H       -3.19224         0.79596         0.41479
| 23>    H       -2.11015        -0.00722         1.56367
| 24>    H       -2.11439        -0.55827        -1.43952
| 25>    H       -3.02007        -1.52848        -0.27295
| 26>    H       -0.74198        -2.50022        -0.84450
| 27>    H       -0.98685        -2.19658         0.87486
| 28> *
| 29>
| 30>                          ****END OF INPUT****
 Total Charge           Charge          ....    0
 Multiplicity           Mult            ....    1
 Number of Electrons    NEL             ....   90
Dispersion correction           -0.044833328
FINAL SINGLE POINT ENERGY      -823.203406404405
Dispersion correction            ... done
Dispersion correction           -0.044622560
FINAL SINGLE POINT ENERGY      -823.205925717972
Dispersion correction            ... done
Dispersion correction           -0.044592217
FINAL SINGLE POINT ENERGY      -823.206050215856
Dispersion correction            ... done
FINAL SINGLE POINT ENERGY      -823.206025893038
FINAL SINGLE POINT ENERGY      -823.206060416831
Dispersion correction            ... done
Dispersion correction           -0.044591616
FINAL SINGLE POINT ENERGY      -823.206053276798
Dispersion correction            ... done
Dispersion correction           -0.044590633
FINAL SINGLE POINT ENERGY      -823.206043079864
Dispersion correction            ... done
                    ***********************HURRAY********************

CARTESIAN COORDINATES (ANGSTROEM)
---------------------------------
  C      1.464869    1.211230    0.142210
  S      2.756985    0.080442   -0.030957
  C      1.647736   -1.241465   -0.169182
  C      0.339680   -0.828028   -0.081091
  C      0.238426    0.595231    0.097029
  C     -1.082176    1.316929    0.198576
  O     -0.947326    2.339530    1.171122
  C     -1.986591    3.280705    1.192205
  C     -2.227633    0.337775    0.497663
  C     -2.151948   -0.902356   -0.395292
  C     -0.881250   -1.713099   -0.109245
  H      1.664369    2.270008    0.292113
  H      2.017405   -2.257397   -0.300993
  H     -1.296147    1.794866   -0.783853
  H     -1.662330    4.117585    1.827587
  H     -2.926875    2.873343    1.610168
  H     -2.207436    3.673562    0.178601
  H     -3.194331    0.846941    0.358812
  H     -2.160400    0.041478    1.559504
  H     -2.165844   -0.587871   -1.454912
  H     -3.041072   -1.534280   -0.242472
  H     -0.755242   -2.522216   -0.846681
  H     -0.989868   -2.209953    0.872428

 Multiplicity           Mult            ....    1
 Number of Electrons    NEL             ....   90
 Basis Dimension        Dim             ....  218

ORBITAL ENERGIES
----------------

  NO   OCC          E(Eh)            E(eV)
   0   2.0000     -88.864796     -2418.1340
   1   2.0000     -19.132135      -520.6119
   2   2.0000     -10.239226      -278.6235
   3   2.0000     -10.231002      -278.3997
   4   2.0000     -10.199561      -277.5442
   5   2.0000     -10.199396      -277.5397
   6   2.0000     -10.192268      -277.3457
   7   2.0000     -10.190943      -277.3096
   8   2.0000     -10.188696      -277.2485
   9   2.0000     -10.185224      -277.1540
  10   2.0000     -10.183437      -277.1054
  11   2.0000      -7.959838      -216.5982
  12   2.0000      -5.927869      -161.3055
  13   2.0000      -5.923795      -161.1947
  14   2.0000      -5.921409      -161.1297
  15   2.0000      -1.025376       -27.9019
  16   2.0000      -0.873836       -23.7783
  17   2.0000      -0.810731       -22.0611
  18   2.0000      -0.754936       -20.5429
  19   2.0000      -0.725955       -19.7542
  20   2.0000      -0.689566       -18.7641
  21   2.0000      -0.672059       -18.2877
  22   2.0000      -0.610341       -16.6082
  23   2.0000      -0.583769       -15.8852
  24   2.0000      -0.560312       -15.2469
  25   2.0000      -0.519450       -14.1350
  26   2.0000      -0.503694       -13.7062
  27   2.0000      -0.486054       -13.2262
  28   2.0000      -0.461198       -12.5498
  29   2.0000      -0.445012       -12.1094
  30   2.0000      -0.437738       -11.9114
  31   2.0000      -0.423449       -11.5226
  32   2.0000      -0.409139       -11.1332
  33   2.0000      -0.397129       -10.8064
  34   2.0000      -0.393540       -10.7088
  35   2.0000      -0.383679       -10.4404
  36   2.0000      -0.362795        -9.8721
  37   2.0000      -0.350842        -9.5469
  38   2.0000      -0.338854        -9.2207
  39   2.0000      -0.333782        -9.0827
  40   2.0000      -0.328181        -8.9303
  41   2.0000      -0.308904        -8.4057
  42   2.0000      -0.260976        -7.1015
  43   2.0000      -0.235537        -6.4093
  44   2.0000      -0.226963        -6.1760
  45   0.0000      -0.013663        -0.3718
  46   0.0000       0.042546         1.1577
  47   0.0000       0.055417         1.5080
  48   0.0000       0.063986         1.7411
  49   0.0000       0.070269         1.9121

MULLIKEN ATOMIC CHARGES
-----------------------
   0 C :   -0.122003
   1 S :    0.092023
   2 C :   -0.147826
   3 C :   -0.033272
   4 C :   -0.026833
   5 C :    0.229211
   6 O :   -0.377176
   7 C :    0.199625
   8 C :    0.020276
   9 C :    0.011615
  10 C :    0.128696
  11 H :    0.015837
  12 H :    0.006208
  13 H :   -0.012193
  14 H :    0.022922
  15 H :    0.000466
  16 H :   -0.011735
  17 H :   -0.007617
  18 H :    0.001798
  19 H :    0.000298
  20 H :   -0.003281
  21 H :    0.001865
  22 H :    0.011096
Sum of atomic charges:    0.0000000

LOEWDIN ATOMIC CHARGES
----------------------
   0 C :   -0.185683
   1 S :    0.425669
   2 C :   -0.206526
   3 C :   -0.064996
   4 C :   -0.077400
   5 C :    0.074119
   6 O :   -0.164750
   7 C :    0.067707
   8 C :   -0.040912
   9 C :   -0.027295
  10 C :   -0.023765
  11 H :    0.024542
  12 H :    0.019911
  13 H :    0.008979
  14 H :    0.020831
  15 H :    0.001571
  16 H :    0.001829
  17 H :    0.019397
  18 H :    0.023476
  19 H :    0.020256
  20 H :    0.023332
  21 H :    0.028786
  22 H :    0.030920

  Mayer bond orders larger than 0.100000
B(  0-C ,  1-S ) :   1.1677 B(  0-C ,  4-C ) :   1.5573 B(  0-C , 11-H ) :   0.9622
B(  1-S ,  2-C ) :   1.1584 B(  2-C ,  3-C ) :   1.5508 B(  2-C , 12-H ) :   0.9641
B(  3-C ,  4-C ) :   1.3062 B(  3-C , 10-C ) :   1.0369 B(  4-C ,  5-C ) :   0.9713
B(  5-C ,  6-O ) :   1.0413 B(  5-C ,  8-C ) :   1.0671 B(  5-C , 13-H ) :   0.9011
B(  6-O ,  7-C ) :   1.0031 B(  7-C , 14-H ) :   0.9796 B(  7-C , 15-H ) :   0.9630
B(  7-C , 16-H ) :   0.9558 B(  8-C ,  9-C ) :   1.0689 B(  8-C , 17-H ) :   0.9243
B(  8-C , 18-H ) :   0.9278 B(  9-C , 10-C ) :   1.0906 B(  9-C , 19-H ) :   0.9406
B(  9-C , 20-H ) :   0.9294 B( 10-C , 21-H ) :   0.9198 B( 10-C , 22-H ) :   0.9153

Dispersion correction           -0.044589769
FINAL SINGLE POINT ENERGY      -823.206037872822

DIPOLE MOMENT
-------------
                                X             Y             Z
Electronic contribution:     15.10923      -1.43405      -0.63108
Nuclear contribution   :    -15.82238       1.37313       0.40412
                        -----------------------------------------
Total Dipole Moment    :     -0.71315      -0.06091      -0.22695
                        -----------------------------------------
Magnitude (a.u.)       :      0.75087
Magnitude (Debye)      :      1.90855

Rotational constants in cm-1:     0.048616     0.025955     0.017484
Rotational constants in MHz :  1457.466866   778.120344   524.153698

                             ****ORCA TERMINATED NORMALLY****
TOTAL RUN TIME: 0 days 0 hours 10 minutes 0 seconds 419 msec
