                         Program Version 4.2.0 -  RELEASE  -
|  1> # ORCA input file
|  2> # SCF done        -32.118771376431          0.000911333468
|  3> ! B3LYP/G D3BJ Opt RIJCOSX def2-SVP def2/J
|  4> * xyz 0 1
|  5>    C        0.95146         1.40478        -0.04865
|  6>    C       -0.27928         0.71117         0.06084
|  7>    C       -1.54859         1.22935         0.14478
|  8>    S       -2.73448         0.00538         0.26680
|  9>    C       -1.55708        -1.23047         0.20837
| 10>    C       -0.28080        -0.72702         0.09570
| 11>    C        0.95235        -1.44703         0.01650
| 12>    N        0.91647        -2.81827         0.14548
| 13>    C        2.13618        -0.73248        -0.08287
| 14>    C        2.10272         0.69036        -0.11152
| 15>    C        3.42025        -1.41577        -0.19003
| 16>    C        4.58705        -0.94253         0.23179
| 17>    H        0.94983         2.48313        -0.08485
| 18>    H       -1.84396         2.25916         0.14154
| 19>    H       -1.88134        -2.25025         0.27195
| 20>    H        0.05571        -3.27001        -0.11202
| 21>    H        1.75014        -3.31916        -0.11250
| 22>    H        3.04461         1.20652        -0.21712
| 23>    H        3.40596        -2.39073        -0.66714
| 24>    H        4.67382         0.00136         0.74125
| 25>    H        5.50097        -1.49542         0.09763
| 26> *
| 27>
| 28>                          ****END OF INPUT****
 Total Charge           Charge          ....    0
 Multiplicity           Mult            ....    1
 Number of Electrons    NEL             ....   92
Dispersion correction           -0.046847675
FINAL SINGLE POINT ENERGY      -839.013675867211
Dispersion correction            ... done
Dispersion correction           -0.046604464
FINAL SINGLE POINT ENERGY      -839.017052819938
Dispersion correction            ... done
Dispersion correction           -0.046564643
FINAL SINGLE POINT ENERGY      -839.017305838917
Dispersion correction            ... done
FINAL SINGLE POINT ENERGY      -839.017463680177
FINAL SINGLE POINT ENERGY      -839.017515746477
FINAL SINGLE POINT ENERGY      -839.017556833888
Dispersion correction            ... done
Dispersion correction           -0.046554690
FINAL SINGLE POINT ENERGY      -839.017564508590
Dispersion correction            ... done
Dispersion correction           -0.046554986
FINAL SINGLE POINT ENERGY      -839.017567217119
Dispersion correction            ... done
                    ***********************HURRAY********************

CARTESIAN COORDINATES (ANGSTROEM)
---------------------------------
  C      0.942482    1.430027   -0.007788
  C     -0.303760    0.728618    0.058454
  C     -1.592415    1.242032    0.116758
  S     -2.767720   -0.005388    0.222636
  C     -1.583689   -1.246251    0.189248
  C     -0.300023   -0.721346    0.092717
  C      0.945277   -1.449800    0.045641
  N      0.879653   -2.829469    0.127708
  C      2.142676   -0.731810   -0.015969
  C      2.102054    0.709427   -0.030365
  C      3.426780   -1.432021   -0.104957
  C      4.652598   -0.939923    0.141767
  H      0.952852    2.521095   -0.048394
  H     -1.894908    2.287339    0.101780
  H     -1.888894   -2.286673    0.281800
  H      0.078164   -3.265407   -0.313430
  H      1.739748   -3.343154   -0.010133
  H      3.053941    1.238109   -0.103330
  H      3.380451   -2.474261   -0.443850
  H      4.815937    0.080101    0.498530
  H      5.540783   -1.559175   -0.002893

 Multiplicity           Mult            ....    1
 Number of Electrons    NEL             ....   92
 Basis Dimension        Dim             ....  217

ORBITAL ENERGIES
----------------

  NO   OCC          E(Eh)            E(eV)
   0   2.0000     -88.882411     -2418.6134
   1   2.0000     -14.343459      -390.3054
   2   2.0000     -10.233632      -278.4713
   3   2.0000     -10.213661      -277.9279
   4   2.0000     -10.208269      -277.7811
   5   2.0000     -10.196993      -277.4743
   6   2.0000     -10.195407      -277.4311
   7   2.0000     -10.192387      -277.3489
   8   2.0000     -10.184626      -277.1377
   9   2.0000     -10.183974      -277.1200
  10   2.0000     -10.179226      -276.9908
  11   2.0000     -10.179022      -276.9853
  12   2.0000      -7.977075      -217.0672
  13   2.0000      -5.944851      -161.7676
  14   2.0000      -5.940725      -161.6553
  15   2.0000      -5.939325      -161.6172
  16   2.0000      -0.922448       -25.1011
  17   2.0000      -0.880667       -23.9642
  18   2.0000      -0.819004       -22.2862
  19   2.0000      -0.770370       -20.9628
  20   2.0000      -0.741630       -20.1808
  21   2.0000      -0.713990       -19.4287
  22   2.0000      -0.690649       -18.7935
  23   2.0000      -0.615822       -16.7574
  24   2.0000      -0.598466       -16.2851
  25   2.0000      -0.573571       -15.6077
  26   2.0000      -0.541543       -14.7361
  27   2.0000      -0.533211       -14.5094
  28   2.0000      -0.512614       -13.9489
  29   2.0000      -0.474717       -12.9177
  30   2.0000      -0.467845       -12.7307
  31   2.0000      -0.443541       -12.0694
  32   2.0000      -0.424128       -11.5411
  33   2.0000      -0.420871       -11.4525
  34   2.0000      -0.409379       -11.1398
  35   2.0000      -0.404349       -11.0029
  36   2.0000      -0.377303       -10.2669
  37   2.0000      -0.361945        -9.8490
  38   2.0000      -0.357275        -9.7219
  39   2.0000      -0.350910        -9.5488
  40   2.0000      -0.336349        -9.1525
  41   2.0000      -0.316950        -8.6246
  42   2.0000      -0.288080        -7.8391
  43   2.0000      -0.250392        -6.8135
  44   2.0000      -0.231795        -6.3075
  45   2.0000      -0.184172        -5.0116
  46   0.0000      -0.053132        -1.4458
  47   0.0000      -0.012610        -0.3431
  48   0.0000       0.035515         0.9664
  49   0.0000       0.040271         1.0958
  50   0.0000       0.053662         1.4602

MULLIKEN ATOMIC CHARGES
-----------------------
   0 C :   -0.016121
   1 C :    0.104511
   2 C :   -0.145904
   3 S :    0.129202
   4 C :   -0.198842
   5 C :    0.089192
   6 C :   -0.006291
   7 N :   -0.065434
   8 C :    0.046392
   9 C :   -0.015103
  10 C :   -0.047193
  11 C :   -0.037725
  12 H :   -0.037677
  13 H :    0.014577
  14 H :    0.012016
  15 H :    0.114929
  16 H :    0.100492
  17 H :   -0.034887
  18 H :   -0.033392
  19 H :    0.012534
  20 H :    0.014724
Sum of atomic charges:   -0.0000000

LOEWDIN ATOMIC CHARGES
----------------------
   0 C :   -0.052497
   1 C :   -0.044960
   2 C :   -0.210374
   3 S :    0.472670
   4 C :   -0.219018
   5 C :   -0.063547
   6 C :    0.036292
   7 N :   -0.017482
   8 C :   -0.088216
   9 C :   -0.009408
  10 C :   -0.026779
  11 C :   -0.065131
  12 H :    0.024864
  13 H :    0.023937
  14 H :    0.018621
  15 H :    0.071232
  16 H :    0.066582
  17 H :    0.025710
  18 H :    0.016129
  19 H :    0.018950
  20 H :    0.022426

  Mayer bond orders larger than 0.100000
B(  0-C ,  1-C ) :   1.1412 B(  0-C ,  9-C ) :   1.5475 B(  0-C , 12-H ) :   0.9956
B(  1-C ,  2-C ) :   1.4205 B(  1-C ,  5-C ) :   1.2169 B(  2-C ,  3-S ) :   1.1931
B(  2-C ,  4-C ) :   0.1111 B(  2-C , 13-H ) :   0.9626 B(  3-S ,  4-C ) :   1.1979
B(  4-C ,  5-C ) :   1.4041 B(  4-C , 14-H ) :   0.9627 B(  5-C ,  6-C ) :   1.1532
B(  6-C ,  7-N ) :   1.2841 B(  6-C ,  8-C ) :   1.4183 B(  7-N , 15-H ) :   0.9351
B(  7-N , 16-H ) :   0.9444 B(  8-C ,  9-C ) :   1.1797 B(  8-C , 10-C ) :   1.0672
B(  9-C , 17-H ) :   0.9810 B( 10-C , 11-C ) :   1.9320 B( 10-C , 18-H ) :   0.9487
B( 11-C , 19-H ) :   0.9483 B( 11-C , 20-H ) :   0.9441

Dispersion correction           -0.046553934
FINAL SINGLE POINT ENERGY      -839.017566640835

DIPOLE MOMENT
-------------
                                X             Y             Z
Electronic contribution:    -12.00581       2.13690       0.45261
Nuclear contribution   :     11.77459      -2.76360      -0.75033
                        -----------------------------------------
Total Dipole Moment    :     -0.23122      -0.62669      -0.29772
                        -----------------------------------------
Magnitude (a.u.)       :      0.73133
Magnitude (Debye)      :      1.85890

Rotational constants in cm-1:     0.067482     0.017888     0.014176
Rotational constants in MHz :  2023.070790   536.262887   424.977019

                             ****ORCA TERMINATED NORMALLY****
TOTAL RUN TIME: 0 days 0 hours 12 minutes 30 seconds 938 msec
