                         Program Version 4.2.0 -  RELEASE  -
|  1> # ORCA input file
|  2> # SCF done        -31.855962108796          0.000630856199
|  3> ! B3LYP/G D3BJ Opt RIJCOSX def2-SVP def2/J
|  4> * xyz 0 1
|  5>    C       -1.52312         1.23969        -0.16356
|  6>    S       -2.67645        -0.01131        -0.24523
|  7>    C       -1.47425        -1.24843        -0.08447
|  8>    C       -0.20397        -0.68340        -0.00882
|  9>    C       -0.23977         0.75476        -0.04310
| 10>    C        0.96654         1.50893         0.03744
| 11>    C        0.90884         3.00416         0.02585
| 12>    C        2.14413         0.82580         0.11245
| 13>    C        2.18842        -0.58664         0.08989
| 14>    C        1.05194        -1.33330         0.02992
| 15>    C       -1.92205        -2.61411        -0.03133
| 16>    C       -1.29609        -3.63268         0.55423
| 17>    H       -1.85011         2.25905        -0.20465
| 18>    H        0.28032         3.36772         0.83832
| 19>    H        0.48277         3.36062        -0.91177
| 20>    H        1.90382         3.42675         0.13839
| 21>    H        3.07585         1.37016         0.17324
| 22>    H        3.15269        -1.07279         0.11522
| 23>    H        1.10042        -2.40890        -0.01664
| 24>    H       -2.89200        -2.78363        -0.48416
| 25>    H       -0.36510        -3.51555         1.07936
| 26>    H       -1.72085        -4.62127         0.54457
| 27> *
| 28>
| 29>                          ****END OF INPUT****
 Total Charge           Charge          ....    0
 Multiplicity           Mult            ....    1
 Number of Electrons    NEL             ....   92
Dispersion correction           -0.048853249
FINAL SINGLE POINT ENERGY      -822.990200400123
Dispersion correction            ... done
Dispersion correction           -0.048555244
FINAL SINGLE POINT ENERGY      -822.993558231608
Dispersion correction            ... done
Dispersion correction           -0.048516064
FINAL SINGLE POINT ENERGY      -822.993659719236
Dispersion correction            ... done
FINAL SINGLE POINT ENERGY      -822.993640789979
Dispersion correction            ... done
Dispersion correction           -0.048506283
FINAL SINGLE POINT ENERGY      -822.993672223045
Dispersion correction            ... done
Dispersion correction           -0.048510228
FINAL SINGLE POINT ENERGY      -822.993681675252
Dispersion correction            ... done
                    ***********************HURRAY********************

CARTESIAN COORDINATES (ANGSTROEM)
---------------------------------
  C     -1.535406    1.255612   -0.189454
  S     -2.681326   -0.010335   -0.272352
  C     -1.487518   -1.257309   -0.100727
  C     -0.204386   -0.687665   -0.018216
  C     -0.239506    0.763549   -0.055765
  C      0.976855    1.526736    0.028602
  C      0.914654    3.026620    0.044277
  C      2.163741    0.834817    0.092879
  C      2.208382   -0.593710    0.082160
  C      1.061409   -1.346057    0.039100
  C     -1.941158   -2.635364   -0.021565
  C     -1.308942   -3.668551    0.563156
  H     -1.858193    2.292714   -0.245760
  H      0.293270    3.390314    0.880217
  H      0.460740    3.422308   -0.880690
  H      1.915470    3.468328    0.149178
  H      3.102720    1.392203    0.148726
  H      3.180528   -1.092016    0.107115
  H      1.112820   -2.434560    0.018524
  H     -2.926306   -2.823670   -0.464649
  H     -0.355914   -3.554652    1.081824
  H     -1.759953   -4.663680    0.558569

 Multiplicity           Mult            ....    1
 Number of Electrons    NEL             ....   92
 Basis Dimension        Dim             ....  222

ORBITAL ENERGIES
----------------

  NO   OCC          E(Eh)            E(eV)
   0   2.0000     -88.882975     -2418.6287
   1   2.0000     -10.217780      -278.0399
   2   2.0000     -10.212772      -277.9037
   3   2.0000     -10.204281      -277.6726
   4   2.0000     -10.198842      -277.5246
   5   2.0000     -10.198418      -277.5131
   6   2.0000     -10.197377      -277.4847
   7   2.0000     -10.190800      -277.3058
   8   2.0000     -10.190229      -277.2902
   9   2.0000     -10.189739      -277.2769
  10   2.0000     -10.188289      -277.2375
  11   2.0000     -10.187433      -277.2141
  12   2.0000      -7.977799      -217.0869
  13   2.0000      -5.945463      -161.7843
  14   2.0000      -5.941495      -161.6763
  15   2.0000      -5.940036      -161.6366
  16   2.0000      -0.892074       -24.2746
  17   2.0000      -0.830495       -22.5989
  18   2.0000      -0.788890       -21.4668
  19   2.0000      -0.764189       -20.7946
  20   2.0000      -0.730518       -19.8784
  21   2.0000      -0.700492       -19.0614
  22   2.0000      -0.675964       -18.3939
  23   2.0000      -0.608208       -16.5502
  24   2.0000      -0.601026       -16.3547
  25   2.0000      -0.572590       -15.5810
  26   2.0000      -0.534398       -14.5417
  27   2.0000      -0.501913       -13.6577
  28   2.0000      -0.470470       -12.8021
  29   2.0000      -0.464476       -12.6390
  30   2.0000      -0.459927       -12.5152
  31   2.0000      -0.427814       -11.6414
  32   2.0000      -0.426963       -11.6183
  33   2.0000      -0.416758       -11.3406
  34   2.0000      -0.405850       -11.0437
  35   2.0000      -0.393173       -10.6988
  36   2.0000      -0.389769       -10.6062
  37   2.0000      -0.373349       -10.1594
  38   2.0000      -0.355330        -9.6690
  39   2.0000      -0.351290        -9.5591
  40   2.0000      -0.335466        -9.1285
  41   2.0000      -0.333093        -9.0639
  42   2.0000      -0.305302        -8.3077
  43   2.0000      -0.259585        -7.0637
  44   2.0000      -0.250366        -6.8128
  45   2.0000      -0.195992        -5.3332
  46   0.0000      -0.066996        -1.8231
  47   0.0000      -0.007940        -0.2161
  48   0.0000       0.021540         0.5861
  49   0.0000       0.035789         0.9739
  50   0.0000       0.056289         1.5317

MULLIKEN ATOMIC CHARGES
-----------------------
   0 C :   -0.154086
   1 S :    0.140143
   2 C :   -0.175810
   3 C :    0.129719
   4 C :    0.060061
   5 C :   -0.045839
   6 C :    0.084243
   7 C :   -0.040338
   8 C :    0.029505
   9 C :   -0.034828
  10 C :    0.027411
  11 C :   -0.041742
  12 H :    0.016302
  13 H :    0.024509
  14 H :    0.023122
  15 H :    0.003946
  16 H :   -0.034370
  17 H :   -0.024113
  18 H :   -0.027508
  19 H :   -0.008770
  20 H :    0.025457
  21 H :    0.022985
Sum of atomic charges:    0.0000000

LOEWDIN ATOMIC CHARGES
----------------------
   0 C :   -0.212771
   1 S :    0.480339
   2 C :   -0.191217
   3 C :   -0.041936
   4 C :   -0.048526
   5 C :   -0.017954
   6 C :   -0.043873
   7 C :   -0.039490
   8 C :   -0.027611
   9 C :   -0.027023
  10 C :   -0.043149
  11 C :   -0.056216
  12 H :    0.022847
  13 H :    0.033123
  14 H :    0.032849
  15 H :    0.028819
  16 H :    0.023241
  17 H :    0.026111
  18 H :    0.026423
  19 H :    0.027963
  20 H :    0.022216
  21 H :    0.025836

  Mayer bond orders larger than 0.100000
B(  0-C ,  1-S ) :   1.1881 B(  0-C ,  2-C ) :   0.1124 B(  0-C ,  4-C ) :   1.4142
B(  0-C , 12-H ) :   0.9541 B(  1-S ,  2-C ) :   1.1671 B(  2-C ,  3-C ) :   1.3541
B(  2-C , 10-C ) :   1.1134 B(  3-C ,  4-C ) :   1.1972 B(  3-C ,  9-C ) :   1.2006
B(  4-C ,  5-C ) :   1.1911 B(  5-C ,  6-C ) :   1.0957 B(  5-C ,  7-C ) :   1.5529
B(  6-C , 13-H ) :   0.9451 B(  6-C , 14-H ) :   0.9433 B(  6-C , 15-H ) :   0.9526
B(  7-C ,  8-C ) :   1.1858 B(  7-C , 16-H ) :   0.9813 B(  8-C ,  9-C ) :   1.5294
B(  8-C , 17-H ) :   0.9789 B(  9-C , 18-H ) :   0.9883 B( 10-C , 11-C ) :   1.9120
B( 10-C , 19-H ) :   0.9434 B( 11-C , 20-H ) :   0.9521 B( 11-C , 21-H ) :   0.9432

Dispersion correction           -0.048509384
FINAL SINGLE POINT ENERGY      -822.993688906795

DIPOLE MOMENT
-------------
                                X             Y             Z
Electronic contribution:     -7.07883      -1.00211      -1.38131
Nuclear contribution   :      7.09762       1.27821       1.37332
                        -----------------------------------------
Total Dipole Moment    :      0.01879       0.27610      -0.00799
                        -----------------------------------------
Magnitude (a.u.)       :      0.27686
Magnitude (Debye)      :      0.70371

Rotational constants in cm-1:     0.044827     0.023934     0.015777
Rotational constants in MHz :  1343.891657   717.523447   472.996294

                             ****ORCA TERMINATED NORMALLY****
TOTAL RUN TIME: 0 days 0 hours 9 minutes 56 seconds 434 msec
