                         Program Version 4.2.0 -  RELEASE  -
|  1> # ORCA input file
|  2> # SCF done        -40.825192902088          0.000936860668
|  3> ! B3LYP/G D3BJ Opt RIJCOSX def2-SVP def2/J
|  4> * xyz 0 1
|  5>    C       -0.13127         0.90613         0.05017
|  6>    O       -0.84812        -0.21485         0.09049
|  7>    C       -0.01012        -1.26957         0.08254
|  8>    C        1.29707        -0.80624         0.03550
|  9>    C        1.20642         0.61888         0.01014
| 10>    N        2.26276         1.58996         0.06403
| 11>    O        2.02684         2.65949        -0.44725
| 12>    O        3.26781         1.27931         0.64963
| 13>    N        2.47866        -1.59554        -0.11595
| 14>    O        2.45737        -2.71223         0.35207
| 15>    O        3.38777        -1.10192        -0.73662
| 16>    C       -0.51585        -2.61819         0.08930
| 17>    C       -1.81491        -2.90822         0.07637
| 18>    H       -0.64288         1.84866         0.07236
| 19>    H        0.24262        -3.38701         0.11752
| 20>    H       -2.56664        -2.13675         0.06226
| 21>    H       -2.15735        -3.92723         0.08657
| 22> *
| 23>
| 24>                          ****END OF INPUT****
 Total Charge           Charge          ....    0
 Multiplicity           Mult            ....    1
 Number of Electrons    NEL             ....   94
Dispersion correction           -0.031366266
FINAL SINGLE POINT ENERGY      -715.904654935050
Dispersion correction            ... done
Dispersion correction           -0.031254067
FINAL SINGLE POINT ENERGY      -715.907153573146
Dispersion correction            ... done
Dispersion correction           -0.031169063
FINAL SINGLE POINT ENERGY      -715.904559366064
Dispersion correction            ... done
FINAL SINGLE POINT ENERGY      -715.907806737099
FINAL SINGLE POINT ENERGY      -715.907428496520
FINAL SINGLE POINT ENERGY      -715.907852922827
FINAL SINGLE POINT ENERGY      -715.907839108248
FINAL SINGLE POINT ENERGY      -715.907878636191
FINAL SINGLE POINT ENERGY      -715.907876455334
Dispersion correction            ... done
Dispersion correction           -0.031250047
FINAL SINGLE POINT ENERGY      -715.907867499822
Dispersion correction            ... done
Dispersion correction           -0.031249877
FINAL SINGLE POINT ENERGY      -715.907864189374
Dispersion correction            ... done
                    ***********************HURRAY********************

CARTESIAN COORDINATES (ANGSTROEM)
---------------------------------
  C     -0.114505    0.908258    0.037210
  O     -0.826686   -0.235961    0.091805
  C      0.023477   -1.301243    0.087295
  C      1.317973   -0.813979    0.041930
  C      1.217901    0.617119   -0.002034
  N      2.253156    1.632130    0.066204
  O      1.971844    2.718444   -0.417450
  O      3.287024    1.341682    0.634699
  N      2.506377   -1.619662   -0.121791
  O      2.474815   -2.756710    0.329018
  O      3.439123   -1.113718   -0.716775
  C     -0.528306   -2.637017    0.095441
  C     -1.845074   -2.899583    0.080773
  H     -0.654329    1.849458    0.059557
  H      0.216167   -3.433529    0.119963
  H     -2.591179   -2.101559    0.063133
  H     -2.207597   -3.929451    0.090151

 Multiplicity           Mult            ....    1
 Number of Electrons    NEL             ....   94
 Basis Dimension        Dim             ....  202

ORBITAL ENERGIES
----------------

  NO   OCC          E(Eh)            E(eV)
   0   2.0000     -19.266054      -524.2560
   1   2.0000     -19.182608      -521.9853
   2   2.0000     -19.182098      -521.9714
   3   2.0000     -19.179962      -521.9133
   4   2.0000     -19.179939      -521.9127
   5   2.0000     -14.585420      -396.8895
   6   2.0000     -14.585287      -396.8858
   7   2.0000     -10.312626      -280.6208
   8   2.0000     -10.307780      -280.4890
   9   2.0000     -10.284453      -279.8542
  10   2.0000     -10.284035      -279.8428
  11   2.0000     -10.237282      -278.5706
  12   2.0000     -10.232586      -278.4428
  13   2.0000      -1.246405       -33.9164
  14   2.0000      -1.242958       -33.8226
  15   2.0000      -1.173926       -31.9442
  16   2.0000      -1.072381       -29.1810
  17   2.0000      -1.069256       -29.0959
  18   2.0000      -0.895792       -24.3757
  19   2.0000      -0.856890       -23.3172
  20   2.0000      -0.804586       -21.8939
  21   2.0000      -0.750896       -20.4329
  22   2.0000      -0.738286       -20.0898
  23   2.0000      -0.662042       -18.0151
  24   2.0000      -0.614870       -16.7315
  25   2.0000      -0.590213       -16.0605
  26   2.0000      -0.572239       -15.5714
  27   2.0000      -0.564804       -15.3691
  28   2.0000      -0.557492       -15.1701
  29   2.0000      -0.555915       -15.1272
  30   2.0000      -0.535828       -14.5806
  31   2.0000      -0.521480       -14.1902
  32   2.0000      -0.516785       -14.0624
  33   2.0000      -0.512230       -13.9385
  34   2.0000      -0.498764       -13.5721
  35   2.0000      -0.473133       -12.8746
  36   2.0000      -0.433491       -11.7959
  37   2.0000      -0.408350       -11.1118
  38   2.0000      -0.360250        -9.8029
  39   2.0000      -0.354167        -9.6374
  40   2.0000      -0.337566        -9.1856
  41   2.0000      -0.329788        -8.9740
  42   2.0000      -0.328968        -8.9517
  43   2.0000      -0.325267        -8.8510
  44   2.0000      -0.316991        -8.6258
  45   2.0000      -0.304679        -8.2907
  46   2.0000      -0.271740        -7.3944
  47   0.0000      -0.114482        -3.1152
  48   0.0000      -0.098760        -2.6874
  49   0.0000      -0.059419        -1.6169
  50   0.0000       0.008020         0.2182
  51   0.0000       0.041403         1.1266

MULLIKEN ATOMIC CHARGES
-----------------------
   0 C :    0.108017
   1 O :   -0.190629
   2 C :    0.090835
   3 C :    0.123932
   4 C :    0.137924
   5 N :    0.250371
   6 O :   -0.241762
   7 O :   -0.210874
   8 N :    0.242416
   9 O :   -0.242125
  10 O :   -0.214150
  11 C :   -0.039050
  12 C :    0.024256
  13 H :    0.040067
  14 H :    0.034438
  15 H :    0.042733
  16 H :    0.043601
Sum of atomic charges:    0.0000000

LOEWDIN ATOMIC CHARGES
----------------------
   0 C :    0.089520
   1 O :    0.033768
   2 C :    0.070567
   3 C :   -0.059149
   4 C :   -0.057463
   5 N :    0.278216
   6 O :   -0.202579
   7 O :   -0.175275
   8 N :    0.278629
   9 O :   -0.204618
  10 O :   -0.178037
  11 C :   -0.043422
  12 C :    0.008170
  13 H :    0.045218
  14 H :    0.046560
  15 H :    0.032221
  16 H :    0.037676

  Mayer bond orders larger than 0.100000
B(  0-C ,  1-O ) :   1.1396 B(  0-C ,  4-C ) :   1.5059 B(  0-C , 13-H ) :   1.0081
B(  1-O ,  2-C ) :   1.1376 B(  2-C ,  3-C ) :   1.4237 B(  2-C , 11-C ) :   1.1524
B(  3-C ,  4-C ) :   1.2265 B(  3-C ,  8-N ) :   0.9112 B(  4-C ,  5-N ) :   0.8850
B(  5-N ,  6-O ) :   1.5097 B(  5-N ,  7-O ) :   1.5480 B(  6-O ,  7-O ) :   0.2975
B(  8-N ,  9-O ) :   1.4847 B(  8-N , 10-O ) :   1.5443 B(  9-O , 10-O ) :   0.2895
B( 11-C , 12-C ) :   1.8690 B( 11-C , 14-H ) :   0.9455 B( 12-C , 15-H ) :   0.9544
B( 12-C , 16-H ) :   0.9428

Dispersion correction           -0.031250256
FINAL SINGLE POINT ENERGY      -715.907861997536

DIPOLE MOMENT
-------------
                                X             Y             Z
Electronic contribution:      7.11312       4.98745      -0.17295
Nuclear contribution   :     -9.48184      -5.43926       0.26097
                        -----------------------------------------
Total Dipole Moment    :     -2.36872      -0.45181       0.08802
                        -----------------------------------------
Magnitude (a.u.)       :      2.41303
Magnitude (Debye)      :      6.13344

Rotational constants in cm-1:     0.043275     0.022621     0.015382
Rotational constants in MHz :  1297.353188   678.157190   461.147382

                             ****ORCA TERMINATED NORMALLY****
TOTAL RUN TIME: 0 days 0 hours 14 minutes 24 seconds 176 msec
