                         Program Version 4.2.0 -  RELEASE  -
|  1> # ORCA input file
|  2> # SCF done        -27.925429515058          0.000323034343
|  3> ! B3LYP/G D3BJ Opt RIJCOSX def2-SVP def2/J
|  4> * xyz 0 1
|  5>    C       -1.48032        -1.25588         0.15580
|  6>    S       -2.64796        -0.01741         0.24253
|  7>    C       -1.46344         1.20966         0.15590
|  8>    C       -0.19341         0.69199         0.06221
|  9>    C       -0.20202        -0.75001         0.06184
| 10>    C        1.01709        -1.45567        -0.02975
| 11>    C        2.18823        -0.74714        -0.11666
| 12>    C        3.42168        -1.42950        -0.21194
| 13>    N        4.42554        -1.97815        -0.29185
| 14>    C        2.19839         0.68081        -0.11503
| 15>    C        1.04133         1.38436        -0.02814
| 16>    H       -1.78332        -2.28340         0.17746
| 17>    H       -1.75753         2.23972         0.17782
| 18>    H        1.01772        -2.53559        -0.03110
| 19>    H        3.15122         1.18402        -0.18481
| 20>    H        1.04083         2.46379        -0.02639
| 21> *
| 22>
| 23>                          ****END OF INPUT****
 Total Charge           Charge          ....    0
 Multiplicity           Mult            ....    1
 Number of Electrons    NEL             ....   82
Dispersion correction           -0.037280222
FINAL SINGLE POINT ENERGY      -798.517281967746
Dispersion correction            ... done
Dispersion correction           -0.037099305
FINAL SINGLE POINT ENERGY      -798.520253672748
Dispersion correction            ... done
Dispersion correction           -0.037072114
FINAL SINGLE POINT ENERGY      -798.520327879945
Dispersion correction            ... done
Dispersion correction           -0.037060367
FINAL SINGLE POINT ENERGY      -798.520309958386
Dispersion correction            ... done
Dispersion correction           -0.037068245
FINAL SINGLE POINT ENERGY      -798.520334013616
Dispersion correction            ... done
                    ***********************HURRAY********************

CARTESIAN COORDINATES (ANGSTROEM)
---------------------------------
  C     -1.500968   -1.269244    0.158865
  S     -2.663834   -0.018654    0.261960
  C     -1.488556    1.226176    0.164305
  C     -0.205903    0.702811    0.056512
  C     -0.212185   -0.752271    0.053238
  C      1.019748   -1.460563   -0.041839
  C      2.202823   -0.752533   -0.120838
  C      3.451855   -1.451937   -0.204812
  N      4.467199   -2.011265   -0.274647
  C      2.208721    0.690470   -0.117325
  C      1.041375    1.397611   -0.036665
  H     -1.805114   -2.313948    0.178755
  H     -1.787323    2.272298    0.189604
  H      1.027055   -2.552136   -0.047981
  H      3.168523    1.204936   -0.182943
  H      1.050616    2.489847   -0.038298

 Multiplicity           Mult            ....    1
 Number of Electrons    NEL             ....   82
 Basis Dimension        Dim             ....  183

ORBITAL ENERGIES
----------------

  NO   OCC          E(Eh)            E(eV)
   0   2.0000     -88.905849     -2419.2511
   1   2.0000     -14.325243      -389.8097
   2   2.0000     -10.239463      -278.6300
   3   2.0000     -10.233327      -278.4630
   4   2.0000     -10.230939      -278.3980
   5   2.0000     -10.225966      -278.2627
   6   2.0000     -10.225558      -278.2516
   7   2.0000     -10.221525      -278.1418
   8   2.0000     -10.220607      -278.1169
   9   2.0000     -10.216471      -278.0043
  10   2.0000     -10.215838      -277.9871
  11   2.0000      -8.000454      -217.7034
  12   2.0000      -5.968080      -162.3997
  13   2.0000      -5.963883      -162.2855
  14   2.0000      -5.963033      -162.2624
  15   2.0000      -0.913039       -24.8450
  16   2.0000      -0.895902       -24.3787
  17   2.0000      -0.852903       -23.2087
  18   2.0000      -0.785795       -21.3826
  19   2.0000      -0.763158       -20.7666
  20   2.0000      -0.722389       -19.6572
  21   2.0000      -0.654609       -17.8128
  22   2.0000      -0.615417       -16.7463
  23   2.0000      -0.594744       -16.1838
  24   2.0000      -0.545304       -14.8385
  25   2.0000      -0.521071       -14.1791
  26   2.0000      -0.495180       -13.4745
  27   2.0000      -0.460090       -12.5197
  28   2.0000      -0.449689       -12.2366
  29   2.0000      -0.431384       -11.7386
  30   2.0000      -0.428253       -11.6534
  31   2.0000      -0.405421       -11.0321
  32   2.0000      -0.386489       -10.5169
  33   2.0000      -0.378069       -10.2878
  34   2.0000      -0.367089        -9.9890
  35   2.0000      -0.356263        -9.6944
  36   2.0000      -0.335875        -9.1396
  37   2.0000      -0.334604        -9.1050
  38   2.0000      -0.307030        -8.3547
  39   2.0000      -0.268473        -7.3055
  40   2.0000      -0.227791        -6.1985
  41   0.0000      -0.086056        -2.3417
  42   0.0000      -0.026104        -0.7103
  43   0.0000       0.002425         0.0660
  44   0.0000       0.030702         0.8354
  45   0.0000       0.036951         1.0055

MULLIKEN ATOMIC CHARGES
-----------------------
   0 C :   -0.131667
   1 S :    0.157187
   2 C :   -0.136762
   3 C :    0.097153
   4 C :    0.100269
   5 C :    0.003398
   6 C :   -0.088891
   7 C :   -0.125190
   8 N :    0.055260
   9 C :    0.042120
  10 C :    0.003779
  11 H :    0.028710
  12 H :    0.025506
  13 H :   -0.009571
  14 H :   -0.006449
  15 H :   -0.014852
Sum of atomic charges:    0.0000000

LOEWDIN ATOMIC CHARGES
----------------------
   0 C :   -0.199625
   1 S :    0.503374
   2 C :   -0.205572
   3 C :   -0.047156
   4 C :   -0.052886
   5 C :    0.021062
   6 C :   -0.072104
   7 C :   -0.026672
   8 N :   -0.070420
   9 C :   -0.008854
  10 C :   -0.010267
  11 H :    0.029445
  12 H :    0.028360
  13 H :    0.039454
  14 H :    0.037637
  15 H :    0.034223

  Mayer bond orders larger than 0.100000
B(  0-C ,  1-S ) :   1.2211 B(  0-C ,  2-C ) :   0.1138 B(  0-C ,  4-C ) :   1.3834
B(  0-C , 11-H ) :   0.9661 B(  1-S ,  2-C ) :   1.2067 B(  2-C ,  3-C ) :   1.4113
B(  2-C , 12-H ) :   0.9652 B(  3-C ,  4-C ) :   1.1958 B(  3-C , 10-C ) :   1.1739
B(  4-C ,  5-C ) :   1.1764 B(  5-C ,  6-C ) :   1.5128 B(  5-C , 13-H ) :   0.9982
B(  6-C ,  7-C ) :   1.0698 B(  6-C ,  9-C ) :   1.1859 B(  7-C ,  8-N ) :   3.0071
B(  9-C , 10-C ) :   1.5499 B(  9-C , 14-H ) :   0.9841 B( 10-C , 15-H ) :   0.9941

Dispersion correction           -0.037068877
FINAL SINGLE POINT ENERGY      -798.520334618179

DIPOLE MOMENT
-------------
                                X             Y             Z
Electronic contribution:     -1.76326      -1.61001       0.15018
Nuclear contribution   :     -0.02110       2.42117      -0.02127
                        -----------------------------------------
Total Dipole Moment    :     -1.78436       0.81116       0.12891
                        -----------------------------------------
Magnitude (a.u.)       :      1.96431
Magnitude (Debye)      :      4.99289

Rotational constants in cm-1:     0.102307     0.018941     0.015983
Rotational constants in MHz :  3067.087620   567.848583   479.151848

                             ****ORCA TERMINATED NORMALLY****
TOTAL RUN TIME: 0 days 0 hours 5 minutes 32 seconds 341 msec
