                         Program Version 4.2.0 -  RELEASE  -
|  1> # ORCA input file
|  2> # SCF done        -21.794080813286          0.000628811962
|  3> ! B3LYP/G D3BJ Opt RIJCOSX def2-SVP def2/J
|  4> * xyz 0 1
|  5>    C       -1.24848        -1.26930        -0.00234
|  6>    S       -2.43399        -0.01421         0.00112
|  7>    C       -1.26523         1.24384         0.00205
|  8>    C       -0.00045         0.72277         0.00089
|  9>    C       -0.00285        -0.71723        -0.00164
| 10>    N        1.30598        -1.09203        -0.00259
| 11>    N        2.11989        -0.01575        -0.00043
| 12>    C        1.38508         1.06005         0.00066
| 13>    H       -1.55410        -2.29443        -0.00424
| 14>    H       -1.58278         2.26614         0.00353
| 15>    H        1.70018        -2.01606        -0.00481
| 16>    H        1.83720         2.03092         0.00153
| 17> *
| 18>
| 19>                          ****END OF INPUT****
 Total Charge           Charge          ....    0
 Multiplicity           Mult            ....    1
 Number of Electrons    NEL             ....   64
Dispersion correction           -0.024040359
FINAL SINGLE POINT ENERGY      -700.276125211486
Dispersion correction            ... done
Dispersion correction           -0.024041277
FINAL SINGLE POINT ENERGY      -700.278063653502
Dispersion correction            ... done
Dispersion correction           -0.024042887
FINAL SINGLE POINT ENERGY      -700.278129019599
Dispersion correction            ... done
Dispersion correction           -0.024040627
FINAL SINGLE POINT ENERGY      -700.278134358648
Dispersion correction            ... done
Dispersion correction           -0.024038358
FINAL SINGLE POINT ENERGY      -700.278139358750
Dispersion correction            ... done
                    ***********************HURRAY********************

CARTESIAN COORDINATES (ANGSTROEM)
---------------------------------
  C     -1.266188   -1.283520   -0.002149
  S     -2.448527   -0.015792    0.000629
  C     -1.280044    1.250855    0.002006
  C     -0.000747    0.723040    0.000720
  C     -0.007135   -0.718582   -0.001616
  N      1.314827   -1.091406   -0.002568
  N      2.145183   -0.017254   -0.001080
  C      1.400124    1.064877    0.000578
  H     -1.574153   -2.326011   -0.004063
  H     -1.602101    2.290092    0.003865
  H      1.711676   -2.019961   -0.004583
  H      1.867534    2.048372    0.001991

 Multiplicity           Mult            ....    1
 Number of Electrons    NEL             ....   64
 Basis Dimension        Dim             ....  136

ORBITAL ENERGIES
----------------

  NO   OCC          E(Eh)            E(eV)
   0   2.0000     -88.883532     -2418.6439
   1   2.0000     -14.391900      -391.6235
   2   2.0000     -14.352492      -390.5512
   3   2.0000     -10.231128      -278.4031
   4   2.0000     -10.218794      -278.0675
   5   2.0000     -10.214009      -277.9373
   6   2.0000     -10.212479      -277.8957
   7   2.0000     -10.197163      -277.4789
   8   2.0000      -7.977739      -217.0853
   9   2.0000      -5.945848      -161.7947
  10   2.0000      -5.941505      -161.6766
  11   2.0000      -5.939609      -161.6250
  12   2.0000      -1.035389       -28.1744
  13   2.0000      -0.879997       -23.9459
  14   2.0000      -0.818222       -22.2650
  15   2.0000      -0.752534       -20.4775
  16   2.0000      -0.714419       -19.4403
  17   2.0000      -0.613135       -16.6843
  18   2.0000      -0.606026       -16.4908
  19   2.0000      -0.568986       -15.4829
  20   2.0000      -0.535293       -14.5661
  21   2.0000      -0.463809       -12.6209
  22   2.0000      -0.449728       -12.2377
  23   2.0000      -0.448815       -12.2129
  24   2.0000      -0.412633       -11.2283
  25   2.0000      -0.383000       -10.4220
  26   2.0000      -0.366338        -9.9686
  27   2.0000      -0.364894        -9.9293
  28   2.0000      -0.294483        -8.0133
  29   2.0000      -0.289243        -7.8707
  30   2.0000      -0.250616        -6.8196
  31   2.0000      -0.210105        -5.7172
  32   0.0000      -0.045162        -1.2289
  33   0.0000       0.035776         0.9735
  34   0.0000       0.045162         1.2289
  35   0.0000       0.060901         1.6572
  36   0.0000       0.082001         2.2313

MULLIKEN ATOMIC CHARGES
-----------------------
   0 C :   -0.202988
   1 S :    0.110520
   2 C :   -0.135030
   3 C :    0.017651
   4 C :    0.184473
   5 N :   -0.073022
   6 N :   -0.086292
   7 C :    0.024544
   8 H :    0.012582
   9 H :    0.024465
  10 H :    0.128556
  11 H :   -0.005460
Sum of atomic charges:    0.0000000

LOEWDIN ATOMIC CHARGES
----------------------
   0 C :   -0.252133
   1 S :    0.461592
   2 C :   -0.203777
   3 C :   -0.097057
   4 C :   -0.027291
   5 N :    0.069185
   6 N :   -0.062424
   7 C :   -0.042532
   8 H :    0.023616
   9 H :    0.026653
  10 H :    0.081949
  11 H :    0.022220

  Mayer bond orders larger than 0.100000
B(  0-C ,  1-S ) :   1.1404 B(  0-C ,  2-C ) :   0.1339 B(  0-C ,  4-C ) :   1.4181
B(  0-C ,  8-H ) :   0.9909 B(  1-S ,  2-C ) :   1.2078 B(  2-C ,  3-C ) :   1.4003
B(  2-C ,  9-H ) :   0.9743 B(  3-C ,  4-C ) :   1.2399 B(  3-C ,  7-C ) :   1.1285
B(  4-C ,  5-N ) :   1.1039 B(  5-N ,  6-N ) :   1.1228 B(  5-N , 10-H ) :   0.9547
B(  6-N ,  7-C ) :   1.7147 B(  7-C , 11-H ) :   0.9972

Dispersion correction           -0.024037521
FINAL SINGLE POINT ENERGY      -700.278139187142

DIPOLE MOMENT
-------------
                                X             Y             Z
Electronic contribution:     -2.15977      -0.48635       0.00066
Nuclear contribution   :      1.77615       0.09534      -0.00147
                        -----------------------------------------
Total Dipole Moment    :     -0.38362      -0.39101      -0.00082
                        -----------------------------------------
Magnitude (a.u.)       :      0.54777
Magnitude (Debye)      :      1.39232

Rotational constants in cm-1:     0.168006     0.049625     0.038309
Rotational constants in MHz :  5036.682536  1487.713868  1148.480575

                             ****ORCA TERMINATED NORMALLY****
TOTAL RUN TIME: 0 days 0 hours 2 minutes 55 seconds 406 msec
