                         Program Version 4.2.0 -  RELEASE  -
|  1> # ORCA input file
|  2> # SCF done        -28.967769185209          0.000741908044
|  3> ! B3LYP/G D3BJ Opt RIJCOSX def2-SVP def2/J
|  4> * xyz 0 1
|  5>    C       -0.53068        -1.18236        -0.65545
|  6>    S       -1.26286         0.47378        -0.95697
|  7>    C       -0.06463         1.32352         0.12740
|  8>    C        1.15524         0.40687         0.20881
|  9>    C        0.56964        -1.00359         0.38026
| 10>    C        1.96624         0.81598         1.45553
| 11>    O        1.69676         0.42463         2.56847
| 12>    N        2.95850         1.67512         1.17285
| 13>    N        1.97203         0.58868        -0.98307
| 14>    H       -0.14467        -1.54587        -1.60902
| 15>    H       -1.31851        -1.85169        -0.31670
| 16>    H       -0.51525         1.46029         1.10981
| 17>    H        0.17564         2.28978        -0.31000
| 18>    H        0.16833        -1.07841         1.39176
| 19>    H        1.34270        -1.76587         0.26342
| 20>    H        3.12022         1.92305         0.20996
| 21>    H        3.55133         2.02120         1.90798
| 22>    H        1.38350         0.56430        -1.81019
| 23>    H        2.65373        -0.15904        -1.06255
| 24> *
| 25>
| 26>                          ****END OF INPUT****
 Total Charge           Charge          ....    0
 Multiplicity           Mult            ....    1
 Number of Electrons    NEL             ....   78
Dispersion correction           -0.037191775
FINAL SINGLE POINT ENERGY      -779.139809625460
Dispersion correction            ... done
Dispersion correction           -0.036954121
FINAL SINGLE POINT ENERGY      -779.141455172787
Dispersion correction            ... done
Dispersion correction           -0.036951659
FINAL SINGLE POINT ENERGY      -779.141691195926
Dispersion correction            ... done
FINAL SINGLE POINT ENERGY      -779.141791691228
FINAL SINGLE POINT ENERGY      -779.141847586983
Dispersion correction            ... done
Dispersion correction           -0.037013477
FINAL SINGLE POINT ENERGY      -779.141879272357
Dispersion correction            ... done
Dispersion correction           -0.037009715
FINAL SINGLE POINT ENERGY      -779.141880281497
Dispersion correction            ... done
                    ***********************HURRAY********************

CARTESIAN COORDINATES (ANGSTROEM)
---------------------------------
  C     -0.503272   -1.197635   -0.673979
  S     -1.258271    0.465905   -0.996479
  C     -0.087286    1.323745    0.133032
  C      1.153176    0.417530    0.219570
  C      0.572335   -0.998404    0.396895
  C      1.965792    0.844183    1.466567
  O      1.636138    0.509897    2.592070
  N      3.012747    1.651025    1.178442
  N      1.946184    0.592547   -0.999840
  H     -0.074630   -1.566841   -1.617960
  H     -1.285354   -1.898956   -0.352234
  H     -0.529502    1.448510    1.130438
  H      0.166176    2.310936   -0.279044
  H      0.144062   -1.069759    1.406309
  H      1.364908   -1.761352    0.316997
  H      3.204229    1.851971    0.202261
  H      3.584459    2.010403    1.931437
  H      1.319633    0.664106   -1.803653
  H      2.545734   -0.217443   -1.158529

 Multiplicity           Mult            ....    1
 Number of Electrons    NEL             ....   78
 Basis Dimension        Dim             ....  180

ORBITAL ENERGIES
----------------

  NO   OCC          E(Eh)            E(eV)
   0   2.0000     -88.831764     -2417.2352
   1   2.0000     -19.093373      -519.5571
   2   2.0000     -14.343757      -390.3135
   3   2.0000     -14.327770      -389.8784
   4   2.0000     -10.280206      -279.7386
   5   2.0000     -10.236766      -278.5566
   6   2.0000     -10.217006      -278.0189
   7   2.0000     -10.216672      -278.0098
   8   2.0000     -10.195967      -277.4464
   9   2.0000      -7.926975      -215.7040
  10   2.0000      -5.896581      -160.4541
  11   2.0000      -5.892555      -160.3446
  12   2.0000      -5.885152      -160.1431
  13   2.0000      -1.019622       -27.7453
  14   2.0000      -0.916095       -24.9282
  15   2.0000      -0.884073       -24.0568
  16   2.0000      -0.815342       -22.1866
  17   2.0000      -0.730545       -19.8791
  18   2.0000      -0.718172       -19.5425
  19   2.0000      -0.619914       -16.8687
  20   2.0000      -0.583729       -15.8841
  21   2.0000      -0.555705       -15.1215
  22   2.0000      -0.540648       -14.7118
  23   2.0000      -0.504955       -13.7405
  24   2.0000      -0.491509       -13.3746
  25   2.0000      -0.469885       -12.7862
  26   2.0000      -0.458056       -12.4643
  27   2.0000      -0.415824       -11.3151
  28   2.0000      -0.410691       -11.1755
  29   2.0000      -0.401315       -10.9203
  30   2.0000      -0.376729       -10.2513
  31   2.0000      -0.370033       -10.0691
  32   2.0000      -0.364676        -9.9233
  33   2.0000      -0.352408        -9.5895
  34   2.0000      -0.314865        -8.5679
  35   2.0000      -0.278631        -7.5819
  36   2.0000      -0.268741        -7.3128
  37   2.0000      -0.241677        -6.5764
  38   2.0000      -0.222934        -6.0663
  39   0.0000       0.014316         0.3896
  40   0.0000       0.030965         0.8426
  41   0.0000       0.051513         1.4017
  42   0.0000       0.072206         1.9648
  43   0.0000       0.075415         2.0521

MULLIKEN ATOMIC CHARGES
-----------------------
   0 C :   -0.021579
   1 S :   -0.117897
   2 C :    0.050408
   3 C :   -0.266142
   4 C :    0.100031
   5 C :    0.069077
   6 O :   -0.243388
   7 N :   -0.050721
   8 N :   -0.154813
   9 H :    0.028457
  10 H :    0.047377
  11 H :    0.058271
  12 H :    0.036151
  13 H :    0.029711
  14 H :    0.004190
  15 H :    0.119107
  16 H :    0.120354
  17 H :    0.094523
  18 H :    0.096885
Sum of atomic charges:   -0.0000000

LOEWDIN ATOMIC CHARGES
----------------------
   0 C :   -0.122222
   1 S :    0.183161
   2 C :   -0.108838
   3 C :   -0.049423
   4 C :   -0.037613
   5 C :    0.055233
   6 O :   -0.227356
   7 N :    0.004620
   8 N :   -0.091490
   9 H :    0.011473
  10 H :    0.025084
  11 H :    0.026527
  12 H :    0.022588
  13 H :    0.033736
  14 H :    0.024372
  15 H :    0.065969
  16 H :    0.076497
  17 H :    0.050897
  18 H :    0.056787

  Mayer bond orders larger than 0.100000
B(  0-C ,  1-S ) :   0.9896 B(  0-C ,  4-C ) :   1.0610 B(  0-C ,  9-H ) :   0.9437
B(  0-C , 10-H ) :   0.9482 B(  1-S ,  2-C ) :   0.9924 B(  2-C ,  3-C ) :   0.9895
B(  2-C , 11-H ) :   0.9449 B(  2-C , 12-H ) :   0.9390 B(  3-C ,  4-C ) :   1.0322
B(  3-C ,  5-C ) :   0.8486 B(  3-C ,  8-N ) :   1.0623 B(  4-C , 13-H ) :   0.9163
B(  4-C , 14-H ) :   0.9363 B(  5-C ,  6-O ) :   2.0997 B(  5-C ,  7-N ) :   1.3301
B(  7-N , 15-H ) :   0.9021 B(  7-N , 16-H ) :   0.9360 B(  8-N , 17-H ) :   0.9444
B(  8-N , 18-H ) :   0.9646

Dispersion correction           -0.037006555
FINAL SINGLE POINT ENERGY      -779.141881013751

DIPOLE MOMENT
-------------
                                X             Y             Z
Electronic contribution:     -2.40440       2.17944       1.17447
Nuclear contribution   :      3.27121      -2.24337      -2.08695
                        -----------------------------------------
Total Dipole Moment    :      0.86681      -0.06393      -0.91248
                        -----------------------------------------
Magnitude (a.u.)       :      1.26018
Magnitude (Debye)      :      3.20313

Rotational constants in cm-1:     0.088020     0.031873     0.030477
Rotational constants in MHz :  2638.767064   955.531085   913.675787

                             ****ORCA TERMINATED NORMALLY****
TOTAL RUN TIME: 0 days 0 hours 6 minutes 57 seconds 234 msec
