                         Program Version 4.2.0 -  RELEASE  -
|  1> # ORCA input file
|  2> # SCF done        -39.820685515487          0.000519586058
|  3> ! B3LYP/G D3BJ Opt RIJCOSX def2-SVP def2/J
|  4> * xyz 0 1
|  5>    C        1.46213         1.13058        -0.07334
|  6>    S        2.61884        -0.13408         0.04187
|  7>    C        1.36577        -1.30585         0.14302
|  8>    C        0.12539        -0.75099         0.09221
|  9>    C        0.18139         0.66931        -0.03600
| 10>    C       -1.05221         1.51570        -0.16907
| 11>    C       -2.30882         0.75985         0.27566
| 12>    C       -2.46959         0.63258         1.78643
| 13>    O       -3.53620         0.45306         2.30119
| 14>    O       -1.35389         0.70602         2.52465
| 15>    C       -2.33815        -0.66640        -0.33750
| 16>    O       -2.34700        -0.62381        -1.74011
| 17>    C       -1.16789        -1.50010         0.20009
| 18>    H        1.79260         2.14555        -0.17033
| 19>    H        1.61804        -2.34273         0.23902
| 20>    H       -1.17685         1.80530        -1.21809
| 21>    H       -0.94636         2.44647         0.39625
| 22>    H       -3.19760         1.28395        -0.08825
| 23>    H       -0.55361         0.79599         1.98283
| 24>    H       -3.28512        -1.14004        -0.05958
| 25>    H       -1.47237        -0.35715        -2.04742
| 26>    H       -1.11053        -2.43663        -0.35893
| 27>    H       -1.36043        -1.75538         1.24633
| 28> *
| 29>
| 30>                          ****END OF INPUT****
 Total Charge           Charge          ....    0
 Multiplicity           Mult            ....    1
 Number of Electrons    NEL             ....  104
Dispersion correction           -0.052624643
FINAL SINGLE POINT ENERGY      -972.361606609285
Dispersion correction            ... done
Dispersion correction           -0.052071371
FINAL SINGLE POINT ENERGY      -972.363787227077
Dispersion correction            ... done
Dispersion correction           -0.052056820
FINAL SINGLE POINT ENERGY      -972.363917921887
Dispersion correction            ... done
FINAL SINGLE POINT ENERGY      -972.363999107468
FINAL SINGLE POINT ENERGY      -972.364080417762
FINAL SINGLE POINT ENERGY      -972.364133034609
FINAL SINGLE POINT ENERGY      -972.364165482850
FINAL SINGLE POINT ENERGY      -972.364178762717
FINAL SINGLE POINT ENERGY      -972.364197200206
FINAL SINGLE POINT ENERGY      -972.364216923779
Dispersion correction            ... done
Dispersion correction           -0.052153266
FINAL SINGLE POINT ENERGY      -972.364230289967
Dispersion correction            ... done
Dispersion correction           -0.052155652
FINAL SINGLE POINT ENERGY      -972.364244320031
Dispersion correction            ... done
                    ***********************HURRAY********************

CARTESIAN COORDINATES (ANGSTROEM)
---------------------------------
  C      1.490187    1.152643   -0.018270
  S      2.645716   -0.128709    0.030897
  C      1.396401   -1.321437    0.063850
  C      0.141841   -0.759638    0.048021
  C      0.195811    0.682124   -0.020109
  C     -1.053906    1.519789   -0.172982
  C     -2.312053    0.769249    0.287709
  C     -2.501081    0.668546    1.798366
  O     -3.581783    0.508432    2.298683
  O     -1.389813    0.710099    2.567019
  C     -2.341624   -0.659082   -0.325038
  O     -2.357922   -0.584878   -1.736347
  C     -1.167190   -1.500156    0.186988
  H      1.821211    2.188456   -0.080463
  H      1.651924   -2.378038    0.130604
  H     -1.190917    1.768668   -1.238568
  H     -0.953500    2.483612    0.350153
  H     -3.205591    1.287989   -0.084613
  H     -0.585808    0.797087    2.027813
  H     -3.288368   -1.131599   -0.022713
  H     -1.445859   -0.536563   -2.052929
  H     -1.143294   -2.456860   -0.355908
  H     -1.336840   -1.748534    1.248765

 Multiplicity           Mult            ....    1
 Number of Electrons    NEL             ....  104
 Basis Dimension        Dim             ....  236

ORBITAL ENERGIES
----------------

  NO   OCC          E(Eh)            E(eV)
   0   2.0000     -88.893194     -2418.9068
   1   2.0000     -19.177364      -521.8426
   2   2.0000     -19.144445      -520.9468
   3   2.0000     -19.115020      -520.1461
   4   2.0000     -10.313114      -280.6341
   5   2.0000     -10.255135      -279.0564
   6   2.0000     -10.230892      -278.3967
   7   2.0000     -10.228085      -278.3203
   8   2.0000     -10.219360      -278.0829
   9   2.0000     -10.218332      -278.0549
  10   2.0000     -10.217683      -278.0373
  11   2.0000     -10.211307      -277.8638
  12   2.0000     -10.210533      -277.8427
  13   2.0000      -7.988200      -217.3700
  14   2.0000      -5.956209      -162.0767
  15   2.0000      -5.952041      -161.9633
  16   2.0000      -5.949889      -161.9047
  17   2.0000      -1.088243       -29.6126
  18   2.0000      -1.027201       -27.9516
  19   2.0000      -1.005617       -27.3642
  20   2.0000      -0.902977       -24.5712
  21   2.0000      -0.830281       -22.5931
  22   2.0000      -0.781917       -21.2770
  23   2.0000      -0.753890       -20.5144
  24   2.0000      -0.714136       -19.4326
  25   2.0000      -0.660861       -17.9829
  26   2.0000      -0.630958       -17.1692
  27   2.0000      -0.607647       -16.5349
  28   2.0000      -0.591303       -16.0902
  29   2.0000      -0.554325       -15.0839
  30   2.0000      -0.528060       -14.3692
  31   2.0000      -0.512082       -13.9345
  32   2.0000      -0.489620       -13.3232
  33   2.0000      -0.479051       -13.0356
  34   2.0000      -0.463300       -12.6070
  35   2.0000      -0.445157       -12.1133
  36   2.0000      -0.437687       -11.9101
  37   2.0000      -0.426637       -11.6094
  38   2.0000      -0.423701       -11.5295
  39   2.0000      -0.420313       -11.4373
  40   2.0000      -0.416865       -11.3435
  41   2.0000      -0.390244       -10.6191
  42   2.0000      -0.379990       -10.3401
  43   2.0000      -0.372175       -10.1274
  44   2.0000      -0.366985        -9.9862
  45   2.0000      -0.354585        -9.6488
  46   2.0000      -0.334287        -9.0964
  47   2.0000      -0.316705        -8.6180
  48   2.0000      -0.290808        -7.9133
  49   2.0000      -0.271236        -7.3807
  50   2.0000      -0.263428        -7.1682
  51   2.0000      -0.256840        -6.9890
  52   0.0000      -0.043886        -1.1942
  53   0.0000       0.004103         0.1116
  54   0.0000       0.015777         0.4293
  55   0.0000       0.031254         0.8505
  56   0.0000       0.043645         1.1876

MULLIKEN ATOMIC CHARGES
-----------------------
   0 C :   -0.119868
   1 S :    0.120640
   2 C :   -0.124331
   3 C :   -0.076143
   4 C :   -0.152635
   5 C :    0.145557
   6 C :   -0.070170
   7 C :    0.135738
   8 O :   -0.192247
   9 O :   -0.167579
  10 C :    0.127959
  11 O :   -0.288812
  12 C :    0.145710
  13 H :    0.023189
  14 H :    0.022095
  15 H :    0.025666
  16 H :    0.014875
  17 H :    0.021076
  18 H :    0.180957
  19 H :    0.011435
  20 H :    0.169148
  21 H :    0.009044
  22 H :    0.038694
Sum of atomic charges:   -0.0000000

LOEWDIN ATOMIC CHARGES
----------------------
   0 C :   -0.196604
   1 S :    0.448624
   2 C :   -0.193964
   3 C :   -0.084429
   4 C :   -0.103262
   5 C :   -0.029602
   6 C :   -0.074270
   7 C :    0.078119
   8 O :   -0.161352
   9 O :   -0.033741
  10 C :    0.079158
  11 O :   -0.120047
  12 C :   -0.038518
  13 H :    0.026781
  14 H :    0.027065
  15 H :    0.038990
  16 H :    0.032483
  17 H :    0.045837
  18 H :    0.081923
  19 H :    0.026905
  20 H :    0.073062
  21 H :    0.034715
  22 H :    0.042126

  Mayer bond orders larger than 0.100000
B(  0-C ,  1-S ) :   1.1811 B(  0-C ,  4-C ) :   1.5256 B(  0-C , 13-H ) :   0.9662
B(  1-S ,  2-C ) :   1.1727 B(  2-C ,  3-C ) :   1.5519 B(  2-C , 14-H ) :   0.9640
B(  3-C ,  4-C ) :   1.2710 B(  3-C , 12-C ) :   1.0125 B(  4-C ,  5-C ) :   1.0153
B(  5-C ,  6-C ) :   1.0039 B(  5-C , 15-H ) :   0.9009 B(  5-C , 16-H ) :   0.9298
B(  6-C ,  7-C ) :   0.9152 B(  6-C , 10-C ) :   0.9807 B(  6-C , 17-H ) :   0.8867
B(  7-C ,  8-O ) :   2.1564 B(  7-C ,  9-O ) :   1.1933 B(  9-O , 18-H ) :   0.9449
B( 10-C , 11-O ) :   1.0653 B( 10-C , 12-C ) :   1.0608 B( 10-C , 19-H ) :   0.9218
B( 11-O , 20-H ) :   0.9740 B( 12-C , 21-H ) :   0.9085 B( 12-C , 22-H ) :   0.9047

Dispersion correction           -0.052158169
FINAL SINGLE POINT ENERGY      -972.364250496296

DIPOLE MOMENT
-------------
                                X             Y             Z
Electronic contribution:      5.38762       0.36787       2.50956
Nuclear contribution   :     -3.76088      -0.34202      -3.49675
                        -----------------------------------------
Total Dipole Moment    :      1.62674       0.02585      -0.98719
                        -----------------------------------------
Magnitude (a.u.)       :      1.90302
Magnitude (Debye)      :      4.83710

Rotational constants in cm-1:     0.041901     0.017353     0.015246
Rotational constants in MHz :  1256.153364   520.235033   457.066615

                             ****ORCA TERMINATED NORMALLY****
TOTAL RUN TIME: 0 days 0 hours 20 minutes 45 seconds 899 msec
