                         Program Version 4.2.0 -  RELEASE  -
|  1> # ORCA input file
|  2> # SCF done        -30.637369366386          0.000854677811
|  3> ! B3LYP/G D3BJ Opt RIJCOSX def2-SVP def2/J
|  4> * xyz 0 1
|  5>    N        0.85981         1.39818        -0.28554
|  6>    C        1.31995         0.55057         0.79280
|  7>    N        1.34012        -0.79939         0.22891
|  8>    C        0.21716        -0.89487        -0.68036
|  9>    C       -0.10812         0.59123        -1.02012
| 10>    N       -1.45801         0.75251        -0.53928
| 11>    C       -1.79118        -0.33649         0.36178
| 12>    N       -0.98534        -1.45849        -0.07353
| 13>    C       -2.00785         2.00536        -0.40439
| 14>    C       -3.04753         2.33053         0.35501
| 15>    H        1.63336         1.64440        -0.89165
| 16>    H        0.62400         0.65562         1.64072
| 17>    H        2.32152         0.83397         1.12332
| 18>    H        1.30443        -1.52412         0.93463
| 19>    H        0.51577        -1.49035        -1.54882
| 20>    H       -0.06606         0.82875        -2.08806
| 21>    H       -2.85851        -0.56609         0.30654
| 22>    H       -1.54021        -0.08843         1.40719
| 23>    H       -1.48967        -2.01572        -0.75245
| 24>    H       -1.52676         2.74158        -1.03300
| 25>    H       -3.54369         1.62709         0.99896
| 26>    H       -3.43955         3.33006         0.33940
| 27> *
| 28>
| 29>                          ****END OF INPUT****
 Total Charge           Charge          ....    0
 Multiplicity           Mult            ....    1
 Number of Electrons    NEL             ....   76
Dispersion correction           -0.039571078
FINAL SINGLE POINT ENERGY      -454.523950465913
Dispersion correction            ... done
Dispersion correction           -0.039225664
FINAL SINGLE POINT ENERGY      -454.526386351723
Dispersion correction            ... done
Dispersion correction           -0.039254883
FINAL SINGLE POINT ENERGY      -454.526577758679
Dispersion correction            ... done
FINAL SINGLE POINT ENERGY      -454.526532844576
FINAL SINGLE POINT ENERGY      -454.526486590047
FINAL SINGLE POINT ENERGY      -454.526520307913
FINAL SINGLE POINT ENERGY      -454.526625476002
FINAL SINGLE POINT ENERGY      -454.526699729267
Dispersion correction            ... done
Dispersion correction           -0.039569230
FINAL SINGLE POINT ENERGY      -454.526728983221
Dispersion correction            ... done
Dispersion correction           -0.039555084
FINAL SINGLE POINT ENERGY      -454.526739276207
Dispersion correction            ... done
                    ***********************HURRAY********************

CARTESIAN COORDINATES (ANGSTROEM)
---------------------------------
  N      0.907980    1.395140   -0.482199
  C      1.266895    0.704517    0.746251
  N      1.249678   -0.721020    0.388924
  C      0.235739   -0.930647   -0.638785
  C     -0.093201    0.535124   -1.093812
  N     -1.425375    0.735000   -0.537107
  C     -1.862233   -0.412980    0.246340
  N     -1.009512   -1.516545   -0.156438
  C     -1.920534    1.996923   -0.287847
  C     -2.946627    2.305673    0.529762
  H      1.718133    1.455873   -1.098196
  H      0.529172    0.970738    1.530440
  H      2.258535    1.030196    1.099056
  H      1.110654   -1.350450    1.175949
  H      0.625741   -1.561546   -1.455037
  H     -0.084821    0.683274   -2.187713
  H     -2.925225   -0.645822    0.057951
  H     -1.760038   -0.196533    1.331624
  H     -1.450689   -2.045109   -0.905261
  H     -1.383154    2.785658   -0.821987
  H     -3.496955    1.555931    1.100891
  H     -3.270523    3.342505    0.629254

 Multiplicity           Mult            ....    1
 Number of Electrons    NEL             ....   76
 Basis Dimension        Dim             ....  200

ORBITAL ENERGIES
----------------

  NO   OCC          E(Eh)            E(eV)
   0   2.0000     -14.333546      -390.0356
   1   2.0000     -14.321090      -389.6967
   2   2.0000     -14.318686      -389.6313
   3   2.0000     -14.306936      -389.3115
   4   2.0000     -10.248276      -278.8698
   5   2.0000     -10.242663      -278.7170
   6   2.0000     -10.242021      -278.6996
   7   2.0000     -10.234859      -278.5047
   8   2.0000     -10.207555      -277.7617
   9   2.0000     -10.153860      -276.3006
  10   2.0000      -0.992662       -27.0117
  11   2.0000      -0.924012       -25.1436
  12   2.0000      -0.891342       -24.2546
  13   2.0000      -0.826810       -22.4987
  14   2.0000      -0.741066       -20.1654
  15   2.0000      -0.718133       -19.5414
  16   2.0000      -0.646260       -17.5856
  17   2.0000      -0.619517       -16.8579
  18   2.0000      -0.597158       -16.2495
  19   2.0000      -0.545780       -14.8514
  20   2.0000      -0.545044       -14.8314
  21   2.0000      -0.514981       -14.0134
  22   2.0000      -0.500494       -13.6191
  23   2.0000      -0.472379       -12.8541
  24   2.0000      -0.461131       -12.5480
  25   2.0000      -0.432510       -11.7692
  26   2.0000      -0.413249       -11.2451
  27   2.0000      -0.407484       -11.0882
  28   2.0000      -0.396974       -10.8022
  29   2.0000      -0.390769       -10.6334
  30   2.0000      -0.388316       -10.5666
  31   2.0000      -0.370854       -10.0914
  32   2.0000      -0.355622        -9.6770
  33   2.0000      -0.307880        -8.3778
  34   2.0000      -0.270921        -7.3721
  35   2.0000      -0.239103        -6.5063
  36   2.0000      -0.224876        -6.1192
  37   2.0000      -0.194952        -5.3049
  38   0.0000       0.032971         0.8972
  39   0.0000       0.045651         1.2422
  40   0.0000       0.063196         1.7196
  41   0.0000       0.073649         2.0041
  42   0.0000       0.096656         2.6301

MULLIKEN ATOMIC CHARGES
-----------------------
   0 N :   -0.206231
   1 C :    0.247829
   2 N :   -0.242217
   3 C :    0.061322
   4 C :    0.081818
   5 N :   -0.316509
   6 C :    0.261315
   7 N :   -0.207901
   8 C :    0.109951
   9 C :   -0.111316
  10 H :    0.100873
  11 H :    0.002317
  12 H :    0.000793
  13 H :    0.100829
  14 H :   -0.008495
  15 H :    0.001259
  16 H :    0.013540
  17 H :    0.001970
  18 H :    0.100552
  19 H :   -0.002285
  20 H :    0.005043
  21 H :    0.005544
Sum of atomic charges:   -0.0000000

LOEWDIN ATOMIC CHARGES
----------------------
   0 N :   -0.098131
   1 C :    0.078645
   2 N :   -0.130572
   3 C :    0.047325
   4 C :    0.059839
   5 N :   -0.083367
   6 C :    0.091051
   7 N :   -0.106041
   8 C :    0.025806
   9 C :   -0.162521
  10 H :    0.059518
  11 H :    0.000553
  12 H :    0.011628
  13 H :    0.056308
  14 H :    0.008023
  15 H :    0.009774
  16 H :    0.014785
  17 H :    0.000190
  18 H :    0.060003
  19 H :    0.023206
  20 H :    0.012665
  21 H :    0.021313

  Mayer bond orders larger than 0.100000
B(  0-N ,  1-C ) :   1.0374 B(  0-N ,  4-C ) :   1.1441 B(  0-N , 10-H ) :   0.9411
B(  1-C ,  2-N ) :   1.0163 B(  1-C , 11-H ) :   0.9400 B(  1-C , 12-H ) :   0.9530
B(  2-N ,  3-C ) :   1.1100 B(  2-N , 13-H ) :   0.9280 B(  3-C ,  4-C ) :   1.0055
B(  3-C ,  7-N ) :   1.1174 B(  3-C , 14-H ) :   0.9173 B(  4-C ,  5-N ) :   1.0011
B(  4-C , 15-H ) :   0.9163 B(  5-N ,  6-C ) :   0.9680 B(  5-N ,  8-C ) :   1.1306
B(  6-C ,  7-N ) :   1.0443 B(  6-C , 16-H ) :   0.9479 B(  6-C , 17-H ) :   0.9343
B(  7-N , 18-H ) :   0.9428 B(  8-C ,  9-C ) :   1.8669 B(  8-C , 19-H ) :   0.9566
B(  9-C , 20-H ) :   0.9521 B(  9-C , 21-H ) :   0.9467

Dispersion correction           -0.039552059
FINAL SINGLE POINT ENERGY      -454.526739108020

DIPOLE MOMENT
-------------
                                X             Y             Z
Electronic contribution:      1.84172      -1.71081      -2.16473
Nuclear contribution   :     -1.51489       1.22636       1.75548
                        -----------------------------------------
Total Dipole Moment    :      0.32683      -0.48446      -0.40924
                        -----------------------------------------
Magnitude (a.u.)       :      0.71344
Magnitude (Debye)      :      1.81342

Rotational constants in cm-1:     0.074861     0.041725     0.032667
Rotational constants in MHz :  2244.286226  1250.891064   979.325674

                             ****ORCA TERMINATED NORMALLY****
TOTAL RUN TIME: 0 days 0 hours 12 minutes 24 seconds 572 msec
