                         Program Version 4.2.0 -  RELEASE  -
|  1> # ORCA input file
|  2> # SCF done         -9.428527313395          0.000331438111
|  3> ! B3LYP/G D3BJ Opt RIJCOSX def2-SVP def2/J
|  4> * xyz 0 1
|  5>    C        1.25523        -0.05748         0.03210
|  6>    C        2.45910        -0.05748         0.03210
|  7>    C        3.81916        -0.05748         0.03210
|  8>    C        5.02303        -0.05748         0.03210
|  9>    H        0.20695        -0.05748         0.03210
| 10>    H        6.07131        -0.05748         0.03210
| 11> *
| 12>
| 13>                          ****END OF INPUT****
 Total Charge           Charge          ....    0
 Multiplicity           Mult            ....    1
 Number of Electrons    NEL             ....   26
Dispersion correction           -0.006059250
FINAL SINGLE POINT ENERGY      -153.378115195280
Dispersion correction            ... done
Dispersion correction           -0.006014664
FINAL SINGLE POINT ENERGY      -153.379957046655
Dispersion correction            ... done
Dispersion correction           -0.006011134
FINAL SINGLE POINT ENERGY      -153.379972275965
Dispersion correction            ... done
                    ***********************HURRAY********************

CARTESIAN COORDINATES (ANGSTROEM)
---------------------------------
  C      1.235906   -0.057480    0.032100
  C      2.452751   -0.057480    0.032100
  C      3.825509   -0.057480    0.032100
  C      5.042354   -0.057480    0.032100
  H      0.162089   -0.057480    0.032100
  H      6.116171   -0.057480    0.032100

 Multiplicity           Mult            ....    1
 Number of Electrons    NEL             ....   26
 Basis Dimension        Dim             ....   66

ORBITAL ENERGIES
----------------

  NO   OCC          E(Eh)            E(eV)
   0   2.0000     -10.221130      -278.1311
   1   2.0000     -10.220827      -278.1229
   2   2.0000     -10.215099      -277.9670
   3   2.0000     -10.214938      -277.9626
   4   2.0000      -0.796323       -21.6690
   5   2.0000      -0.739961       -20.1354
   6   2.0000      -0.630503       -17.1569
   7   2.0000      -0.538534       -14.6542
   8   2.0000      -0.518163       -14.0999
   9   2.0000      -0.359975        -9.7954
  10   2.0000      -0.359975        -9.7954
  11   2.0000      -0.268304        -7.3009
  12   2.0000      -0.268304        -7.3009
  13   0.0000      -0.034007        -0.9254
  14   0.0000      -0.034007        -0.9254
  15   0.0000       0.079967         2.1760
  16   0.0000       0.085680         2.3315
  17   0.0000       0.144192         3.9237

MULLIKEN ATOMIC CHARGES
-----------------------
   0 C :   -0.384833
   1 C :    0.355535
   2 C :    0.355535
   3 C :   -0.384845
   4 H :    0.029304
   5 H :    0.029304
Sum of atomic charges:    0.0000000

LOEWDIN ATOMIC CHARGES
----------------------
   0 C :   -0.017652
   1 C :   -0.028098
   2 C :   -0.028098
   3 C :   -0.017652
   4 H :    0.045751
   5 H :    0.045750

  Mayer bond orders larger than 0.100000
B(  0-C ,  1-C ) :   2.2409 B(  0-C ,  3-C ) :   0.2619 B(  0-C ,  4-H ) :   1.0787
B(  1-C ,  2-C ) :   0.9005 B(  2-C ,  3-C ) :   2.2409 B(  3-C ,  5-H ) :   1.0787

Dispersion correction           -0.006010875
FINAL SINGLE POINT ENERGY      -153.379972600540

DIPOLE MOMENT
-------------
                                X             Y             Z
Electronic contribution:     -0.00000      -0.00000      -0.00000
Nuclear contribution   :     -0.00000       0.00000      -0.00000
                        -----------------------------------------
Total Dipole Moment    :     -0.00000      -0.00000      -0.00000
                        -----------------------------------------
Magnitude (a.u.)       :      0.00000
Magnitude (Debye)      :      0.00001

Rotational constants in cm-1:     0.000000     0.145076     0.145076
Rotational constants in MHz :     0.000000  4349.279067  4349.279067

                             ****ORCA TERMINATED NORMALLY****
TOTAL RUN TIME: 0 days 0 hours 0 minutes 26 seconds 691 msec
