                         Program Version 4.2.0 -  RELEASE  -
|  1> # ORCA input file
|  2> # SCF done        -44.541938857094          0.000798926752
|  3> ! B3LYP/G D3BJ Opt RIJCOSX def2-SVP def2/J
|  4> * xyz 0 1
|  5>    C       -1.49734         1.31381         0.25634
|  6>    S       -2.63639         0.05359         0.36854
|  7>    C       -1.43414        -1.17566         0.19145
|  8>    C       -0.17124        -0.60184         0.04733
|  9>    C       -0.21782         0.83505         0.08786
| 10>    C        0.99555         1.56502        -0.04241
| 11>    C        0.93390         3.06038         0.00195
| 12>    F        0.17134         3.57373        -0.98579
| 13>    F        0.39746         3.52091         1.15090
| 14>    F        2.13436         3.64527        -0.11044
| 15>    C        2.17781         0.90206        -0.20492
| 16>    C        2.21183        -0.50832        -0.24461
| 17>    C        1.07278        -1.24770        -0.12226
| 18>    C       -1.76630        -2.57000         0.20370
| 19>    C       -2.99311        -3.06209         0.37114
| 20>    H       -1.82475         2.33175         0.31992
| 21>    H        3.09882         1.45568        -0.30353
| 22>    H        3.16521        -0.99621        -0.37409
| 23>    H        1.11458        -2.32546        -0.15357
| 24>    H       -0.93048        -3.24296         0.06603
| 25>    H       -3.84424        -2.41768         0.51432
| 26>    H       -3.17966        -4.12083         0.37308
| 27> *
| 28>
| 29>                          ****END OF INPUT****
 Total Charge           Charge          ....    0
 Multiplicity           Mult            ....    1
 Number of Electrons    NEL             ....  116
Dispersion correction           -0.050081073
FINAL SINGLE POINT ENERGY     -1120.492999887048
Dispersion correction            ... done
Dispersion correction           -0.049792957
FINAL SINGLE POINT ENERGY     -1120.496120389695
Dispersion correction            ... done
Dispersion correction           -0.049710855
FINAL SINGLE POINT ENERGY     -1120.496110475469
Dispersion correction            ... done
FINAL SINGLE POINT ENERGY     -1120.495935109554
FINAL SINGLE POINT ENERGY     -1120.496037508184
FINAL SINGLE POINT ENERGY     -1120.496029970154
Dispersion correction            ... done
Dispersion correction           -0.049727949
FINAL SINGLE POINT ENERGY     -1120.496018801049
Dispersion correction            ... done
Dispersion correction           -0.049723323
FINAL SINGLE POINT ENERGY     -1120.496018600743
Dispersion correction            ... done
                    ***********************HURRAY********************

CARTESIAN COORDINATES (ANGSTROEM)
---------------------------------
  C     -1.495405    1.334145    0.418284
  S     -2.628192    0.058079    0.552720
  C     -1.443171   -1.176267    0.287314
  C     -0.174600   -0.594145    0.117999
  C     -0.212672    0.856308    0.178912
  C      1.005139    1.595718   -0.010515
  C      0.952430    3.098082   -0.082887
  F      0.227109    3.507040   -1.143977
  F      0.368984    3.642545    1.007369
  F      2.168536    3.651166   -0.203445
  C      2.184672    0.917852   -0.195819
  C      2.220166   -0.510730   -0.229275
  C      1.072969   -1.252244   -0.095438
  C     -1.789340   -2.583035    0.234795
  C     -3.026012   -3.111304    0.252603
  H     -1.814345    2.366796    0.534539
  H      3.107690    1.479603   -0.342313
  H      3.177137   -1.012063   -0.388394
  H      1.112214   -2.342465   -0.151582
  H     -0.932311   -3.260137    0.157376
  H     -3.921570   -2.485523    0.308207
  H     -3.181259   -4.190921    0.204467

 Multiplicity           Mult            ....    1
 Number of Electrons    NEL             ....  116
 Basis Dimension        Dim             ....  249

ORBITAL ENERGIES
----------------

  NO   OCC          E(Eh)            E(eV)
   0   2.0000     -88.894633     -2418.9460
   1   2.0000     -24.720899      -672.6899
   2   2.0000     -24.715678      -672.5478
   3   2.0000     -24.713238      -672.4814
   4   2.0000     -10.433700      -283.9154
   5   2.0000     -10.230534      -278.3870
   6   2.0000     -10.224943      -278.2348
   7   2.0000     -10.220071      -278.1023
   8   2.0000     -10.217378      -278.0290
   9   2.0000     -10.215044      -277.9655
  10   2.0000     -10.214267      -277.9443
  11   2.0000     -10.213837      -277.9326
  12   2.0000     -10.213404      -277.9209
  13   2.0000     -10.207948      -277.7724
  14   2.0000     -10.198791      -277.5232
  15   2.0000      -7.989394      -217.4025
  16   2.0000      -5.957095      -162.1008
  17   2.0000      -5.953004      -161.9895
  18   2.0000      -5.951615      -161.9517
  19   2.0000      -1.295833       -35.2614
  20   2.0000      -1.206006       -32.8171
  21   2.0000      -1.199477       -32.6394
  22   2.0000      -0.907805       -24.7026
  23   2.0000      -0.850584       -23.1456
  24   2.0000      -0.802902       -21.8481
  25   2.0000      -0.780610       -21.2415
  26   2.0000      -0.747910       -20.3517
  27   2.0000      -0.714299       -19.4371
  28   2.0000      -0.691377       -18.8133
  29   2.0000      -0.635304       -17.2875
  30   2.0000      -0.624064       -16.9816
  31   2.0000      -0.604379       -16.4460
  32   2.0000      -0.588822       -16.0227
  33   2.0000      -0.583882       -15.8882
  34   2.0000      -0.582557       -15.8522
  35   2.0000      -0.525939       -14.3115
  36   2.0000      -0.512213       -13.9380
  37   2.0000      -0.494410       -13.4536
  38   2.0000      -0.483125       -13.1465
  39   2.0000      -0.468162       -12.7393
  40   2.0000      -0.467320       -12.7164
  41   2.0000      -0.451060       -12.2740
  42   2.0000      -0.439904       -11.9704
  43   2.0000      -0.434036       -11.8107
  44   2.0000      -0.427062       -11.6209
  45   2.0000      -0.417825       -11.3696
  46   2.0000      -0.416620       -11.3368
  47   2.0000      -0.412741       -11.2312
  48   2.0000      -0.407304       -11.0833
  49   2.0000      -0.382846       -10.4178
  50   2.0000      -0.381151       -10.3716
  51   2.0000      -0.364763        -9.9257
  52   2.0000      -0.357901        -9.7390
  53   2.0000      -0.349538        -9.5114
  54   2.0000      -0.322468        -8.7748
  55   2.0000      -0.283060        -7.7025
  56   2.0000      -0.265833        -7.2337
  57   2.0000      -0.210668        -5.7326
  58   0.0000      -0.085575        -2.3286
  59   0.0000      -0.026913        -0.7323
  60   0.0000       0.004052         0.1103
  61   0.0000       0.030877         0.8402
  62   0.0000       0.051292         1.3957

MULLIKEN ATOMIC CHARGES
-----------------------
   0 C :   -0.120706
   1 S :    0.153747
   2 C :   -0.147902
   3 C :    0.113808
   4 C :    0.065897
   5 C :   -0.087529
   6 C :    0.534801
   7 F :   -0.175937
   8 F :   -0.181283
   9 F :   -0.162339
  10 C :   -0.010973
  11 C :    0.021232
  12 C :   -0.012470
  13 C :    0.008962
  14 C :   -0.040132
  15 H :    0.032659
  16 H :   -0.007665
  17 H :   -0.012716
  18 H :   -0.016490
  19 H :   -0.005267
  20 H :    0.020860
  21 H :    0.029443
Sum of atomic charges:   -0.0000000

LOEWDIN ATOMIC CHARGES
----------------------
   0 C :   -0.196431
   1 S :    0.495755
   2 C :   -0.187950
   3 C :   -0.042129
   4 C :   -0.043581
   5 C :   -0.078195
   6 C :    0.178572
   7 F :   -0.069570
   8 F :   -0.070663
   9 F :   -0.055478
  10 C :   -0.006234
  11 C :   -0.029737
  12 C :   -0.004068
  13 C :   -0.040470
  14 C :   -0.053683
  15 H :    0.027652
  16 H :    0.032868
  17 H :    0.030868
  18 H :    0.030371
  19 H :    0.034083
  20 H :    0.019059
  21 H :    0.028961

  Mayer bond orders larger than 0.100000
B(  0-C ,  1-S ) :   1.1914 B(  0-C ,  2-C ) :   0.1054 B(  0-C ,  4-C ) :   1.4480
B(  0-C , 15-H ) :   0.9431 B(  1-S ,  2-C ) :   1.1634 B(  2-C ,  3-C ) :   1.3345
B(  2-C , 13-C ) :   1.1561 B(  3-C ,  4-C ) :   1.1930 B(  3-C , 12-C ) :   1.2077
B(  4-C ,  5-C ) :   1.1877 B(  5-C ,  6-C ) :   0.9508 B(  5-C , 10-C ) :   1.5688
B(  6-C ,  7-F ) :   1.1433 B(  6-C ,  8-F ) :   1.1132 B(  6-C ,  9-F ) :   1.1489
B( 10-C , 11-C ) :   1.1853 B( 10-C , 16-H ) :   0.9840 B( 11-C , 12-C ) :   1.5385
B( 11-C , 17-H ) :   0.9791 B( 12-C , 18-H ) :   0.9854 B( 13-C , 14-C ) :   1.8920
B( 13-C , 19-H ) :   0.9482 B( 14-C , 20-H ) :   0.9551 B( 14-C , 21-H ) :   0.9460

Dispersion correction           -0.049720327
FINAL SINGLE POINT ENERGY     -1120.496023913028

DIPOLE MOMENT
-------------
                                X             Y             Z
Electronic contribution:      4.06095      20.84992      -0.22240
Nuclear contribution   :     -4.08326     -21.84090       0.23738
                        -----------------------------------------
Total Dipole Moment    :     -0.02231      -0.99098       0.01499
                        -----------------------------------------
Magnitude (a.u.)       :      0.99134
Magnitude (Debye)      :      2.51980

Rotational constants in cm-1:     0.036971     0.011767     0.009382
Rotational constants in MHz :  1108.358470   352.767549   281.270787

                             ****ORCA TERMINATED NORMALLY****
TOTAL RUN TIME: 0 days 0 hours 18 minutes 18 seconds 87 msec
