                         Program Version 4.2.0 -  RELEASE  -
|  1> # ORCA input file
|  2> # SCF done        -31.934589526684          0.000562080903
|  3> ! B3LYP/G D3BJ Opt RIJCOSX def2-SVP def2/J
|  4> * xyz 0 1
|  5>    C       -1.57037         1.27244        -0.00779
|  6>    S       -2.70713         0.00559        -0.06178
|  7>    C       -1.47990        -1.21325        -0.01132
|  8>    C       -0.21432        -0.63229         0.01052
|  9>    C       -0.27423         0.80922         0.02053
| 10>    C        0.94333         1.54457         0.05314
| 11>    S        0.98434         3.31369         0.09268
| 12>    C        2.13588         0.87740         0.06478
| 13>    C        2.18282        -0.52876         0.00839
| 14>    C        1.04382        -1.27589        -0.02664
| 15>    C       -1.90677        -2.58693         0.02087
| 16>    C       -1.24107        -3.61706         0.53797
| 17>    H       -1.92917         2.28295         0.01612
| 18>    H       -0.29073         3.51642        -0.22362
| 19>    H        3.05669         1.43984         0.09439
| 20>    H        3.14889        -1.00975        -0.01789
| 21>    H        1.09147        -2.34883        -0.10731
| 22>    H       -2.89954        -2.75215        -0.38171
| 23>    H       -0.28345        -3.50970         1.01493
| 24>    H       -1.65985        -4.60838         0.51971
| 25> *
| 26>
| 27>                          ****END OF INPUT****
 Total Charge           Charge          ....    0
 Multiplicity           Mult            ....    1
 Number of Electrons    NEL             ....  100
Dispersion correction           -0.049705872
FINAL SINGLE POINT ENERGY     -1181.780265619645
Dispersion correction            ... done
Dispersion correction           -0.049414318
FINAL SINGLE POINT ENERGY     -1181.783943926599
Dispersion correction            ... done
Dispersion correction           -0.049326074
FINAL SINGLE POINT ENERGY     -1181.784760475917
Dispersion correction            ... done
FINAL SINGLE POINT ENERGY     -1181.785153258104
FINAL SINGLE POINT ENERGY     -1181.785236982981
FINAL SINGLE POINT ENERGY     -1181.785279797369
FINAL SINGLE POINT ENERGY     -1181.785289258148
FINAL SINGLE POINT ENERGY     -1181.785300892150
FINAL SINGLE POINT ENERGY     -1181.785280934246
FINAL SINGLE POINT ENERGY     -1181.785086508865
FINAL SINGLE POINT ENERGY     -1181.785154216068
FINAL SINGLE POINT ENERGY     -1181.785428627449
FINAL SINGLE POINT ENERGY     -1181.785184004361
FINAL SINGLE POINT ENERGY     -1181.785471615991
FINAL SINGLE POINT ENERGY     -1181.785501445011
FINAL SINGLE POINT ENERGY     -1181.785560350731
Dispersion correction            ... done
Dispersion correction           -0.049245825
FINAL SINGLE POINT ENERGY     -1181.785591096377
Dispersion correction            ... done
Dispersion correction           -0.049254855
FINAL SINGLE POINT ENERGY     -1181.785608339207
Dispersion correction            ... done
                    ***********************HURRAY********************

CARTESIAN COORDINATES (ANGSTROEM)
---------------------------------
  C     -1.594391    1.295919    0.065253
  S     -2.719891    0.015147    0.139199
  C     -1.498758   -1.218081    0.176699
  C     -0.220047   -0.627394    0.153732
  C     -0.285674    0.823355    0.070160
  C      0.928792    1.589621    0.015480
  S      0.896121    3.367856   -0.080780
  C      2.136625    0.934823    0.104613
  C      2.195176   -0.483176    0.247708
  C      1.057923   -1.253866    0.257460
  C     -1.950576   -2.596943    0.230839
  C     -1.243759   -3.728124    0.053611
  H     -1.928172    2.330705    0.053695
  H     -0.067881    3.455813   -1.027379
  H      3.063655    1.509945    0.058141
  H      3.172629   -0.961893    0.342477
  H      1.133204   -2.333394    0.375226
  H     -3.021071   -2.706502    0.441568
  H     -0.183954   -3.736934   -0.201884
  H     -1.739241   -4.697746    0.140150

 Multiplicity           Mult            ....    1
 Number of Electrons    NEL             ....  100
 Basis Dimension        Dim             ....  216

ORBITAL ENERGIES
----------------

  NO   OCC          E(Eh)            E(eV)
   0   2.0000     -88.890085     -2418.8222
   1   2.0000     -88.852743     -2417.8061
   2   2.0000     -10.226648      -278.2812
   3   2.0000     -10.225479      -278.2494
   4   2.0000     -10.219780      -278.0943
   5   2.0000     -10.209361      -277.8108
   6   2.0000     -10.209150      -277.8051
   7   2.0000     -10.207459      -277.7591
   8   2.0000     -10.199339      -277.5381
   9   2.0000     -10.198667      -277.5198
  10   2.0000     -10.198184      -277.5067
  11   2.0000     -10.192553      -277.3535
  12   2.0000      -7.984865      -217.2792
  13   2.0000      -7.946955      -216.2476
  14   2.0000      -5.952479      -161.9752
  15   2.0000      -5.948529      -161.8677
  16   2.0000      -5.947188      -161.8312
  17   2.0000      -5.916035      -160.9835
  18   2.0000      -5.912482      -160.8868
  19   2.0000      -5.905993      -160.7102
  20   2.0000      -0.900522       -24.5044
  21   2.0000      -0.842795       -22.9336
  22   2.0000      -0.797667       -21.7056
  23   2.0000      -0.777507       -21.1570
  24   2.0000      -0.739958       -20.1353
  25   2.0000      -0.715811       -19.4782
  26   2.0000      -0.692543       -18.8451
  27   2.0000      -0.616086       -16.7645
  28   2.0000      -0.611562       -16.6414
  29   2.0000      -0.581088       -15.8122
  30   2.0000      -0.542049       -14.7499
  31   2.0000      -0.510672       -13.8961
  32   2.0000      -0.480250       -13.0683
  33   2.0000      -0.470745       -12.8096
  34   2.0000      -0.464371       -12.6362
  35   2.0000      -0.440170       -11.9776
  36   2.0000      -0.429612       -11.6903
  37   2.0000      -0.418065       -11.3761
  38   2.0000      -0.407578       -11.0908
  39   2.0000      -0.386756       -10.5242
  40   2.0000      -0.372279       -10.1302
  41   2.0000      -0.370986       -10.0950
  42   2.0000      -0.356593        -9.7034
  43   2.0000      -0.348770        -9.4905
  44   2.0000      -0.334291        -9.0965
  45   2.0000      -0.316076        -8.6009
  46   2.0000      -0.286378        -7.7927
  47   2.0000      -0.258650        -7.0382
  48   2.0000      -0.242123        -6.5885
  49   2.0000      -0.200760        -5.4630
  50   0.0000      -0.076602        -2.0845
  51   0.0000      -0.016434        -0.4472
  52   0.0000       0.012774         0.3476
  53   0.0000       0.027239         0.7412
  54   0.0000       0.030055         0.8178

MULLIKEN ATOMIC CHARGES
-----------------------
   0 C :   -0.154815
   1 S :    0.147134
   2 C :   -0.177036
   3 C :    0.130915
   4 C :    0.090776
   5 C :   -0.083966
   6 S :    0.010654
   7 C :    0.004486
   8 C :    0.023188
   9 C :   -0.029584
  10 C :    0.042035
  11 C :   -0.045591
  12 H :    0.015815
  13 H :    0.056878
  14 H :   -0.020675
  15 H :   -0.017643
  16 H :   -0.029789
  17 H :   -0.008642
  18 H :    0.022775
  19 H :    0.023087
Sum of atomic charges:   -0.0000000

LOEWDIN ATOMIC CHARGES
----------------------
   0 C :   -0.213321
   1 S :    0.490557
   2 C :   -0.187642
   3 C :   -0.041175
   4 C :   -0.063952
   5 C :   -0.153618
   6 S :    0.208954
   7 C :   -0.045637
   8 C :   -0.025028
   9 C :   -0.023005
  10 C :   -0.044942
  11 C :   -0.056371
  12 H :    0.019970
  13 H :   -0.024836
  14 H :    0.027577
  15 H :    0.028989
  16 H :    0.027474
  17 H :    0.028665
  18 H :    0.020376
  19 H :    0.026966

  Mayer bond orders larger than 0.100000
B(  0-C ,  1-S ) :   1.1943 B(  0-C ,  2-C ) :   0.1101 B(  0-C ,  4-C ) :   1.4044
B(  0-C , 12-H ) :   0.9566 B(  1-S ,  2-C ) :   1.1722 B(  2-C ,  3-C ) :   1.3455
B(  2-C , 10-C ) :   1.1322 B(  3-C ,  4-C ) :   1.2077 B(  3-C ,  9-C ) :   1.2012
B(  4-C ,  5-C ) :   1.2001 B(  5-C ,  6-S ) :   1.0378 B(  5-C ,  7-C ) :   1.5418
B(  6-S , 13-H ) :   0.9389 B(  7-C ,  8-C ) :   1.2122 B(  7-C , 14-H ) :   0.9816
B(  8-C ,  9-C ) :   1.5256 B(  8-C , 15-H ) :   0.9787 B(  9-C , 16-H ) :   0.9891
B( 10-C , 11-C ) :   1.9011 B( 10-C , 17-H ) :   0.9402 B( 11-C , 18-H ) :   0.9536
B( 11-C , 19-H ) :   0.9414

Dispersion correction           -0.049255086
FINAL SINGLE POINT ENERGY     -1181.785613378351

DIPOLE MOMENT
-------------
                                X             Y             Z
Electronic contribution:     -3.14631       8.04945       0.37990
Nuclear contribution   :      2.92403      -8.26971      -0.55048
                        -----------------------------------------
Total Dipole Moment    :     -0.22228      -0.22027      -0.17058
                        -----------------------------------------
Magnitude (a.u.)       :      0.35640
Magnitude (Debye)      :      0.90591

Rotational constants in cm-1:     0.043120     0.017913     0.012699
Rotational constants in MHz :  1292.713979   537.029382   380.712791

                             ****ORCA TERMINATED NORMALLY****
TOTAL RUN TIME: 0 days 0 hours 27 minutes 3 seconds 734 msec
