                         Program Version 4.2.0 -  RELEASE  -
|  1> # ORCA input file
|  2> # SCF done        -27.540134416349          0.000831236498
|  3> ! B3LYP/G D3BJ Opt RIJCOSX def2-SVP def2/J
|  4> * xyz 0 1
|  5>    C       -1.14665         0.04573        -0.13631
|  6>    C       -0.44098         1.18999        -0.02302
|  7>    F       -0.92863         2.42782        -0.05711
|  8>    S        1.26744         0.95991         0.18760
|  9>    C        0.98948        -0.74792         0.11895
| 10>    F        2.02700        -1.57682         0.23236
| 11>    C       -0.31596        -1.11299        -0.05518
| 12>    C       -0.74650        -2.49520        -0.13881
| 13>    C       -1.99088        -2.89746        -0.36610
| 14>    H       -2.21104         0.01959        -0.26708
| 15>    H        0.04356        -3.22161        -0.00283
| 16>    H       -2.80429        -2.20827        -0.51217
| 17>    H       -2.23600        -3.94333        -0.41787
| 18> *
| 19>
| 20>                          ****END OF INPUT****
 Total Charge           Charge          ....    0
 Multiplicity           Mult            ....    1
 Number of Electrons    NEL             ....   74
Dispersion correction           -0.024639713
FINAL SINGLE POINT ENERGY      -828.450916489751
Dispersion correction            ... done
Dispersion correction           -0.024560886
FINAL SINGLE POINT ENERGY      -828.452463137728
Dispersion correction            ... done
Dispersion correction           -0.024545306
FINAL SINGLE POINT ENERGY      -828.452584693971
Dispersion correction            ... done
FINAL SINGLE POINT ENERGY      -828.452576169779
Dispersion correction            ... done
Dispersion correction           -0.024545988
FINAL SINGLE POINT ENERGY      -828.452587733762
Dispersion correction            ... done
Dispersion correction           -0.024547352
FINAL SINGLE POINT ENERGY      -828.452583395348
Dispersion correction            ... done
                    ***********************HURRAY********************

CARTESIAN COORDINATES (ANGSTROEM)
---------------------------------
  C     -1.149000    0.063284   -0.157538
  C     -0.441424    1.211852   -0.022585
  F     -0.904365    2.452521   -0.078304
  S      1.276184    0.973335    0.241279
  C      0.995042   -0.749182    0.148302
  F      2.029421   -1.571842    0.275846
  C     -0.310518   -1.111492   -0.062286
  C     -0.741040   -2.501283   -0.175521
  C     -2.004420   -2.921409   -0.336931
  H     -2.222542    0.046203   -0.339295
  H      0.064555   -3.239548   -0.115954
  H     -2.846907   -2.227691   -0.398860
  H     -2.238435   -3.985307   -0.415723

 Multiplicity           Mult            ....    1
 Number of Electrons    NEL             ....   74
 Basis Dimension        Dim             ....  150

ORBITAL ENERGIES
----------------

  NO   OCC          E(Eh)            E(eV)
   0   2.0000     -88.897221     -2419.0164
   1   2.0000     -24.728375      -672.8933
   2   2.0000     -24.726896      -672.8531
   3   2.0000     -10.304329      -280.3950
   4   2.0000     -10.301764      -280.3253
   5   2.0000     -10.215254      -277.9712
   6   2.0000     -10.209230      -277.8073
   7   2.0000     -10.207397      -277.7574
   8   2.0000     -10.195183      -277.4250
   9   2.0000      -7.993483      -217.5137
  10   2.0000      -5.961543      -162.2218
  11   2.0000      -5.958237      -162.1319
  12   2.0000      -5.953748      -162.0097
  13   2.0000      -1.239332       -33.7239
  14   2.0000      -1.238715       -33.7071
  15   2.0000      -0.898792       -24.4574
  16   2.0000      -0.799879       -21.7658
  17   2.0000      -0.746477       -20.3127
  18   2.0000      -0.723287       -19.6816
  19   2.0000      -0.622398       -16.9363
  20   2.0000      -0.613944       -16.7063
  21   2.0000      -0.572791       -15.5864
  22   2.0000      -0.543309       -14.7842
  23   2.0000      -0.526011       -14.3135
  24   2.0000      -0.501394       -13.6436
  25   2.0000      -0.491076       -13.3629
  26   2.0000      -0.489457       -13.3188
  27   2.0000      -0.470237       -12.7958
  28   2.0000      -0.439722       -11.9654
  29   2.0000      -0.427259       -11.6263
  30   2.0000      -0.385107       -10.4793
  31   2.0000      -0.381700       -10.3866
  32   2.0000      -0.375144       -10.2082
  33   2.0000      -0.362300        -9.8587
  34   2.0000      -0.317002        -8.6261
  35   2.0000      -0.260304        -7.0832
  36   2.0000      -0.227269        -6.1843
  37   0.0000      -0.037623        -1.0238
  38   0.0000      -0.004366        -0.1188
  39   0.0000       0.004928         0.1341
  40   0.0000       0.060475         1.6456
  41   0.0000       0.073125         1.9898

MULLIKEN ATOMIC CHARGES
-----------------------
   0 C :   -0.004651
   1 C :    0.132879
   2 F :   -0.161009
   3 S :    0.072062
   4 C :    0.072267
   5 F :   -0.161973
   6 C :    0.030007
   7 C :    0.008796
   8 C :   -0.029561
   9 H :    0.002814
  10 H :   -0.002356
  11 H :    0.013383
  12 H :    0.027342
Sum of atomic charges:   -0.0000000

LOEWDIN ATOMIC CHARGES
----------------------
   0 C :   -0.087486
   1 C :   -0.078415
   2 F :   -0.047284
   3 S :    0.389882
   4 C :   -0.083872
   5 F :   -0.047417
   6 C :   -0.096291
   7 C :   -0.020953
   8 C :   -0.048930
   9 H :    0.039037
  10 H :    0.033104
  11 H :    0.020496
  12 H :    0.028129

  Mayer bond orders larger than 0.100000
B(  0-C ,  1-C ) :   1.5575 B(  0-C ,  6-C ) :   1.1389 B(  0-C ,  9-H ) :   0.9945
B(  1-C ,  2-F ) :   1.1091 B(  1-C ,  3-S ) :   1.0981 B(  3-S ,  4-C ) :   1.0934
B(  4-C ,  5-F ) :   1.1186 B(  4-C ,  6-C ) :   1.4743 B(  6-C ,  7-C ) :   1.1004
B(  7-C ,  8-C ) :   1.9211 B(  7-C , 10-H ) :   0.9661 B(  8-C , 11-H ) :   0.9482
B(  8-C , 12-H ) :   0.9486

Dispersion correction           -0.024546633
FINAL SINGLE POINT ENERGY      -828.452579810186

DIPOLE MOMENT
-------------
                                X             Y             Z
Electronic contribution:      7.79340       9.08064       1.37267
Nuclear contribution   :     -8.01733      -9.23749      -1.41875
                        -----------------------------------------
Total Dipole Moment    :     -0.22393      -0.15685      -0.04609
                        -----------------------------------------
Magnitude (a.u.)       :      0.27725
Magnitude (Debye)      :      0.70472

Rotational constants in cm-1:     0.067990     0.038309     0.024505
Rotational constants in MHz :  2038.298355  1148.479723   734.637910

                             ****ORCA TERMINATED NORMALLY****
TOTAL RUN TIME: 0 days 0 hours 3 minutes 48 seconds 969 msec
