                         Program Version 4.2.0 -  RELEASE  -
|  1> # ORCA input file
|  2> # SCF done        -23.297977242307          0.000743392023
|  3> ! B3LYP/G D3BJ Opt RIJCOSX def2-SVP def2/J
|  4> * xyz 0 1
|  5>    C        2.73260         0.93431         1.05599
|  6>    C        2.79338         0.11617        -0.03357
|  7>    C        3.15651        -1.05751         0.83336
|  8>    C        3.47404        -2.31493         1.13178
|  9>    S        3.70572        -2.45721         2.88136
| 10>    C        3.35085        -0.74978         3.14825
| 11>    C        3.08589        -0.16722         1.97584
| 12>    C        2.60289         0.25347        -1.43889
| 13>    C        2.73450        -0.76190        -2.29407
| 14>    H        2.51658         1.97260         1.21524
| 15>    H        3.60450        -3.19527         0.53461
| 16>    H        3.38079        -0.37545         4.15192
| 17>    H        2.33909         1.24438        -1.78694
| 18>    H        2.99475        -1.74791        -1.94708
| 19>    H        2.58465        -0.63993        -3.35231
| 20> *
| 21>
| 22>                          ****END OF INPUT****
 Total Charge           Charge          ....    0
 Multiplicity           Mult            ....    1
 Number of Electrons    NEL             ....   70
Dispersion correction           -0.028512403
FINAL SINGLE POINT ENERGY      -706.219646220519
Dispersion correction            ... done
Dispersion correction           -0.028442885
FINAL SINGLE POINT ENERGY      -706.222547120130
Dispersion correction            ... done
Dispersion correction           -0.028432118
FINAL SINGLE POINT ENERGY      -706.222708252213
Dispersion correction            ... done
FINAL SINGLE POINT ENERGY      -706.222749419864
Dispersion correction            ... done
Dispersion correction           -0.028413554
FINAL SINGLE POINT ENERGY      -706.222753127609
Dispersion correction            ... done
Dispersion correction           -0.028410665
FINAL SINGLE POINT ENERGY      -706.222760433847
Dispersion correction            ... done
                    ***********************HURRAY********************

CARTESIAN COORDINATES (ANGSTROEM)
---------------------------------
  C      2.743004    0.943372    1.057656
  C      2.804633    0.111568   -0.037758
  C      3.167433   -1.066083    0.855981
  C      3.481824   -2.340959    1.162728
  S      3.706029   -2.486322    2.924149
  C      3.353124   -0.761425    3.181626
  C      3.094642   -0.174654    1.991477
  C      2.600763    0.260791   -1.451445
  C      2.728993   -0.752398   -2.328599
  H      2.507040    2.000600    1.184504
  H      3.611539   -3.223941    0.538556
  H      3.374728   -0.353461    4.191503
  H      2.317014    1.257640   -1.805442
  H      3.007953   -1.754974   -1.991739
  H      2.558019   -0.605933   -3.397705

 Multiplicity           Mult            ....    1
 Number of Electrons    NEL             ....   70
 Basis Dimension        Dim             ....  160

ORBITAL ENERGIES
----------------

  NO   OCC          E(Eh)            E(eV)
   0   2.0000     -88.858758     -2417.9697
   1   2.0000     -10.222961      -278.1809
   2   2.0000     -10.218826      -278.0684
   3   2.0000     -10.216487      -278.0047
   4   2.0000     -10.214624      -277.9540
   5   2.0000     -10.207732      -277.7665
   6   2.0000     -10.202776      -277.6316
   7   2.0000     -10.195838      -277.4429
   8   2.0000     -10.195363      -277.4299
   9   2.0000      -7.953345      -216.4215
  10   2.0000      -5.922309      -161.1542
  11   2.0000      -5.917947      -161.0355
  12   2.0000      -5.913280      -160.9085
  13   2.0000      -0.901915       -24.5423
  14   2.0000      -0.826365       -22.4865
  15   2.0000      -0.777249       -21.1500
  16   2.0000      -0.717080       -19.5127
  17   2.0000      -0.675490       -18.3810
  18   2.0000      -0.622762       -16.9462
  19   2.0000      -0.587181       -15.9780
  20   2.0000      -0.546092       -14.8599
  21   2.0000      -0.509606       -13.8671
  22   2.0000      -0.498742       -13.5714
  23   2.0000      -0.473366       -12.8809
  24   2.0000      -0.415109       -11.2957
  25   2.0000      -0.408261       -11.1093
  26   2.0000      -0.407558       -11.0902
  27   2.0000      -0.397325       -10.8117
  28   2.0000      -0.363350        -9.8873
  29   2.0000      -0.357293        -9.7224
  30   2.0000      -0.335046        -9.1171
  31   2.0000      -0.318766        -8.6741
  32   2.0000      -0.281035        -7.6474
  33   2.0000      -0.249945        -6.8014
  34   2.0000      -0.197281        -5.3683
  35   0.0000      -0.070748        -1.9251
  36   0.0000      -0.004897        -0.1333
  37   0.0000       0.031642         0.8610
  38   0.0000       0.036796         1.0013
  39   0.0000       0.067765         1.8440

MULLIKEN ATOMIC CHARGES
-----------------------
   0 C :   -0.087314
   1 C :    0.102404
   2 C :    0.106495
   3 C :   -0.211387
   4 S :    0.033752
   5 C :   -0.196520
   6 C :    0.177825
   7 C :    0.001239
   8 C :   -0.019057
   9 H :   -0.009030
  10 H :    0.026476
  11 H :    0.027123
  12 H :   -0.012155
  13 H :    0.027830
  14 H :    0.032319
Sum of atomic charges:   -0.0000000

LOEWDIN ATOMIC CHARGES
----------------------
   0 C :    0.010955
   1 C :    0.005147
   2 C :   -0.048451
   3 C :   -0.176806
   4 S :    0.344026
   5 C :   -0.179620
   6 C :   -0.053122
   7 C :   -0.037434
   8 C :   -0.025573
   9 H :    0.021907
  10 H :    0.024175
  11 H :    0.025069
  12 H :    0.033401
  13 H :    0.027577
  14 H :    0.028751

  Mayer bond orders larger than 0.100000
B(  0-C ,  1-C ) :   1.5314 B(  0-C ,  3-C ) :   0.1003 B(  0-C ,  6-C ) :   0.9024
B(  0-C ,  8-C ) :   0.1258 B(  0-C ,  9-H ) :   1.0422 B(  1-C ,  2-C ) :   0.8899
B(  1-C ,  7-C ) :   1.1409 B(  2-C ,  3-C ) :   1.6801 B(  2-C ,  6-C ) :   1.1316
B(  3-C ,  4-S ) :   1.0618 B(  3-C , 10-H ) :   0.9689 B(  4-S ,  5-C ) :   1.0735
B(  5-C ,  6-C ) :   1.6196 B(  5-C , 11-H ) :   0.9697 B(  7-C ,  8-C ) :   1.8619
B(  7-C , 12-H ) :   0.9521 B(  8-C , 13-H ) :   0.9512 B(  8-C , 14-H ) :   0.9459

Dispersion correction           -0.028410218
FINAL SINGLE POINT ENERGY      -706.222762971650

DIPOLE MOMENT
-------------
                                X             Y             Z
Electronic contribution:      1.36267      -2.50420       6.92461
Nuclear contribution   :     -1.51111       2.89130      -7.36543
                        -----------------------------------------
Total Dipole Moment    :     -0.14845       0.38710      -0.44082
                        -----------------------------------------
Magnitude (a.u.)       :      0.60515
Magnitude (Debye)      :      1.53817

Rotational constants in cm-1:     0.118862     0.031525     0.024917
Rotational constants in MHz :  3563.406490   945.104155   746.993384

                             ****ORCA TERMINATED NORMALLY****
TOTAL RUN TIME: 0 days 0 hours 4 minutes 37 seconds 189 msec
