                         Program Version 4.2.0 -  RELEASE  -
|  1> # ORCA input file
|  2> # SCF done        -38.686481062352          0.000546937547
|  3> ! B3LYP/G D3BJ Opt RIJCOSX def2-SVP def2/J
|  4> * xyz 0 1
|  5>    C       -1.13002         1.38803         0.12393
|  6>    C       -2.30150         0.68360         0.08550
|  7>    C       -2.29655        -0.71817        -0.01671
|  8>    C       -1.12009        -1.41281        -0.07660
|  9>    C        0.10250        -0.71549        -0.03580
| 10>    C        0.09742         0.70094         0.06046
| 11>    N        1.26081         1.38330         0.08321
| 12>    C        2.38443         0.71522         0.02673
| 13>    C        3.63756         1.54046        -0.01148
| 14>    C        4.04040         1.81909        -1.46176
| 15>    C        2.38978        -0.71044        -0.04506
| 16>    C        3.65053        -1.52478        -0.03118
| 17>    C        4.08005        -1.80518         1.41109
| 18>    N        1.27098        -1.38802        -0.08032
| 19>    H       -1.11193         2.46422         0.19866
| 20>    H       -3.24742         1.20337         0.13122
| 21>    H       -3.23879        -1.24584        -0.04625
| 22>    H       -1.09437        -2.48883        -0.15178
| 23>    H        4.45096         1.03770         0.51138
| 24>    H        3.43010         2.48855         0.48638
| 25>    H        4.23187         0.89249        -1.99941
| 26>    H        4.93991         2.42950        -1.49110
| 27>    H        3.24114         2.35123        -1.97174
| 28>    H        4.45064        -1.01277        -0.56536
| 29>    H        3.44334        -2.47279        -0.52932
| 30>    H        4.26435        -0.87854         1.95113
| 31>    H        4.98989        -2.40070         1.42300
| 32>    H        3.29759        -2.35339         1.93006
| 33> *
| 34>
| 35>                          ****END OF INPUT****
 Total Charge           Charge          ....    0
 Multiplicity           Mult            ....    1
 Number of Electrons    NEL             ....  100
Dispersion correction           -0.055507936
FINAL SINGLE POINT ENERGY      -574.867847582349
Dispersion correction            ... done
Dispersion correction           -0.054994278
FINAL SINGLE POINT ENERGY      -574.871093248874
Dispersion correction            ... done
Dispersion correction           -0.054890618
FINAL SINGLE POINT ENERGY      -574.871203564892
Dispersion correction            ... done
FINAL SINGLE POINT ENERGY      -574.871215474084
FINAL SINGLE POINT ENERGY      -574.871199412031
Dispersion correction            ... done
Dispersion correction           -0.054800994
FINAL SINGLE POINT ENERGY      -574.871181913813
Dispersion correction            ... done
Dispersion correction           -0.054794322
FINAL SINGLE POINT ENERGY      -574.871169497340
Dispersion correction            ... done
                    ***********************HURRAY********************

CARTESIAN COORDINATES (ANGSTROEM)
---------------------------------
  C     -1.146754    1.398045    0.061746
  C     -2.331462    0.691822    0.053373
  C     -2.325994   -0.727324    0.014884
  C     -1.135821   -1.423764   -0.013754
  C      0.097578   -0.721595   -0.005723
  C      0.092043    0.706153    0.030780
  N      1.261596    1.395857    0.034552
  C      2.392892    0.724383    0.008098
  C      3.661011    1.545959   -0.046625
  C      4.038794    1.913567   -1.489567
  C      2.398480   -0.720632   -0.027891
  C      3.674336   -1.531301    0.003145
  C      4.079156   -1.897539    1.439165
  N      1.272488   -1.401541   -0.031997
  H     -1.117291    2.489263    0.092350
  H     -3.284747    1.225149    0.077376
  H     -3.275158   -1.268406    0.008106
  H     -1.097702   -2.514735   -0.044170
  H      4.491596    1.017357    0.444118
  H      3.470574    2.465526    0.525867
  H      4.254838    1.015984   -2.090321
  H      4.928426    2.561916   -1.518167
  H      3.207464    2.449652   -1.973038
  H      4.491888   -0.994335   -0.500254
  H      3.482667   -2.451548   -0.567923
  H      4.295246   -0.998544    2.037795
  H      4.976070   -2.536255    1.452088
  H      3.261363   -2.443164    1.934867

 Multiplicity           Mult            ....    1
 Number of Electrons    NEL             ....  100
 Basis Dimension        Dim             ....  266

ORBITAL ENERGIES
----------------

  NO   OCC          E(Eh)            E(eV)
   0   2.0000     -14.329924      -389.9371
   1   2.0000     -14.329781      -389.9332
   2   2.0000     -10.234131      -278.4849
   3   2.0000     -10.233959      -278.4802
   4   2.0000     -10.225360      -278.2462
   5   2.0000     -10.225082      -278.2386
   6   2.0000     -10.200386      -277.5666
   7   2.0000     -10.200121      -277.5594
   8   2.0000     -10.195187      -277.4251
   9   2.0000     -10.195102      -277.4228
  10   2.0000     -10.193257      -277.3726
  11   2.0000     -10.193177      -277.3704
  12   2.0000     -10.187518      -277.2165
  13   2.0000     -10.187507      -277.2162
  14   2.0000      -0.971806       -26.4442
  15   2.0000      -0.900627       -24.5073
  16   2.0000      -0.848726       -23.0950
  17   2.0000      -0.794248       -21.6126
  18   2.0000      -0.769640       -20.9430
  19   2.0000      -0.738367       -20.0920
  20   2.0000      -0.729117       -19.8403
  21   2.0000      -0.664137       -18.0721
  22   2.0000      -0.654284       -17.8040
  23   2.0000      -0.604167       -16.4402
  24   2.0000      -0.602506       -16.3950
  25   2.0000      -0.596619       -16.2348
  26   2.0000      -0.549525       -14.9533
  27   2.0000      -0.519428       -14.1344
  28   2.0000      -0.488888       -13.3033
  29   2.0000      -0.472835       -12.8665
  30   2.0000      -0.457666       -12.4537
  31   2.0000      -0.439632       -11.9630
  32   2.0000      -0.437224       -11.8975
  33   2.0000      -0.436254       -11.8711
  34   2.0000      -0.434346       -11.8191
  35   2.0000      -0.425254       -11.5717
  36   2.0000      -0.395993       -10.7755
  37   2.0000      -0.392162       -10.6713
  38   2.0000      -0.377520       -10.2729
  39   2.0000      -0.374791       -10.1986
  40   2.0000      -0.361695        -9.8422
  41   2.0000      -0.355553        -9.6751
  42   2.0000      -0.351449        -9.5634
  43   2.0000      -0.346458        -9.4276
  44   2.0000      -0.338925        -9.2226
  45   2.0000      -0.332570        -9.0497
  46   2.0000      -0.296848        -8.0776
  47   2.0000      -0.252665        -6.8754
  48   2.0000      -0.245253        -6.6737
  49   2.0000      -0.241600        -6.5743
  50   0.0000      -0.069152        -1.8817
  51   0.0000      -0.026892        -0.7318
  52   0.0000       0.006831         0.1859
  53   0.0000       0.050221         1.3666
  54   0.0000       0.067204         1.8287

MULLIKEN ATOMIC CHARGES
-----------------------
   0 C :   -0.005722
   1 C :    0.036700
   2 C :    0.036904
   3 C :   -0.005688
   4 C :    0.006818
   5 C :    0.006732
   6 N :   -0.038106
   7 C :   -0.129936
   8 C :    0.114932
   9 C :   -0.005036
  10 C :   -0.129589
  11 C :    0.113726
  12 C :   -0.004758
  13 N :   -0.038146
  14 H :   -0.026560
  15 H :   -0.012727
  16 H :   -0.012588
  17 H :   -0.026490
  18 H :   -0.002870
  19 H :    0.007249
  20 H :    0.010746
  21 H :    0.020836
  22 H :    0.023530
  23 H :   -0.002544
  24 H :    0.007457
  25 H :    0.010674
  26 H :    0.020715
  27 H :    0.023741
Sum of atomic charges:   -0.0000000

LOEWDIN ATOMIC CHARGES
----------------------
   0 C :   -0.018421
   1 C :   -0.020637
   2 C :   -0.020628
   3 C :   -0.018468
   4 C :   -0.012243
   5 C :   -0.012266
   6 N :   -0.057612
   7 C :    0.001026
   8 C :   -0.035507
   9 C :   -0.048375
  10 C :    0.001082
  11 C :   -0.035602
  12 C :   -0.048359
  13 N :   -0.057635
  14 H :    0.032091
  15 H :    0.029070
  16 H :    0.029098
  17 H :    0.032106
  18 H :    0.022482
  19 H :    0.033844
  20 H :    0.020558
  21 H :    0.025727
  22 H :    0.027976
  23 H :    0.022528
  24 H :    0.033865
  25 H :    0.020585
  26 H :    0.025692
  27 H :    0.028023

  Mayer bond orders larger than 0.100000
B(  0-C ,  1-C ) :   1.4416 B(  0-C ,  3-C ) :   0.1101 B(  0-C ,  5-C ) :   1.2510
B(  0-C , 14-H ) :   0.9960 B(  1-C ,  2-C ) :   1.2458 B(  1-C , 15-H ) :   0.9874
B(  2-C ,  3-C ) :   1.4415 B(  2-C , 16-H ) :   0.9874 B(  3-C ,  4-C ) :   1.2509
B(  3-C , 17-H ) :   0.9959 B(  4-C ,  5-C ) :   1.2353 B(  4-C , 13-N ) :   1.3944
B(  5-C ,  6-N ) :   1.3946 B(  6-N ,  7-C ) :   1.6574 B(  7-C ,  8-C ) :   1.0636
B(  7-C , 10-C ) :   1.1776 B(  8-C ,  9-C ) :   1.1100 B(  8-C , 18-H ) :   0.9146
B(  8-C , 19-H ) :   0.9090 B(  9-C , 20-H ) :   0.9683 B(  9-C , 21-H ) :   0.9665
B(  9-C , 22-H ) :   0.9634 B( 10-C , 11-C ) :   1.0641 B( 10-C , 13-N ) :   1.6573
B( 11-C , 12-C ) :   1.1103 B( 11-C , 23-H ) :   0.9146 B( 11-C , 24-H ) :   0.9090
B( 12-C , 25-H ) :   0.9682 B( 12-C , 26-H ) :   0.9663 B( 12-C , 27-H ) :   0.9634

Dispersion correction           -0.054790233
FINAL SINGLE POINT ENERGY      -574.871163914167

DIPOLE MOMENT
-------------
                                X             Y             Z
Electronic contribution:    -13.66687      -0.05579       0.12907
Nuclear contribution   :     13.88882       0.05687      -0.13111
                        -----------------------------------------
Total Dipole Moment    :      0.22194       0.00108      -0.00204
                        -----------------------------------------
Magnitude (a.u.)       :      0.22196
Magnitude (Debye)      :      0.56417

Rotational constants in cm-1:     0.040698     0.016418     0.012578
Rotational constants in MHz :  1220.081655   492.193590   377.083774

                             ****ORCA TERMINATED NORMALLY****
TOTAL RUN TIME: 0 days 0 hours 15 minutes 37 seconds 849 msec
