                         Program Version 4.2.0 -  RELEASE  -
|  1> # ORCA input file
|  2> # SCF done        -28.725168839751          0.000840114611
|  3> ! B3LYP/G D3BJ Opt RIJCOSX def2-SVP def2/J
|  4> * xyz 0 1
|  5>    C        1.58532         1.24110         0.00514
|  6>    S        2.78567         0.01440        -0.01757
|  7>    C        1.57374        -1.20765        -0.04238
|  8>    C        0.31628        -0.69467        -0.03410
|  9>    C        0.32389         0.73075        -0.00769
| 10>    C       -0.92732         1.53486         0.05247
| 11>    S       -1.09304         2.30632         1.73185
| 12>    C       -2.15718         0.70064        -0.29227
| 13>    C       -2.12910        -0.65379         0.40917
| 14>    C       -0.95211        -1.48659        -0.09444
| 15>    H        1.87729         2.27197         0.03803
| 16>    H        1.86660        -2.23849        -0.06498
| 17>    H       -0.86301         2.41066        -0.59792
| 18>    H       -0.86498         1.19370         2.42518
| 19>    H       -2.17704         0.54573        -1.37459
| 20>    H       -3.05537         1.25384        -0.01322
| 21>    H       -3.06311        -1.18547         0.22040
| 22>    H       -2.04417        -0.50609         1.48842
| 23>    H       -1.13550        -1.77703        -1.13485
| 24>    H       -0.85078        -2.40505         0.48811
| 25> *
| 26>
| 27>                          ****END OF INPUT****
 Total Charge           Charge          ....    0
 Multiplicity           Mult            ....    1
 Number of Electrons    NEL             ....   90
Dispersion correction           -0.045889162
FINAL SINGLE POINT ENERGY     -1106.851672732005
Dispersion correction            ... done
Dispersion correction           -0.045423141
FINAL SINGLE POINT ENERGY     -1106.854728095591
Dispersion correction            ... done
Dispersion correction           -0.045382786
FINAL SINGLE POINT ENERGY     -1106.854803900727
Dispersion correction            ... done
FINAL SINGLE POINT ENERGY     -1106.854822875676
FINAL SINGLE POINT ENERGY     -1106.854793978368
FINAL SINGLE POINT ENERGY     -1106.854743168772
FINAL SINGLE POINT ENERGY     -1106.854750583028
Dispersion correction            ... done
Dispersion correction           -0.045408956
FINAL SINGLE POINT ENERGY     -1106.854764308373
Dispersion correction            ... done
Dispersion correction           -0.045402120
FINAL SINGLE POINT ENERGY     -1106.854762026216
Dispersion correction            ... done
                    ***********************HURRAY********************

CARTESIAN COORDINATES (ANGSTROEM)
---------------------------------
  C      1.602078    1.268395   -0.065919
  S      2.802805    0.030282   -0.110425
  C      1.597840   -1.208617   -0.047388
  C      0.324005   -0.692114   -0.000863
  C      0.329851    0.748748   -0.003558
  C     -0.941703    1.544589    0.113358
  S     -1.141623    2.246861    1.832962
  C     -2.161279    0.714895   -0.318050
  C     -2.185414   -0.659260    0.352097
  C     -0.954307   -1.495666   -0.028297
  H      1.891189    2.318065   -0.049802
  H      1.892325   -2.257148   -0.064983
  H     -0.875822    2.452966   -0.502680
  H     -0.675329    1.164908    2.494248
  H     -2.120158    0.586941   -1.415653
  H     -3.078827    1.276840   -0.088319
  H     -3.099669   -1.203077    0.066244
  H     -2.230477   -0.518185    1.445416
  H     -1.093653   -1.893123   -1.050091
  H     -0.865753   -2.377160    0.626463

 Multiplicity           Mult            ....    1
 Number of Electrons    NEL             ....   90
 Basis Dimension        Dim             ....  198

ORBITAL ENERGIES
----------------

  NO   OCC          E(Eh)            E(eV)
   0   2.0000     -88.872205     -2418.3356
   1   2.0000     -88.832464     -2417.2542
   2   2.0000     -10.227006      -278.2910
   3   2.0000     -10.207745      -277.7669
   4   2.0000     -10.206146      -277.7233
   5   2.0000     -10.196475      -277.4602
   6   2.0000     -10.195645      -277.4376
   7   2.0000     -10.195471      -277.4329
   8   2.0000     -10.191866      -277.3348
   9   2.0000     -10.189668      -277.2750
  10   2.0000      -7.967189      -216.7982
  11   2.0000      -7.926750      -215.6978
  12   2.0000      -5.935213      -161.5053
  13   2.0000      -5.931089      -161.3931
  14   2.0000      -5.928857      -161.3324
  15   2.0000      -5.896138      -160.4421
  16   2.0000      -5.892324      -160.3383
  17   2.0000      -5.885446      -160.1511
  18   2.0000      -0.883413       -24.0389
  19   2.0000      -0.824209       -22.4279
  20   2.0000      -0.776084       -21.1183
  21   2.0000      -0.730535       -19.8789
  22   2.0000      -0.710621       -19.3370
  23   2.0000      -0.682183       -18.5631
  24   2.0000      -0.620409       -16.8822
  25   2.0000      -0.581256       -15.8168
  26   2.0000      -0.569162       -15.4877
  27   2.0000      -0.508599       -13.8397
  28   2.0000      -0.504300       -13.7227
  29   2.0000      -0.462839       -12.5945
  30   2.0000      -0.430483       -11.7140
  31   2.0000      -0.428769       -11.6674
  32   2.0000      -0.421195       -11.4613
  33   2.0000      -0.404798       -11.0151
  34   2.0000      -0.400889       -10.9087
  35   2.0000      -0.400053       -10.8860
  36   2.0000      -0.366726        -9.9791
  37   2.0000      -0.345696        -9.4069
  38   2.0000      -0.341504        -9.2928
  39   2.0000      -0.336141        -9.1469
  40   2.0000      -0.332948        -9.0600
  41   2.0000      -0.319893        -8.7047
  42   2.0000      -0.247267        -6.7285
  43   2.0000      -0.239531        -6.5180
  44   2.0000      -0.223673        -6.0864
  45   0.0000      -0.023440        -0.6378
  46   0.0000       0.021885         0.5955
  47   0.0000       0.044819         1.2196
  48   0.0000       0.050611         1.3772
  49   0.0000       0.059638         1.6228

MULLIKEN ATOMIC CHARGES
-----------------------
   0 C :   -0.120986
   1 S :    0.099888
   2 C :   -0.142502
   3 C :   -0.042355
   4 C :    0.018082
   5 C :   -0.122115
   6 S :   -0.061064
   7 C :    0.100809
   8 C :    0.008045
   9 C :    0.133876
  10 H :    0.015289
  11 H :    0.009865
  12 H :    0.033523
  13 H :    0.056693
  14 H :    0.004353
  15 H :    0.000913
  16 H :   -0.002861
  17 H :   -0.001486
  18 H :    0.009984
  19 H :    0.002048
Sum of atomic charges:    0.0000000

LOEWDIN ATOMIC CHARGES
----------------------
   0 C :   -0.194284
   1 S :    0.432235
   2 C :   -0.205143
   3 C :   -0.066659
   4 C :   -0.088684
   5 C :   -0.109499
   6 S :    0.136592
   7 C :   -0.037940
   8 C :   -0.033094
   9 C :   -0.023769
  10 H :    0.024055
  11 H :    0.021296
  12 H :    0.029273
  13 H :   -0.031156
  14 H :    0.023133
  15 H :    0.022394
  16 H :    0.024222
  17 H :    0.015891
  18 H :    0.031275
  19 H :    0.029863

  Mayer bond orders larger than 0.100000
B(  0-C ,  1-S ) :   1.1732 B(  0-C ,  4-C ) :   1.5358 B(  0-C , 10-H ) :   0.9651
B(  1-S ,  2-C ) :   1.1614 B(  2-C ,  3-C ) :   1.5510 B(  2-C , 11-H ) :   0.9654
B(  3-C ,  4-C ) :   1.2960 B(  3-C ,  9-C ) :   1.0398 B(  4-C ,  5-C ) :   0.9802
B(  5-C ,  6-S ) :   1.0304 B(  5-C ,  7-C ) :   1.0176 B(  5-C , 12-H ) :   0.9127
B(  6-S , 13-H ) :   0.9526 B(  7-C ,  8-C ) :   1.0739 B(  7-C , 14-H ) :   0.9307
B(  7-C , 15-H ) :   0.9281 B(  8-C ,  9-C ) :   1.0892 B(  8-C , 16-H ) :   0.9323
B(  8-C , 17-H ) :   0.9387 B(  9-C , 18-H ) :   0.9166 B(  9-C , 19-H ) :   0.9193

Dispersion correction           -0.045401047
FINAL SINGLE POINT ENERGY     -1106.854758070045

DIPOLE MOMENT
-------------
                                X             Y             Z
Electronic contribution:     10.32376       4.10319       1.46967
Nuclear contribution   :    -10.44911      -4.60497      -1.78461
                        -----------------------------------------
Total Dipole Moment    :     -0.12535      -0.50178      -0.31494
                        -----------------------------------------
Magnitude (a.u.)       :      0.60554
Magnitude (Debye)      :      1.53916

Rotational constants in cm-1:     0.051574     0.026536     0.019604
Rotational constants in MHz :  1546.150778   795.540594   587.703951

                             ****ORCA TERMINATED NORMALLY****
TOTAL RUN TIME: 0 days 0 hours 11 minutes 19 seconds 833 msec
