                         Program Version 4.2.0 -  RELEASE  -
|  1> # ORCA input file
|  2> # SCF done        -36.445909620359          0.000537884524
|  3> ! B3LYP/G D3BJ Opt RIJCOSX def2-SVP def2/J
|  4> * xyz 0 1
|  5>    C        2.02777         0.69555         0.02507
|  6>    C        0.86650         1.39799        -0.02048
|  7>    C       -0.24590         0.53009        -0.01141
|  8>    C        0.10770        -0.82657         0.03980
|  9>    S        1.82112        -1.02905         0.07737
| 10>    C       -1.09201        -1.55330         0.04318
| 11>    C       -2.11368        -0.63342        -0.00520
| 12>    N       -1.61035         0.63827        -0.05467
| 13>    C       -2.36285         1.86295         0.00059
| 14>    C       -2.55630         2.33720         1.44049
| 15>    C       -3.51123        -1.14380        -0.00905
| 16>    C       -3.40126        -2.67832        -0.03436
| 17>    S       -1.63218        -3.21569         0.09433
| 18>    H        3.02604         1.08551         0.03281
| 19>    H        0.81740         2.47144        -0.05635
| 20>    H       -3.33383         1.69469        -0.47326
| 21>    H       -1.82341         2.62309        -0.57174
| 22>    H       -3.09917         1.59086         2.01546
| 23>    H       -3.11684         3.26778         1.45688
| 24>    H       -1.59068         2.49949         1.91325
| 25>    H       -4.06304        -0.78862        -0.88461
| 26>    H       -4.05305        -0.81328         0.88287
| 27>    H       -3.78229        -3.09536        -0.96526
| 28>    H       -3.92819        -3.14042         0.79827
| 29> *
| 30>
| 31>                          ****END OF INPUT****
 Total Charge           Charge          ....    0
 Multiplicity           Mult            ....    1
 Number of Electrons    NEL             ....  110
Dispersion correction           -0.054082579
FINAL SINGLE POINT ENERGY     -1238.309284147302
Dispersion correction            ... done
Dispersion correction           -0.053838304
FINAL SINGLE POINT ENERGY     -1238.312662310388
Dispersion correction            ... done
Dispersion correction           -0.053811293
FINAL SINGLE POINT ENERGY     -1238.312921475424
Dispersion correction            ... done
FINAL SINGLE POINT ENERGY     -1238.313015334535
FINAL SINGLE POINT ENERGY     -1238.313123283382
FINAL SINGLE POINT ENERGY     -1238.313319531605
FINAL SINGLE POINT ENERGY     -1238.313707769017
FINAL SINGLE POINT ENERGY     -1238.314000375977
FINAL SINGLE POINT ENERGY     -1238.314234873295
FINAL SINGLE POINT ENERGY     -1238.314303250745
FINAL SINGLE POINT ENERGY     -1238.314377463462
FINAL SINGLE POINT ENERGY     -1238.314415062090
FINAL SINGLE POINT ENERGY     -1238.314466039187
Dispersion correction            ... done
Dispersion correction           -0.053960851
FINAL SINGLE POINT ENERGY     -1238.314482015708
Dispersion correction            ... done
Dispersion correction           -0.053958901
FINAL SINGLE POINT ENERGY     -1238.314486018128
Dispersion correction            ... done
                    ***********************HURRAY********************

CARTESIAN COORDINATES (ANGSTROEM)
---------------------------------
  C      2.070988    0.681561   -0.003391
  C      0.898456    1.391968   -0.084984
  C     -0.224247    0.516498   -0.031743
  C      0.113329   -0.846547    0.083058
  S      1.838949   -1.050633    0.126838
  C     -1.106051   -1.572675    0.104299
  C     -2.125688   -0.641654    0.005479
  N     -1.601265    0.634925   -0.085592
  C     -2.346175    1.879196   -0.027786
  C     -2.614543    2.348184    1.402673
  C     -3.518418   -1.159297    0.170713
  C     -3.396133   -2.671985   -0.131230
  S     -1.677485   -3.233338    0.324500
  H      3.083958    1.081023   -0.012917
  H      0.855831    2.477890   -0.176460
  H     -3.292737    1.735052   -0.571980
  H     -1.776914    2.639259   -0.585914
  H     -3.186571    1.591066    1.961322
  H     -3.193184    3.285442    1.404138
  H     -1.669994    2.523376    1.939462
  H     -4.255054   -0.695075   -0.504632
  H     -3.878665   -0.994390    1.205494
  H     -3.531697   -2.861613   -1.206713
  H     -4.116421   -3.281152    0.429345

 Multiplicity           Mult            ....    1
 Number of Electrons    NEL             ....  110
 Basis Dimension        Dim             ....  245

ORBITAL ENERGIES
----------------

  NO   OCC          E(Eh)            E(eV)
   0   2.0000     -88.861776     -2418.0519
   1   2.0000     -88.836337     -2417.3596
   2   2.0000     -14.375968      -391.1900
   3   2.0000     -10.242788      -278.7204
   4   2.0000     -10.221323      -278.1363
   5   2.0000     -10.212181      -277.8876
   6   2.0000     -10.210601      -277.8446
   7   2.0000     -10.210285      -277.8360
   8   2.0000     -10.204182      -277.6699
   9   2.0000     -10.197209      -277.4802
  10   2.0000     -10.196447      -277.4594
  11   2.0000     -10.195860      -277.4435
  12   2.0000     -10.193141      -277.3695
  13   2.0000      -7.955824      -216.4890
  14   2.0000      -7.930684      -215.8049
  15   2.0000      -5.924374      -161.2104
  16   2.0000      -5.920382      -161.1018
  17   2.0000      -5.916391      -160.9932
  18   2.0000      -5.900221      -160.5532
  19   2.0000      -5.896519      -160.4524
  20   2.0000      -5.888809      -160.2427
  21   2.0000      -0.983110       -26.7518
  22   2.0000      -0.859629       -23.3917
  23   2.0000      -0.842385       -22.9225
  24   2.0000      -0.788796       -21.4642
  25   2.0000      -0.743366       -20.2280
  26   2.0000      -0.727066       -19.7845
  27   2.0000      -0.700850       -19.0711
  28   2.0000      -0.684075       -18.6146
  29   2.0000      -0.637740       -17.3538
  30   2.0000      -0.600339       -16.3360
  31   2.0000      -0.569264       -15.4904
  32   2.0000      -0.546494       -14.8709
  33   2.0000      -0.536508       -14.5991
  34   2.0000      -0.501763       -13.6537
  35   2.0000      -0.478913       -13.0319
  36   2.0000      -0.460872       -12.5410
  37   2.0000      -0.451332       -12.2814
  38   2.0000      -0.446389       -12.1469
  39   2.0000      -0.432894       -11.7797
  40   2.0000      -0.409776       -11.1506
  41   2.0000      -0.398901       -10.8546
  42   2.0000      -0.392236       -10.6733
  43   2.0000      -0.385810       -10.4984
  44   2.0000      -0.382028       -10.3955
  45   2.0000      -0.374361       -10.1869
  46   2.0000      -0.366592        -9.9755
  47   2.0000      -0.359770        -9.7899
  48   2.0000      -0.338056        -9.1990
  49   2.0000      -0.329309        -8.9609
  50   2.0000      -0.320818        -8.7299
  51   2.0000      -0.292160        -7.9501
  52   2.0000      -0.238970        -6.5027
  53   2.0000      -0.210956        -5.7404
  54   2.0000      -0.176230        -4.7955
  55   0.0000      -0.010088        -0.2745
  56   0.0000       0.028231         0.7682
  57   0.0000       0.038688         1.0527
  58   0.0000       0.053055         1.4437
  59   0.0000       0.057405         1.5621

MULLIKEN ATOMIC CHARGES
-----------------------
   0 C :   -0.102080
   1 C :   -0.010422
   2 C :    0.098227
   3 C :   -0.133621
   4 S :    0.110287
   5 C :   -0.083703
   6 C :   -0.083059
   7 N :   -0.187984
   8 C :    0.114099
   9 C :   -0.002356
  10 C :    0.132605
  11 C :   -0.070608
  12 S :   -0.013671
  13 H :    0.021059
  14 H :   -0.023642
  15 H :    0.014564
  16 H :    0.021521
  17 H :    0.024108
  18 H :    0.018969
  19 H :    0.029512
  20 H :    0.013463
  21 H :    0.016848
  22 H :    0.056052
  23 H :    0.039832
Sum of atomic charges:   -0.0000000

LOEWDIN ATOMIC CHARGES
----------------------
   0 C :   -0.188794
   1 C :   -0.088871
   2 C :   -0.034058
   3 C :   -0.227153
   4 S :    0.394929
   5 C :   -0.217398
   6 C :   -0.048489
   7 N :    0.034442
   8 C :    0.044395
   9 C :   -0.061941
  10 C :   -0.038073
  11 C :   -0.098972
  12 S :    0.240202
  13 H :    0.021565
  14 H :    0.027682
  15 H :    0.025993
  16 H :    0.027946
  17 H :    0.026807
  18 H :    0.028645
  19 H :    0.029939
  20 H :    0.029255
  21 H :    0.026778
  22 H :    0.022936
  23 H :    0.022235

  Mayer bond orders larger than 0.100000
B(  0-C ,  1-C ) :   1.5447 B(  0-C ,  4-S ) :   1.1385 B(  0-C , 13-H ) :   0.9618
B(  1-C ,  2-C ) :   1.2144 B(  1-C , 14-H ) :   1.0031 B(  2-C ,  3-C ) :   1.3946
B(  2-C ,  7-N ) :   1.1412 B(  3-C ,  4-S ) :   1.0416 B(  3-C ,  5-C ) :   1.4134
B(  5-C ,  6-C ) :   1.5302 B(  5-C , 12-S ) :   0.9546 B(  6-C ,  7-N ) :   1.1680
B(  6-C , 10-C ) :   1.0734 B(  7-N ,  8-C ) :   0.9826 B(  8-C ,  9-C ) :   1.1080
B(  8-C , 15-H ) :   0.9452 B(  8-C , 16-H ) :   0.9460 B(  9-C , 17-H ) :   0.9663
B(  9-C , 18-H ) :   0.9613 B(  9-C , 19-H ) :   0.9653 B( 10-C , 11-C ) :   1.0457
B( 10-C , 20-H ) :   0.9172 B( 10-C , 21-H ) :   0.9039 B( 11-C , 12-S ) :   0.9988
B( 11-C , 22-H ) :   0.9520 B( 11-C , 23-H ) :   0.9496

Dispersion correction           -0.053959100
FINAL SINGLE POINT ENERGY     -1238.314485238655

DIPOLE MOMENT
-------------
                                X             Y             Z
Electronic contribution:     13.01636     -11.94103      -1.97607
Nuclear contribution   :    -14.13514      13.13844       1.90870
                        -----------------------------------------
Total Dipole Moment    :     -1.11878       1.19741      -0.06737
                        -----------------------------------------
Magnitude (a.u.)       :      1.64012
Magnitude (Debye)      :      4.16886

Rotational constants in cm-1:     0.026810     0.020320     0.012103
Rotational constants in MHz :   803.752350   609.188570   362.849912

                             ****ORCA TERMINATED NORMALLY****
TOTAL RUN TIME: 0 days 0 hours 27 minutes 42 seconds 494 msec
