                         Program Version 4.2.0 -  RELEASE  -
|  1> # ORCA input file
|  2> # SCF done        -23.186968974550          0.000744479901
|  3> ! B3LYP/G D3BJ Opt RIJCOSX def2-SVP def2/J
|  4> * xyz 0 1
|  5>    C        0.09273         1.19728         0.19030
|  6>    S       -1.07970        -0.06750         0.15980
|  7>    C        0.13901        -1.23970        -0.09304
|  8>    C        1.39059        -0.68755        -0.15356
|  9>    C        1.34693         0.72796         0.01252
| 10>    C        2.65694        -1.41028        -0.36392
| 11>    O        3.71992        -0.83141        -0.39088
| 12>    C        2.54905        -2.90509        -0.54547
| 13>    H       -0.23233         2.20773         0.33718
| 14>    H       -0.14402        -2.26953        -0.18187
| 15>    H        2.23350         1.33467        -0.00592
| 16>    H        1.92007        -3.13155        -1.40376
| 17>    H        2.10340        -3.35575         0.33867
| 18>    H        3.54036        -3.32225        -0.70297
| 19> *
| 20>
| 21>                          ****END OF INPUT****
 Total Charge           Charge          ....    0
 Multiplicity           Mult            ....    1
 Number of Electrons    NEL             ....   66
Dispersion correction           -0.026176161
FINAL SINGLE POINT ENERGY      -705.345723840741
Dispersion correction            ... done
Dispersion correction           -0.026044722
FINAL SINGLE POINT ENERGY      -705.347651754761
Dispersion correction            ... done
Dispersion correction           -0.026022959
FINAL SINGLE POINT ENERGY      -705.347736105209
Dispersion correction            ... done
FINAL SINGLE POINT ENERGY      -705.347741008212
Dispersion correction            ... done
Dispersion correction           -0.026022715
FINAL SINGLE POINT ENERGY      -705.347753844642
Dispersion correction            ... done
Dispersion correction           -0.026024906
FINAL SINGLE POINT ENERGY      -705.347752004134
Dispersion correction            ... done
                    ***********************HURRAY********************

CARTESIAN COORDINATES (ANGSTROEM)
---------------------------------
  C      0.077876    1.228263    0.175127
  S     -1.099608   -0.048623    0.171655
  C      0.118323   -1.241093   -0.062375
  C      1.378838   -0.682240   -0.133844
  C      1.345853    0.744963    0.010218
  C      2.649659   -1.425809   -0.340188
  O      3.714942   -0.839887   -0.336147
  C      2.568650   -2.921536   -0.565592
  H     -0.243390    2.260912    0.303505
  H     -0.157990   -2.290619   -0.142245
  H      2.250601    1.351254   -0.018038
  H      1.931171   -3.150483   -1.434471
  H      2.122609   -3.425408    0.306826
  H      3.578916   -3.312665   -0.737351

 Multiplicity           Mult            ....    1
 Number of Electrons    NEL             ....   66
 Basis Dimension        Dim             ....  146

ORBITAL ENERGIES
----------------

  NO   OCC          E(Eh)            E(eV)
   0   2.0000     -88.888650     -2418.7831
   1   2.0000     -19.121116      -520.3120
   2   2.0000     -10.276145      -279.6281
   3   2.0000     -10.230516      -278.3865
   4   2.0000     -10.222641      -278.1722
   5   2.0000     -10.203722      -277.6574
   6   2.0000     -10.201398      -277.5941
   7   2.0000     -10.194999      -277.4200
   8   2.0000      -7.983813      -217.2506
   9   2.0000      -5.951823      -161.9573
  10   2.0000      -5.947605      -161.8426
  11   2.0000      -5.945501      -161.7853
  12   2.0000      -1.028679       -27.9918
  13   2.0000      -0.890803       -24.2400
  14   2.0000      -0.767886       -20.8952
  15   2.0000      -0.740035       -20.1374
  16   2.0000      -0.716930       -19.5087
  17   2.0000      -0.602524       -16.3955
  18   2.0000      -0.573614       -15.6088
  19   2.0000      -0.541486       -14.7346
  20   2.0000      -0.493641       -13.4327
  21   2.0000      -0.448969       -12.2171
  22   2.0000      -0.444002       -12.0819
  23   2.0000      -0.438311       -11.9270
  24   2.0000      -0.415226       -11.2989
  25   2.0000      -0.395977       -10.7751
  26   2.0000      -0.394586       -10.7372
  27   2.0000      -0.387512       -10.5447
  28   2.0000      -0.363923        -9.9028
  29   2.0000      -0.361324        -9.8321
  30   2.0000      -0.265968        -7.2374
  31   2.0000      -0.256386        -6.9766
  32   2.0000      -0.254256        -6.9186
  33   0.0000      -0.056842        -1.5468
  34   0.0000      -0.009150        -0.2490
  35   0.0000       0.035241         0.9590
  36   0.0000       0.056642         1.5413
  37   0.0000       0.085268         2.3203

MULLIKEN ATOMIC CHARGES
-----------------------
   0 C :   -0.087100
   1 S :    0.114896
   2 C :   -0.118382
   3 C :    0.010778
   4 C :    0.045845
   5 C :    0.021539
   6 O :   -0.195037
   7 C :    0.033450
   8 H :    0.036020
   9 H :    0.030196
  10 H :    0.008873
  11 H :    0.033918
  12 H :    0.035367
  13 H :    0.029638
Sum of atomic charges:   -0.0000000

LOEWDIN ATOMIC CHARGES
----------------------
   0 C :   -0.184937
   1 S :    0.445291
   2 C :   -0.177929
   3 C :   -0.108148
   4 C :   -0.034861
   5 C :    0.078622
   6 O :   -0.152997
   7 C :   -0.076319
   8 H :    0.027774
   9 H :    0.026336
  10 H :    0.038796
  11 H :    0.039652
  12 H :    0.040720
  13 H :    0.038000

  Mayer bond orders larger than 0.100000
B(  0-C ,  1-S ) :   1.1516 B(  0-C ,  4-C ) :   1.5678 B(  0-C ,  8-H ) :   0.9684
B(  1-S ,  2-C ) :   1.1939 B(  2-C ,  3-C ) :   1.5114 B(  2-C ,  9-H ) :   0.9536
B(  3-C ,  4-C ) :   1.2529 B(  3-C ,  5-C ) :   0.9478 B(  4-C , 10-H ) :   0.9966
B(  5-C ,  6-O ) :   2.1638 B(  5-C ,  7-C ) :   1.0627 B(  7-C , 11-H ) :   0.9462
B(  7-C , 12-H ) :   0.9428 B(  7-C , 13-H ) :   0.9488

Dispersion correction           -0.026024581
FINAL SINGLE POINT ENERGY      -705.347740515369

DIPOLE MOMENT
-------------
                                X             Y             Z
Electronic contribution:     -4.12558       4.34852       1.07836
Nuclear contribution   :      3.13054      -4.69971      -1.06365
                        -----------------------------------------
Total Dipole Moment    :     -0.99504      -0.35118       0.01471
                        -----------------------------------------
Magnitude (a.u.)       :      1.05529
Magnitude (Debye)      :      2.68234

Rotational constants in cm-1:     0.139129     0.038709     0.030468
Rotational constants in MHz :  4170.991631  1160.470602   913.397426

                             ****ORCA TERMINATED NORMALLY****
TOTAL RUN TIME: 0 days 0 hours 3 minutes 58 seconds 621 msec
