                         Program Version 4.2.0 -  RELEASE  -
|  1> # ORCA input file
|  2> # SCF done        -26.831850794897          0.000398002701
|  3> ! B3LYP/G D3BJ Opt RIJCOSX def2-SVP def2/J
|  4> * xyz 0 1
|  5>    C       -1.78543        -0.95558        -0.05854
|  6>    S       -1.58003         0.75989         0.12606
|  7>    C        0.13773         0.56017         0.12960
|  8>    C        0.48485        -0.78944        -0.00858
|  9>    C       -0.62278        -1.65573        -0.11646
| 10>    N        1.84037        -0.86391         0.00113
| 11>    C        2.36139         0.40325         0.14257
| 12>    C        1.31495         1.31003         0.22482
| 13>    C        3.78358         0.60822         0.18133
| 14>    C        4.39144         1.78439         0.31763
| 15>    H       -2.78382        -1.34192        -0.11374
| 16>    H       -0.56837        -2.72341        -0.22897
| 17>    H        2.39036        -1.70251        -0.07888
| 18>    H        1.39860         2.37105         0.33798
| 19>    H        4.37859        -0.29279         0.08750
| 20>    H        3.83734         2.70107         0.41341
| 21>    H        5.46388         1.86354         0.33788
| 22> *
| 23>
| 24>                          ****END OF INPUT****
 Total Charge           Charge          ....    0
 Multiplicity           Mult            ....    1
 Number of Electrons    NEL             ....   78
Dispersion correction           -0.034364590
FINAL SINGLE POINT ENERGY      -761.634428974462
Dispersion correction            ... done
Dispersion correction           -0.034312950
FINAL SINGLE POINT ENERGY      -761.637408331294
Dispersion correction            ... done
Dispersion correction           -0.034304826
FINAL SINGLE POINT ENERGY      -761.637499197326
Dispersion correction            ... done
FINAL SINGLE POINT ENERGY      -761.637514539641
FINAL SINGLE POINT ENERGY      -761.637517115981
Dispersion correction            ... done
Dispersion correction           -0.034295706
FINAL SINGLE POINT ENERGY      -761.637515583059
Dispersion correction            ... done
Dispersion correction           -0.034296118
FINAL SINGLE POINT ENERGY      -761.637511499044
Dispersion correction            ... done
                    ***********************HURRAY********************

CARTESIAN COORDINATES (ANGSTROEM)
---------------------------------
  C     -1.823610   -0.975633   -0.061433
  S     -1.612374    0.752399    0.141169
  C      0.117557    0.564386    0.139196
  C      0.466396   -0.789679   -0.010483
  C     -0.643310   -1.674504   -0.126997
  N      1.834875   -0.861938    0.005509
  C      2.366580    0.413889    0.155638
  C      1.308432    1.322910    0.242275
  C      3.801273    0.618909    0.201406
  C      4.432958    1.800940    0.294760
  H     -2.832149   -1.380938   -0.129989
  H     -0.584166   -2.755055   -0.261685
  H      2.386456   -1.702620   -0.098717
  H      1.412674    2.396152    0.378492
  H      4.405296   -0.295697    0.152927
  H      3.883117    2.744300    0.343210
  H      5.522647    1.858497    0.329462

 Multiplicity           Mult            ....    1
 Number of Electrons    NEL             ....   78
 Basis Dimension        Dim             ....  179

ORBITAL ENERGIES
----------------

  NO   OCC          E(Eh)            E(eV)
   0   2.0000     -88.864627     -2418.1294
   1   2.0000     -14.378167      -391.2498
   2   2.0000     -10.221834      -278.1502
   3   2.0000     -10.216904      -278.0161
   4   2.0000     -10.209244      -277.8076
   5   2.0000     -10.202128      -277.6140
   6   2.0000     -10.197982      -277.5012
   7   2.0000     -10.196846      -277.4703
   8   2.0000     -10.186714      -277.1946
   9   2.0000     -10.183351      -277.1031
  10   2.0000      -7.958952      -216.5741
  11   2.0000      -5.927462      -161.2944
  12   2.0000      -5.923533      -161.1875
  13   2.0000      -5.919488      -161.0775
  14   2.0000      -0.977804       -26.6074
  15   2.0000      -0.858500       -23.3610
  16   2.0000      -0.788790       -21.4641
  17   2.0000      -0.762365       -20.7450
  18   2.0000      -0.721719       -19.6390
  19   2.0000      -0.689080       -18.7508
  20   2.0000      -0.614209       -16.7135
  21   2.0000      -0.595107       -16.1937
  22   2.0000      -0.552223       -15.0267
  23   2.0000      -0.542784       -14.7699
  24   2.0000      -0.514131       -13.9902
  25   2.0000      -0.471476       -12.8295
  26   2.0000      -0.442848       -12.0505
  27   2.0000      -0.439731       -11.9657
  28   2.0000      -0.432746       -11.7756
  29   2.0000      -0.409531       -11.1439
  30   2.0000      -0.398608       -10.8467
  31   2.0000      -0.379304       -10.3214
  32   2.0000      -0.359920        -9.7939
  33   2.0000      -0.352399        -9.5893
  34   2.0000      -0.340149        -9.2559
  35   2.0000      -0.299226        -8.1423
  36   2.0000      -0.270310        -7.3555
  37   2.0000      -0.223289        -6.0760
  38   2.0000      -0.192469        -5.2373
  39   0.0000      -0.036570        -0.9951
  40   0.0000       0.012626         0.3436
  41   0.0000       0.038635         1.0513
  42   0.0000       0.060493         1.6461
  43   0.0000       0.078250         2.1293

MULLIKEN ATOMIC CHARGES
-----------------------
   0 C :   -0.101767
   1 S :    0.101338
   2 C :   -0.051747
   3 C :    0.073432
   4 C :    0.004246
   5 N :   -0.061703
   6 C :    0.088326
   7 C :   -0.120145
   8 C :    0.008392
   9 C :   -0.040972
  10 H :    0.024558
  11 H :   -0.022562
  12 H :    0.113936
  13 H :   -0.024849
  14 H :   -0.028484
  15 H :    0.013480
  16 H :    0.024521
Sum of atomic charges:   -0.0000000

LOEWDIN ATOMIC CHARGES
----------------------
   0 C :   -0.182351
   1 S :    0.390182
   2 C :   -0.204773
   3 C :   -0.036238
   4 C :   -0.087023
   5 N :    0.069947
   6 C :   -0.009871
   7 C :   -0.082436
   8 C :   -0.038638
   9 C :   -0.056113
  10 H :    0.022710
  11 H :    0.029337
  12 H :    0.086055
  13 H :    0.026281
  14 H :    0.025093
  15 H :    0.022131
  16 H :    0.025706

  Mayer bond orders larger than 0.100000
B(  0-C ,  1-S ) :   1.1402 B(  0-C ,  4-C ) :   1.5482 B(  0-C , 10-H ) :   0.9619
B(  1-S ,  2-C ) :   1.0509 B(  2-C ,  3-C ) :   1.3693 B(  2-C ,  7-C ) :   1.3028
B(  3-C ,  4-C ) :   1.2102 B(  3-C ,  5-N ) :   1.1818 B(  4-C , 11-H ) :   1.0055
B(  5-N ,  6-C ) :   1.1618 B(  5-N , 12-H ) :   0.9356 B(  6-C ,  7-C ) :   1.4487
B(  6-C ,  8-C ) :   1.1046 B(  7-C , 13-H ) :   1.0111 B(  8-C ,  9-C ) :   1.9126
B(  8-C , 14-H ) :   0.9475 B(  9-C , 15-H ) :   0.9510 B(  9-C , 16-H ) :   0.9466

Dispersion correction           -0.034296423
FINAL SINGLE POINT ENERGY      -761.637508438785

DIPOLE MOMENT
-------------
                                X             Y             Z
Electronic contribution:     -8.12940      -0.30177      -0.08036
Nuclear contribution   :      8.60418      -0.45686      -0.00740
                        -----------------------------------------
Total Dipole Moment    :      0.47478      -0.75863      -0.08776
                        -----------------------------------------
Magnitude (a.u.)       :      0.89924
Magnitude (Debye)      :      2.28570

Rotational constants in cm-1:     0.115893     0.023714     0.019687
Rotational constants in MHz :  3474.387622   710.932957   590.210060

                             ****ORCA TERMINATED NORMALLY****
TOTAL RUN TIME: 0 days 0 hours 6 minutes 15 seconds 553 msec
