                         Program Version 4.2.0 -  RELEASE  -
|  1> # ORCA input file
|  2> # SCF done        -46.491700302013          0.000669374996
|  3> ! B3LYP/G D3BJ Opt RIJCOSX def2-SVP def2/J
|  4> * xyz 0 1
|  5>    C       -1.65074        -1.53828         0.14741
|  6>    S       -2.81554        -0.29237         0.20128
|  7>    C       -1.63255         0.92479         0.09145
|  8>    C       -0.36571         0.39688         0.01465
|  9>    C       -0.37027        -1.04408         0.04712
| 10>    C        0.88262        -1.71757        -0.02541
| 11>    C        1.03048        -3.20746        -0.00268
| 12>    F       -0.11081        -3.89850         0.10835
| 13>    F        1.63324        -3.66948        -1.11973
| 14>    F        1.81080        -3.61904         1.01989
| 15>    C        2.03365        -0.98476        -0.12402
| 16>    C        2.03547         0.42253        -0.15628
| 17>    C        0.86025         1.12364        -0.08809
| 18>    O        0.73086         2.46838        -0.10838
| 19>    C        1.89729         3.25394        -0.20753
| 20>    H       -1.97687        -2.55622         0.19268
| 21>    H       -1.90698         1.95948         0.08744
| 22>    H        2.98125        -1.49951        -0.17935
| 23>    H        2.98489         0.92495        -0.23582
| 24>    H        1.55743         4.28785        -0.19762
| 25>    H        2.43260         3.05537        -1.14081
| 26>    H        2.56653         3.08263         0.64081
| 27> *
| 28>
| 29>                          ****END OF INPUT****
 Total Charge           Charge          ....    0
 Multiplicity           Mult            ....    1
 Number of Electrons    NEL             ....  118
Dispersion correction           -0.047024042
FINAL SINGLE POINT ENERGY     -1157.581843909882
Dispersion correction            ... done
Dispersion correction           -0.046895462
FINAL SINGLE POINT ENERGY     -1157.584436937517
Dispersion correction            ... done
Dispersion correction           -0.046857778
FINAL SINGLE POINT ENERGY     -1157.584609280141
Dispersion correction            ... done
FINAL SINGLE POINT ENERGY     -1157.584695088421
FINAL SINGLE POINT ENERGY     -1157.584851723892
FINAL SINGLE POINT ENERGY     -1157.585016127962
FINAL SINGLE POINT ENERGY     -1157.585257957380
FINAL SINGLE POINT ENERGY     -1157.585360469443
FINAL SINGLE POINT ENERGY     -1157.585542418327
FINAL SINGLE POINT ENERGY     -1157.585883996852
FINAL SINGLE POINT ENERGY     -1157.587532095939
FINAL SINGLE POINT ENERGY     -1157.587530906892
FINAL SINGLE POINT ENERGY     -1157.587530123872
FINAL SINGLE POINT ENERGY     -1157.587530524052
FINAL SINGLE POINT ENERGY     -1157.587781656627
FINAL SINGLE POINT ENERGY     -1157.588117521474
FINAL SINGLE POINT ENERGY     -1157.588188986353
Dispersion correction            ... done
Dispersion correction           -0.047074864
FINAL SINGLE POINT ENERGY     -1157.588210022525
Dispersion correction            ... done
Dispersion correction           -0.047075294
FINAL SINGLE POINT ENERGY     -1157.588216163424
Dispersion correction            ... done
                    ***********************HURRAY********************

CARTESIAN COORDINATES (ANGSTROEM)
---------------------------------
  C     -1.608641   -1.589524   -0.023542
  S     -2.800347   -0.355431   -0.049093
  C     -1.641660    0.905191   -0.069870
  C     -0.352832    0.393240   -0.058820
  C     -0.326297   -1.055152   -0.029183
  C      0.943253   -1.728793   -0.009656
  C      0.981870   -3.225685    0.049331
  F      0.362299   -3.702566    1.152044
  F      0.352276   -3.793506   -1.004547
  F      2.235935   -3.701769    0.064430
  C      2.092596   -0.978997   -0.030655
  C      2.075916    0.448609   -0.066417
  C      0.879393    1.133837   -0.076037
  O      0.735374    2.473063   -0.101749
  C      1.887546    3.288472   -0.138412
  H     -1.895595   -2.637824   -0.003581
  H     -1.939420    1.950366   -0.093447
  H      3.058379   -1.485267   -0.016641
  H      3.026422    0.979937   -0.082378
  H      1.529781    4.326289   -0.162837
  H      2.494173    3.089541   -1.039352
  H      2.517471    3.139139    0.755773

 Multiplicity           Mult            ....    1
 Number of Electrons    NEL             ....  118
 Basis Dimension        Dim             ....  249

ORBITAL ENERGIES
----------------

  NO   OCC          E(Eh)            E(eV)
   0   2.0000     -88.891300     -2418.8553
   1   2.0000     -24.713553      -672.4900
   2   2.0000     -24.705909      -672.2820
   3   2.0000     -24.705687      -672.2759
   4   2.0000     -19.184743      -522.0434
   5   2.0000     -10.424940      -283.6770
   6   2.0000     -10.268001      -279.4065
   7   2.0000     -10.259843      -279.1845
   8   2.0000     -10.219955      -278.0991
   9   2.0000     -10.216326      -278.0004
  10   2.0000     -10.211104      -277.8583
  11   2.0000     -10.209713      -277.8204
  12   2.0000     -10.207406      -277.7576
  13   2.0000     -10.205675      -277.7105
  14   2.0000     -10.197324      -277.4833
  15   2.0000      -7.985926      -217.3081
  16   2.0000      -5.953628      -162.0065
  17   2.0000      -5.949436      -161.8924
  18   2.0000      -5.948372      -161.8634
  19   2.0000      -1.287144       -35.0250
  20   2.0000      -1.198134       -32.6029
  21   2.0000      -1.190115       -32.3847
  22   2.0000      -1.080654       -29.4061
  23   2.0000      -0.899966       -24.4893
  24   2.0000      -0.841978       -22.9114
  25   2.0000      -0.791629       -21.5413
  26   2.0000      -0.748059       -20.3557
  27   2.0000      -0.724882       -19.7250
  28   2.0000      -0.716075       -19.4854
  29   2.0000      -0.675981       -18.3944
  30   2.0000      -0.621599       -16.9146
  31   2.0000      -0.602428       -16.3929
  32   2.0000      -0.593950       -16.1622
  33   2.0000      -0.580218       -15.7885
  34   2.0000      -0.579908       -15.7801
  35   2.0000      -0.551655       -15.0113
  36   2.0000      -0.542460       -14.7611
  37   2.0000      -0.504841       -13.7374
  38   2.0000      -0.488409       -13.2903
  39   2.0000      -0.477803       -13.0017
  40   2.0000      -0.461645       -12.5620
  41   2.0000      -0.459821       -12.5124
  42   2.0000      -0.453426       -12.3384
  43   2.0000      -0.438268       -11.9259
  44   2.0000      -0.425718       -11.5844
  45   2.0000      -0.425032       -11.5657
  46   2.0000      -0.414397       -11.2763
  47   2.0000      -0.410271       -11.1640
  48   2.0000      -0.409915       -11.1544
  49   2.0000      -0.399393       -10.8680
  50   2.0000      -0.390821       -10.6348
  51   2.0000      -0.368925       -10.0390
  52   2.0000      -0.367963       -10.0128
  53   2.0000      -0.356166        -9.6918
  54   2.0000      -0.348754        -9.4901
  55   2.0000      -0.334743        -9.1088
  56   2.0000      -0.270803        -7.3689
  57   2.0000      -0.261321        -7.1109
  58   2.0000      -0.210887        -5.7385
  59   0.0000      -0.065018        -1.7692
  60   0.0000       0.007448         0.2027
  61   0.0000       0.017026         0.4633
  62   0.0000       0.043435         1.1819
  63   0.0000       0.053851         1.4654

MULLIKEN ATOMIC CHARGES
-----------------------
   0 C :   -0.135995
   1 S :    0.147016
   2 C :   -0.143936
   3 C :    0.060994
   4 C :    0.073089
   5 C :   -0.085156
   6 C :    0.532252
   7 F :   -0.182606
   8 F :   -0.183728
   9 F :   -0.165686
  10 C :   -0.008562
  11 C :   -0.126992
  12 C :    0.238115
  13 O :   -0.302795
  14 C :    0.178976
  15 H :    0.029722
  16 H :    0.024961
  17 H :   -0.012408
  18 H :   -0.032472
  19 H :    0.038602
  20 H :    0.027950
  21 H :    0.028662
Sum of atomic charges:   -0.0000000

LOEWDIN ATOMIC CHARGES
----------------------
   0 C :   -0.207813
   1 S :    0.492519
   2 C :   -0.194374
   3 C :   -0.065758
   4 C :   -0.040208
   5 C :   -0.103162
   6 C :    0.178606
   7 F :   -0.074587
   8 F :   -0.075371
   9 F :   -0.057992
  10 C :    0.003241
  11 C :   -0.103153
  12 C :    0.070179
  13 O :   -0.084387
  14 C :    0.083123
  15 H :    0.026482
  16 H :    0.029272
  17 H :    0.032194
  18 H :    0.027274
  19 H :    0.029097
  20 H :    0.017457
  21 H :    0.017361

  Mayer bond orders larger than 0.100000
B(  0-C ,  1-S ) :   1.1956 B(  0-C ,  2-C ) :   0.1104 B(  0-C ,  4-C ) :   1.4576
B(  0-C , 15-H ) :   0.9408 B(  1-S ,  2-C ) :   1.2102 B(  2-C ,  3-C ) :   1.4143
B(  2-C , 16-H ) :   0.9675 B(  3-C ,  4-C ) :   1.2317 B(  3-C , 12-C ) :   1.1628
B(  4-C ,  5-C ) :   1.1726 B(  5-C ,  6-C ) :   0.9613 B(  5-C , 10-C ) :   1.5552
B(  6-C ,  7-F ) :   1.1282 B(  6-C ,  8-F ) :   1.1237 B(  6-C ,  9-F ) :   1.1465
B( 10-C , 11-C ) :   1.1654 B( 10-C , 17-H ) :   0.9856 B( 11-C , 12-C ) :   1.4234
B( 11-C , 18-H ) :   0.9943 B( 12-C , 13-O ) :   1.2088 B( 13-O , 14-C ) :   0.9525
B( 14-C , 19-H ) :   0.9773 B( 14-C , 20-H ) :   0.9661 B( 14-C , 21-H ) :   0.9664

Dispersion correction           -0.047076657
FINAL SINGLE POINT ENERGY     -1157.588218123812

DIPOLE MOMENT
-------------
                                X             Y             Z
Electronic contribution:     -4.54000     -20.97028       0.65817
Nuclear contribution   :      4.85632      22.52132      -0.71359
                        -----------------------------------------
Total Dipole Moment    :      0.31632       1.55104      -0.05542
                        -----------------------------------------
Magnitude (a.u.)       :      1.58394
Magnitude (Debye)      :      4.02605

Rotational constants in cm-1:     0.024899     0.014081     0.009458
Rotational constants in MHz :   746.462369   422.138898   283.534949

                             ****ORCA TERMINATED NORMALLY****
TOTAL RUN TIME: 0 days 1 hours 27 minutes 0 seconds 639 msec
