                         Program Version 4.2.0 -  RELEASE  -
|  1> # ORCA input file
|  2> # SCF done        -30.728299756712          0.000536598755
|  3> ! B3LYP/G D3BJ Opt RIJCOSX def2-SVP def2/J
|  4> * xyz 0 1
|  5>    C       -1.49286        -1.25366         0.15013
|  6>    S       -2.67271        -0.02317         0.24092
|  7>    C       -1.49643         1.21362         0.15817
|  8>    C       -0.22289         0.70465         0.06389
|  9>    C       -0.22216        -0.73496         0.05927
| 10>    C        1.00693        -1.42849        -0.03281
| 11>    C        2.16797        -0.72125        -0.11588
| 12>    S        3.74605        -1.53626        -0.23496
| 13>    C        2.17689         0.71144        -0.11187
| 14>    O        3.33960         1.40482        -0.19494
| 15>    C        1.00318         1.40268        -0.02360
| 16>    H       -1.78966        -2.28296         0.16848
| 17>    H       -1.79893         2.24074         0.18330
| 18>    H        1.00349        -2.50889        -0.03597
| 19>    H        3.25892        -2.77108        -0.21207
| 20>    H        4.09075         0.80106        -0.25523
| 21>    H        1.02220         2.48013        -0.02159
| 22> *
| 23>
| 24>                          ****END OF INPUT****
 Total Charge           Charge          ....    0
 Multiplicity           Mult            ....    1
 Number of Electrons    NEL             ....   94
Dispersion correction           -0.041298286
FINAL SINGLE POINT ENERGY     -1179.591337556938
Dispersion correction            ... done
Dispersion correction           -0.041140768
FINAL SINGLE POINT ENERGY     -1179.593921894439
Dispersion correction            ... done
Dispersion correction           -0.041102817
FINAL SINGLE POINT ENERGY     -1179.594173997324
Dispersion correction            ... done
FINAL SINGLE POINT ENERGY     -1179.594440503166
FINAL SINGLE POINT ENERGY     -1179.594759006704
FINAL SINGLE POINT ENERGY     -1179.595573307667
FINAL SINGLE POINT ENERGY     -1179.596630226271
FINAL SINGLE POINT ENERGY     -1179.598021122093
FINAL SINGLE POINT ENERGY     -1179.599051513591
FINAL SINGLE POINT ENERGY     -1179.599712626112
FINAL SINGLE POINT ENERGY     -1179.600387200451
FINAL SINGLE POINT ENERGY     -1179.600498802525
FINAL SINGLE POINT ENERGY     -1179.600516760999
Dispersion correction            ... done
Dispersion correction           -0.041160962
FINAL SINGLE POINT ENERGY     -1179.600515020256
Dispersion correction            ... done
Dispersion correction           -0.041162351
FINAL SINGLE POINT ENERGY     -1179.600511961015
Dispersion correction            ... done
                    ***********************HURRAY********************

CARTESIAN COORDINATES (ANGSTROEM)
---------------------------------
  C     -1.603002   -1.232366    0.241129
  S     -2.732626    0.051998    0.211664
  C     -1.515771    1.255935    0.070053
  C     -0.244138    0.693417    0.038728
  C     -0.297403   -0.756751    0.148993
  C      0.922151   -1.497078    0.161666
  C      2.119668   -0.837532    0.039310
  S      3.674998   -1.726750    0.159415
  C      2.174655    0.606003   -0.099813
  O      3.363881    1.222091   -0.254455
  C      1.017619    1.347395   -0.084918
  H     -1.935099   -2.265066    0.328041
  H     -1.784707    2.308139    0.005114
  H      0.908227   -2.582787    0.276094
  H      3.909001   -1.873019   -1.169067
  H      4.059396    0.552313   -0.109275
  H      1.083491    2.432479   -0.177439

 Multiplicity           Mult            ....    1
 Number of Electrons    NEL             ....   94
 Basis Dimension        Dim             ....  192

ORBITAL ENERGIES
----------------

  NO   OCC          E(Eh)            E(eV)
   0   2.0000     -88.886931     -2418.7364
   1   2.0000     -88.865841     -2418.1625
   2   2.0000     -19.158977      -521.3423
   3   2.0000     -10.254535      -279.0401
   4   2.0000     -10.226862      -278.2871
   5   2.0000     -10.217053      -278.0202
   6   2.0000     -10.210709      -277.8475
   7   2.0000     -10.209013      -277.8014
   8   2.0000     -10.203697      -277.6567
   9   2.0000     -10.203424      -277.6493
  10   2.0000     -10.185277      -277.1555
  11   2.0000      -7.981505      -217.1878
  12   2.0000      -7.959521      -216.5896
  13   2.0000      -5.949184      -161.8855
  14   2.0000      -5.945073      -161.7737
  15   2.0000      -5.943942      -161.7429
  16   2.0000      -5.928382      -161.3195
  17   2.0000      -5.925020      -161.2280
  18   2.0000      -5.918877      -161.0608
  19   2.0000      -1.051626       -28.6162
  20   2.0000      -0.893008       -24.3000
  21   2.0000      -0.838919       -22.8282
  22   2.0000      -0.783307       -21.3149
  23   2.0000      -0.755392       -20.5552
  24   2.0000      -0.714999       -19.4561
  25   2.0000      -0.690336       -18.7850
  26   2.0000      -0.615722       -16.7546
  27   2.0000      -0.595313       -16.1993
  28   2.0000      -0.573036       -15.5931
  29   2.0000      -0.540910       -14.7189
  30   2.0000      -0.498541       -13.5660
  31   2.0000      -0.481354       -13.0983
  32   2.0000      -0.460275       -12.5247
  33   2.0000      -0.442633       -12.0447
  34   2.0000      -0.428312       -11.6550
  35   2.0000      -0.414761       -11.2862
  36   2.0000      -0.402252       -10.9458
  37   2.0000      -0.391546       -10.6545
  38   2.0000      -0.384468       -10.4619
  39   2.0000      -0.371402       -10.1064
  40   2.0000      -0.353752        -9.6261
  41   2.0000      -0.342590        -9.3224
  42   2.0000      -0.318519        -8.6674
  43   2.0000      -0.285262        -7.7624
  44   2.0000      -0.270866        -7.3706
  45   2.0000      -0.242458        -6.5976
  46   2.0000      -0.200561        -5.4575
  47   0.0000      -0.064196        -1.7469
  48   0.0000       0.004074         0.1109
  49   0.0000       0.023496         0.6393
  50   0.0000       0.039235         1.0677
  51   0.0000       0.043022         1.1707

MULLIKEN ATOMIC CHARGES
-----------------------
   0 C :   -0.136819
   1 S :    0.138294
   2 C :   -0.155379
   3 C :    0.125171
   4 C :    0.093972
   5 C :    0.001905
   6 C :   -0.153574
   7 S :   -0.019215
   8 C :    0.177625
   9 O :   -0.184769
  10 C :   -0.085727
  11 H :    0.018024
  12 H :    0.017051
  13 H :   -0.030029
  14 H :    0.072423
  15 H :    0.153750
  16 H :   -0.032702
Sum of atomic charges:   -0.0000000

LOEWDIN ATOMIC CHARGES
----------------------
   0 C :   -0.207093
   1 S :    0.483245
   2 C :   -0.223502
   3 C :   -0.039994
   4 C :   -0.062502
   5 C :   -0.012806
   6 C :   -0.204446
   7 S :    0.213433
   8 C :    0.031753
   9 O :   -0.054336
  10 C :   -0.067260
  11 H :    0.025145
  12 H :    0.024221
  13 H :    0.030446
  14 H :   -0.017645
  15 H :    0.048707
  16 H :    0.032635

  Mayer bond orders larger than 0.100000
B(  0-C ,  1-S ) :   1.2213 B(  0-C ,  2-C ) :   0.1196 B(  0-C ,  4-C ) :   1.3912
B(  0-C , 11-H ) :   0.9662 B(  1-S ,  2-C ) :   1.1877 B(  2-C ,  3-C ) :   1.4096
B(  2-C , 12-H ) :   0.9643 B(  3-C ,  4-C ) :   1.1951 B(  3-C , 10-C ) :   1.1561
B(  4-C ,  5-C ) :   1.1721 B(  5-C ,  6-C ) :   1.5595 B(  5-C , 10-C ) :   0.1062
B(  5-C , 13-H ) :   0.9938 B(  6-C ,  7-S ) :   1.0066 B(  6-C ,  8-C ) :   1.1410
B(  7-S , 14-H ) :   0.9423 B(  7-S , 15-H ) :   0.1267 B(  8-C ,  9-O ) :   1.2434
B(  8-C , 10-C ) :   1.5029 B(  9-O , 15-H ) :   0.9197 B( 10-C , 16-H ) :   1.0056

Dispersion correction           -0.041161399
FINAL SINGLE POINT ENERGY     -1179.600518450213

DIPOLE MOMENT
-------------
                                X             Y             Z
Electronic contribution:     -2.28195      -0.48116       0.97260
Nuclear contribution   :      2.16123      -0.02765      -1.21204
                        -----------------------------------------
Total Dipole Moment    :     -0.12071      -0.50881      -0.23944
                        -----------------------------------------
Magnitude (a.u.)       :      0.57514
Magnitude (Debye)      :      1.46190

Rotational constants in cm-1:     0.072098     0.016366     0.013378
Rotational constants in MHz :  2161.443144   490.637384   401.071827

                             ****ORCA TERMINATED NORMALLY****
TOTAL RUN TIME: 0 days 0 hours 17 minutes 25 seconds 530 msec
