                         Program Version 4.2.0 -  RELEASE  -
|  1> # ORCA input file
|  2> # SCF done        -40.413248861541          0.000753107871
|  3> ! B3LYP/G D3BJ Opt RIJCOSX def2-SVP def2/J
|  4> * xyz 0 1
|  5>    C       -3.14775         0.33695         0.15001
|  6>    S       -1.99737         1.62780         0.18421
|  7>    C       -0.71710         0.48664         0.08399
|  8>    C       -1.17598        -0.81882         0.02804
|  9>    C       -2.57592        -0.89827         0.06647
| 10>    C       -0.02231        -1.79131        -0.05900
| 11>    C        0.00922        -2.72775         1.15181
| 12>    C       -0.06643        -2.59363        -1.36218
| 13>    C        1.14686        -0.83222        -0.04396
| 14>    C        0.70413         0.48089         0.03963
| 15>    S        1.99564         1.60644         0.05656
| 16>    C        3.15696         0.29742        -0.05085
| 17>    C        2.53670        -0.93340        -0.09488
| 18>    C        4.55432         0.62515        -0.08195
| 19>    C        5.55456        -0.25142        -0.15877
| 20>    H       -4.19088         0.57958         0.19465
| 21>    H       -3.14329        -1.81107         0.03470
| 22>    H       -0.87724        -3.35762         1.16102
| 23>    H        0.03692        -2.15092         2.07364
| 24>    H        0.89113        -3.36271         1.11134
| 25>    H       -0.95518        -3.21983        -1.38665
| 26>    H        0.81301        -3.22840        -1.44089
| 27>    H       -0.08923        -1.92194        -2.21745
| 28>    H        3.07924        -1.85861        -0.16163
| 29>    H        4.77394         1.68390        -0.03691
| 30>    H        5.38571        -1.31252        -0.20562
| 31>    H        6.58007         0.07209        -0.17732
| 32> *
| 33>
| 34>                          ****END OF INPUT****
 Total Charge           Charge          ....    0
 Multiplicity           Mult            ....    1
 Number of Electrons    NEL             ....  122
Dispersion correction           -0.065344205
FINAL SINGLE POINT ENERGY     -1298.431313125520
Dispersion correction            ... done
Dispersion correction           -0.065005089
FINAL SINGLE POINT ENERGY     -1298.435671614455
Dispersion correction            ... done
Dispersion correction           -0.064947529
FINAL SINGLE POINT ENERGY     -1298.435786514783
Dispersion correction            ... done
FINAL SINGLE POINT ENERGY     -1298.435767976581
Dispersion correction            ... done
Dispersion correction           -0.064928547
FINAL SINGLE POINT ENERGY     -1298.435778921697
Dispersion correction            ... done
Dispersion correction           -0.064934502
FINAL SINGLE POINT ENERGY     -1298.435776186391
Dispersion correction            ... done
                    ***********************HURRAY********************

CARTESIAN COORDINATES (ANGSTROEM)
---------------------------------
  C     -3.196328    0.354597    0.157403
  S     -2.017260    1.637450    0.224720
  C     -0.734381    0.490059    0.105580
  C     -1.200879   -0.816501    0.020340
  C     -2.617912   -0.892961    0.050900
  C     -0.036918   -1.802022   -0.065182
  C     -0.017151   -2.729259    1.164235
  C     -0.072730   -2.613108   -1.373042
  C      1.147908   -0.837461   -0.040137
  C      0.707086    0.480219    0.064536
  S      2.011421    1.601510    0.091690
  C      3.186470    0.294200   -0.042744
  C      2.553585   -0.943090   -0.098415
  C      4.596935    0.634842   -0.091656
  C      5.626062   -0.226619   -0.164818
  H     -4.254852    0.606648    0.197707
  H     -3.198672   -1.814747   -0.004590
  H     -0.913512   -3.370030    1.184367
  H      0.007335   -2.138658    2.092215
  H      0.868687   -3.384549    1.146474
  H     -0.971838   -3.248975   -1.414168
  H      0.809377   -3.269247   -1.449484
  H     -0.081757   -1.943386   -2.245940
  H      3.103649   -1.880445   -0.188822
  H      4.821734    1.707267   -0.068250
  H      5.479966   -1.310443   -0.190810
  H      6.653705    0.141131   -0.204101

 Multiplicity           Mult            ....    1
 Number of Electrons    NEL             ....  122
 Basis Dimension        Dim             ....  278

ORBITAL ENERGIES
----------------

  NO   OCC          E(Eh)            E(eV)
   0   2.0000     -88.878402     -2418.5043
   1   2.0000     -88.877501     -2418.4798
   2   2.0000     -10.218250      -278.0527
   3   2.0000     -10.217977      -278.0453
   4   2.0000     -10.217249      -278.0255
   5   2.0000     -10.216674      -278.0098
   6   2.0000     -10.213883      -277.9339
   7   2.0000     -10.202715      -277.6300
   8   2.0000     -10.198340      -277.5109
   9   2.0000     -10.196131      -277.4508
  10   2.0000     -10.191556      -277.3263
  11   2.0000     -10.190498      -277.2976
  12   2.0000     -10.189821      -277.2791
  13   2.0000     -10.189770      -277.2777
  14   2.0000     -10.187280      -277.2100
  15   2.0000      -7.972659      -216.9471
  16   2.0000      -7.971789      -216.9234
  17   2.0000      -5.940902      -161.6602
  18   2.0000      -5.939860      -161.6318
  19   2.0000      -5.936794      -161.5484
  20   2.0000      -5.936116      -161.5299
  21   2.0000      -5.933951      -161.4710
  22   2.0000      -5.933025      -161.4458
  23   2.0000      -0.907634       -24.6980
  24   2.0000      -0.870680       -23.6924
  25   2.0000      -0.823732       -22.4149
  26   2.0000      -0.781903       -21.2767
  27   2.0000      -0.748190       -20.3593
  28   2.0000      -0.731472       -19.9044
  29   2.0000      -0.726345       -19.7649
  30   2.0000      -0.685934       -18.6652
  31   2.0000      -0.676545       -18.4097
  32   2.0000      -0.621220       -16.9043
  33   2.0000      -0.603687       -16.4272
  34   2.0000      -0.562356       -15.3025
  35   2.0000      -0.540412       -14.7054
  36   2.0000      -0.534839       -14.5537
  37   2.0000      -0.511145       -13.9090
  38   2.0000      -0.483687       -13.1618
  39   2.0000      -0.472906       -12.8684
  40   2.0000      -0.443492       -12.0680
  41   2.0000      -0.442696       -12.0464
  42   2.0000      -0.440429       -11.9847
  43   2.0000      -0.430497       -11.7144
  44   2.0000      -0.417227       -11.3533
  45   2.0000      -0.397363       -10.8128
  46   2.0000      -0.394783       -10.7426
  47   2.0000      -0.391024       -10.6403
  48   2.0000      -0.374381       -10.1874
  49   2.0000      -0.373133       -10.1535
  50   2.0000      -0.370019       -10.0687
  51   2.0000      -0.362982        -9.8772
  52   2.0000      -0.354043        -9.6340
  53   2.0000      -0.353337        -9.6148
  54   2.0000      -0.332588        -9.0502
  55   2.0000      -0.330159        -8.9841
  56   2.0000      -0.310643        -8.4530
  57   2.0000      -0.258724        -7.0402
  58   2.0000      -0.255401        -6.9498
  59   2.0000      -0.253272        -6.8919
  60   2.0000      -0.190712        -5.1895
  61   0.0000      -0.059155        -1.6097
  62   0.0000      -0.009237        -0.2513
  63   0.0000       0.024530         0.6675
  64   0.0000       0.028927         0.7871
  65   0.0000       0.047102         1.2817

MULLIKEN ATOMIC CHARGES
-----------------------
   0 C :   -0.101830
   1 S :    0.127211
   2 C :   -0.099720
   3 C :   -0.014273
   4 C :    0.024309
   5 C :   -0.112705
   6 C :    0.091199
   7 C :    0.089208
   8 C :   -0.009577
   9 C :   -0.087791
  10 S :    0.129230
  11 C :   -0.109009
  12 C :   -0.003717
  13 C :    0.038718
  14 C :   -0.042096
  15 H :    0.026601
  16 H :   -0.021117
  17 H :    0.008925
  18 H :    0.019675
  19 H :    0.009363
  20 H :    0.008525
  21 H :    0.009761
  22 H :    0.020176
  23 H :   -0.031036
  24 H :   -0.010622
  25 H :    0.018589
  26 H :    0.022002
Sum of atomic charges:    0.0000000

LOEWDIN ATOMIC CHARGES
----------------------
   0 C :   -0.190566
   1 S :    0.424343
   2 C :   -0.201051
   3 C :   -0.045868
   4 C :   -0.064102
   5 C :   -0.030067
   6 C :   -0.025772
   7 C :   -0.027002
   8 C :   -0.040678
   9 C :   -0.198123
  10 S :    0.428031
  11 C :   -0.174206
  12 C :   -0.054056
  13 C :   -0.044227
  14 C :   -0.058742
  15 H :    0.023552
  16 H :    0.029557
  17 H :    0.021802
  18 H :    0.029206
  19 H :    0.021881
  20 H :    0.021989
  21 H :    0.022161
  22 H :    0.029168
  23 H :    0.027805
  24 H :    0.028015
  25 H :    0.020944
  26 H :    0.026003

  Mayer bond orders larger than 0.100000
B(  0-C ,  1-S ) :   1.1507 B(  0-C ,  4-C ) :   1.5110 B(  0-C , 15-H ) :   0.9642
B(  1-S ,  2-C ) :   1.0913 B(  2-C ,  3-C ) :   1.5266 B(  2-C ,  9-C ) :   1.1750
B(  3-C ,  4-C ) :   1.2955 B(  3-C ,  5-C ) :   0.9555 B(  4-C , 16-H ) :   0.9974
B(  5-C ,  6-C ) :   1.0279 B(  5-C ,  7-C ) :   1.0317 B(  5-C ,  8-C ) :   0.9498
B(  6-C , 17-H ) :   0.9630 B(  6-C , 18-H ) :   0.9640 B(  6-C , 19-H ) :   0.9630
B(  7-C , 20-H ) :   0.9626 B(  7-C , 21-H ) :   0.9623 B(  7-C , 22-H ) :   0.9644
B(  8-C ,  9-C ) :   1.5098 B(  8-C , 12-C ) :   1.3128 B(  9-C , 10-S ) :   1.0908
B( 10-S , 11-C ) :   1.1025 B( 11-C , 12-C ) :   1.4566 B( 11-C , 13-C ) :   1.1167
B( 12-C , 23-H ) :   0.9932 B( 13-C , 14-C ) :   1.9101 B( 13-C , 24-H ) :   0.9494
B( 14-C , 25-H ) :   0.9515 B( 14-C , 26-H ) :   0.9452

Dispersion correction           -0.064936992
FINAL SINGLE POINT ENERGY     -1298.435768939130

DIPOLE MOMENT
-------------
                                X             Y             Z
Electronic contribution:     -5.44043      17.28430       1.29814
Nuclear contribution   :      5.21648     -17.82364      -1.33585
                        -----------------------------------------
Total Dipole Moment    :     -0.22394      -0.53934      -0.03771
                        -----------------------------------------
Magnitude (a.u.)       :      0.58520
Magnitude (Debye)      :      1.48746

Rotational constants in cm-1:     0.030749     0.011485     0.008845
Rotational constants in MHz :   921.834955   344.305486   265.175293

                             ****ORCA TERMINATED NORMALLY****
TOTAL RUN TIME: 0 days 0 hours 16 minutes 5 seconds 562 msec
