                         Program Version 4.2.0 -  RELEASE  -
|  1> # ORCA input file
|  2> # SCF done        -33.169781970497          0.000389128918
|  3> ! B3LYP/G D3BJ Opt RIJCOSX def2-SVP def2/J
|  4> * xyz 0 1
|  5>    C        3.16399         0.06323         0.00092
|  6>    O        2.44660        -1.08041         0.00121
|  7>    C        1.15516        -0.66534         0.00119
|  8>    C        1.17036         0.75702         0.00078
|  9>    N        2.49150         1.15282         0.00053
| 10>    C        0.00686         1.50717         0.00061
| 11>    C       -1.15916         0.76094         0.00086
| 12>    C       -1.14876        -0.66146         0.00128
| 13>    C        0.00192        -1.42586         0.00146
| 14>    O       -2.44159        -1.07217         0.00141
| 15>    C       -3.15512         0.07388         0.00107
| 16>    N       -2.47896         1.16119         0.00076
| 17>    H        4.23381        -0.01422         0.00084
| 18>    H        0.00867         2.58226         0.00027
| 19>    H        0.00010        -2.50188         0.00176
| 20>    H       -4.22520         0.00004         0.00110
| 21> *
| 22>
| 23>                          ****END OF INPUT****
 Total Charge           Charge          ....    0
 Multiplicity           Mult            ....    1
 Number of Electrons    NEL             ....   82
Dispersion correction           -0.031242317
FINAL SINGLE POINT ENERGY      -566.810344345064
Dispersion correction            ... done
Dispersion correction           -0.031442045
FINAL SINGLE POINT ENERGY      -566.813043929982
Dispersion correction            ... done
Dispersion correction           -0.031454505
FINAL SINGLE POINT ENERGY      -566.813303266560
Dispersion correction            ... done
FINAL SINGLE POINT ENERGY      -566.813379428985
Dispersion correction            ... done
Dispersion correction           -0.031445723
FINAL SINGLE POINT ENERGY      -566.813389921126
Dispersion correction            ... done
Dispersion correction           -0.031446184
FINAL SINGLE POINT ENERGY      -566.813393282992
Dispersion correction            ... done
                    ***********************HURRAY********************

CARTESIAN COORDINATES (ANGSTROEM)
---------------------------------
  C      3.192408    0.068325    0.000904
  O      2.451922   -1.083000    0.001266
  C      1.156150   -0.652620    0.001172
  C      1.185438    0.766848    0.000749
  N      2.524145    1.167464    0.000554
  C      0.006872    1.518892    0.000579
  C     -1.174207    0.770794    0.000830
  C     -1.149711   -0.648770    0.001249
  C      0.001918   -1.428137    0.001420
  O     -2.446960   -1.074778    0.001429
  C     -3.183511    0.079040    0.001101
  N     -2.511545    1.175923    0.000742
  H      4.274242   -0.064334    0.000895
  H      0.008720    2.608922    0.000254
  H      0.000092   -2.517491    0.001729
  H     -4.265794   -0.049867    0.001176

 Multiplicity           Mult            ....    1
 Number of Electrons    NEL             ....   82
 Basis Dimension        Dim             ....  188

ORBITAL ENERGIES
----------------

  NO   OCC          E(Eh)            E(eV)
   0   2.0000     -19.221773      -523.0510
   1   2.0000     -19.221710      -523.0493
   2   2.0000     -14.338561      -390.1721
   3   2.0000     -14.338531      -390.1713
   4   2.0000     -10.292260      -280.0666
   5   2.0000     -10.292250      -280.0664
   6   2.0000     -10.266727      -279.3718
   7   2.0000     -10.266695      -279.3710
   8   2.0000     -10.233745      -278.4744
   9   2.0000     -10.233722      -278.4737
  10   2.0000     -10.222793      -278.1763
  11   2.0000     -10.213355      -277.9195
  12   2.0000      -1.136727       -30.9319
  13   2.0000      -1.135613       -30.9016
  14   2.0000      -0.935605       -25.4591
  15   2.0000      -0.930614       -25.3233
  16   2.0000      -0.864473       -23.5235
  17   2.0000      -0.765427       -20.8283
  18   2.0000      -0.763665       -20.7804
  19   2.0000      -0.685645       -18.6573
  20   2.0000      -0.640214       -17.4211
  21   2.0000      -0.623376       -16.9629
  22   2.0000      -0.593603       -16.1527
  23   2.0000      -0.564260       -15.3543
  24   2.0000      -0.558811       -15.2060
  25   2.0000      -0.500934       -13.6311
  26   2.0000      -0.498964       -13.5775
  27   2.0000      -0.485363       -13.2074
  28   2.0000      -0.476251       -12.9595
  29   2.0000      -0.467517       -12.7218
  30   2.0000      -0.466096       -12.6831
  31   2.0000      -0.430365       -11.7108
  32   2.0000      -0.412520       -11.2252
  33   2.0000      -0.379136       -10.3168
  34   2.0000      -0.371501       -10.1091
  35   2.0000      -0.347666        -9.4605
  36   2.0000      -0.341564        -9.2944
  37   2.0000      -0.305185        -8.3045
  38   2.0000      -0.301430        -8.2023
  39   2.0000      -0.250413        -6.8141
  40   2.0000      -0.250388        -6.8134
  41   0.0000      -0.054537        -1.4840
  42   0.0000      -0.020003        -0.5443
  43   0.0000       0.017784         0.4839
  44   0.0000       0.035403         0.9634
  45   0.0000       0.076076         2.0701

MULLIKEN ATOMIC CHARGES
-----------------------
   0 C :    0.177113
   1 O :   -0.220449
   2 C :    0.195953
   3 C :    0.026121
   4 N :   -0.095221
   5 C :   -0.085341
   6 C :    0.026272
   7 C :    0.195870
   8 C :   -0.133129
   9 O :   -0.220452
  10 C :    0.177074
  11 N :   -0.095250
  12 H :    0.038679
  13 H :   -0.016932
  14 H :   -0.009011
  15 H :    0.038704
Sum of atomic charges:    0.0000000

LOEWDIN ATOMIC CHARGES
----------------------
   0 C :    0.085599
   1 O :   -0.022886
   2 C :    0.035293
   3 C :   -0.034465
   4 N :   -0.100500
   5 C :   -0.011936
   6 C :   -0.034451
   7 C :    0.035294
   8 C :   -0.060308
   9 O :   -0.022887
  10 C :    0.085581
  11 N :   -0.100506
  12 H :    0.028219
  13 H :    0.044361
  14 H :    0.045370
  15 H :    0.028221

  Mayer bond orders larger than 0.100000
B(  0-C ,  1-O ) :   1.1094 B(  0-C ,  4-N ) :   1.7810 B(  0-C , 12-H ) :   0.9782
B(  1-O ,  2-C ) :   1.0968 B(  2-C ,  3-C ) :   1.2787 B(  2-C ,  8-C ) :   1.3094
B(  3-C ,  4-N ) :   1.2637 B(  3-C ,  5-C ) :   1.2855 B(  5-C ,  6-C ) :   1.2856
B(  5-C ,  8-C ) :   0.1607 B(  5-C , 13-H ) :   1.0494 B(  6-C ,  7-C ) :   1.2787
B(  6-C , 11-N ) :   1.2637 B(  7-C ,  8-C ) :   1.3094 B(  7-C ,  9-O ) :   1.0968
B(  8-C , 14-H ) :   1.0406 B(  9-O , 10-C ) :   1.1095 B( 10-C , 11-N ) :   1.7810
B( 10-C , 15-H ) :   0.9782

Dispersion correction           -0.031447700
FINAL SINGLE POINT ENERGY      -566.813394380706

DIPOLE MOMENT
-------------
                                X             Y             Z
Electronic contribution:     -0.00113      -0.70303       0.00024
Nuclear contribution   :     -0.00020      -0.13456       0.00003
                        -----------------------------------------
Total Dipole Moment    :     -0.00133      -0.83759       0.00027
                        -----------------------------------------
Magnitude (a.u.)       :      0.83759
Magnitude (Debye)      :      2.12899

Rotational constants in cm-1:     0.101815     0.023549     0.019126
Rotational constants in MHz :  3052.351850   705.991923   573.373773

                             ****ORCA TERMINATED NORMALLY****
TOTAL RUN TIME: 0 days 0 hours 6 minutes 10 seconds 928 msec
