                         Program Version 4.2.0 -  RELEASE  -
|  1> # ORCA input file
|  2> # SCF done        -29.962095026968          0.000361435831
|  3> ! B3LYP/G D3BJ Opt RIJCOSX def2-SVP def2/J
|  4> * xyz 0 1
|  5>    C        1.00084         1.50181         0.16371
|  6>    S        2.42993         0.55226         0.09801
|  7>    C        1.53251        -0.93311        -0.07369
|  8>    C        0.18518        -0.66157        -0.07537
|  9>    C       -0.10941         0.72257         0.05999
| 10>    S       -1.79623         1.16999         0.06957
| 11>    C       -2.41631        -0.46208        -0.11170
| 12>    S       -4.00625        -0.79436        -0.18079
| 13>    S       -1.19303        -1.71822        -0.21374
| 14>    C        2.24402        -2.17738        -0.18358
| 15>    C        1.68450        -3.37661        -0.31862
| 16>    H        1.05715         2.56484         0.27384
| 17>    H        3.32069        -2.07899        -0.14753
| 18>    H        0.61779        -3.51335        -0.35902
| 19>    H        2.28727        -4.26380        -0.39425
| 20> *
| 21>
| 22>                          ****END OF INPUT****
 Total Charge           Charge          ....    0
 Multiplicity           Mult            ....    1
 Number of Electrons    NEL             ....  110
Dispersion correction           -0.046878764
FINAL SINGLE POINT ENERGY     -1861.291940875166
Dispersion correction            ... done
Dispersion correction           -0.046574814
FINAL SINGLE POINT ENERGY     -1861.294247083868
Dispersion correction            ... done
Dispersion correction           -0.046492036
FINAL SINGLE POINT ENERGY     -1861.292016628262
Dispersion correction            ... done
FINAL SINGLE POINT ENERGY     -1861.294367478218
FINAL SINGLE POINT ENERGY     -1861.294080073038
FINAL SINGLE POINT ENERGY     -1861.294414808269
FINAL SINGLE POINT ENERGY     -1861.294416105814
Dispersion correction            ... done
Dispersion correction           -0.046514563
FINAL SINGLE POINT ENERGY     -1861.294403470978
Dispersion correction            ... done
Dispersion correction           -0.046514712
FINAL SINGLE POINT ENERGY     -1861.294407494862
Dispersion correction            ... done
                    ***********************HURRAY********************

CARTESIAN COORDINATES (ANGSTROEM)
---------------------------------
  C      1.007773    1.524810    0.189757
  S      2.434607    0.557379    0.095891
  C      1.529917   -0.931175   -0.097282
  C      0.173231   -0.648759   -0.089288
  C     -0.117980    0.745941    0.076770
  S     -1.817087    1.186829    0.095712
  C     -2.464609   -0.444520   -0.134870
  S     -4.062812   -0.769206   -0.217741
  S     -1.218209   -1.701192   -0.261965
  C      2.249943   -2.186593   -0.219335
  C      1.713938   -3.417435   -0.283077
  H      1.075401    2.601902    0.328009
  H      3.340569   -2.089942   -0.258331
  H      0.637614   -3.600802   -0.240195
  H      2.356354   -4.295237   -0.377224

 Multiplicity           Mult            ....    1
 Number of Electrons    NEL             ....  110
 Basis Dimension        Dim             ....  190

ORBITAL ENERGIES
----------------

  NO   OCC          E(Eh)            E(eV)
   0   2.0000     -88.898979     -2419.0642
   1   2.0000     -88.898847     -2419.0606
   2   2.0000     -88.896953     -2419.0091
   3   2.0000     -88.822650     -2416.9872
   4   2.0000     -10.296439      -280.1803
   5   2.0000     -10.248165      -278.8668
   6   2.0000     -10.246073      -278.8098
   7   2.0000     -10.245116      -278.7838
   8   2.0000     -10.239963      -278.6436
   9   2.0000     -10.222219      -278.1607
  10   2.0000     -10.206774      -277.7404
  11   2.0000      -7.993789      -217.5221
  12   2.0000      -7.993249      -217.5074
  13   2.0000      -7.992087      -217.4757
  14   2.0000      -7.918910      -215.4845
  15   2.0000      -5.961992      -162.2340
  16   2.0000      -5.961978      -162.2337
  17   2.0000      -5.960759      -162.2005
  18   2.0000      -5.957935      -162.1237
  19   2.0000      -5.957778      -162.1194
  20   2.0000      -5.956729      -162.0908
  21   2.0000      -5.954888      -162.0407
  22   2.0000      -5.953223      -161.9954
  23   2.0000      -5.951890      -161.9592
  24   2.0000      -5.887337      -160.2026
  25   2.0000      -5.884500      -160.1254
  26   2.0000      -5.878184      -159.9535
  27   2.0000      -0.928153       -25.2563
  28   2.0000      -0.874539       -23.7974
  29   2.0000      -0.815076       -22.1794
  30   2.0000      -0.783576       -21.3222
  31   2.0000      -0.777278       -21.1508
  32   2.0000      -0.715897       -19.4806
  33   2.0000      -0.705699       -19.2030
  34   2.0000      -0.623409       -16.9638
  35   2.0000      -0.585660       -15.9366
  36   2.0000      -0.558991       -15.2109
  37   2.0000      -0.541726       -14.7411
  38   2.0000      -0.490563       -13.3489
  39   2.0000      -0.477773       -13.0009
  40   2.0000      -0.469029       -12.7629
  41   2.0000      -0.440399       -11.9839
  42   2.0000      -0.420016       -11.4292
  43   2.0000      -0.406935       -11.0733
  44   2.0000      -0.402376       -10.9492
  45   2.0000      -0.383711       -10.4413
  46   2.0000      -0.376472       -10.2443
  47   2.0000      -0.362241        -9.8571
  48   2.0000      -0.358383        -9.7521
  49   2.0000      -0.339069        -9.2265
  50   2.0000      -0.304395        -8.2830
  51   2.0000      -0.296604        -8.0710
  52   2.0000      -0.234081        -6.3697
  53   2.0000      -0.232322        -6.3218
  54   2.0000      -0.228942        -6.2298
  55   0.0000      -0.081646        -2.2217
  56   0.0000      -0.057037        -1.5521
  57   0.0000      -0.019291        -0.5249
  58   0.0000      -0.003562        -0.0969
  59   0.0000       0.001524         0.0415

MULLIKEN ATOMIC CHARGES
-----------------------
   0 C :   -0.139781
   1 S :    0.133153
   2 C :   -0.172713
   3 C :   -0.003375
   4 C :   -0.001996
   5 S :    0.186154
   6 C :   -0.173929
   7 S :   -0.102194
   8 S :    0.182545
   9 C :    0.035191
  10 C :   -0.041218
  11 H :    0.037416
  12 H :   -0.003579
  13 H :    0.030007
  14 H :    0.034319
Sum of atomic charges:    0.0000000

LOEWDIN ATOMIC CHARGES
----------------------
   0 C :   -0.210706
   1 S :    0.456589
   2 C :   -0.193440
   3 C :   -0.213852
   4 C :   -0.215249
   5 S :    0.398863
   6 C :   -0.448146
   7 S :   -0.006001
   8 S :    0.408353
   9 C :   -0.045972
  10 C :   -0.043630
  11 H :    0.032703
  12 H :    0.032299
  13 H :    0.016005
  14 H :    0.032184

  Mayer bond orders larger than 0.100000
B(  0-C ,  1-S ) :   1.1575 B(  0-C ,  4-C ) :   1.5590 B(  0-C , 11-H ) :   0.9697
B(  1-S ,  2-C ) :   1.1354 B(  2-C ,  3-C ) :   1.5443 B(  2-C ,  9-C ) :   1.1273
B(  3-C ,  4-C ) :   1.2389 B(  3-C ,  8-S ) :   1.0126 B(  4-C ,  5-S ) :   0.9948
B(  5-S ,  6-C ) :   1.0683 B(  5-S ,  7-S ) :   0.1504 B(  6-C ,  7-S ) :   1.6978
B(  6-C ,  8-S ) :   1.0539 B(  7-S ,  8-S ) :   0.1434 B(  9-C , 10-C ) :   1.9043
B(  9-C , 12-H ) :   0.9477 B( 10-C , 13-H ) :   0.9516 B( 10-C , 14-H ) :   0.9428

Dispersion correction           -0.046514807
FINAL SINGLE POINT ENERGY     -1861.294408101072

DIPOLE MOMENT
-------------
                                X             Y             Z
Electronic contribution:     -7.25719       5.56177       0.30277
Nuclear contribution   :      8.64837      -5.30827      -0.22846
                        -----------------------------------------
Total Dipole Moment    :      1.39117       0.25349       0.07432
                        -----------------------------------------
Magnitude (a.u.)       :      1.41603
Magnitude (Debye)      :      3.59927

Rotational constants in cm-1:     0.039966     0.015851     0.011352
Rotational constants in MHz :  1198.145844   475.214902   340.331568

                             ****ORCA TERMINATED NORMALLY****
TOTAL RUN TIME: 0 days 0 hours 9 minutes 26 seconds 384 msec
