                         Program Version 4.2.0 -  RELEASE  -
|  1> # ORCA input file
|  2> # SCF done        -42.143318050185          0.000635335773
|  3> ! B3LYP/G D3BJ Opt RIJCOSX def2-SVP def2/J
|  4> * xyz 0 1
|  5>    C       -1.62741         0.97826        -0.00496
|  6>    S       -2.70273        -0.34248         0.01957
|  7>    C       -1.42219        -1.50322         0.04949
|  8>    C       -0.18512        -0.85723         0.04098
|  9>    C       -0.31182         0.57678         0.00875
| 10>    C        0.86749         1.38300        -0.00453
| 11>    C        0.75623         2.85308        -0.04737
| 12>    O       -0.27839         3.47809        -0.09120
| 13>    O        1.95877         3.45874        -0.02841
| 14>    C        1.93365         4.87573        -0.07180
| 15>    C        2.09182         0.76099         0.01723
| 16>    C        2.20581        -0.64071         0.04953
| 17>    C        1.09863        -1.44034         0.06031
| 18>    C       -1.67561        -2.91278         0.07738
| 19>    C       -2.88460        -3.47313         0.08727
| 20>    H       -2.00449         1.97956        -0.02916
| 21>    H        2.95806         5.20308         0.08597
| 22>    H        1.27742         5.26860         0.70768
| 23>    H        1.56766         5.21879        -1.04233
| 24>    H        2.98774         1.36162         0.00768
| 25>    H        3.19128        -1.08182         0.06521
| 26>    H        1.19926        -2.51485         0.08361
| 27>    H       -0.79339        -3.53910         0.09082
| 28>    H       -3.78124        -2.87613         0.07571
| 29>    H       -3.01123        -4.54059         0.10907
| 30> *
| 31>
| 32>                          ****END OF INPUT****
 Total Charge           Charge          ....    0
 Multiplicity           Mult            ....    1
 Number of Electrons    NEL             ....  114
Dispersion correction           -0.055250445
FINAL SINGLE POINT ENERGY     -1011.421421892996
Dispersion correction            ... done
Dispersion correction           -0.054903903
FINAL SINGLE POINT ENERGY     -1011.424657529615
Dispersion correction            ... done
Dispersion correction           -0.054850897
FINAL SINGLE POINT ENERGY     -1011.424701051148
Dispersion correction            ... done
FINAL SINGLE POINT ENERGY     -1011.424534298139
FINAL SINGLE POINT ENERGY     -1011.424666152551
FINAL SINGLE POINT ENERGY     -1011.424711476892
FINAL SINGLE POINT ENERGY     -1011.424711100864
FINAL SINGLE POINT ENERGY     -1011.424696115272
Dispersion correction            ... done
Dispersion correction           -0.054853153
FINAL SINGLE POINT ENERGY     -1011.424710839214
Dispersion correction            ... done
Dispersion correction           -0.054853217
FINAL SINGLE POINT ENERGY     -1011.424720646335
Dispersion correction            ... done
                    ***********************HURRAY********************

CARTESIAN COORDINATES (ANGSTROEM)
---------------------------------
  C     -1.643797    1.001319   -0.064255
  S     -2.716970   -0.331628   -0.016046
  C     -1.445371   -1.505507    0.035448
  C     -0.197508   -0.856642    0.011791
  C     -0.316017    0.591151   -0.041152
  C      0.881074    1.393882   -0.050182
  C      0.773398    2.874644   -0.091583
  O     -0.256922    3.494153   -0.251897
  O      1.962413    3.487799    0.075343
  C      1.945595    4.909414    0.009318
  C      2.107961    0.761441   -0.020973
  C      2.216363   -0.657947    0.014215
  C      1.095372   -1.453613    0.034265
  C     -1.703935   -2.928796    0.106138
  C     -2.905948   -3.530573    0.153944
  H     -2.009576    2.022066   -0.116165
  H      2.977027    5.237025    0.187579
  H      1.273954    5.330373    0.771515
  H      1.599749    5.252017   -0.978408
  H      3.012200    1.369968   -0.028607
  H      3.208262   -1.115174    0.028406
  H      1.195592   -2.541095    0.067391
  H     -0.805458   -3.554224    0.126587
  H     -3.838543   -2.958844    0.143179
  H     -2.993316   -4.617271    0.210647

 Multiplicity           Mult            ....    1
 Number of Electrons    NEL             ....  114
 Basis Dimension        Dim             ....  264

ORBITAL ENERGIES
----------------

  NO   OCC          E(Eh)            E(eV)
   0   2.0000     -88.885059     -2418.6854
   1   2.0000     -19.178023      -521.8605
   2   2.0000     -19.121365      -520.3188
   3   2.0000     -10.314881      -280.6822
   4   2.0000     -10.246301      -278.8160
   5   2.0000     -10.222013      -278.1551
   6   2.0000     -10.211439      -277.8674
   7   2.0000     -10.208746      -277.7941
   8   2.0000     -10.208319      -277.7825
   9   2.0000     -10.207791      -277.7681
  10   2.0000     -10.206827      -277.7419
  11   2.0000     -10.205820      -277.7145
  12   2.0000     -10.205263      -277.6993
  13   2.0000     -10.201172      -277.5880
  14   2.0000     -10.192109      -277.3414
  15   2.0000      -7.979815      -217.1418
  16   2.0000      -5.947442      -161.8381
  17   2.0000      -5.943395      -161.7280
  18   2.0000      -5.942185      -161.6951
  19   2.0000      -1.097807       -29.8728
  20   2.0000      -1.005468       -27.3602
  21   2.0000      -0.897425       -24.4202
  22   2.0000      -0.839999       -22.8575
  23   2.0000      -0.792923       -21.5765
  24   2.0000      -0.772253       -21.0141
  25   2.0000      -0.738248       -20.0888
  26   2.0000      -0.725859       -19.7516
  27   2.0000      -0.691903       -18.8276
  28   2.0000      -0.636257       -17.3134
  29   2.0000      -0.613958       -16.7067
  30   2.0000      -0.586290       -15.9538
  31   2.0000      -0.577630       -15.7181
  32   2.0000      -0.548507       -14.9256
  33   2.0000      -0.511342       -13.9143
  34   2.0000      -0.499906       -13.6031
  35   2.0000      -0.487068       -13.2538
  36   2.0000      -0.484647       -13.1879
  37   2.0000      -0.477759       -13.0005
  38   2.0000      -0.463003       -12.5990
  39   2.0000      -0.441412       -12.0114
  40   2.0000      -0.433437       -11.7944
  41   2.0000      -0.420852       -11.4520
  42   2.0000      -0.419131       -11.4051
  43   2.0000      -0.410770       -11.1776
  44   2.0000      -0.397626       -10.8199
  45   2.0000      -0.379758       -10.3337
  46   2.0000      -0.373508       -10.1637
  47   2.0000      -0.365401        -9.9431
  48   2.0000      -0.356532        -9.7017
  49   2.0000      -0.347963        -9.4686
  50   2.0000      -0.343621        -9.3504
  51   2.0000      -0.314917        -8.5693
  52   2.0000      -0.306650        -8.3444
  53   2.0000      -0.279436        -7.6038
  54   2.0000      -0.273646        -7.4463
  55   2.0000      -0.257505        -7.0071
  56   2.0000      -0.202031        -5.4975
  57   0.0000      -0.084285        -2.2935
  58   0.0000      -0.033403        -0.9089
  59   0.0000       0.013210         0.3595
  60   0.0000       0.031513         0.8575
  61   0.0000       0.040712         1.1078

MULLIKEN ATOMIC CHARGES
-----------------------
   0 C :   -0.118776
   1 S :    0.144107
   2 C :   -0.146667
   3 C :    0.115192
   4 C :    0.058327
   5 C :   -0.002692
   6 C :    0.196963
   7 O :   -0.233142
   8 O :   -0.310367
   9 C :    0.203803
  10 C :    0.007160
  11 C :    0.026240
  12 C :   -0.018109
  13 C :    0.010620
  14 C :   -0.044260
  15 H :    0.040994
  16 H :    0.025779
  17 H :    0.028725
  18 H :    0.024571
  19 H :   -0.008704
  20 H :   -0.017815
  21 H :   -0.018780
  22 H :   -0.009687
  23 H :    0.018979
  24 H :    0.027538
Sum of atomic charges:   -0.0000000

LOEWDIN ATOMIC CHARGES
----------------------
   0 C :   -0.187397
   1 S :    0.489805
   2 C :   -0.191476
   3 C :   -0.043989
   4 C :   -0.040523
   5 C :   -0.065401
   6 C :    0.094145
   7 O :   -0.181752
   8 O :   -0.096231
   9 C :    0.085465
  10 C :    0.006926
  11 C :   -0.034744
  12 C :    0.000765
  13 C :   -0.040313
  14 C :   -0.058994
  15 H :    0.030595
  16 H :    0.022887
  17 H :    0.021194
  18 H :    0.020607
  19 H :    0.031942
  20 H :    0.028756
  21 H :    0.029170
  22 H :    0.032610
  23 H :    0.018303
  24 H :    0.027649

  Mayer bond orders larger than 0.100000
B(  0-C ,  1-S ) :   1.1804 B(  0-C ,  2-C ) :   0.1034 B(  0-C ,  4-C ) :   1.4551
B(  0-C , 15-H ) :   0.9403 B(  1-S ,  2-C ) :   1.1606 B(  2-C ,  3-C ) :   1.3238
B(  2-C , 13-C ) :   1.1607 B(  3-C ,  4-C ) :   1.1857 B(  3-C , 12-C ) :   1.2126
B(  4-C ,  5-C ) :   1.1818 B(  5-C ,  6-C ) :   0.9503 B(  5-C , 10-C ) :   1.5063
B(  6-C ,  7-O ) :   2.0255 B(  6-C ,  8-O ) :   1.2085 B(  8-O ,  9-C ) :   0.9246
B(  9-C , 16-H ) :   0.9792 B(  9-C , 17-H ) :   0.9729 B(  9-C , 18-H ) :   0.9738
B( 10-C , 11-C ) :   1.1949 B( 10-C , 19-H ) :   0.9801 B( 11-C , 12-C ) :   1.5131
B( 11-C , 20-H ) :   0.9813 B( 12-C , 21-H ) :   0.9852 B( 13-C , 14-C ) :   1.8867
B( 13-C , 22-H ) :   0.9492 B( 14-C , 23-H ) :   0.9541 B( 14-C , 24-H ) :   0.9462

Dispersion correction           -0.054853146
FINAL SINGLE POINT ENERGY     -1011.424719481832

DIPOLE MOMENT
-------------
                                X             Y             Z
Electronic contribution:     -4.83101       0.40100      -0.37499
Nuclear contribution   :      5.49775      -0.58135       0.46011
                        -----------------------------------------
Total Dipole Moment    :      0.66675      -0.18035       0.08512
                        -----------------------------------------
Magnitude (a.u.)       :      0.69593
Magnitude (Debye)      :      1.76893

Rotational constants in cm-1:     0.041842     0.010734     0.008566
Rotational constants in MHz :  1254.391266   321.783539   256.798752

                             ****ORCA TERMINATED NORMALLY****
TOTAL RUN TIME: 0 days 0 hours 21 minutes 5 seconds 824 msec
