                         Program Version 4.2.0 -  RELEASE  -
|  1> # ORCA input file
|  2> # SCF done        -44.046757212444          0.000964940526
|  3> ! B3LYP/G D3BJ Opt RIJCOSX def2-SVP def2/J
|  4> * xyz 0 1
|  5>    C        2.89772         0.73928        -0.85626
|  6>    N        2.13978        -0.18166        -1.33429
|  7>    C        0.92161        -0.14206        -0.75821
|  8>    C        0.75327         0.83687         0.19196
|  9>    S        2.17936         1.76984         0.36111
| 10>    C       -0.65408         0.85634         0.63379
| 11>    C       -1.04704        -0.60139         0.34669
| 12>    C       -0.32425        -0.97601        -0.97161
| 13>    C       -1.10056        -0.47159        -2.19925
| 14>    C       -0.38119        -0.73107        -3.51768
| 15>    C        0.04464        -2.46321        -1.04771
| 16>    C       -1.14689        -3.40869        -1.13237
| 17>    N       -2.48171        -0.57595         0.50168
| 18>    C       -2.74134        -0.02062         1.82260
| 19>    S       -1.32804         1.07620         2.30664
| 20>    H        3.91362         0.89146        -1.15968
| 21>    H       -1.23072         1.54795         0.00767
| 22>    H       -0.57122        -1.21626         1.13815
| 23>    H       -1.25202         0.60351        -2.08505
| 24>    H       -2.08757        -0.93515        -2.20576
| 25>    H        0.65092        -0.39433        -3.45658
| 26>    H       -0.87574        -0.19056        -4.32141
| 27>    H       -0.38581        -1.78797        -3.76927
| 28>    H        0.63399        -2.71181        -0.16086
| 29>    H        0.69341        -2.60581        -1.91157
| 30>    H       -1.77454        -3.32581        -0.24767
| 31>    H       -0.79537        -4.43595        -1.19768
| 32>    H       -1.75462        -3.20156        -2.00867
| 33>    H       -2.90764        -1.49255         0.41690
| 34>    H       -2.81692        -0.77434         2.61628
| 35>    H       -3.65271         0.58001         1.80237
| 36> *
| 37>
| 38>                          ****END OF INPUT****
 Total Charge           Charge          ....    0
 Multiplicity           Mult            ....    1
 Number of Electrons    NEL             ....  128
Dispersion correction           -0.073772372
FINAL SINGLE POINT ENERGY     -1334.106935413540
Dispersion correction            ... done
Dispersion correction           -0.073016796
FINAL SINGLE POINT ENERGY     -1334.111138859181
Dispersion correction            ... done
Dispersion correction           -0.072915624
FINAL SINGLE POINT ENERGY     -1334.111456771307
Dispersion correction            ... done
FINAL SINGLE POINT ENERGY     -1334.111534401224
FINAL SINGLE POINT ENERGY     -1334.111546607335
FINAL SINGLE POINT ENERGY     -1334.111565473420
FINAL SINGLE POINT ENERGY     -1334.111581324871
FINAL SINGLE POINT ENERGY     -1334.111600915614
FINAL SINGLE POINT ENERGY     -1334.111669828779
FINAL SINGLE POINT ENERGY     -1334.111789536342
FINAL SINGLE POINT ENERGY     -1334.111946153445
FINAL SINGLE POINT ENERGY     -1334.112026377462
FINAL SINGLE POINT ENERGY     -1334.112105286396
FINAL SINGLE POINT ENERGY     -1334.112351238845
FINAL SINGLE POINT ENERGY     -1334.112528856543
FINAL SINGLE POINT ENERGY     -1334.112577743462
FINAL SINGLE POINT ENERGY     -1334.112611702348
Dispersion correction            ... done
Dispersion correction           -0.073117537
FINAL SINGLE POINT ENERGY     -1334.112613203448
Dispersion correction            ... done
Dispersion correction           -0.073121941
FINAL SINGLE POINT ENERGY     -1334.112608302277
Dispersion correction            ... done
                    ***********************HURRAY********************

CARTESIAN COORDINATES (ANGSTROEM)
---------------------------------
  C      2.927299    0.806394   -0.853009
  N      2.176579   -0.139801   -1.340510
  C      0.969657   -0.156396   -0.702981
  C      0.793119    0.780650    0.293433
  S      2.198453    1.765040    0.430173
  C     -0.625252    0.754345    0.747005
  C     -0.961388   -0.713807    0.433748
  C     -0.273081   -1.011263   -0.938139
  C     -1.124641   -0.464153   -2.105716
  C     -0.549157   -0.704332   -3.499527
  C      0.096646   -2.493938   -1.102132
  C     -1.089994   -3.442113   -1.252777
  N     -2.389628   -0.875760    0.679487
  C     -2.847145    0.157870    1.610813
  S     -1.355468    0.980220    2.412241
  H      3.948939    1.016047   -1.176701
  H     -1.205368    1.425947    0.090356
  H     -0.383909   -1.300839    1.172337
  H     -1.260094    0.620176   -1.956519
  H     -2.132760   -0.899544   -2.021885
  H      0.496537   -0.364409   -3.565741
  H     -1.130804   -0.157612   -4.257006
  H     -0.572668   -1.770250   -3.774585
  H      0.699138   -2.789323   -0.226254
  H      0.770659   -2.595481   -1.966870
  H     -1.788447   -3.367755   -0.404128
  H     -0.743584   -4.486198   -1.309902
  H     -1.673135   -3.233516   -2.163189
  H     -2.563817   -1.793326    1.078864
  H     -3.501124   -0.245743    2.396229
  H     -3.387222    0.955978    1.077146

 Multiplicity           Mult            ....    1
 Number of Electrons    NEL             ....  128
 Basis Dimension        Dim             ....  298

ORBITAL ENERGIES
----------------

  NO   OCC          E(Eh)            E(eV)
   0   2.0000     -88.887561     -2418.7535
   1   2.0000     -88.833715     -2417.2883
   2   2.0000     -14.333207      -390.0264
   3   2.0000     -14.329663      -389.9300
   4   2.0000     -10.249444      -278.9016
   5   2.0000     -10.245900      -278.8051
   6   2.0000     -10.230958      -278.3985
   7   2.0000     -10.223524      -278.1962
   8   2.0000     -10.219450      -278.0854
   9   2.0000     -10.216072      -277.9935
  10   2.0000     -10.203513      -277.6517
  11   2.0000     -10.182462      -277.0789
  12   2.0000     -10.181720      -277.0587
  13   2.0000     -10.181037      -277.0401
  14   2.0000     -10.173154      -276.8256
  15   2.0000      -7.982309      -217.2097
  16   2.0000      -7.928821      -215.7542
  17   2.0000      -5.950166      -161.9122
  18   2.0000      -5.946350      -161.8084
  19   2.0000      -5.943886      -161.7414
  20   2.0000      -5.897754      -160.4860
  21   2.0000      -5.895217      -160.4170
  22   2.0000      -5.886806      -160.1881
  23   2.0000      -0.966278       -26.2938
  24   2.0000      -0.932081       -25.3632
  25   2.0000      -0.845787       -23.0150
  26   2.0000      -0.812450       -22.1079
  27   2.0000      -0.778929       -21.1957
  28   2.0000      -0.750004       -20.4086
  29   2.0000      -0.739431       -20.1209
  30   2.0000      -0.706756       -19.2318
  31   2.0000      -0.675643       -18.3852
  32   2.0000      -0.629110       -17.1190
  33   2.0000      -0.614356       -16.7175
  34   2.0000      -0.598975       -16.2989
  35   2.0000      -0.573729       -15.6120
  36   2.0000      -0.553922       -15.0730
  37   2.0000      -0.530314       -14.4306
  38   2.0000      -0.507183       -13.8011
  39   2.0000      -0.484193       -13.1756
  40   2.0000      -0.469236       -12.7686
  41   2.0000      -0.464198       -12.6315
  42   2.0000      -0.457753       -12.4561
  43   2.0000      -0.434107       -11.8127
  44   2.0000      -0.428005       -11.6466
  45   2.0000      -0.417486       -11.3604
  46   2.0000      -0.409640       -11.1469
  47   2.0000      -0.403946       -10.9919
  48   2.0000      -0.401039       -10.9128
  49   2.0000      -0.392342       -10.6762
  50   2.0000      -0.376873       -10.2552
  51   2.0000      -0.370980       -10.0949
  52   2.0000      -0.362749        -9.8709
  53   2.0000      -0.353808        -9.6276
  54   2.0000      -0.350360        -9.5338
  55   2.0000      -0.342212        -9.3121
  56   2.0000      -0.323761        -8.8100
  57   2.0000      -0.318307        -8.6616
  58   2.0000      -0.308711        -8.4005
  59   2.0000      -0.290056        -7.8928
  60   2.0000      -0.277646        -7.5551
  61   2.0000      -0.243028        -6.6131
  62   2.0000      -0.240486        -6.5440
  63   2.0000      -0.223104        -6.0710
  64   0.0000      -0.035607        -0.9689
  65   0.0000       0.014813         0.4031
  66   0.0000       0.032799         0.8925
  67   0.0000       0.037670         1.0251
  68   0.0000       0.041485         1.1289

MULLIKEN ATOMIC CHARGES
-----------------------
   0 C :   -0.004695
   1 N :   -0.097590
   2 C :   -0.034021
   3 C :   -0.069690
   4 S :    0.109774
   5 C :   -0.115391
   6 C :    0.038592
   7 C :   -0.135875
   8 C :    0.059140
   9 C :    0.032994
  10 C :    0.053990
  11 C :    0.034739
  12 N :   -0.197281
  13 C :    0.074857
  14 S :   -0.066457
  15 H :    0.040396
  16 H :    0.058090
  17 H :   -0.003284
  18 H :   -0.014945
  19 H :    0.002305
  20 H :    0.017181
  21 H :    0.005063
  22 H :    0.004654
  23 H :   -0.014315
  24 H :    0.015470
  25 H :   -0.009129
  26 H :    0.009893
  27 H :    0.013783
  28 H :    0.112084
  29 H :    0.036054
  30 H :    0.043614
Sum of atomic charges:    0.0000000

LOEWDIN ATOMIC CHARGES
----------------------
   0 C :   -0.128919
   1 N :   -0.099114
   2 C :   -0.030387
   3 C :   -0.215827
   4 S :    0.412419
   5 C :   -0.132798
   6 C :    0.022741
   7 C :   -0.043491
   8 C :   -0.021577
   9 C :   -0.056082
  10 C :   -0.023212
  11 C :   -0.054642
  12 N :   -0.110128
  13 C :   -0.046769
  14 S :    0.167509
  15 H :    0.019827
  16 H :    0.026965
  17 H :    0.009635
  18 H :    0.018269
  19 H :    0.019134
  20 H :    0.024675
  21 H :    0.023369
  22 H :    0.018492
  23 H :    0.019956
  24 H :    0.026043
  25 H :    0.016249
  26 H :    0.025387
  27 H :    0.023195
  28 H :    0.059234
  29 H :    0.018381
  30 H :    0.011465

  Mayer bond orders larger than 0.100000
B(  0-C ,  1-N ) :   1.6665 B(  0-C ,  4-S ) :   1.1443 B(  0-C , 15-H ) :   0.9593
B(  1-N ,  2-C ) :   1.3444 B(  1-N ,  4-S ) :   0.1169 B(  2-C ,  3-C ) :   1.5685
B(  2-C ,  7-C ) :   0.9701 B(  3-C ,  4-S ) :   1.1167 B(  3-C ,  5-C ) :   1.0596
B(  5-C ,  6-C ) :   0.9768 B(  5-C , 14-S ) :   1.0028 B(  5-C , 16-H ) :   0.8720
B(  6-C ,  7-C ) :   0.9438 B(  6-C , 12-N ) :   1.0703 B(  6-C , 17-H ) :   0.9232
B(  7-C ,  8-C ) :   1.0016 B(  7-C , 10-C ) :   1.0498 B(  8-C ,  9-C ) :   1.1155
B(  8-C , 18-H ) :   0.9297 B(  8-C , 19-H ) :   0.9285 B(  9-C , 20-H ) :   0.9586
B(  9-C , 21-H ) :   0.9593 B(  9-C , 22-H ) :   0.9599 B( 10-C , 11-C ) :   1.1102
B( 10-C , 23-H ) :   0.9265 B( 10-C , 24-H ) :   0.9313 B( 11-C , 25-H ) :   0.9635
B( 11-C , 26-H ) :   0.9607 B( 11-C , 27-H ) :   0.9580 B( 12-N , 13-C ) :   1.0368
B( 12-N , 28-H ) :   0.9350 B( 13-C , 14-S ) :   0.9753 B( 13-C , 29-H ) :   0.9579
B( 13-C , 30-H ) :   0.9483

Dispersion correction           -0.073122780
FINAL SINGLE POINT ENERGY     -1334.112603800395

DIPOLE MOMENT
-------------
                                X             Y             Z
Electronic contribution:     11.81162      16.27034      14.63172
Nuclear contribution   :    -12.14582     -16.44908     -14.56150
                        -----------------------------------------
Total Dipole Moment    :     -0.33420      -0.17874       0.07021
                        -----------------------------------------
Magnitude (a.u.)       :      0.38545
Magnitude (Debye)      :      0.97974

Rotational constants in cm-1:     0.018013     0.017469     0.010361
Rotational constants in MHz :   540.011072   523.705201   310.605763

                             ****ORCA TERMINATED NORMALLY****
TOTAL RUN TIME: 0 days 0 hours 59 minutes 56 seconds 622 msec
