                         Program Version 4.2.0 -  RELEASE  -
|  1> # ORCA input file
|  2> # SCF done        -36.802568566731          0.000798569130
|  3> ! B3LYP/G D3BJ Opt RIJCOSX def2-SVP def2/J
|  4> * xyz 0 1
|  5>    C        0.20589        -1.46115        -0.08798
|  6>    C        1.25849        -0.57326        -0.06827
|  7>    C        1.06506         0.82897         0.03715
|  8>    N        2.22491         1.54837         0.03885
|  9>    C        3.25092         0.80142        -0.05525
| 10>    S        2.96141        -0.92011        -0.16222
| 11>    C       -0.21800         1.39618         0.13119
| 12>    C       -1.27360         0.48602         0.10986
| 13>    C       -1.06978        -0.91889         0.00097
| 14>    N       -2.21441        -1.66219        -0.00934
| 15>    C       -3.25259        -0.93377         0.08064
| 16>    S       -2.98617         0.78886         0.19530
| 17>    C       -0.30917         2.84184         0.23557
| 18>    C       -1.40726         3.57399         0.38032
| 19>    H        0.34104        -2.52601        -0.16920
| 20>    H        4.25654         1.17393        -0.07134
| 21>    H       -4.25330        -1.31973         0.09073
| 22>    H        0.65701         3.32451         0.19029
| 23>    H       -2.39545         3.15345         0.43973
| 24>    H       -1.34702         4.64638         0.44865
| 25> *
| 26>
| 27>                          ****END OF INPUT****
 Total Charge           Charge          ....    0
 Multiplicity           Mult            ....    1
 Number of Electrons    NEL             ....  112
Dispersion correction           -0.053597224
FINAL SINGLE POINT ENERGY     -1290.024740976335
Dispersion correction            ... done
Dispersion correction           -0.053403977
FINAL SINGLE POINT ENERGY     -1290.028677284642
Dispersion correction            ... done
Dispersion correction           -0.053393835
FINAL SINGLE POINT ENERGY     -1290.028818382019
Dispersion correction            ... done
FINAL SINGLE POINT ENERGY     -1290.028806312019
Dispersion correction            ... done
Dispersion correction           -0.053383658
FINAL SINGLE POINT ENERGY     -1290.028808329673
Dispersion correction            ... done
Dispersion correction           -0.053389272
FINAL SINGLE POINT ENERGY     -1290.028809428450
Dispersion correction            ... done
                    ***********************HURRAY********************

CARTESIAN COORDINATES (ANGSTROEM)
---------------------------------
  C      0.208291   -1.475305   -0.133744
  C      1.271798   -0.581745   -0.098879
  C      1.080340    0.824499    0.053697
  N      2.251330    1.560006    0.073995
  C      3.286868    0.802711   -0.053068
  S      2.984726   -0.924257   -0.223104
  C     -0.213414    1.394890    0.168101
  C     -1.277331    0.473538    0.141413
  C     -1.077213   -0.935360   -0.007945
  N     -2.232562   -1.696007   -0.012900
  C     -3.276182   -0.954983    0.127467
  S     -2.998063    0.776213    0.284905
  C     -0.316901    2.850313    0.290344
  C     -1.424577    3.608023    0.311718
  H      0.333014   -2.551989   -0.252436
  H      4.314786    1.174671   -0.056094
  H     -4.299077   -1.340506    0.149166
  H      0.656159    3.342441    0.357267
  H     -2.436412    3.207562    0.233123
  H     -1.341059    4.694096    0.402623

 Multiplicity           Mult            ....    1
 Number of Electrons    NEL             ....  112
 Basis Dimension        Dim             ....  234

ORBITAL ENERGIES
----------------

  NO   OCC          E(Eh)            E(eV)
   0   2.0000     -88.887017     -2418.7387
   1   2.0000     -88.886785     -2418.7324
   2   2.0000     -14.341009      -390.2387
   3   2.0000     -14.338567      -390.1722
   4   2.0000     -10.263292      -279.2784
   5   2.0000     -10.260478      -279.2018
   6   2.0000     -10.237590      -278.5790
   7   2.0000     -10.237274      -278.5704
   8   2.0000     -10.234588      -278.4973
   9   2.0000     -10.233825      -278.4765
  10   2.0000     -10.221290      -278.1354
  11   2.0000     -10.214105      -277.9399
  12   2.0000     -10.199457      -277.5413
  13   2.0000     -10.194283      -277.4005
  14   2.0000      -7.982370      -217.2113
  15   2.0000      -7.981877      -217.1979
  16   2.0000      -5.950482      -161.9209
  17   2.0000      -5.950052      -161.9092
  18   2.0000      -5.946813      -161.8210
  19   2.0000      -5.946169      -161.8035
  20   2.0000      -5.943073      -161.7192
  21   2.0000      -5.942770      -161.7110
  22   2.0000      -0.975778       -26.5523
  23   2.0000      -0.968936       -26.3661
  24   2.0000      -0.856420       -23.3044
  25   2.0000      -0.828307       -22.5394
  26   2.0000      -0.797183       -21.6925
  27   2.0000      -0.773856       -21.0577
  28   2.0000      -0.741965       -20.1899
  29   2.0000      -0.718783       -19.5591
  30   2.0000      -0.654328       -17.8052
  31   2.0000      -0.626415       -17.0456
  32   2.0000      -0.591084       -16.0842
  33   2.0000      -0.574996       -15.6464
  34   2.0000      -0.559038       -15.2122
  35   2.0000      -0.531027       -14.4500
  36   2.0000      -0.502924       -13.6853
  37   2.0000      -0.470435       -12.8012
  38   2.0000      -0.465742       -12.6735
  39   2.0000      -0.457149       -12.4397
  40   2.0000      -0.448149       -12.1948
  41   2.0000      -0.438893       -11.9429
  42   2.0000      -0.422446       -11.4953
  43   2.0000      -0.419742       -11.4218
  44   2.0000      -0.412013       -11.2114
  45   2.0000      -0.389329       -10.5942
  46   2.0000      -0.370697       -10.0872
  47   2.0000      -0.351746        -9.5715
  48   2.0000      -0.346614        -9.4319
  49   2.0000      -0.335518        -9.1299
  50   2.0000      -0.296874        -8.0784
  51   2.0000      -0.286887        -7.8066
  52   2.0000      -0.285456        -7.7677
  53   2.0000      -0.281346        -7.6558
  54   2.0000      -0.250412        -6.8141
  55   2.0000      -0.224013        -6.0957
  56   0.0000      -0.072151        -1.9633
  57   0.0000      -0.039710        -1.0806
  58   0.0000      -0.014282        -0.3886
  59   0.0000       0.009110         0.2479
  60   0.0000       0.020855         0.5675

MULLIKEN ATOMIC CHARGES
-----------------------
   0 C :   -0.087167
   1 C :   -0.015393
   2 C :    0.012808
   3 N :   -0.096522
   4 C :    0.015565
   5 S :    0.089033
   6 C :    0.025382
   7 C :   -0.113458
   8 C :    0.082898
   9 N :   -0.096127
  10 C :    0.023592
  11 S :    0.079531
  12 C :   -0.020475
  13 C :   -0.033332
  14 H :   -0.019632
  15 H :    0.048031
  16 H :    0.046680
  17 H :    0.003961
  18 H :    0.021546
  19 H :    0.033080
Sum of atomic charges:   -0.0000000

LOEWDIN ATOMIC CHARGES
----------------------
   0 C :   -0.032315
   1 C :   -0.170360
   2 C :   -0.021718
   3 N :   -0.096714
   4 C :   -0.104913
   5 S :    0.377567
   6 C :   -0.038393
   7 C :   -0.163857
   8 C :   -0.027307
   9 N :   -0.097116
  10 C :   -0.107623
  11 S :    0.392256
  12 C :   -0.020501
  13 C :   -0.047205
  14 H :    0.039391
  15 H :    0.023669
  16 H :    0.023322
  17 H :    0.035206
  18 H :    0.006278
  19 H :    0.030333

  Mayer bond orders larger than 0.100000
B(  0-C ,  1-C ) :   1.3230 B(  0-C ,  6-C ) :   0.1088 B(  0-C ,  8-C ) :   1.3427
B(  0-C , 14-H ) :   1.0147 B(  1-C ,  2-C ) :   1.2755 B(  1-C ,  5-S ) :   1.0531
B(  2-C ,  3-N ) :   1.3109 B(  2-C ,  6-C ) :   1.3172 B(  3-N ,  4-C ) :   1.7342
B(  3-N ,  5-S ) :   0.1218 B(  4-C ,  5-S ) :   1.1037 B(  4-C , 15-H ) :   0.9578
B(  6-C ,  7-C ) :   1.3667 B(  6-C , 12-C ) :   1.1451 B(  7-C ,  8-C ) :   1.2710
B(  7-C , 11-S ) :   1.0691 B(  8-C ,  9-N ) :   1.2720 B(  9-N , 10-C ) :   1.7501
B(  9-N , 11-S ) :   0.1185 B( 10-C , 11-S ) :   1.0925 B( 10-C , 16-H ) :   0.9568
B( 12-C , 13-C ) :   1.8820 B( 12-C , 17-H ) :   0.9469 B( 13-C , 18-H ) :   0.9397
B( 13-C , 19-H ) :   0.9440

Dispersion correction           -0.053388638
FINAL SINGLE POINT ENERGY     -1290.028808047561

DIPOLE MOMENT
-------------
                                X             Y             Z
Electronic contribution:      2.05461      -6.08585      -0.44759
Nuclear contribution   :     -1.99109       6.10810       0.44118
                        -----------------------------------------
Total Dipole Moment    :      0.06352       0.02225      -0.00641
                        -----------------------------------------
Magnitude (a.u.)       :      0.06761
Magnitude (Debye)      :      0.17184

Rotational constants in cm-1:     0.034075     0.015052     0.010444
Rotational constants in MHz :  1021.532775   451.256927   313.090410

                             ****ORCA TERMINATED NORMALLY****
TOTAL RUN TIME: 0 days 0 hours 11 minutes 6 seconds 193 msec
