                         Program Version 4.2.0 -  RELEASE  -
|  1> # ORCA input file
|  2> # SCF done        -50.680602396771          0.000595380414
|  3> ! B3LYP/G D3BJ Opt RIJCOSX def2-SVP def2/J
|  4> * xyz 0 1
|  5>    C       -0.12784         1.48404        -0.00625
|  6>    C        1.09729         0.84242        -0.00759
|  7>    C        2.47261         1.40788        -0.01036
|  8>    O        2.81706         2.55779        -0.01166
|  9>    N        3.33449         0.30611        -0.01167
| 10>    C        2.65212        -0.91006        -0.00930
| 11>    O        3.13831        -2.00767        -0.00939
| 12>    C        1.20454        -0.55041        -0.00691
| 13>    C        0.09140        -1.37082        -0.00480
| 14>    C       -1.14291        -0.72917        -0.00347
| 15>    C       -1.24973         0.66156        -0.00418
| 16>    C       -2.63871         1.17086        -0.00276
| 17>    O       -2.99788         2.30709        -0.00337
| 18>    S       -3.76586        -0.23106        -0.00135
| 19>    C       -2.43797        -1.44449        -0.00140
| 20>    O       -2.61952        -2.62223        -0.00085
| 21>    C        4.72518         0.49493        -0.01555
| 22>    C        5.63477        -0.46343        -0.01808
| 23>    H       -0.21736         2.55894        -0.00674
| 24>    H        0.16731        -2.44677        -0.00419
| 25>    H        4.97606         1.54752        -0.01593
| 26>    H        5.37919        -1.50703        -0.01639
| 27>    H        6.67880        -0.20847        -0.01989
| 28> *
| 29>
| 30>                          ****END OF INPUT****
 Total Charge           Charge          ....    0
 Multiplicity           Mult            ....    1
 Number of Electrons    NEL             ....  132
Dispersion correction           -0.058152121
FINAL SINGLE POINT ENERGY     -1213.502100275776
Dispersion correction            ... done
Dispersion correction           -0.057901310
FINAL SINGLE POINT ENERGY     -1213.505150792798
Dispersion correction            ... done
Dispersion correction           -0.057874801
FINAL SINGLE POINT ENERGY     -1213.505327625076
Dispersion correction            ... done
FINAL SINGLE POINT ENERGY     -1213.505131840997
FINAL SINGLE POINT ENERGY     -1213.505385075888
Dispersion correction            ... done
Dispersion correction           -0.057887745
FINAL SINGLE POINT ENERGY     -1213.505387028618
Dispersion correction            ... done
Dispersion correction           -0.057891737
FINAL SINGLE POINT ENERGY     -1213.505384742463
Dispersion correction            ... done
                    ***********************HURRAY********************

CARTESIAN COORDINATES (ANGSTROEM)
---------------------------------
  C     -0.135680    1.494386   -0.007384
  C      1.094627    0.846396   -0.009792
  C      2.474899    1.421089   -0.012482
  O      2.812841    2.577437   -0.013685
  N      3.354378    0.309963   -0.013279
  C      2.654438   -0.914431   -0.011615
  O      3.143321   -2.015833   -0.011940
  C      1.201786   -0.550540   -0.009415
  C      0.084544   -1.378428   -0.006738
  C     -1.156379   -0.731286   -0.004131
  C     -1.264516    0.666635   -0.004426
  C     -2.671838    1.173852   -0.000916
  O     -3.010300    2.323730   -0.000841
  S     -3.827913   -0.236605    0.003283
  C     -2.466989   -1.450626   -0.000438
  O     -2.621373   -2.639069    0.000150
  C      4.750101    0.488675   -0.014682
  C      5.672094   -0.478568   -0.014691
  H     -0.226074    2.582148   -0.007602
  H      0.160394   -2.467683   -0.006400
  H      5.010778    1.549226   -0.015649
  H      5.414278   -1.536907   -0.013741
  H      6.723934   -0.186030   -0.015663

 Multiplicity           Mult            ....    1
 Number of Electrons    NEL             ....  132
 Basis Dimension        Dim             ....  281

ORBITAL ENERGIES
----------------

  NO   OCC          E(Eh)            E(eV)
   0   2.0000     -88.887549     -2418.7532
   1   2.0000     -19.176916      -521.8304
   2   2.0000     -19.176706      -521.8247
   3   2.0000     -19.165345      -521.5155
   4   2.0000     -19.163830      -521.4743
   5   2.0000     -14.415008      -392.2523
   6   2.0000     -10.341602      -281.4093
   7   2.0000     -10.341303      -281.4012
   8   2.0000     -10.335912      -281.2545
   9   2.0000     -10.335751      -281.2501
  10   2.0000     -10.260926      -279.2140
  11   2.0000     -10.260586      -279.2047
  12   2.0000     -10.259502      -279.1752
  13   2.0000     -10.259019      -279.1621
  14   2.0000     -10.256907      -279.1046
  15   2.0000     -10.256401      -279.0908
  16   2.0000     -10.249220      -278.8954
  17   2.0000     -10.201683      -277.6019
  18   2.0000      -7.984905      -217.2803
  19   2.0000      -5.952504      -161.9759
  20   2.0000      -5.949658      -161.8984
  21   2.0000      -5.945188      -161.7768
  22   2.0000      -1.096476       -29.8366
  23   2.0000      -1.088942       -29.6316
  24   2.0000      -1.085865       -29.5479
  25   2.0000      -1.077370       -29.3167
  26   2.0000      -0.989548       -26.9270
  27   2.0000      -0.926788       -25.2192
  28   2.0000      -0.867737       -23.6123
  29   2.0000      -0.813399       -22.1337
  30   2.0000      -0.813136       -22.1266
  31   2.0000      -0.765880       -20.8407
  32   2.0000      -0.715182       -19.4611
  33   2.0000      -0.702198       -19.1078
  34   2.0000      -0.672679       -18.3045
  35   2.0000      -0.633517       -17.2389
  36   2.0000      -0.614884       -16.7319
  37   2.0000      -0.604611       -16.4523
  38   2.0000      -0.555689       -15.1211
  39   2.0000      -0.544577       -14.8187
  40   2.0000      -0.534133       -14.5345
  41   2.0000      -0.512981       -13.9589
  42   2.0000      -0.502732       -13.6800
  43   2.0000      -0.499264       -13.5857
  44   2.0000      -0.495572       -13.4852
  45   2.0000      -0.481736       -13.1087
  46   2.0000      -0.479628       -13.0513
  47   2.0000      -0.476643       -12.9701
  48   2.0000      -0.470557       -12.8045
  49   2.0000      -0.457171       -12.4402
  50   2.0000      -0.446970       -12.1627
  51   2.0000      -0.444188       -12.0870
  52   2.0000      -0.434645       -11.8273
  53   2.0000      -0.429561       -11.6889
  54   2.0000      -0.414372       -11.2756
  55   2.0000      -0.412059       -11.2127
  56   2.0000      -0.404814       -11.0155
  57   2.0000      -0.362691        -9.8693
  58   2.0000      -0.324924        -8.8416
  59   2.0000      -0.321945        -8.7606
  60   2.0000      -0.319613        -8.6971
  61   2.0000      -0.311442        -8.4748
  62   2.0000      -0.303658        -8.2629
  63   2.0000      -0.297669        -8.1000
  64   2.0000      -0.293945        -7.9987
  65   2.0000      -0.263217        -7.1625
  66   0.0000      -0.139393        -3.7931
  67   0.0000      -0.101715        -2.7678
  68   0.0000      -0.079513        -2.1637
  69   0.0000      -0.018608        -0.5064
  70   0.0000      -0.004709        -0.1281

MULLIKEN ATOMIC CHARGES
-----------------------
   0 C :   -0.065345
   1 C :    0.023678
   2 C :    0.210589
   3 O :   -0.148791
   4 N :   -0.259055
   5 C :    0.233583
   6 O :   -0.148320
   7 C :    0.004849
   8 C :   -0.065169
   9 C :    0.068761
  10 C :    0.067711
  11 C :    0.056742
  12 O :   -0.129596
  13 S :    0.012078
  14 C :    0.057572
  15 O :   -0.131489
  16 C :    0.064484
  17 C :   -0.029399
  18 H :    0.024620
  19 H :    0.025238
  20 H :    0.034694
  21 H :    0.059160
  22 H :    0.033405
Sum of atomic charges:    0.0000000

LOEWDIN ATOMIC CHARGES
----------------------
   0 C :    0.044450
   1 C :   -0.032912
   2 C :    0.096692
   3 O :   -0.131008
   4 N :   -0.020080
   5 C :    0.098081
   6 O :   -0.127609
   7 C :   -0.030148
   8 C :    0.043635
   9 C :   -0.050859
  10 C :   -0.051856
  11 C :   -0.042165
  12 O :   -0.109480
  13 S :    0.288682
  14 C :   -0.042357
  15 O :   -0.109351
  16 C :    0.023145
  17 C :   -0.057102
  18 H :    0.053476
  19 H :    0.053542
  20 H :    0.035197
  21 H :    0.033102
  22 H :    0.034925

  Mayer bond orders larger than 0.100000
B(  0-C ,  1-C ) :   1.3409 B(  0-C , 10-C ) :   1.3225 B(  0-C , 18-H ) :   1.0219
B(  1-C ,  2-C ) :   0.8845 B(  1-C ,  7-C ) :   1.3720 B(  2-C ,  3-O ) :   2.1915
B(  2-C ,  4-N ) :   1.0220 B(  4-N ,  5-C ) :   1.0222 B(  4-N , 16-C ) :   1.0022
B(  5-C ,  6-O ) :   2.1790 B(  5-C ,  7-C ) :   0.8923 B(  7-C ,  8-C ) :   1.3356
B(  8-C ,  9-C ) :   1.3256 B(  8-C , 19-H ) :   1.0214 B(  9-C , 10-C ) :   1.3482
B(  9-C , 14-C ) :   0.8541 B( 10-C , 11-C ) :   0.8535 B( 11-C , 12-O ) :   2.1835
B( 11-C , 13-S ) :   1.0076 B( 12-O , 13-S ) :   0.1225 B( 13-S , 14-C ) :   1.0076
B( 13-S , 15-O ) :   0.1229 B( 14-C , 15-O ) :   2.1816 B( 16-C , 17-C ) :   1.9355
B( 16-C , 20-H ) :   0.9605 B( 17-C , 21-H ) :   0.9418 B( 17-C , 22-H ) :   0.9419

Dispersion correction           -0.057889732
FINAL SINGLE POINT ENERGY     -1213.505384303471

DIPOLE MOMENT
-------------
                                X             Y             Z
Electronic contribution:    -14.31483       0.22311       0.02366
Nuclear contribution   :     14.89167      -0.18357      -0.02455
                        -----------------------------------------
Total Dipole Moment    :      0.57685       0.03954      -0.00089
                        -----------------------------------------
Magnitude (a.u.)       :      0.57820
Magnitude (Debye)      :      1.46967

Rotational constants in cm-1:     0.031063     0.007352     0.005945
Rotational constants in MHz :   931.252788   220.401553   178.221534

                             ****ORCA TERMINATED NORMALLY****
TOTAL RUN TIME: 0 days 0 hours 17 minutes 0 seconds 322 msec
