                         Program Version 4.2.0 -  RELEASE  -
|  1> # ORCA input file
|  2> # SCF done        -43.861415431625          0.000892612149
|  3> ! B3LYP/G D3BJ Opt RIJCOSX def2-SVP def2/J
|  4> * xyz 0 1
|  5>    C       -2.41457         0.65350        -0.24866
|  6>    C       -2.66960        -0.84721        -0.28223
|  7>    O       -3.62975        -1.40954        -0.71251
|  8>    O       -1.62492        -1.49098         0.26872
|  9>    C       -0.57738        -0.58882         0.60337
| 10>    C       -1.27807         0.77376         0.76344
| 11>    C       -0.35766         1.97877         0.61424
| 12>    C        0.49398         1.90907        -0.64594
| 13>    C        1.31710         0.62948        -0.72196
| 14>    C        0.50715        -0.66140        -0.49963
| 15>    O        1.47788        -1.62847        -0.11772
| 16>    C        2.56853        -1.04428         0.41061
| 17>    O        3.47927        -1.65992         0.87341
| 18>    C        2.43136         0.46881         0.30905
| 19>    H       -3.31821         1.19010         0.03184
| 20>    H       -2.11964         0.97532        -1.24869
| 21>    H       -0.13499        -0.94502         1.53889
| 22>    H       -1.71997         0.79801         1.76603
| 23>    H        0.28730         2.03746         1.49262
| 24>    H       -0.96428         2.88528         0.59533
| 25>    H        1.16883         2.76556        -0.67852
| 26>    H       -0.14615         1.96519        -1.52808
| 27>    H        1.76760         0.56574        -1.71902
| 28>    H        0.03594        -1.02550        -1.41785
| 29>    H        3.37619         0.92232         0.01906
| 30>    H        2.15050         0.85489         1.29018
| 31> *
| 32>
| 33>                          ****END OF INPUT****
 Total Charge           Charge          ....    0
 Multiplicity           Mult            ....    1
 Number of Electrons    NEL             ....  104
Dispersion correction           -0.052621455
FINAL SINGLE POINT ENERGY      -688.756004442738
Dispersion correction            ... done
Dispersion correction           -0.052216353
FINAL SINGLE POINT ENERGY      -688.757869871929
Dispersion correction            ... done
Dispersion correction           -0.052153963
FINAL SINGLE POINT ENERGY      -688.758077822244
Dispersion correction            ... done
FINAL SINGLE POINT ENERGY      -688.758152136097
FINAL SINGLE POINT ENERGY      -688.758191065089
FINAL SINGLE POINT ENERGY      -688.758208136586
Dispersion correction            ... done
Dispersion correction           -0.052255019
FINAL SINGLE POINT ENERGY      -688.758219430461
Dispersion correction            ... done
Dispersion correction           -0.052256752
FINAL SINGLE POINT ENERGY      -688.758221847174
Dispersion correction            ... done
                    ***********************HURRAY********************

CARTESIAN COORDINATES (ANGSTROEM)
---------------------------------
  C     -2.411669    0.635662   -0.273774
  C     -2.709670   -0.858048   -0.242363
  O     -3.692781   -1.432260   -0.605005
  O     -1.632062   -1.505358    0.291995
  C     -0.574475   -0.585945    0.599611
  C     -1.283158    0.780194    0.747434
  C     -0.365699    1.995658    0.615030
  C      0.504215    1.930109   -0.639681
  C      1.320148    0.638291   -0.712254
  C      0.505101   -0.657723   -0.502655
  O      1.487174   -1.644003   -0.145582
  C      2.601696   -1.057679    0.381972
  O      3.525279   -1.686625    0.805701
  C      2.429646    0.453809    0.323423
  H     -3.318268    1.212853   -0.051660
  H     -2.092021    0.900746   -1.296705
  H     -0.121966   -0.920433    1.544299
  H     -1.745932    0.792269    1.747438
  H      0.274119    2.060064    1.511249
  H     -0.974276    2.914125    0.614939
  H      1.187506    2.793553   -0.680621
  H     -0.129878    2.006629   -1.538966
  H      1.782852    0.565445   -1.709825
  H      0.027048   -1.001397   -1.431289
  H      3.382509    0.938970    0.076271
  H      2.131001    0.803215    1.326997

 Multiplicity           Mult            ....    1
 Number of Electrons    NEL             ....  104
 Basis Dimension        Dim             ....  256

ORBITAL ENERGIES
----------------

  NO   OCC          E(Eh)            E(eV)
   0   2.0000     -19.184398      -522.0340
   1   2.0000     -19.184327      -522.0321
   2   2.0000     -19.127585      -520.4880
   3   2.0000     -19.127299      -520.4803
   4   2.0000     -10.321395      -280.8594
   5   2.0000     -10.321042      -280.8498
   6   2.0000     -10.270621      -279.4778
   7   2.0000     -10.270543      -279.4757
   8   2.0000     -10.227944      -278.3165
   9   2.0000     -10.227865      -278.3144
  10   2.0000     -10.220739      -278.1204
  11   2.0000     -10.220332      -278.1094
  12   2.0000     -10.219088      -278.0755
  13   2.0000     -10.218990      -278.0729
  14   2.0000      -1.108091       -30.1527
  15   2.0000      -1.100800       -29.9543
  16   2.0000      -1.027884       -27.9701
  17   2.0000      -1.022330       -27.8190
  18   2.0000      -0.865792       -23.5594
  19   2.0000      -0.818485       -22.2721
  20   2.0000      -0.773359       -21.0442
  21   2.0000      -0.763681       -20.7808
  22   2.0000      -0.722953       -19.6725
  23   2.0000      -0.661499       -18.0003
  24   2.0000      -0.636197       -17.3118
  25   2.0000      -0.588836       -16.0230
  26   2.0000      -0.587753       -15.9936
  27   2.0000      -0.558606       -15.2005
  28   2.0000      -0.538167       -14.6443
  29   2.0000      -0.534332       -14.5399
  30   2.0000      -0.500799       -13.6274
  31   2.0000      -0.498028       -13.5520
  32   2.0000      -0.474765       -12.9190
  33   2.0000      -0.467976       -12.7343
  34   2.0000      -0.465770       -12.6743
  35   2.0000      -0.455993       -12.4082
  36   2.0000      -0.452911       -12.3243
  37   2.0000      -0.433500       -11.7961
  38   2.0000      -0.424650       -11.5553
  39   2.0000      -0.400936       -10.9100
  40   2.0000      -0.399216       -10.8632
  41   2.0000      -0.395012       -10.7488
  42   2.0000      -0.391403       -10.6506
  43   2.0000      -0.381106       -10.3704
  44   2.0000      -0.374140       -10.1809
  45   2.0000      -0.369515       -10.0550
  46   2.0000      -0.342119        -9.3095
  47   2.0000      -0.341417        -9.2904
  48   2.0000      -0.324189        -8.8216
  49   2.0000      -0.297441        -8.0938
  50   2.0000      -0.280537        -7.6338
  51   2.0000      -0.280090        -7.6216
  52   0.0000      -0.005346        -0.1455
  53   0.0000      -0.003662        -0.0996
  54   0.0000       0.016841         0.4583
  55   0.0000       0.026262         0.7146
  56   0.0000       0.048795         1.3278

MULLIKEN ATOMIC CHARGES
-----------------------
   0 C :    0.031701
   1 C :    0.160213
   2 O :   -0.163835
   3 O :   -0.285769
   4 C :    0.180741
   5 C :   -0.125333
   6 C :    0.094185
   7 C :    0.096910
   8 C :   -0.130515
   9 C :    0.177056
  10 O :   -0.284907
  11 C :    0.160598
  12 O :   -0.165296
  13 C :    0.035773
  14 H :    0.037724
  15 H :    0.038607
  16 H :    0.008573
  17 H :    0.012030
  18 H :    0.004115
  19 H :    0.008152
  20 H :    0.009549
  21 H :    0.002955
  22 H :    0.012769
  23 H :    0.009329
  24 H :    0.037038
  25 H :    0.037635
Sum of atomic charges:    0.0000000

LOEWDIN ATOMIC CHARGES
----------------------
   0 C :   -0.056928
   1 C :    0.082771
   2 O :   -0.142931
   3 O :   -0.090721
   4 C :    0.072769
   5 C :   -0.037629
   6 C :   -0.026144
   7 C :   -0.025838
   8 C :   -0.038062
   9 C :    0.073183
  10 O :   -0.090858
  11 C :    0.082131
  12 O :   -0.143533
  13 C :   -0.056510
  14 H :    0.043647
  15 H :    0.040322
  16 H :    0.027031
  17 H :    0.033322
  18 H :    0.023582
  19 H :    0.031190
  20 H :    0.031421
  21 H :    0.023386
  22 H :    0.033305
  23 H :    0.027173
  24 H :    0.043679
  25 H :    0.040243

  Mayer bond orders larger than 0.100000
B(  0-C ,  1-C ) :   0.9596 B(  0-C ,  5-C ) :   1.0262 B(  0-C , 14-H ) :   0.9280
B(  0-C , 15-H ) :   0.9211 B(  1-C ,  2-O ) :   2.2137 B(  1-C ,  3-O ) :   1.0949
B(  3-O ,  4-C ) :   0.9521 B(  4-C ,  5-C ) :   1.0154 B(  4-C ,  9-C ) :   0.9675
B(  4-C , 16-H ) :   0.9133 B(  5-C ,  6-C ) :   1.0598 B(  5-C , 17-H ) :   0.9096
B(  6-C ,  7-C ) :   1.0694 B(  6-C , 18-H ) :   0.9337 B(  6-C , 19-H ) :   0.9228
B(  7-C ,  8-C ) :   1.0605 B(  7-C , 20-H ) :   0.9230 B(  7-C , 21-H ) :   0.9333
B(  8-C ,  9-C ) :   1.0153 B(  8-C , 13-C ) :   1.0261 B(  8-C , 22-H ) :   0.9098
B(  9-C , 10-O ) :   0.9510 B(  9-C , 23-H ) :   0.9132 B( 10-O , 11-C ) :   1.0964
B( 11-C , 12-O ) :   2.2114 B( 11-C , 13-C ) :   0.9597 B( 13-C , 24-H ) :   0.9274
B( 13-C , 25-H ) :   0.9206

Dispersion correction           -0.052251668
FINAL SINGLE POINT ENERGY      -688.758223409568

DIPOLE MOMENT
-------------
                                X             Y             Z
Electronic contribution:     -0.51640     -12.26351       0.33268
Nuclear contribution   :      0.62687      14.92199      -0.42211
                        -----------------------------------------
Total Dipole Moment    :      0.11048       2.65848      -0.08943
                        -----------------------------------------
Magnitude (a.u.)       :      2.66228
Magnitude (Debye)      :      6.76698

Rotational constants in cm-1:     0.043684     0.017384     0.013757
Rotational constants in MHz :  1309.598585   521.149290   412.430211

                             ****ORCA TERMINATED NORMALLY****
TOTAL RUN TIME: 0 days 0 hours 17 minutes 21 seconds 299 msec
