                         Program Version 4.2.0 -  RELEASE  -
|  1> # ORCA input file
|  2> # SCF done        -39.480796803798          0.000682623674
|  3> ! B3LYP/G D3BJ Opt RIJCOSX def2-SVP def2/J
|  4> * xyz 0 1
|  5>    C        0.81815         1.04103         0.07529
|  6>    S        1.11202        -0.46306         0.85266
|  7>    C        0.06307        -1.28652        -0.26835
|  8>    C       -0.46396        -0.40518        -1.17768
|  9>    C       -0.03129         0.91852        -0.97825
| 10>    C       -0.15496        -2.69150        -0.16844
| 11>    C        0.37428        -3.57457         0.74065
| 12>    C       -0.05601        -4.89222         0.55227
| 13>    C       -0.92166        -5.03875        -0.50410
| 14>    S       -1.21132        -3.50959        -1.28625
| 15>    C       -1.55203        -6.22774        -0.97368
| 16>    S       -1.28882        -7.75389        -0.17477
| 17>    C       -2.32858        -8.55251        -1.28603
| 18>    C       -2.84425        -7.70174        -2.21173
| 19>    C       -2.40476        -6.37686        -2.03754
| 20>    H        1.29629         1.92458         0.44904
| 21>    H       -1.13866        -0.71024        -1.95791
| 22>    H       -0.33950         1.74539        -1.59180
| 23>    H        1.05284        -3.26752         1.51684
| 24>    H        0.25214        -5.72021         1.16604
| 25>    H       -2.49291        -9.60644        -1.18236
| 26>    H       -3.51616        -8.00919        -2.99296
| 27>    H       -2.69808        -5.55484        -2.66618
| 28> *
| 29>
| 30>                          ****END OF INPUT****
 Total Charge           Charge          ....    0
 Multiplicity           Mult            ....    1
 Number of Electrons    NEL             ....  128
Dispersion correction           -0.061542279
FINAL SINGLE POINT ENERGY     -1656.040357566981
Dispersion correction            ... done
Dispersion correction           -0.061149874
FINAL SINGLE POINT ENERGY     -1656.044739597942
Dispersion correction            ... done
Dispersion correction           -0.061103591
FINAL SINGLE POINT ENERGY     -1656.044833481342
Dispersion correction            ... done
FINAL SINGLE POINT ENERGY     -1656.044750233340
FINAL SINGLE POINT ENERGY     -1656.044782343652
FINAL SINGLE POINT ENERGY     -1656.044765444458
FINAL SINGLE POINT ENERGY     -1656.044657010912
FINAL SINGLE POINT ENERGY     -1656.044410767621
FINAL SINGLE POINT ENERGY     -1656.044233799982
FINAL SINGLE POINT ENERGY     -1656.044503592161
FINAL SINGLE POINT ENERGY     -1656.044478042268
FINAL SINGLE POINT ENERGY     -1656.044470678843
FINAL SINGLE POINT ENERGY     -1656.044449329898
FINAL SINGLE POINT ENERGY     -1656.044444036823
FINAL SINGLE POINT ENERGY     -1656.044451353144
Dispersion correction            ... done
Dispersion correction           -0.061068466
FINAL SINGLE POINT ENERGY     -1656.044456940761
Dispersion correction            ... done
Dispersion correction           -0.061065012
FINAL SINGLE POINT ENERGY     -1656.044452986595
Dispersion correction            ... done
                    ***********************HURRAY********************

CARTESIAN COORDINATES (ANGSTROEM)
---------------------------------
  C      0.939471    1.076533   -0.039415
  S      1.450515   -0.490778    0.488540
  C      0.109858   -1.265033   -0.323703
  C     -0.662491   -0.326736   -0.984007
  C     -0.190014    1.006841   -0.817098
  C     -0.085504   -2.695006   -0.215988
  C      0.432429   -3.572890    0.719871
  C     -0.008784   -4.909559    0.543808
  C     -0.871378   -5.069034   -0.526007
  S     -1.131937   -3.538954   -1.333081
  C     -1.547615   -6.262453   -0.991266
  S     -1.786268   -7.626724    0.078169
  C     -2.627466   -8.511191   -1.146351
  C     -2.731344   -7.794189   -2.313272
  C     -2.114338   -6.513351   -2.228369
  H      1.501918    1.959599    0.259018
  H     -1.562441   -0.592299   -1.540342
  H     -0.678095    1.881190   -1.249338
  H      1.097645   -3.249369    1.521688
  H      0.296401   -5.739578    1.181889
  H     -3.002200   -9.510577   -0.933058
  H     -3.229309   -8.173093   -3.206664
  H     -2.073214   -5.796398   -3.050262

 Multiplicity           Mult            ....    1
 Number of Electrons    NEL             ....  128
 Basis Dimension        Dim             ....  262

ORBITAL ENERGIES
----------------

  NO   OCC          E(Eh)            E(eV)
   0   2.0000     -88.876989     -2418.4658
   1   2.0000     -88.876956     -2418.4649
   2   2.0000     -88.876832     -2418.4616
   3   2.0000     -10.228227      -278.3242
   4   2.0000     -10.228118      -278.3212
   5   2.0000     -10.227321      -278.2996
   6   2.0000     -10.227032      -278.2917
   7   2.0000     -10.215686      -277.9830
   8   2.0000     -10.215463      -277.9769
   9   2.0000     -10.199097      -277.5315
  10   2.0000     -10.198800      -277.5235
  11   2.0000     -10.198123      -277.5050
  12   2.0000     -10.197940      -277.5000
  13   2.0000     -10.197364      -277.4844
  14   2.0000     -10.196962      -277.4734
  15   2.0000      -7.972013      -216.9295
  16   2.0000      -7.971888      -216.9261
  17   2.0000      -7.971791      -216.9235
  18   2.0000      -5.940164      -161.6401
  19   2.0000      -5.940086      -161.6380
  20   2.0000      -5.940001      -161.6357
  21   2.0000      -5.936175      -161.5315
  22   2.0000      -5.936057      -161.5283
  23   2.0000      -5.935850      -161.5227
  24   2.0000      -5.933297      -161.4532
  25   2.0000      -5.933029      -161.4459
  26   2.0000      -5.932840      -161.4408
  27   2.0000      -0.898412       -24.4470
  28   2.0000      -0.883886       -24.0518
  29   2.0000      -0.868066       -23.6213
  30   2.0000      -0.775713       -21.1082
  31   2.0000      -0.747427       -20.3385
  32   2.0000      -0.736349       -20.0371
  33   2.0000      -0.735260       -20.0074
  34   2.0000      -0.722312       -19.6551
  35   2.0000      -0.684488       -18.6259
  36   2.0000      -0.609074       -16.5737
  37   2.0000      -0.589368       -16.0375
  38   2.0000      -0.561384       -15.2760
  39   2.0000      -0.551436       -15.0053
  40   2.0000      -0.529354       -14.4045
  41   2.0000      -0.527863       -14.3639
  42   2.0000      -0.524781       -14.2800
  43   2.0000      -0.495831       -13.4923
  44   2.0000      -0.456460       -12.4209
  45   2.0000      -0.419133       -11.4052
  46   2.0000      -0.418058       -11.3759
  47   2.0000      -0.414115       -11.2686
  48   2.0000      -0.412519       -11.2252
  49   2.0000      -0.405605       -11.0371
  50   2.0000      -0.399474       -10.8702
  51   2.0000      -0.396316       -10.7843
  52   2.0000      -0.384915       -10.4741
  53   2.0000      -0.375404       -10.2153
  54   2.0000      -0.368315       -10.0224
  55   2.0000      -0.358154        -9.7459
  56   2.0000      -0.346543        -9.4299
  57   2.0000      -0.340529        -9.2663
  58   2.0000      -0.295286        -8.0351
  59   2.0000      -0.264358        -7.1935
  60   2.0000      -0.259581        -7.0636
  61   2.0000      -0.256732        -6.9860
  62   2.0000      -0.246032        -6.6949
  63   2.0000      -0.198067        -5.3897
  64   0.0000      -0.065566        -1.7842
  65   0.0000      -0.024083        -0.6553
  66   0.0000       0.016856         0.4587
  67   0.0000       0.022268         0.6060
  68   0.0000       0.027001         0.7347

MULLIKEN ATOMIC CHARGES
-----------------------
   0 C :   -0.080108
   1 S :    0.108361
   2 C :   -0.082708
   3 C :   -0.004753
   4 C :    0.048281
   5 C :   -0.041834
   6 C :   -0.009195
   7 C :   -0.005079
   8 C :   -0.036266
   9 S :    0.116781
  10 C :   -0.090111
  11 S :    0.114347
  12 C :   -0.078994
  13 C :    0.044088
  14 C :   -0.004184
  15 H :    0.029439
  16 H :   -0.009164
  17 H :   -0.009167
  18 H :   -0.010405
  19 H :   -0.012516
  20 H :    0.029128
  21 H :   -0.008788
  22 H :   -0.007152
Sum of atomic charges:    0.0000000

LOEWDIN ATOMIC CHARGES
----------------------
   0 C :   -0.189076
   1 S :    0.426572
   2 C :   -0.187205
   3 C :   -0.068546
   4 C :   -0.061621
   5 C :   -0.183246
   6 C :   -0.063835
   7 C :   -0.062698
   8 C :   -0.182377
   9 S :    0.429420
  10 C :   -0.188598
  11 S :    0.428039
  12 C :   -0.189365
  13 C :   -0.062588
  14 C :   -0.069085
  15 H :    0.025755
  16 H :    0.027007
  17 H :    0.030866
  18 H :    0.027956
  19 H :    0.028458
  20 H :    0.025777
  21 H :    0.030854
  22 H :    0.027534

  Mayer bond orders larger than 0.100000
B(  0-C ,  1-S ) :   1.1534 B(  0-C ,  4-C ) :   1.5521 B(  0-C , 15-H ) :   0.9698
B(  1-S ,  2-C ) :   1.1388 B(  2-C ,  3-C ) :   1.5103 B(  2-C ,  5-C ) :   1.1260
B(  3-C ,  4-C ) :   1.2597 B(  3-C , 16-H ) :   0.9849 B(  4-C , 17-H ) :   0.9877
B(  5-C ,  6-C ) :   1.5024 B(  5-C ,  9-S ) :   1.1193 B(  6-C ,  7-C ) :   1.2511
B(  6-C , 18-H ) :   0.9862 B(  7-C ,  8-C ) :   1.5015 B(  7-C , 19-H ) :   0.9889
B(  8-C ,  9-S ) :   1.1170 B(  8-C , 10-C ) :   1.1226 B( 10-C , 11-S ) :   1.1386
B( 10-C , 14-C ) :   1.5115 B( 11-S , 12-C ) :   1.1561 B( 12-C , 13-C ) :   1.5554
B( 12-C , 20-H ) :   0.9674 B( 13-C , 14-C ) :   1.2590 B( 13-C , 21-H ) :   0.9866
B( 14-C , 22-H ) :   0.9865

Dispersion correction           -0.061061149
FINAL SINGLE POINT ENERGY     -1656.044444878462

DIPOLE MOMENT
-------------
                                X             Y             Z
Electronic contribution:      2.01989      -1.00417       2.55594
Nuclear contribution   :     -2.14131       1.04999      -2.63051
                        -----------------------------------------
Total Dipole Moment    :     -0.12141       0.04582      -0.07457
                        -----------------------------------------
Magnitude (a.u.)       :      0.14967
Magnitude (Debye)      :      0.38043

Rotational constants in cm-1:     0.057744     0.006098     0.005595
Rotational constants in MHz :  1731.123219   182.823184   167.725187

                             ****ORCA TERMINATED NORMALLY****
TOTAL RUN TIME: 0 days 0 hours 34 minutes 48 seconds 225 msec
