                         Program Version 4.2.0 -  RELEASE  -
|  1> # ORCA input file
|  2> # SCF done        -55.979544455762          0.000637388940
|  3> ! B3LYP/G D3BJ Opt RIJCOSX def2-SVP def2/J
|  4> * xyz 0 1
|  5>    C        1.87499         1.43734        -3.57090
|  6>    C        2.39225         1.25052        -2.28976
|  7>    C        3.14177         2.36454        -1.66375
|  8>    O        3.00591         3.52155        -1.99753
|  9>    C        4.14234         1.98167        -0.63551
| 10>    C        5.05096         0.97620        -0.77655
| 11>    S        6.17534         0.92159         0.52101
| 12>    C        5.42513         2.27258         1.27038
| 13>    C        4.36519         2.74290         0.55421
| 14>    C        3.43487         3.80207         1.01880
| 15>    O        2.23473         3.65323         0.93767
| 16>    C        4.05928         4.99311         1.64063
| 17>    C        3.31151         5.72899         2.55878
| 18>    C        3.86100         6.83230         3.18189
| 19>    C        5.15604         7.22313         2.87949
| 20>    C        5.89514         6.51419         1.94571
| 21>    C        5.35434         5.40136         1.32837
| 22>    C        2.18160         0.03810        -1.63624
| 23>    C        1.48391        -0.97467        -2.26811
| 24>    C        0.99819        -0.79169        -3.55316
| 25>    C        1.19025         0.41775        -4.20257
| 26>    H        2.03158         2.38937        -4.05599
| 27>    H        5.14147         0.28118        -1.58812
| 28>    H        5.78818         2.62559         2.21562
| 29>    H        2.30304         5.40954         2.77578
| 30>    H        3.28158         7.39038         3.90236
| 31>    H        5.58781         8.08505         3.36672
| 32>    H        6.89736         6.83180         1.69817
| 33>    H        5.92647         4.86383         0.58708
| 34>    H        2.54168        -0.10178        -0.62794
| 35>    H        1.31762        -1.91190        -1.75755
| 36>    H        0.46462        -1.59093        -4.04645
| 37>    H        0.80350         0.56352        -5.20032
| 38> *
| 39>
| 40>                          ****END OF INPUT****
 Total Charge           Charge          ....    0
 Multiplicity           Mult            ....    1
 Number of Electrons    NEL             ....  152
Dispersion correction           -0.081637084
FINAL SINGLE POINT ENERGY     -1241.127434309557
Dispersion correction            ... done
Dispersion correction           -0.080439096
FINAL SINGLE POINT ENERGY     -1241.132373819818
Dispersion correction            ... done
Dispersion correction           -0.080340291
FINAL SINGLE POINT ENERGY     -1241.132403311536
Dispersion correction            ... done
FINAL SINGLE POINT ENERGY     -1241.132680752957
FINAL SINGLE POINT ENERGY     -1241.132718079471
FINAL SINGLE POINT ENERGY     -1241.132600217973
FINAL SINGLE POINT ENERGY     -1241.132677253347
Dispersion correction            ... done
Dispersion correction           -0.080413022
FINAL SINGLE POINT ENERGY     -1241.132684838212
Dispersion correction            ... done
Dispersion correction           -0.080412585
FINAL SINGLE POINT ENERGY     -1241.132689796894
Dispersion correction            ... done
                    ***********************HURRAY********************

CARTESIAN COORDINATES (ANGSTROEM)
---------------------------------
  C      1.898343    1.544112   -3.516558
  C      2.503876    1.196366   -2.297796
  C      3.335413    2.229643   -1.613439
  O      3.279985    3.404838   -1.929247
  C      4.281763    1.816075   -0.530240
  C      5.185113    0.783452   -0.623109
  S      6.301130    0.777769    0.699209
  C      5.559007    2.178717    1.392587
  C      4.496812    2.623737    0.643163
  C      3.529032    3.671736    1.103470
  O      2.334589    3.444517    1.057037
  C      4.073672    4.942988    1.667839
  C      3.272079    5.686488    2.549845
  C      3.742925    6.883110    3.085450
  C      5.003589    7.368143    2.716120
  C      5.793246    6.649650    1.814021
  C      5.334924    5.435854    1.298077
  C      2.247793   -0.063708   -1.733675
  C      1.395881   -0.960379   -2.382371
  C      0.803089   -0.609218   -3.598036
  C      1.057322    0.645202   -4.166757
  H      2.106194    2.533197   -3.928370
  H      5.281818    0.057270   -1.429046
  H      5.915543    2.580956    2.339517
  H      2.285194    5.298990    2.808515
  H      3.122944    7.449673    3.784441
  H      5.369158    8.310377    3.131257
  H      6.764632    7.040299    1.502665
  H      5.945073    4.875325    0.588190
  H      2.689285   -0.328076   -0.771855
  H      1.181370   -1.931746   -1.930839
  H      0.137402   -1.314002   -4.102318
  H      0.591454    0.921054   -5.115530

 Multiplicity           Mult            ....    1
 Number of Electrons    NEL             ....  152
 Basis Dimension        Dim             ....  358

ORBITAL ENERGIES
----------------

  NO   OCC          E(Eh)            E(eV)
   0   2.0000     -88.893274     -2418.9090
   1   2.0000     -19.122541      -520.3508
   2   2.0000     -19.122079      -520.3382
   3   2.0000     -10.277635      -279.6687
   4   2.0000     -10.277375      -279.6616
   5   2.0000     -10.232569      -278.4424
   6   2.0000     -10.231520      -278.4138
   7   2.0000     -10.211011      -277.8557
   8   2.0000     -10.210493      -277.8416
   9   2.0000     -10.204577      -277.6807
  10   2.0000     -10.203802      -277.6596
  11   2.0000     -10.203763      -277.6585
  12   2.0000     -10.203191      -277.6429
  13   2.0000     -10.201046      -277.5846
  14   2.0000     -10.200900      -277.5806
  15   2.0000     -10.200662      -277.5741
  16   2.0000     -10.200324      -277.5649
  17   2.0000     -10.199915      -277.5538
  18   2.0000     -10.199749      -277.5493
  19   2.0000     -10.199144      -277.5328
  20   2.0000     -10.198511      -277.5156
  21   2.0000      -7.988347      -217.3740
  22   2.0000      -5.956394      -162.0817
  23   2.0000      -5.952226      -161.9683
  24   2.0000      -5.949886      -161.9046
  25   2.0000      -1.033108       -28.1123
  26   2.0000      -1.026631       -27.9360
  27   2.0000      -0.897119       -24.4119
  28   2.0000      -0.859088       -23.3770
  29   2.0000      -0.858594       -23.3635
  30   2.0000      -0.774919       -21.0866
  31   2.0000      -0.773125       -21.0378
  32   2.0000      -0.751460       -20.4483
  33   2.0000      -0.748709       -20.3734
  34   2.0000      -0.746636       -20.3170
  35   2.0000      -0.737735       -20.0748
  36   2.0000      -0.648804       -17.6549
  37   2.0000      -0.639571       -17.4036
  38   2.0000      -0.612020       -16.6539
  39   2.0000      -0.611124       -16.6295
  40   2.0000      -0.593293       -16.1443
  41   2.0000      -0.590071       -16.0566
  42   2.0000      -0.571552       -15.5527
  43   2.0000      -0.540246       -14.7008
  44   2.0000      -0.534713       -14.5503
  45   2.0000      -0.498318       -13.5599
  46   2.0000      -0.491689       -13.3795
  47   2.0000      -0.470529       -12.8037
  48   2.0000      -0.464887       -12.6502
  49   2.0000      -0.460610       -12.5338
  50   2.0000      -0.448143       -12.1946
  51   2.0000      -0.446700       -12.1553
  52   2.0000      -0.434886       -11.8339
  53   2.0000      -0.431661       -11.7461
  54   2.0000      -0.430564       -11.7162
  55   2.0000      -0.430052       -11.7023
  56   2.0000      -0.429639       -11.6911
  57   2.0000      -0.413263       -11.2455
  58   2.0000      -0.405374       -11.0308
  59   2.0000      -0.394430       -10.7330
  60   2.0000      -0.388572       -10.5736
  61   2.0000      -0.376184       -10.2365
  62   2.0000      -0.369093       -10.0435
  63   2.0000      -0.368314       -10.0223
  64   2.0000      -0.362759        -9.8712
  65   2.0000      -0.359473        -9.7818
  66   2.0000      -0.352713        -9.5978
  67   2.0000      -0.351709        -9.5705
  68   2.0000      -0.274264        -7.4631
  69   2.0000      -0.268709        -7.3120
  70   2.0000      -0.267227        -7.2716
  71   2.0000      -0.266860        -7.2616
  72   2.0000      -0.265520        -7.2252
  73   2.0000      -0.260976        -7.1015
  74   2.0000      -0.254883        -6.9357
  75   2.0000      -0.250456        -6.8153
  76   0.0000      -0.068148        -1.8544
  77   0.0000      -0.063826        -1.7368
  78   0.0000      -0.036293        -0.9876
  79   0.0000      -0.018430        -0.5015
  80   0.0000      -0.015694        -0.4271

MULLIKEN ATOMIC CHARGES
-----------------------
   0 C :    0.007478
   1 C :   -0.006564
   2 C :    0.154131
   3 O :   -0.197388
   4 C :    0.019365
   5 C :   -0.127970
   6 S :    0.117624
   7 C :   -0.114646
   8 C :    0.015762
   9 C :    0.154394
  10 O :   -0.195380
  11 C :   -0.009491
  12 C :    0.015023
  13 C :    0.012021
  14 C :    0.042092
  15 C :    0.025333
  16 C :    0.006099
  17 C :    0.010453
  18 C :    0.021950
  19 C :    0.027569
  20 C :    0.032962
  21 H :   -0.003252
  22 H :    0.041014
  23 H :    0.035421
  24 H :   -0.007019
  25 H :   -0.008052
  26 H :   -0.012425
  27 H :   -0.015591
  28 H :   -0.000299
  29 H :   -0.005410
  30 H :   -0.015357
  31 H :   -0.007207
  32 H :   -0.012639
Sum of atomic charges:   -0.0000000

LOEWDIN ATOMIC CHARGES
----------------------
   0 C :    0.015562
   1 C :   -0.064414
   2 C :    0.091968
   3 O :   -0.144403
   4 C :   -0.075262
   5 C :   -0.174540
   6 S :    0.447836
   7 C :   -0.169979
   8 C :   -0.074761
   9 C :    0.091882
  10 O :   -0.142589
  11 C :   -0.063930
  12 C :    0.014294
  13 C :   -0.024855
  14 C :   -0.007220
  15 C :   -0.024620
  16 C :   -0.003410
  17 C :   -0.003778
  18 C :   -0.024909
  19 C :   -0.008015
  20 C :   -0.021666
  21 H :    0.034251
  22 H :    0.030767
  23 H :    0.030384
  24 H :    0.033951
  25 H :    0.029908
  26 H :    0.028914
  27 H :    0.028703
  28 H :    0.031633
  29 H :    0.030454
  30 H :    0.028644
  31 H :    0.029649
  32 H :    0.029549

  Mayer bond orders larger than 0.100000
B(  0-C ,  1-C ) :   1.3656 B(  0-C , 20-C ) :   1.3735 B(  0-C , 21-H ) :   0.9878
B(  1-C ,  2-C ) :   0.9480 B(  1-C , 17-C ) :   1.3649 B(  2-C ,  3-O ) :   2.1284
B(  2-C ,  4-C ) :   0.9238 B(  4-C ,  5-C ) :   1.5363 B(  4-C ,  8-C ) :   1.2664
B(  5-C ,  6-S ) :   1.1668 B(  5-C , 22-H ) :   0.9610 B(  6-S ,  7-C ) :   1.1667
B(  7-C ,  8-C ) :   1.5414 B(  7-C , 23-H ) :   0.9600 B(  8-C ,  9-C ) :   0.9143
B(  9-C , 10-O ) :   2.1426 B(  9-C , 11-C ) :   0.9451 B( 11-C , 12-C ) :   1.3640
B( 11-C , 16-C ) :   1.3721 B( 12-C , 13-C ) :   1.3745 B( 12-C , 24-H ) :   0.9895
B( 13-C , 14-C ) :   1.3633 B( 13-C , 25-H ) :   0.9875 B( 14-C , 15-C ) :   1.3848
B( 14-C , 26-H ) :   0.9854 B( 15-C , 16-C ) :   1.3753 B( 15-C , 27-H ) :   0.9830
B( 16-C , 28-H ) :   0.9791 B( 17-C , 18-C ) :   1.3796 B( 17-C , 29-H ) :   0.9761
B( 18-C , 19-C ) :   1.3877 B( 18-C , 30-H ) :   0.9823 B( 19-C , 20-C ) :   1.3600
B( 19-C , 31-H ) :   0.9859 B( 20-C , 32-H ) :   0.9862

Dispersion correction           -0.080410738
FINAL SINGLE POINT ENERGY     -1241.132673459488

DIPOLE MOMENT
-------------
                                X             Y             Z
Electronic contribution:      4.37837      -3.42811       1.48513
Nuclear contribution   :     -3.49266       2.75653      -1.22930
                        -----------------------------------------
Total Dipole Moment    :      0.88571      -0.67158       0.25583
                        -----------------------------------------
Magnitude (a.u.)       :      1.14059
Magnitude (Debye)      :      2.89916

Rotational constants in cm-1:     0.018268     0.005319     0.004544
Rotational constants in MHz :   547.659110   159.474293   136.217533

                             ****ORCA TERMINATED NORMALLY****
TOTAL RUN TIME: 0 days 0 hours 37 minutes 55 seconds 627 msec
