                         Program Version 4.2.0 -  RELEASE  -
|  1> # ORCA input file
|  2> # SCF done        -20.153128247083          0.000303963992
|  3> ! B3LYP/G D3BJ Opt RIJCOSX def2-SVP def2/J
|  4> * xyz 0 1
|  5>    C        1.40863         0.63442         0.10303
|  6>    C        0.17899         1.20336        -0.00243
|  7>    C       -0.17672         2.65039        -0.03172
|  8>    C       -0.46801         3.11829        -1.45927
|  9>    S       -1.04956        -0.00954        -0.17776
| 10>    C        0.12325        -1.26598        -0.10222
| 11>    C        1.37843        -0.77879         0.04809
| 12>    H        2.31319         1.20483         0.22117
| 13>    H        0.65480         3.22612         0.38065
| 14>    H       -1.05791         2.82625         0.58984
| 15>    H        0.40277         2.96249        -2.09223
| 16>    H       -0.72019         4.17591        -1.46733
| 17>    H       -1.30205         2.55767        -1.87543
| 18>    H       -0.19652        -2.28642        -0.17337
| 19>    H        2.25503        -1.39795         0.11779
| 20> *
| 21>
| 22>                          ****END OF INPUT****
 Total Charge           Charge          ....    0
 Multiplicity           Mult            ....    1
 Number of Electrons    NEL             ....   60
Dispersion correction           -0.026429013
FINAL SINGLE POINT ENERGY      -631.385089468141
Dispersion correction            ... done
Dispersion correction           -0.026216978
FINAL SINGLE POINT ENERGY      -631.387453860891
Dispersion correction            ... done
Dispersion correction           -0.026187528
FINAL SINGLE POINT ENERGY      -631.387566596744
Dispersion correction            ... done
FINAL SINGLE POINT ENERGY      -631.387562731687
FINAL SINGLE POINT ENERGY      -631.387546982349
FINAL SINGLE POINT ENERGY      -631.387566939613
FINAL SINGLE POINT ENERGY      -631.387557075866
Dispersion correction            ... done
Dispersion correction           -0.026251601
FINAL SINGLE POINT ENERGY      -631.387553223707
Dispersion correction            ... done
Dispersion correction           -0.026251397
FINAL SINGLE POINT ENERGY      -631.387555338658
Dispersion correction            ... done
                    ***********************HURRAY********************

CARTESIAN COORDINATES (ANGSTROEM)
---------------------------------
  C      1.438242    0.606383    0.194687
  C      0.224076    1.209843   -0.030797
  C     -0.116851    2.670645   -0.074684
  C     -0.555477    3.145602   -1.467260
  S     -1.000809    0.009083   -0.349698
  C      0.130912   -1.288565   -0.167860
  C      1.387219   -0.821539    0.119245
  H      2.343418    1.173911    0.418038
  H      0.768764    3.234660    0.260329
  H     -0.913975    2.891147    0.656841
  H      0.250809    2.994200   -2.201541
  H     -0.828247    4.212745   -1.459020
  H     -1.430785    2.576845   -1.817580
  H     -0.200077   -2.320098   -0.280326
  H      2.246912   -1.473811    0.278436

 Multiplicity           Mult            ....    1
 Number of Electrons    NEL             ....   60
 Basis Dimension        Dim             ....  142

ORBITAL ENERGIES
----------------

  NO   OCC          E(Eh)            E(eV)
   0   2.0000     -88.864881     -2418.1364
   1   2.0000     -10.209826      -277.8235
   2   2.0000     -10.205446      -277.7043
   3   2.0000     -10.200578      -277.5718
   4   2.0000     -10.188333      -277.2386
   5   2.0000     -10.185510      -277.1618
   6   2.0000     -10.185236      -277.1544
   7   2.0000      -7.960197      -216.6080
   8   2.0000      -5.928272      -161.3165
   9   2.0000      -5.924201      -161.2057
  10   2.0000      -5.921607      -161.1351
  11   2.0000      -0.872317       -23.7369
  12   2.0000      -0.778079       -21.1726
  13   2.0000      -0.724177       -19.7059
  14   2.0000      -0.698894       -19.0179
  15   2.0000      -0.622292       -16.9334
  16   2.0000      -0.551857       -15.0168
  17   2.0000      -0.527867       -14.3640
  18   2.0000      -0.498163       -13.5557
  19   2.0000      -0.451138       -12.2761
  20   2.0000      -0.429336       -11.6828
  21   2.0000      -0.402608       -10.9555
  22   2.0000      -0.389855       -10.6085
  23   2.0000      -0.383615       -10.4387
  24   2.0000      -0.360901        -9.8206
  25   2.0000      -0.359616        -9.7856
  26   2.0000      -0.348444        -9.4816
  27   2.0000      -0.331911        -9.0318
  28   2.0000      -0.249180        -6.7805
  29   2.0000      -0.228675        -6.2226
  30   0.0000      -0.012762        -0.3473
  31   0.0000       0.041605         1.1321
  32   0.0000       0.059830         1.6280
  33   0.0000       0.068963         1.8766
  34   0.0000       0.083605         2.2750

MULLIKEN ATOMIC CHARGES
-----------------------
   0 C :    0.029480
   1 C :   -0.209968
   2 C :    0.094263
   3 C :   -0.006474
   4 S :    0.086344
   5 C :   -0.089403
   6 C :    0.030375
   7 H :   -0.023190
   8 H :    0.001730
   9 H :    0.018351
  10 H :    0.021911
  11 H :    0.014183
  12 H :    0.016554
  13 H :    0.026284
  14 H :   -0.010439
Sum of atomic charges:   -0.0000000

LOEWDIN ATOMIC CHARGES
----------------------
   0 C :   -0.078548
   1 C :   -0.174738
   2 C :   -0.042276
   3 C :   -0.054352
   4 S :    0.408112
   5 C :   -0.197014
   6 C :   -0.068911
   7 H :    0.025464
   8 H :    0.031729
   9 H :    0.030494
  10 H :    0.026010
  11 H :    0.023276
  12 H :    0.019632
  13 H :    0.023060
  14 H :    0.028061

  Mayer bond orders larger than 0.100000
B(  0-C ,  1-C ) :   1.5940 B(  0-C ,  6-C ) :   1.2345 B(  0-C ,  7-H ) :   0.9882
B(  1-C ,  2-C ) :   1.0576 B(  1-C ,  4-S ) :   1.1486 B(  2-C ,  3-C ) :   1.0979
B(  2-C ,  8-H ) :   0.9289 B(  2-C ,  9-H ) :   0.9263 B(  3-C , 10-H ) :   0.9708
B(  3-C , 11-H ) :   0.9639 B(  3-C , 12-H ) :   0.9701 B(  4-S ,  5-C ) :   1.1509
B(  5-C ,  6-C ) :   1.5805 B(  5-C , 13-H ) :   0.9705 B(  6-C , 14-H ) :   0.9881

Dispersion correction           -0.026249340
FINAL SINGLE POINT ENERGY      -631.387559936613

DIPOLE MOMENT
-------------
                                X             Y             Z
Electronic contribution:     -1.98231      -6.95767       1.72448
Nuclear contribution   :      2.10792       7.13535      -1.71095
                        -----------------------------------------
Total Dipole Moment    :      0.12561       0.17768       0.01353
                        -----------------------------------------
Magnitude (a.u.)       :      0.21802
Magnitude (Debye)      :      0.55416

Rotational constants in cm-1:     0.147455     0.057483     0.044940
Rotational constants in MHz :  4420.575342  1723.301156  1347.273962

                             ****ORCA TERMINATED NORMALLY****
TOTAL RUN TIME: 0 days 0 hours 5 minutes 27 seconds 285 msec
