                         Program Version 4.2.0 -  RELEASE  -
|  1> # ORCA input file
|  2> # SCF done        -33.739056687746          0.000288213344
|  3> ! B3LYP/G D3BJ Opt RIJCOSX def2-SVP def2/J
|  4> * xyz 0 1
|  5>    C       -1.26994        -0.11976         0.00397
|  6>    S       -0.49861         1.41286         0.00155
|  7>    C        1.04670         0.69610        -0.00458
|  8>    C        0.97228        -0.66774        -0.00515
|  9>    C       -0.37351        -1.14845        -0.00020
| 10>    O       -0.75170        -2.44284         0.00029
| 11>    C        2.15577        -1.57022        -0.01141
| 12>    F        3.31790        -0.91452        -0.00709
| 13>    F        2.17261        -2.40150         1.05453
| 14>    F        2.17259        -2.38706        -1.08835
| 15>    H       -2.33683        -0.19747         0.00804
| 16>    H        1.93406         1.29681        -0.00760
| 17>    H        0.01087        -3.03361        -0.00033
| 18> *
| 19>
| 20>                          ****END OF INPUT****
 Total Charge           Charge          ....    0
 Multiplicity           Mult            ....    1
 Number of Electrons    NEL             ....   84
Dispersion correction           -0.024259020
FINAL SINGLE POINT ENERGY      -964.757592830325
Dispersion correction            ... done
Dispersion correction           -0.024272982
FINAL SINGLE POINT ENERGY      -964.758814851907
Dispersion correction            ... done
Dispersion correction           -0.024278374
FINAL SINGLE POINT ENERGY      -964.758886762234
Dispersion correction            ... done
FINAL SINGLE POINT ENERGY      -964.758906203827
FINAL SINGLE POINT ENERGY      -964.758916709257
FINAL SINGLE POINT ENERGY      -964.758876282294
FINAL SINGLE POINT ENERGY      -964.759007211686
FINAL SINGLE POINT ENERGY      -964.759132053881
FINAL SINGLE POINT ENERGY      -964.759455822205
FINAL SINGLE POINT ENERGY      -964.759553202474
Dispersion correction            ... done
Dispersion correction           -0.024261818
FINAL SINGLE POINT ENERGY      -964.759600749273
Dispersion correction            ... done
Dispersion correction           -0.024255910
FINAL SINGLE POINT ENERGY      -964.759606157348
Dispersion correction            ... done
                    ***********************HURRAY********************

CARTESIAN COORDINATES (ANGSTROEM)
---------------------------------
  C     -1.285945   -0.125487   -0.013428
  S     -0.505217    1.419681   -0.044595
  C      1.056120    0.701231   -0.030620
  C      0.982312   -0.670521   -0.013473
  C     -0.375241   -1.155478    0.003167
  O     -0.738744   -2.458278    0.026293
  C      2.166811   -1.576334   -0.062103
  F      3.316283   -0.939250    0.185202
  F      2.038244   -2.572288    0.860640
  F      2.297220   -2.196626   -1.249143
  H     -2.369897   -0.211376    0.003863
  H      1.960764    1.305629   -0.039727
  H      0.009479   -2.998303    0.317594

 Multiplicity           Mult            ....    1
 Number of Electrons    NEL             ....   84
 Basis Dimension        Dim             ....  159

ORBITAL ENERGIES
----------------

  NO   OCC          E(Eh)            E(eV)
   0   2.0000     -88.893294     -2418.9095
   1   2.0000     -24.733215      -673.0250
   2   2.0000     -24.732577      -673.0076
   3   2.0000     -24.725251      -672.8083
   4   2.0000     -19.176028      -521.8062
   5   2.0000     -10.448056      -284.3061
   6   2.0000     -10.269379      -279.4440
   7   2.0000     -10.238708      -278.6094
   8   2.0000     -10.221840      -278.1504
   9   2.0000     -10.216420      -278.0029
  10   2.0000      -7.988221      -217.3705
  11   2.0000      -5.956364      -162.0809
  12   2.0000      -5.952286      -161.9699
  13   2.0000      -5.949465      -161.8932
  14   2.0000      -1.308500       -35.6061
  15   2.0000      -1.220061       -33.1996
  16   2.0000      -1.212272       -32.9876
  17   2.0000      -1.064490       -28.9662
  18   2.0000      -0.898051       -24.4372
  19   2.0000      -0.787307       -21.4237
  20   2.0000      -0.737621       -20.0717
  21   2.0000      -0.696632       -18.9563
  22   2.0000      -0.628570       -17.1043
  23   2.0000      -0.611201       -16.6316
  24   2.0000      -0.602063       -16.3830
  25   2.0000      -0.590471       -16.0675
  26   2.0000      -0.578296       -15.7362
  27   2.0000      -0.498413       -13.5625
  28   2.0000      -0.486118       -13.2279
  29   2.0000      -0.481943       -13.1143
  30   2.0000      -0.476772       -12.9736
  31   2.0000      -0.447930       -12.1888
  32   2.0000      -0.444850       -12.1050
  33   2.0000      -0.426751       -11.6125
  34   2.0000      -0.421140       -11.4598
  35   2.0000      -0.419445       -11.4137
  36   2.0000      -0.416418       -11.3313
  37   2.0000      -0.378193       -10.2912
  38   2.0000      -0.369728       -10.0608
  39   2.0000      -0.357461        -9.7270
  40   2.0000      -0.272132        -7.4051
  41   2.0000      -0.237169        -6.4537
  42   0.0000      -0.038285        -1.0418
  43   0.0000       0.025052         0.6817
  44   0.0000       0.036262         0.9867
  45   0.0000       0.070419         1.9162
  46   0.0000       0.077192         2.1005

MULLIKEN ATOMIC CHARGES
-----------------------
   0 C :   -0.165811
   1 S :    0.124783
   2 C :   -0.097044
   3 C :   -0.133803
   4 C :    0.187016
   5 O :   -0.190813
   6 C :    0.539656
   7 F :   -0.156095
   8 F :   -0.198325
   9 F :   -0.163683
  10 H :    0.030155
  11 H :    0.039372
  12 H :    0.184592
Sum of atomic charges:   -0.0000000

LOEWDIN ATOMIC CHARGES
----------------------
   0 C :   -0.231704
   1 S :    0.456888
   2 C :   -0.167632
   3 C :   -0.160114
   4 C :    0.020505
   5 O :   -0.049093
   6 C :    0.176210
   7 F :   -0.048809
   8 F :   -0.081741
   9 F :   -0.063819
  10 H :    0.031681
  11 H :    0.033401
  12 H :    0.084227

  Mayer bond orders larger than 0.100000
B(  0-C ,  1-S ) :   1.1334 B(  0-C ,  4-C ) :   1.5324 B(  0-C , 10-H ) :   0.9658
B(  1-S ,  2-C ) :   1.2097 B(  1-S ,  3-C ) :   0.1002 B(  2-C ,  3-C ) :   1.5312
B(  2-C , 11-H ) :   0.9693 B(  3-C ,  4-C ) :   1.1944 B(  3-C ,  6-C ) :   0.9567
B(  4-C ,  5-O ) :   1.2406 B(  5-O , 12-H ) :   0.9467 B(  6-C ,  7-F ) :   1.1669
B(  6-C ,  8-F ) :   1.0751 B(  6-C ,  9-F ) :   1.1773

Dispersion correction           -0.024254829
FINAL SINGLE POINT ENERGY      -964.759605883731

DIPOLE MOMENT
-------------
                                X             Y             Z
Electronic contribution:      7.36226      -3.03760      -0.28626
Nuclear contribution   :     -7.47907       3.44208       0.45510
                        -----------------------------------------
Total Dipole Moment    :     -0.11681       0.40448       0.16884
                        -----------------------------------------
Magnitude (a.u.)       :      0.45360
Magnitude (Debye)      :      1.15296

Rotational constants in cm-1:     0.066080     0.029484     0.022829
Rotational constants in MHz :  1981.041265   883.899967   684.410317

                             ****ORCA TERMINATED NORMALLY****
TOTAL RUN TIME: 0 days 0 hours 7 minutes 57 seconds 879 msec
