                         Program Version 4.2.0 -  RELEASE  -
|  1> # ORCA input file
|  2> # SCF done        -38.607206993587          0.000965951188
|  3> ! B3LYP/G D3BJ Opt RIJCOSX def2-SVP def2/J
|  4> * xyz 0 1
|  5>    C       -0.01318         1.17461        -0.27811
|  6>    S       -1.35907         0.15541        -0.58497
|  7>    C        1.15701         0.49191        -0.14293
|  8>    C        2.48312         1.13849         0.13725
|  9>    C        2.61985         2.55146        -0.46000
| 10>    N        2.46171         2.62875        -1.89850
| 11>    C        0.97045        -0.91599        -0.27951
| 12>    C        2.09668        -1.89929        -0.23614
| 13>    C        2.73762        -2.07139        -1.63586
| 14>    N        1.87773        -2.64577        -2.64557
| 15>    C       -0.33934        -1.25793        -0.52863
| 16>    C       -0.90692        -2.56848        -0.71004
| 17>    C       -2.15925        -2.80893        -1.08699
| 18>    H       -0.18002         2.23141        -0.21234
| 19>    H        3.28261         0.51417        -0.26832
| 20>    H        2.62936         1.20041         1.22031
| 21>    H        3.61438         2.93683        -0.21641
| 22>    H        1.88469         3.22145        -0.00764
| 23>    H        3.14728         2.03971        -2.36069
| 24>    H        1.54139         2.29525        -2.16729
| 25>    H        1.74093        -2.87202         0.10901
| 26>    H        2.86079        -1.55899         0.46396
| 27>    H        3.61830        -2.71311        -1.54384
| 28>    H        3.06541        -1.09605        -2.00671
| 29>    H        1.58323        -3.57835        -2.37684
| 30>    H        1.04192        -2.08230        -2.76350
| 31>    H       -0.24095        -3.39832        -0.51273
| 32>    H       -2.84913        -2.00691        -1.29487
| 33>    H       -2.53191        -3.81130        -1.20004
| 34> *
| 35>
| 36>                          ****END OF INPUT****
 Total Charge           Charge          ....    0
 Multiplicity           Mult            ....    1
 Number of Electrons    NEL             ....  106
Dispersion correction           -0.059706908
FINAL SINGLE POINT ENERGY      -897.940587013792
Dispersion correction            ... done
Dispersion correction           -0.058735077
FINAL SINGLE POINT ENERGY      -897.943895338086
Dispersion correction            ... done
Dispersion correction           -0.058521535
FINAL SINGLE POINT ENERGY      -897.944008306804
Dispersion correction            ... done
FINAL SINGLE POINT ENERGY      -897.943884557189
FINAL SINGLE POINT ENERGY      -897.943638250511
FINAL SINGLE POINT ENERGY      -897.943792902808
FINAL SINGLE POINT ENERGY      -897.943944201789
Dispersion correction            ... done
Dispersion correction           -0.058447344
FINAL SINGLE POINT ENERGY      -897.943955896002
Dispersion correction            ... done
Dispersion correction           -0.058432263
FINAL SINGLE POINT ENERGY      -897.943947568492
Dispersion correction            ... done
                    ***********************HURRAY********************

CARTESIAN COORDINATES (ANGSTROEM)
---------------------------------
  C     -0.011067    1.193522   -0.545847
  S     -1.382802    0.167510   -0.768474
  C      1.155302    0.490873   -0.347864
  C      2.513144    1.101408   -0.094794
  C      2.618324    2.615366   -0.328026
  N      2.491609    3.076920   -1.702856
  C      0.932985   -0.934318   -0.370574
  C      2.047124   -1.934820   -0.227927
  C      2.776482   -2.234923   -1.563472
  N      1.957171   -2.738731   -2.649277
  C     -0.396358   -1.267769   -0.599268
  C     -0.974858   -2.599661   -0.676895
  C     -2.262037   -2.916320   -0.893601
  H     -0.150229    2.273317   -0.559291
  H      3.258465    0.595355   -0.732959
  H      2.815994    0.873758    0.944375
  H      3.590918    2.960924    0.059699
  H      1.860660    3.131001    0.286595
  H      3.233425    2.674288   -2.276054
  H      1.618688    2.742629   -2.110549
  H      1.658348   -2.880521    0.181753
  H      2.786119   -1.567556    0.502599
  H      3.581376   -2.962128   -1.361738
  H      3.279810   -1.317022   -1.912767
  H      1.524996   -3.628107   -2.397653
  H      1.189379   -2.094733   -2.840810
  H     -0.259113   -3.413844   -0.532004
  H     -3.030566   -2.153550   -1.048299
  H     -2.588597   -3.958138   -0.921961

 Multiplicity           Mult            ....    1
 Number of Electrons    NEL             ....  106
 Basis Dimension        Dim             ....  266

ORBITAL ENERGIES
----------------

  NO   OCC          E(Eh)            E(eV)
   0   2.0000     -88.870536     -2418.2902
   1   2.0000     -14.304508      -389.2454
   2   2.0000     -14.303587      -389.2204
   3   2.0000     -10.217027      -278.0194
   4   2.0000     -10.213693      -277.9287
   5   2.0000     -10.212328      -277.8916
   6   2.0000     -10.211364      -277.8653
   7   2.0000     -10.206096      -277.7220
   8   2.0000     -10.199452      -277.5412
   9   2.0000     -10.198872      -277.5254
  10   2.0000     -10.194701      -277.4119
  11   2.0000     -10.194215      -277.3987
  12   2.0000     -10.192014      -277.3388
  13   2.0000      -7.965670      -216.7569
  14   2.0000      -5.933776      -161.4662
  15   2.0000      -5.929836      -161.3590
  16   2.0000      -5.926865      -161.2782
  17   2.0000      -0.889109       -24.1939
  18   2.0000      -0.874263       -23.7899
  19   2.0000      -0.868833       -23.6421
  20   2.0000      -0.790925       -21.5222
  21   2.0000      -0.774571       -21.0771
  22   2.0000      -0.747714       -20.3463
  23   2.0000      -0.694807       -18.9067
  24   2.0000      -0.688498       -18.7350
  25   2.0000      -0.619102       -16.8466
  26   2.0000      -0.614341       -16.7171
  27   2.0000      -0.602561       -16.3965
  28   2.0000      -0.530777       -14.4432
  29   2.0000      -0.525234       -14.2923
  30   2.0000      -0.508771       -13.8444
  31   2.0000      -0.493424       -13.4267
  32   2.0000      -0.477969       -13.0062
  33   2.0000      -0.458893       -12.4871
  34   2.0000      -0.453306       -12.3351
  35   2.0000      -0.441962       -12.0264
  36   2.0000      -0.429898       -11.6981
  37   2.0000      -0.424954       -11.5636
  38   2.0000      -0.415325       -11.3016
  39   2.0000      -0.405771       -11.0416
  40   2.0000      -0.394625       -10.7383
  41   2.0000      -0.377593       -10.2748
  42   2.0000      -0.376312       -10.2400
  43   2.0000      -0.368032       -10.0147
  44   2.0000      -0.366379        -9.9697
  45   2.0000      -0.346790        -9.4366
  46   2.0000      -0.340439        -9.2638
  47   2.0000      -0.330941        -9.0054
  48   2.0000      -0.304822        -8.2946
  49   2.0000      -0.250548        -6.8178
  50   2.0000      -0.236491        -6.4352
  51   2.0000      -0.233346        -6.3497
  52   2.0000      -0.218714        -5.9515
  53   0.0000      -0.049040        -1.3345
  54   0.0000       0.026216         0.7134
  55   0.0000       0.034755         0.9457
  56   0.0000       0.044705         1.2165
  57   0.0000       0.049944         1.3591

MULLIKEN ATOMIC CHARGES
-----------------------
   0 C :   -0.153951
   1 S :    0.096973
   2 C :   -0.051857
   3 C :    0.107059
   4 C :    0.091198
   5 N :   -0.216812
   6 C :   -0.046170
   7 C :    0.097452
   8 C :    0.095909
   9 N :   -0.224321
  10 C :   -0.145128
  11 C :   -0.003054
  12 C :   -0.037720
  13 H :    0.027582
  14 H :   -0.012294
  15 H :    0.006220
  16 H :   -0.004192
  17 H :    0.003465
  18 H :    0.086975
  19 H :    0.081882
  20 H :   -0.005351
  21 H :   -0.008398
  22 H :    0.006798
  23 H :   -0.002858
  24 H :    0.085667
  25 H :    0.100476
  26 H :   -0.019581
  27 H :    0.022832
  28 H :    0.021201
Sum of atomic charges:   -0.0000000

LOEWDIN ATOMIC CHARGES
----------------------
   0 C :   -0.203516
   1 S :    0.418107
   2 C :   -0.063361
   3 C :   -0.044648
   4 C :    0.017057
   5 N :   -0.115050
   6 C :   -0.056558
   7 C :   -0.045014
   8 C :    0.021427
   9 N :   -0.108260
  10 C :   -0.187082
  11 C :   -0.046938
  12 C :   -0.058920
  13 H :    0.021981
  14 H :    0.021934
  15 H :    0.031779
  16 H :    0.020602
  17 H :    0.017066
  18 H :    0.052551
  19 H :    0.047110
  20 H :    0.023143
  21 H :    0.027858
  22 H :    0.019612
  23 H :    0.013986
  24 H :    0.050055
  25 H :    0.054080
  26 H :    0.025544
  27 H :    0.019244
  28 H :    0.026208

  Mayer bond orders larger than 0.100000
B(  0-C ,  1-S ) :   1.1379 B(  0-C ,  2-C ) :   1.5598 B(  0-C , 13-H ) :   0.9542
B(  1-S , 10-C ) :   1.1113 B(  2-C ,  3-C ) :   1.0463 B(  2-C ,  6-C ) :   1.2599
B(  3-C ,  4-C ) :   1.0715 B(  3-C , 14-H ) :   0.9019 B(  3-C , 15-H ) :   0.8964
B(  4-C ,  5-N ) :   1.1183 B(  4-C , 16-H ) :   0.9429 B(  4-C , 17-H ) :   0.9350
B(  5-N , 18-H ) :   0.9715 B(  5-N , 19-H ) :   0.9763 B(  6-C ,  7-C ) :   1.1004
B(  6-C , 10-C ) :   1.4944 B(  7-C ,  8-C ) :   1.0412 B(  7-C , 20-H ) :   0.9033
B(  7-C , 21-H ) :   0.8873 B(  8-C ,  9-N ) :   1.1249 B(  8-C , 22-H ) :   0.9445
B(  8-C , 23-H ) :   0.9440 B(  9-N , 24-H ) :   0.9747 B(  9-N , 25-H ) :   0.9774
B( 10-C , 11-C ) :   1.1315 B( 11-C , 12-C ) :   1.9038 B( 11-C , 26-H ) :   0.9482
B( 12-C , 27-H ) :   0.9525 B( 12-C , 28-H ) :   0.9448

Dispersion correction           -0.058431762
FINAL SINGLE POINT ENERGY      -897.943940509481

DIPOLE MOMENT
-------------
                                X             Y             Z
Electronic contribution:    -11.84491       1.87512       1.33573
Nuclear contribution   :     11.97367      -2.33796      -0.95911
                        -----------------------------------------
Total Dipole Moment    :      0.12876      -0.46284       0.37662
                        -----------------------------------------
Magnitude (a.u.)       :      0.61044
Magnitude (Debye)      :      1.55161

Rotational constants in cm-1:     0.029960     0.017051     0.012291
Rotational constants in MHz :   898.179771   511.191102   368.460823

                             ****ORCA TERMINATED NORMALLY****
TOTAL RUN TIME: 0 days 0 hours 20 minutes 41 seconds 207 msec
