                         Program Version 4.2.0 -  RELEASE  -
|  1> # ORCA input file
|  2> # SCF done        -26.732346346398          0.000309767072
|  3> ! B3LYP/G D3BJ Opt RIJCOSX def2-SVP def2/J
|  4> * xyz 0 1
|  5>    C       -2.13831        -0.02061        -0.09335
|  6>    C       -1.35096        -1.11140        -0.14044
|  7>    C        0.00741        -0.67084        -0.03649
|  8>    N        1.26891        -1.15532        -0.00869
|  9>    C        2.14151        -0.09751         0.12139
| 10>    C        1.39906         1.08099         0.17628
| 11>    C        0.05854         0.71553         0.07658
| 12>    C       -1.33394         1.24622         0.04767
| 13>    C        3.55750        -0.32008         0.18149
| 14>    C        4.48836         0.62442         0.30768
| 15>    H       -3.21209        -0.01000        -0.14654
| 16>    H       -1.67332        -2.13283        -0.23801
| 17>    H        1.54920        -2.12010        -0.07171
| 18>    H        1.80385         2.06843         0.27605
| 19>    H       -1.50992         1.92164        -0.79222
| 20>    H       -1.59893         1.78374         0.96051
| 21>    H        3.86174        -1.35902         0.11724
| 22>    H        4.23207         1.66667         0.37456
| 23>    H        5.53527         0.38098         0.34821
| 24> *
| 25>
| 26>                          ****END OF INPUT****
 Total Charge           Charge          ....    0
 Multiplicity           Mult            ....    1
 Number of Electrons    NEL             ....   70
Dispersion correction           -0.033358509
FINAL SINGLE POINT ENERGY      -402.818512535037
Dispersion correction            ... done
Dispersion correction           -0.033314670
FINAL SINGLE POINT ENERGY      -402.821999479900
Dispersion correction            ... done
Dispersion correction           -0.033297976
FINAL SINGLE POINT ENERGY      -402.822096284723
Dispersion correction            ... done
FINAL SINGLE POINT ENERGY      -402.822114070833
Dispersion correction            ... done
Dispersion correction           -0.033279333
FINAL SINGLE POINT ENERGY      -402.822109771667
Dispersion correction            ... done
Dispersion correction           -0.033279294
FINAL SINGLE POINT ENERGY      -402.822106990525
Dispersion correction            ... done
                    ***********************HURRAY********************

CARTESIAN COORDINATES (ANGSTROEM)
---------------------------------
  C     -2.179957   -0.033464   -0.107647
  C     -1.372889   -1.125954   -0.151093
  C     -0.003748   -0.659947   -0.030732
  N      1.269902   -1.141505    0.004555
  C      2.157873   -0.077146    0.139042
  C      1.398528    1.103671    0.193547
  C      0.042537    0.728546    0.087818
  C     -1.369494    1.244272    0.050691
  C      3.584606   -0.312208    0.195921
  C      4.554449    0.614646    0.287387
  H     -3.268340   -0.047055   -0.178584
  H     -1.699738   -2.160534   -0.261908
  H      1.553086   -2.109428   -0.069404
  H      1.815470    2.102492    0.303770
  H     -1.556616    1.941954   -0.785729
  H     -1.657910    1.786006    0.970120
  H      3.884796   -1.367410    0.156697
  H      4.327920    1.684068    0.328192
  H      5.605475    0.319908    0.327566

 Multiplicity           Mult            ....    1
 Number of Electrons    NEL             ....   70
 Basis Dimension        Dim             ....  185

ORBITAL ENERGIES
----------------

  NO   OCC          E(Eh)            E(eV)
   0   2.0000     -14.374022      -391.1370
   1   2.0000     -10.210067      -277.8300
   2   2.0000     -10.204477      -277.6779
   3   2.0000     -10.194971      -277.4193
   4   2.0000     -10.194017      -277.3933
   5   2.0000     -10.193979      -277.3923
   6   2.0000     -10.185965      -277.1742
   7   2.0000     -10.177178      -276.9351
   8   2.0000     -10.173155      -276.8256
   9   2.0000     -10.167791      -276.6797
  10   2.0000      -0.970329       -26.4040
  11   2.0000      -0.838465       -22.8158
  12   2.0000      -0.777937       -21.1687
  13   2.0000      -0.750157       -20.4128
  14   2.0000      -0.694594       -18.9009
  15   2.0000      -0.675558       -18.3829
  16   2.0000      -0.601669       -16.3722
  17   2.0000      -0.582962       -15.8632
  18   2.0000      -0.547051       -14.8860
  19   2.0000      -0.531362       -14.4591
  20   2.0000      -0.511705       -13.9242
  21   2.0000      -0.459547       -12.5049
  22   2.0000      -0.442554       -12.0425
  23   2.0000      -0.430408       -11.7120
  24   2.0000      -0.426902       -11.6166
  25   2.0000      -0.402655       -10.9568
  26   2.0000      -0.396594       -10.7919
  27   2.0000      -0.387664       -10.5489
  28   2.0000      -0.368211       -10.0195
  29   2.0000      -0.355124        -9.6634
  30   2.0000      -0.342391        -9.3169
  31   2.0000      -0.307097        -8.3565
  32   2.0000      -0.268088        -7.2951
  33   2.0000      -0.243881        -6.6363
  34   2.0000      -0.178935        -4.8691
  35   0.0000      -0.029526        -0.8035
  36   0.0000       0.006126         0.1667
  37   0.0000       0.053560         1.4574
  38   0.0000       0.079811         2.1718
  39   0.0000       0.085684         2.3316

MULLIKEN ATOMIC CHARGES
-----------------------
   0 C :   -0.126906
   1 C :    0.017766
   2 C :    0.032143
   3 N :   -0.047578
   4 C :    0.076452
   5 C :   -0.093523
   6 C :   -0.098414
   7 C :    0.207985
   8 C :   -0.000467
   9 C :   -0.051722
  10 H :   -0.007226
  11 H :   -0.033588
  12 H :    0.111258
  13 H :   -0.042439
  14 H :    0.029164
  15 H :    0.026680
  16 H :   -0.031890
  17 H :    0.015587
  18 H :    0.016718
Sum of atomic charges:    0.0000000

LOEWDIN ATOMIC CHARGES
----------------------
   0 C :   -0.033251
   1 C :   -0.041805
   2 C :   -0.026455
   3 N :    0.079040
   4 C :   -0.022312
   5 C :   -0.066025
   6 C :   -0.065285
   7 C :   -0.019067
   8 C :   -0.040455
   9 C :   -0.071120
  10 H :    0.019423
  11 H :    0.022758
  12 H :    0.084680
  13 H :    0.021010
  14 H :    0.045952
  15 H :    0.045908
  16 H :    0.023097
  17 H :    0.020994
  18 H :    0.022914

  Mayer bond orders larger than 0.100000
B(  0-C ,  1-C ) :   1.7002 B(  0-C ,  7-C ) :   1.0367 B(  0-C , 10-H ) :   0.9823
B(  1-C ,  2-C ) :   1.0800 B(  1-C , 11-H ) :   1.0171 B(  2-C ,  3-N ) :   1.1983
B(  2-C ,  6-C ) :   1.4533 B(  3-N ,  4-C ) :   1.1651 B(  3-N , 12-H ) :   0.9358
B(  4-C ,  5-C ) :   1.4004 B(  4-C ,  8-C ) :   1.1077 B(  5-C ,  6-C ) :   1.3325
B(  5-C , 13-H ) :   1.0140 B(  6-C ,  7-C ) :   1.0422 B(  7-C , 14-H ) :   0.8936
B(  7-C , 15-H ) :   0.8922 B(  8-C ,  9-C ) :   1.9025 B(  8-C , 16-H ) :   0.9483
B(  9-C , 17-H ) :   0.9519 B(  9-C , 18-H ) :   0.9445

Dispersion correction           -0.033280187
FINAL SINGLE POINT ENERGY      -402.822106247472

DIPOLE MOMENT
-------------
                                X             Y             Z
Electronic contribution:     -1.64604      -2.30548      -0.23134
Nuclear contribution   :      1.45436       1.75422       0.17201
                        -----------------------------------------
Total Dipole Moment    :     -0.19168      -0.55126      -0.05933
                        -----------------------------------------
Magnitude (a.u.)       :      0.58664
Magnitude (Debye)      :      1.49112

Rotational constants in cm-1:     0.151451     0.027545     0.023409
Rotational constants in MHz :  4540.379207   825.782702   701.794104

                             ****ORCA TERMINATED NORMALLY****
TOTAL RUN TIME: 0 days 0 hours 5 minutes 46 seconds 966 msec
