                         Program Version 4.2.0 -  RELEASE  -
|  1> # ORCA input file
|  2> # SCF done        -34.340299303843          0.000797974753
|  3> ! B3LYP/G D3BJ Opt RIJCOSX def2-SVP def2/J
|  4> * xyz 0 1
|  5>    C        1.44261        -0.07694         0.43945
|  6>    C        0.82093         1.14607         0.62174
|  7>    C       -0.51269         1.31792         0.28020
|  8>    C       -1.20283         2.64142         0.48066
|  9>    N       -2.13224         2.90669        -0.60896
| 10>    C       -1.21297         0.24063        -0.24976
| 11>    C       -0.59249        -0.97968        -0.43159
| 12>    C        0.74322        -1.15285        -0.08767
| 13>    C        1.40774        -2.49126        -0.28235
| 14>    N        1.00727        -3.08826        -1.53555
| 15>    C        1.16016        -4.43618        -1.75640
| 16>    C        1.26111        -5.01070        -2.95016
| 17>    H        2.48324        -0.19333         0.70947
| 18>    H        1.38199         1.97462         1.03188
| 19>    H       -0.44188         3.43095         0.61125
| 20>    H       -1.79287         2.59770         1.40466
| 21>    H       -1.63120         2.95213        -1.49066
| 22>    H       -2.59824         3.79580        -0.46694
| 23>    H       -2.24835         0.37814        -0.52009
| 24>    H       -1.13953        -1.81359        -0.84615
| 25>    H        1.09538        -3.16928         0.52188
| 26>    H        2.50231        -2.37181        -0.20837
| 27>    H        1.17752        -2.50718        -2.34542
| 28>    H        1.13032        -5.03315        -0.85380
| 29>    H        1.29037        -4.43199        -3.85779
| 30>    H        1.29586        -6.07840        -3.05278
| 31> *
| 32>
| 33>                          ****END OF INPUT****
 Total Charge           Charge          ....    0
 Multiplicity           Mult            ....    1
 Number of Electrons    NEL             ....   88
Dispersion correction           -0.045234668
FINAL SINGLE POINT ENERGY      -498.652684780128
Dispersion correction            ... done
Dispersion correction           -0.044783339
FINAL SINGLE POINT ENERGY      -498.655810189272
Dispersion correction            ... done
Dispersion correction           -0.044735773
FINAL SINGLE POINT ENERGY      -498.655928265470
Dispersion correction            ... done
FINAL SINGLE POINT ENERGY      -498.655829756638
FINAL SINGLE POINT ENERGY      -498.655605779440
FINAL SINGLE POINT ENERGY      -498.655485888679
FINAL SINGLE POINT ENERGY      -498.655394803120
FINAL SINGLE POINT ENERGY      -498.655294954671
FINAL SINGLE POINT ENERGY      -498.655225966467
FINAL SINGLE POINT ENERGY      -498.655199094196
Dispersion correction            ... done
Dispersion correction           -0.044748939
FINAL SINGLE POINT ENERGY      -498.655185663978
Dispersion correction            ... done
Dispersion correction           -0.044748548
FINAL SINGLE POINT ENERGY      -498.655175361946
Dispersion correction            ... done
                    ***********************HURRAY********************

CARTESIAN COORDINATES (ANGSTROEM)
---------------------------------
  C      1.410152   -0.150191    0.487874
  C      0.853940    1.124616    0.604053
  C     -0.460951    1.377434    0.186949
  C     -1.055031    2.766047    0.336216
  N     -2.349554    2.906258   -0.313970
  C     -1.198639    0.318442   -0.355985
  C     -0.637542   -0.953300   -0.483953
  C      0.672173   -1.209052   -0.057563
  C      1.266546   -2.593291   -0.194533
  N      0.990428   -3.150805   -1.505296
  C      1.237001   -4.478857   -1.791943
  C      1.447587   -5.013119   -3.008397
  H      2.437068   -0.325810    0.820895
  H      1.456114    1.937679    1.020752
  H     -0.291955    3.500383   -0.003480
  H     -1.198225    2.968421    1.413147
  H     -2.242407    2.927832   -1.328722
  H     -2.787826    3.785696   -0.046930
  H     -2.224013    0.508758   -0.674841
  H     -1.216972   -1.765386   -0.928856
  H      0.819768   -3.269366    0.557190
  H      2.350364   -2.548891    0.041536
  H      1.147142   -2.504318   -2.273164
  H      1.211006   -5.125978   -0.906441
  H      1.487766   -4.395782   -3.910895
  H      1.570800   -6.089949   -3.126890

 Multiplicity           Mult            ....    1
 Number of Electrons    NEL             ....   88
 Basis Dimension        Dim             ....  238

ORBITAL ENERGIES
----------------

  NO   OCC          E(Eh)            E(eV)
   0   2.0000     -14.331746      -389.9866
   1   2.0000     -14.313245      -389.4832
   2   2.0000     -10.223266      -278.1892
   3   2.0000     -10.218389      -278.0565
   4   2.0000     -10.211195      -277.8607
   5   2.0000     -10.191336      -277.3204
   6   2.0000     -10.190834      -277.3067
   7   2.0000     -10.188637      -277.2469
   8   2.0000     -10.187152      -277.2065
   9   2.0000     -10.183687      -277.1122
  10   2.0000     -10.180595      -277.0281
  11   2.0000     -10.155112      -276.3346
  12   2.0000      -0.918608       -24.9966
  13   2.0000      -0.882812       -24.0225
  14   2.0000      -0.843030       -22.9400
  15   2.0000      -0.770344       -20.9621
  16   2.0000      -0.733756       -19.9665
  17   2.0000      -0.724997       -19.7282
  18   2.0000      -0.676534       -18.4094
  19   2.0000      -0.633812       -17.2469
  20   2.0000      -0.601458       -16.3665
  21   2.0000      -0.585168       -15.9232
  22   2.0000      -0.564922       -15.3723
  23   2.0000      -0.511142       -13.9089
  24   2.0000      -0.496070       -13.4987
  25   2.0000      -0.481229       -13.0949
  26   2.0000      -0.473643       -12.8885
  27   2.0000      -0.458373       -12.4730
  28   2.0000      -0.443509       -12.0685
  29   2.0000      -0.435263       -11.8441
  30   2.0000      -0.419117       -11.4048
  31   2.0000      -0.411953       -11.2098
  32   2.0000      -0.409126       -11.1329
  33   2.0000      -0.398769       -10.8511
  34   2.0000      -0.385660       -10.4943
  35   2.0000      -0.360355        -9.8058
  36   2.0000      -0.354863        -9.6563
  37   2.0000      -0.341538        -9.2937
  38   2.0000      -0.338536        -9.2120
  39   2.0000      -0.315078        -8.5737
  40   2.0000      -0.253543        -6.8993
  41   2.0000      -0.249706        -6.7948
  42   2.0000      -0.235251        -6.4015
  43   2.0000      -0.195249        -5.3130
  44   0.0000      -0.012886        -0.3507
  45   0.0000      -0.003844        -0.1046
  46   0.0000       0.039575         1.0769
  47   0.0000       0.049679         1.3518
  48   0.0000       0.070090         1.9072

MULLIKEN ATOMIC CHARGES
-----------------------
   0 C :    0.001128
   1 C :   -0.015006
   2 C :   -0.057410
   3 C :    0.165765
   4 N :   -0.210688
   5 C :    0.002897
   6 C :    0.008501
   7 C :   -0.087421
   8 C :    0.269749
   9 N :   -0.203532
  10 C :    0.045281
  11 C :   -0.092164
  12 H :   -0.036700
  13 H :   -0.036884
  14 H :   -0.008460
  15 H :    0.013385
  16 H :    0.095804
  17 H :    0.091335
  18 H :   -0.024684
  19 H :   -0.026100
  20 H :    0.013171
  21 H :   -0.015121
  22 H :    0.107656
  23 H :   -0.005147
  24 H :   -0.006039
  25 H :    0.010684
Sum of atomic charges:   -0.0000000

LOEWDIN ATOMIC CHARGES
----------------------
   0 C :   -0.027064
   1 C :   -0.029565
   2 C :   -0.034134
   3 C :    0.025139
   4 N :   -0.111559
   5 C :   -0.024975
   6 C :   -0.020028
   7 C :   -0.047171
   8 C :    0.048283
   9 N :   -0.042758
  10 C :    0.015441
  11 C :   -0.160046
  12 H :    0.022187
  13 H :    0.021797
  14 H :    0.006254
  15 H :    0.029878
  16 H :    0.056112
  17 H :    0.057745
  18 H :    0.024051
  19 H :    0.024935
  20 H :    0.029159
  21 H :    0.007196
  22 H :    0.071812
  23 H :    0.021565
  24 H :    0.013381
  25 H :    0.022366

  Mayer bond orders larger than 0.100000
B(  0-C ,  1-C ) :   1.3814 B(  0-C ,  7-C ) :   1.3822 B(  0-C , 12-H ) :   0.9775
B(  1-C ,  2-C ) :   1.3872 B(  1-C , 13-H ) :   0.9821 B(  2-C ,  3-C ) :   0.9961
B(  2-C ,  5-C ) :   1.4107 B(  3-C ,  4-N ) :   1.1191 B(  3-C , 14-H ) :   0.9301
B(  3-C , 15-H ) :   0.9233 B(  4-N , 16-H ) :   0.9668 B(  4-N , 17-H ) :   0.9631
B(  5-C ,  6-C ) :   1.3405 B(  5-C , 18-H ) :   0.9732 B(  6-C ,  7-C ) :   1.3845
B(  6-C , 19-H ) :   0.9854 B(  7-C ,  8-C ) :   1.0326 B(  8-C ,  9-N ) :   1.0024
B(  8-C , 20-H ) :   0.9138 B(  8-C , 21-H ) :   0.9227 B(  9-N , 10-C ) :   1.1675
B(  9-N , 22-H ) :   0.9402 B( 10-C , 11-C ) :   1.8845 B( 10-C , 23-H ) :   0.9541
B( 11-C , 24-H ) :   0.9567 B( 11-C , 25-H ) :   0.9483

Dispersion correction           -0.044749076
FINAL SINGLE POINT ENERGY      -498.655174510064

DIPOLE MOMENT
-------------
                                X             Y             Z
Electronic contribution:     -0.12545       1.15990       1.96295
Nuclear contribution   :      0.25172      -0.05334      -1.78800
                        -----------------------------------------
Total Dipole Moment    :      0.12626       1.10656       0.17495
                        -----------------------------------------
Magnitude (a.u.)       :      1.12740
Magnitude (Debye)      :      2.86563

Rotational constants in cm-1:     0.089268     0.011988     0.010961
Rotational constants in MHz :  2676.190359   359.394679   328.601775

                             ****ORCA TERMINATED NORMALLY****
TOTAL RUN TIME: 0 days 0 hours 18 minutes 52 seconds 505 msec
