                         Program Version 4.2.0 -  RELEASE  -
|  1> # ORCA input file
|  2> # SCF done        -38.071614497072          0.000692834879
|  3> ! B3LYP/G D3BJ Opt RIJCOSX def2-SVP def2/J
|  4> * xyz 0 1
|  5>    C        0.86889         0.62476         0.42700
|  6>    C        1.87462        -0.18100         0.14077
|  7>    C        3.03086         0.56245        -0.46722
|  8>    C        2.46973         1.98065        -0.73804
|  9>    C        1.15858         2.04941         0.07347
| 10>    C        3.58452         2.96551        -0.33870
| 11>    C        4.41594         2.21287         0.71881
| 12>    C        3.89558         2.77385         2.01653
| 13>    C        3.18773         3.87385         1.82162
| 14>    C        3.11058         4.24377         0.36773
| 15>    C        4.17633         0.74732         0.49755
| 16>    C        4.90447        -0.21236         1.07431
| 17>    C        4.76253        -1.63184         0.85528
| 18>    C        5.42649        -2.55041         1.55089
| 19>    H       -0.06043         0.34102         0.89147
| 20>    H        1.91477        -1.23845         0.33267
| 21>    H        3.38918         0.07194        -1.37842
| 22>    H        2.22949         2.10096        -1.79717
| 23>    H        0.34621         2.49972        -0.49988
| 24>    H        1.27652         2.62181         0.99508
| 25>    H        4.18210         3.19784        -1.22280
| 26>    H        5.48870         2.43041         0.64792
| 27>    H        4.11862         2.30552         2.95895
| 28>    H        2.72730         4.47878         2.58487
| 29>    H        3.79502         5.07251         0.16233
| 30>    H        2.11443         4.55720         0.05535
| 31>    H        5.68611         0.07683         1.76712
| 32>    H        4.08794        -1.93911         0.06875
| 33>    H        6.10480        -2.27700         2.34247
| 34>    H        5.31291        -3.60371         1.36182
| 35> *
| 36>
| 37>                          ****END OF INPUT****
 Total Charge           Charge          ....    0
 Multiplicity           Mult            ....    1
 Number of Electrons    NEL             ....  100
Dispersion correction           -0.064622738
FINAL SINGLE POINT ENERGY      -542.713903204009
Dispersion correction            ... done
Dispersion correction           -0.063463860
FINAL SINGLE POINT ENERGY      -542.718647892603
Dispersion correction            ... done
Dispersion correction           -0.063288546
FINAL SINGLE POINT ENERGY      -542.718907269336
Dispersion correction            ... done
FINAL SINGLE POINT ENERGY      -542.718989163729
FINAL SINGLE POINT ENERGY      -542.719011255659
FINAL SINGLE POINT ENERGY      -542.719033298149
FINAL SINGLE POINT ENERGY      -542.719063683184
FINAL SINGLE POINT ENERGY      -542.719112116133
FINAL SINGLE POINT ENERGY      -542.719164843965
Dispersion correction            ... done
Dispersion correction           -0.063295948
FINAL SINGLE POINT ENERGY      -542.719185814951
Dispersion correction            ... done
Dispersion correction           -0.063287474
FINAL SINGLE POINT ENERGY      -542.719192481643
Dispersion correction            ... done
                    ***********************HURRAY********************

CARTESIAN COORDINATES (ANGSTROEM)
---------------------------------
  C      0.784969    0.709662    0.441773
  C      1.811977   -0.129543    0.285242
  C      2.998427    0.532921   -0.379629
  C      2.482218    1.967064   -0.742459
  C      1.080654    2.093601   -0.070121
  C      3.600560    2.959047   -0.306765
  C      4.415429    2.202130    0.779500
  C      3.845883    2.770337    2.066517
  C      3.146710    3.889973    1.845701
  C      3.125631    4.257541    0.379314
  C      4.197547    0.726369    0.537450
  C      4.971884   -0.244613    1.060613
  C      4.817617   -1.672996    0.836550
  C      5.559167   -2.616329    1.442777
  H     -0.159211    0.448160    0.927235
  H      1.834381   -1.164964    0.631270
  H      3.314757   -0.028601   -1.277277
  H      2.344393    2.048742   -1.829748
  H      0.318094    2.447304   -0.785697
  H      1.067815    2.807930    0.769613
  H      4.229566    3.177454   -1.182396
  H      5.497351    2.429555    0.736916
  H      4.046200    2.317961    3.040638
  H      2.675369    4.498516    2.621362
  H      3.830749    5.086396    0.183863
  H      2.142720    4.605170    0.021525
  H      5.801776    0.050430    1.714037
  H      4.048735   -1.987383    0.121702
  H      6.336809   -2.347384    2.165571
  H      5.412341   -3.679351    1.235453

 Multiplicity           Mult            ....    1
 Number of Electrons    NEL             ....  100
 Basis Dimension        Dim             ....  276

ORBITAL ENERGIES
----------------

  NO   OCC          E(Eh)            E(eV)
   0   2.0000     -10.190721      -277.3036
   1   2.0000     -10.190234      -277.2904
   2   2.0000     -10.189205      -277.2624
   3   2.0000     -10.188820      -277.2519
   4   2.0000     -10.188576      -277.2452
   5   2.0000     -10.187713      -277.2218
   6   2.0000     -10.187651      -277.2201
   7   2.0000     -10.184361      -277.1305
   8   2.0000     -10.183603      -277.1099
   9   2.0000     -10.182526      -277.0806
  10   2.0000     -10.181326      -277.0480
  11   2.0000     -10.179960      -277.0108
  12   2.0000     -10.179252      -276.9915
  13   2.0000     -10.179214      -276.9905
  14   2.0000      -0.870607       -23.6904
  15   2.0000      -0.821756       -22.3611
  16   2.0000      -0.795659       -21.6510
  17   2.0000      -0.753314       -20.4987
  18   2.0000      -0.729355       -19.8468
  19   2.0000      -0.692547       -18.8452
  20   2.0000      -0.683282       -18.5931
  21   2.0000      -0.668562       -18.1925
  22   2.0000      -0.605359       -16.4726
  23   2.0000      -0.563416       -15.3313
  24   2.0000      -0.551220       -14.9994
  25   2.0000      -0.529913       -14.4197
  26   2.0000      -0.518786       -14.1169
  27   2.0000      -0.517088       -14.0707
  28   2.0000      -0.506294       -13.7770
  29   2.0000      -0.485114       -13.2006
  30   2.0000      -0.480254       -13.0684
  31   2.0000      -0.439237       -11.9522
  32   2.0000      -0.432378       -11.7656
  33   2.0000      -0.412392       -11.2217
  34   2.0000      -0.403902       -10.9907
  35   2.0000      -0.396989       -10.8026
  36   2.0000      -0.381181       -10.3725
  37   2.0000      -0.378493       -10.2993
  38   2.0000      -0.374616       -10.1938
  39   2.0000      -0.358024        -9.7423
  40   2.0000      -0.354225        -9.6390
  41   2.0000      -0.347011        -9.4427
  42   2.0000      -0.336651        -9.1607
  43   2.0000      -0.325598        -8.8600
  44   2.0000      -0.318823        -8.6756
  45   2.0000      -0.316631        -8.6160
  46   2.0000      -0.309126        -8.4117
  47   2.0000      -0.248683        -6.7670
  48   2.0000      -0.241687        -6.5766
  49   2.0000      -0.217416        -5.9162
  50   0.0000      -0.031077        -0.8456
  51   0.0000       0.012541         0.3412
  52   0.0000       0.021849         0.5945
  53   0.0000       0.047655         1.2968
  54   0.0000       0.072859         1.9826

MULLIKEN ATOMIC CHARGES
-----------------------
   0 C :   -0.082592
   1 C :    0.008512
   2 C :    0.033183
   3 C :   -0.031641
   4 C :    0.154110
   5 C :   -0.063830
   6 C :    0.048347
   7 C :    0.007649
   8 C :   -0.068331
   9 C :    0.144454
  10 C :   -0.047397
  11 C :   -0.012899
  12 C :   -0.006198
  13 C :   -0.034017
  14 H :   -0.014645
  15 H :   -0.011766
  16 H :    0.014106
  17 H :   -0.013569
  18 H :    0.000333
  19 H :    0.016961
  20 H :   -0.018239
  21 H :    0.010381
  22 H :   -0.013606
  23 H :   -0.014532
  24 H :    0.007924
  25 H :    0.001035
  26 H :   -0.038001
  27 H :   -0.005627
  28 H :    0.011625
  29 H :    0.018270
Sum of atomic charges:    0.0000000

LOEWDIN ATOMIC CHARGES
----------------------
   0 C :   -0.029137
   1 C :   -0.027849
   2 C :   -0.021851
   3 C :   -0.005931
   4 C :   -0.028920
   5 C :   -0.009583
   6 C :   -0.020738
   7 C :   -0.021328
   8 C :   -0.035270
   9 C :   -0.027973
  10 C :   -0.002984
  11 C :   -0.054453
  12 C :   -0.028289
  13 C :   -0.059252
  14 H :    0.019688
  15 H :    0.019479
  16 H :    0.030335
  17 H :    0.022872
  18 H :    0.022550
  19 H :    0.028856
  20 H :    0.018444
  21 H :    0.032130
  22 H :    0.020799
  23 H :    0.019642
  24 H :    0.028293
  25 H :    0.019834
  26 H :    0.022833
  27 H :    0.024860
  28 H :    0.020160
  29 H :    0.022781

  Mayer bond orders larger than 0.100000
B(  0-C ,  1-C ) :   1.8815 B(  0-C ,  4-C ) :   1.0234 B(  0-C , 14-H ) :   0.9818
B(  1-C ,  2-C ) :   0.9966 B(  1-C , 15-H ) :   0.9816 B(  2-C ,  3-C ) :   1.0515
B(  2-C , 10-C ) :   1.0030 B(  2-C , 16-H ) :   0.8801 B(  3-C ,  4-C ) :   1.0674
B(  3-C ,  5-C ) :   1.0383 B(  3-C , 17-H ) :   0.8928 B(  4-C , 18-H ) :   0.9249
B(  4-C , 19-H ) :   0.9014 B(  5-C ,  6-C ) :   1.0285 B(  5-C ,  9-C ) :   1.0788
B(  5-C , 20-H ) :   0.8988 B(  6-C ,  7-C ) :   0.9854 B(  6-C , 10-C ) :   1.0127
B(  6-C , 21-H ) :   0.8875 B(  7-C ,  8-C ) :   1.8608 B(  7-C , 22-H ) :   0.9864
B(  8-C ,  9-C ) :   1.0217 B(  8-C , 23-H ) :   0.9797 B(  9-C , 24-H ) :   0.9063
B(  9-C , 25-H ) :   0.9302 B( 10-C , 11-C ) :   1.7889 B( 10-C , 13-C ) :   0.1190
B( 11-C , 12-C ) :   1.0957 B( 11-C , 26-H ) :   0.9567 B( 12-C , 13-C ) :   1.8962
B( 12-C , 27-H ) :   0.9581 B( 13-C , 28-H ) :   0.9544 B( 13-C , 29-H ) :   0.9473

Dispersion correction           -0.063286465
FINAL SINGLE POINT ENERGY      -542.719190722657

DIPOLE MOMENT
-------------
                                X             Y             Z
Electronic contribution:      0.56717      -0.29813       0.08566
Nuclear contribution   :     -0.67464       0.66140      -0.21441
                        -----------------------------------------
Total Dipole Moment    :     -0.10747       0.36327      -0.12875
                        -----------------------------------------
Magnitude (a.u.)       :      0.40012
Magnitude (Debye)      :      1.01701

Rotational constants in cm-1:     0.039267     0.018380     0.014638
Rotational constants in MHz :  1177.207197   551.015286   438.828482

                             ****ORCA TERMINATED NORMALLY****
TOTAL RUN TIME: 0 days 0 hours 27 minutes 59 seconds 972 msec
