                         Program Version 4.2.0 -  RELEASE  -
|  1> # ORCA input file
|  2> # SCF done        -22.992630765100          0.000319125685
|  3> ! B3LYP/G D3BJ Opt RIJCOSX def2-SVP def2/J
|  4> * xyz 0 1
|  5>    C       -2.05452         0.00134        -0.00159
|  6>    O       -1.29542         1.12626        -0.00019
|  7>    C       -0.02123         0.69763        -0.00050
|  8>    C        1.31703         1.15164         0.00013
|  9>    C        2.05765         0.00396        -0.00086
| 10>    O        1.29856        -1.12096        -0.00235
| 11>    C        0.02436        -0.69233        -0.00200
| 12>    C       -1.31389        -1.14634        -0.00264
| 13>    H       -3.11685         0.14378        -0.00170
| 14>    H        1.68352         2.15634         0.00124
| 15>    H        3.11999        -0.13848        -0.00074
| 16>    H       -1.68040        -2.15103        -0.00378
| 17> *
| 18>
| 19>                          ****END OF INPUT****
 Total Charge           Charge          ....    0
 Multiplicity           Mult            ....    1
 Number of Electrons    NEL             ....   56
Dispersion correction           -0.018293998
FINAL SINGLE POINT ENERGY      -381.162338808632
Dispersion correction            ... done
Dispersion correction           -0.018372172
FINAL SINGLE POINT ENERGY      -381.164422135473
Dispersion correction            ... done
Dispersion correction           -0.018379089
FINAL SINGLE POINT ENERGY      -381.164626673194
Dispersion correction            ... done
FINAL SINGLE POINT ENERGY      -381.164677753380
Dispersion correction            ... done
Dispersion correction           -0.018367589
FINAL SINGLE POINT ENERGY      -381.164682460891
Dispersion correction            ... done
Dispersion correction           -0.018367269
FINAL SINGLE POINT ENERGY      -381.164683475851
Dispersion correction            ... done
                    ***********************HURRAY********************

CARTESIAN COORDINATES (ANGSTROEM)
---------------------------------
  C     -2.072841   -0.010002   -0.001537
  O     -1.297385    1.125223   -0.000147
  C     -0.017415    0.689294   -0.000516
  C      1.325977    1.168186    0.000053
  C      2.075975    0.015304   -0.000772
  O      1.300519   -1.119921   -0.002296
  C      0.020548   -0.683993   -0.002013
  C     -1.322844   -1.162885   -0.002753
  H     -3.146535    0.158181   -0.001546
  H      1.704955    2.186708    0.001125
  H      3.149668   -0.152879   -0.000612
  H     -1.701822   -2.181406   -0.003967

 Multiplicity           Mult            ....    1
 Number of Electrons    NEL             ....   56
 Basis Dimension        Dim             ....  132

ORBITAL ENERGIES
----------------

  NO   OCC          E(Eh)            E(eV)
   0   2.0000     -19.206330      -522.6308
   1   2.0000     -19.206279      -522.6294
   2   2.0000     -10.247044      -278.8362
   3   2.0000     -10.247035      -278.8360
   4   2.0000     -10.234997      -278.5084
   5   2.0000     -10.234396      -278.4921
   6   2.0000     -10.203462      -277.6503
   7   2.0000     -10.203419      -277.6491
   8   2.0000      -1.115378       -30.3510
   9   2.0000      -1.097632       -29.8681
  10   2.0000      -0.804396       -21.8887
  11   2.0000      -0.796767       -21.6811
  12   2.0000      -0.726770       -19.7764
  13   2.0000      -0.641962       -17.4687
  14   2.0000      -0.596139       -16.2218
  15   2.0000      -0.569448       -15.4955
  16   2.0000      -0.514371       -13.9968
  17   2.0000      -0.490998       -13.3607
  18   2.0000      -0.482092       -13.1184
  19   2.0000      -0.471623       -12.8335
  20   2.0000      -0.430089       -11.7033
  21   2.0000      -0.423239       -11.5169
  22   2.0000      -0.416562       -11.3352
  23   2.0000      -0.397923       -10.8280
  24   2.0000      -0.352232        -9.5847
  25   2.0000      -0.298811        -8.1311
  26   2.0000      -0.269054        -7.3213
  27   2.0000      -0.214116        -5.8264
  28   0.0000      -0.014142        -0.3848
  29   0.0000       0.043723         1.1898
  30   0.0000       0.079610         2.1663
  31   0.0000       0.086546         2.3550
  32   0.0000       0.096475         2.6252

MULLIKEN ATOMIC CHARGES
-----------------------
   0 C :    0.128769
   1 O :   -0.219504
   2 C :    0.148828
   3 C :   -0.073393
   4 C :    0.128771
   5 O :   -0.219504
   6 C :    0.148823
   7 C :   -0.073390
   8 H :    0.017734
   9 H :   -0.002433
  10 H :    0.017733
  11 H :   -0.002434
Sum of atomic charges:    0.0000000

LOEWDIN ATOMIC CHARGES
----------------------
   0 C :    0.044340
   1 O :   -0.007869
   2 C :   -0.014596
   3 C :   -0.082835
   4 C :    0.044340
   5 O :   -0.007869
   6 C :   -0.014596
   7 C :   -0.082835
   8 H :    0.024307
   9 H :    0.036654
  10 H :    0.024307
  11 H :    0.036654

  Mayer bond orders larger than 0.100000
B(  0-C ,  1-O ) :   1.1023 B(  0-C ,  7-C ) :   1.5362 B(  0-C ,  8-H ) :   0.9998
B(  1-O ,  2-C ) :   1.1270 B(  2-C ,  3-C ) :   1.1963 B(  2-C ,  6-C ) :   1.4187
B(  3-C ,  4-C ) :   1.5362 B(  3-C ,  9-H ) :   1.0190 B(  4-C ,  5-O ) :   1.1023
B(  4-C , 10-H ) :   0.9998 B(  5-O ,  6-C ) :   1.1270 B(  6-C ,  7-C ) :   1.1963
B(  7-C , 11-H ) :   1.0190

Dispersion correction           -0.018368620
FINAL SINGLE POINT ENERGY      -381.164683639946

DIPOLE MOMENT
-------------
                                X             Y             Z
Electronic contribution:      0.00000       0.00000       0.00003
Nuclear contribution   :     -0.00000       0.00000      -0.00001
                        -----------------------------------------
Total Dipole Moment    :     -0.00000       0.00000       0.00002
                        -----------------------------------------
Magnitude (a.u.)       :      0.00002
Magnitude (Debye)      :      0.00004

Rotational constants in cm-1:     0.179539     0.074793     0.052798
Rotational constants in MHz :  5382.457774  2242.229234  1582.845857

                             ****ORCA TERMINATED NORMALLY****
TOTAL RUN TIME: 0 days 0 hours 2 minutes 44 seconds 961 msec
