                         Program Version 4.2.0 -  RELEASE  -
|  1> # ORCA input file
|  2> # SCF done        -31.343617822269          0.000873872731
|  3> ! B3LYP/G D3BJ Opt RIJCOSX def2-SVP def2/J
|  4> * xyz 0 1
|  5>    C       -1.16189        -1.34119         0.12940
|  6>    S       -2.39577        -0.14264         0.05227
|  7>    C       -1.27402         1.18197        -0.08804
|  8>    C        0.02146         0.68740        -0.07345
|  9>    C        0.06188        -0.74513         0.05048
| 10>    N        1.36750        -1.13871         0.05633
| 11>    C        2.15430        -0.00604        -0.05855
| 12>    C        3.55226        -0.08043        -0.08062
| 13>    N        4.69920        -0.13518        -0.09787
| 14>    C        1.36962         1.12168        -0.14021
| 15>    C       -1.79107         2.51355        -0.18840
| 16>    C       -1.06295         3.62453        -0.30187
| 17>    H       -1.42149        -2.37512         0.22504
| 18>    H        1.71393        -2.07876         0.13315
| 19>    H        1.73814         2.12280        -0.23520
| 20>    H       -2.87199         2.57965        -0.16506
| 21>    H        0.01081         3.60525        -0.33096
| 22>    H       -1.53084         4.59043        -0.37107
| 23> *
| 24>
| 25>                          ****END OF INPUT****
 Total Charge           Charge          ....    0
 Multiplicity           Mult            ....    1
 Number of Electrons    NEL             ....   90
Dispersion correction           -0.039631601
FINAL SINGLE POINT ENERGY      -853.802733684951
Dispersion correction            ... done
Dispersion correction           -0.039462542
FINAL SINGLE POINT ENERGY      -853.805853000347
Dispersion correction            ... done
Dispersion correction           -0.039431803
FINAL SINGLE POINT ENERGY      -853.805936694617
Dispersion correction            ... done
FINAL SINGLE POINT ENERGY      -853.805951604087
Dispersion correction            ... done
Dispersion correction           -0.039416012
FINAL SINGLE POINT ENERGY      -853.805955947852
Dispersion correction            ... done
Dispersion correction           -0.039420385
FINAL SINGLE POINT ENERGY      -853.805960607547
Dispersion correction            ... done
                    ***********************HURRAY********************

CARTESIAN COORDINATES (ANGSTROEM)
---------------------------------
  C     -1.177135   -1.362749    0.129892
  S     -2.405403   -0.149633    0.052587
  C     -1.285653    1.178905   -0.083708
  C      0.022295    0.682567   -0.066586
  C      0.059129   -0.755614    0.056187
  N      1.378779   -1.145588    0.060765
  C      2.173814   -0.006229   -0.056734
  C      3.590534   -0.103169   -0.087982
  N      4.749638   -0.188221   -0.112264
  C      1.383616    1.127672   -0.134886
  C     -1.806120    2.525412   -0.195425
  C     -1.086367    3.657112   -0.298033
  H     -1.437479   -2.413240    0.232371
  H      1.732660   -2.088421    0.137337
  H      1.764921    2.138607   -0.236334
  H     -2.899165    2.603623   -0.193493
  H      0.005712    3.657921   -0.307817
  H     -1.584697    4.625105   -0.380507

 Multiplicity           Mult            ....    1
 Number of Electrons    NEL             ....   90
 Basis Dimension        Dim             ....  202

ORBITAL ENERGIES
----------------

  NO   OCC          E(Eh)            E(eV)
   0   2.0000     -88.890329     -2418.8288
   1   2.0000     -14.396848      -391.7582
   2   2.0000     -14.339757      -390.2046
   3   2.0000     -10.270368      -279.4709
   4   2.0000     -10.246027      -278.8086
   5   2.0000     -10.240144      -278.6485
   6   2.0000     -10.231051      -278.4011
   7   2.0000     -10.224047      -278.2105
   8   2.0000     -10.214450      -277.9493
   9   2.0000     -10.211458      -277.8679
  10   2.0000     -10.209522      -277.8152
  11   2.0000     -10.195746      -277.4404
  12   2.0000      -7.984661      -217.2737
  13   2.0000      -5.952656      -161.9800
  14   2.0000      -5.948619      -161.8702
  15   2.0000      -5.946344      -161.8083
  16   2.0000      -1.000476       -27.2243
  17   2.0000      -0.906415       -24.6648
  18   2.0000      -0.886642       -24.1267
  19   2.0000      -0.805649       -21.9228
  20   2.0000      -0.786191       -21.3934
  21   2.0000      -0.757131       -20.6026
  22   2.0000      -0.708628       -19.2828
  23   2.0000      -0.655417       -17.8348
  24   2.0000      -0.619064       -16.8456
  25   2.0000      -0.613724       -16.7003
  26   2.0000      -0.568558       -15.4712
  27   2.0000      -0.527592       -14.3565
  28   2.0000      -0.508871       -13.8471
  29   2.0000      -0.468917       -12.7599
  30   2.0000      -0.465222       -12.6593
  31   2.0000      -0.461584       -12.5603
  32   2.0000      -0.458705       -12.4820
  33   2.0000      -0.410588       -11.1727
  34   2.0000      -0.400744       -10.9048
  35   2.0000      -0.392102       -10.6696
  36   2.0000      -0.372479       -10.1357
  37   2.0000      -0.368104       -10.0166
  38   2.0000      -0.357873        -9.7382
  39   2.0000      -0.356456        -9.6997
  40   2.0000      -0.350381        -9.5343
  41   2.0000      -0.316730        -8.6187
  42   2.0000      -0.281683        -7.6650
  43   2.0000      -0.249539        -6.7903
  44   2.0000      -0.206761        -5.6262
  45   0.0000      -0.078926        -2.1477
  46   0.0000      -0.013630        -0.3709
  47   0.0000      -0.000607        -0.0165
  48   0.0000       0.027168         0.7393
  49   0.0000       0.032896         0.8951

MULLIKEN ATOMIC CHARGES
-----------------------
   0 C :   -0.188579
   1 S :    0.128256
   2 C :   -0.170159
   3 C :    0.105779
   4 C :    0.140395
   5 N :   -0.065874
   6 C :   -0.085639
   7 C :   -0.124897
   8 N :    0.113080
   9 C :   -0.019465
  10 C :    0.052683
  11 C :   -0.040560
  12 H :    0.013481
  13 H :    0.124564
  14 H :   -0.012237
  15 H :   -0.012359
  16 H :    0.016579
  17 H :    0.024951
Sum of atomic charges:    0.0000000

LOEWDIN ATOMIC CHARGES
----------------------
   0 C :   -0.243816
   1 S :    0.468113
   2 C :   -0.185045
   3 C :   -0.065630
   4 C :   -0.009344
   5 N :    0.057064
   6 C :   -0.027868
   7 C :   -0.042812
   8 N :   -0.054504
   9 C :   -0.034599
  10 C :   -0.043090
  11 C :   -0.052181
  12 H :    0.025957
  13 H :    0.093992
  14 H :    0.034469
  15 H :    0.029416
  16 H :    0.022091
  17 H :    0.027788

  Mayer bond orders larger than 0.100000
B(  0-C ,  1-S ) :   1.1348 B(  0-C ,  2-C ) :   0.1171 B(  0-C ,  4-C ) :   1.4187
B(  0-C , 12-H ) :   0.9851 B(  1-S ,  2-C ) :   1.1609 B(  2-C ,  3-C ) :   1.3316
B(  2-C , 10-C ) :   1.1407 B(  3-C ,  4-C ) :   1.2184 B(  3-C ,  9-C ) :   1.1776
B(  4-C ,  5-N ) :   1.1276 B(  5-N ,  6-C ) :   1.1878 B(  5-N , 13-H ) :   0.9405
B(  6-C ,  7-C ) :   1.0665 B(  6-C ,  9-C ) :   1.5449 B(  7-C ,  8-N ) :   3.0115
B(  9-C , 14-H ) :   1.0090 B( 10-C , 11-C ) :   1.8897 B( 10-C , 15-H ) :   0.9465
B( 11-C , 16-H ) :   0.9540 B( 11-C , 17-H ) :   0.9428

Dispersion correction           -0.039422406
FINAL SINGLE POINT ENERGY      -853.805961156976

DIPOLE MOMENT
-------------
                                X             Y             Z
Electronic contribution:      1.87850      -6.28524       0.49989
Nuclear contribution   :     -3.09261       5.78696      -0.42554
                        -----------------------------------------
Total Dipole Moment    :     -1.21411      -0.49827       0.07435
                        -----------------------------------------
Magnitude (a.u.)       :      1.31448
Magnitude (Debye)      :      3.34115

Rotational constants in cm-1:     0.052116     0.018737     0.013782
Rotational constants in MHz :  1562.386618   561.720939   413.176906

                             ****ORCA TERMINATED NORMALLY****
TOTAL RUN TIME: 0 days 0 hours 7 minutes 38 seconds 20 msec
