                         Program Version 4.2.0 -  RELEASE  -
|  1> # ORCA input file
|  2> # SCF done        -49.902061281941          0.000722361152
|  3> ! B3LYP/G D3BJ Opt RIJCOSX def2-SVP def2/J
|  4> * xyz 0 1
|  5>    C        2.50872         1.34740         0.08009
|  6>    S        3.71079         0.14234         0.15713
|  7>    C        2.54563        -1.13853         0.17189
|  8>    C        1.25262        -0.62352         0.11736
|  9>    C        1.23806         0.81978         0.06441
| 10>    C        0.01168         1.53318         0.00776
| 11>    C       -1.13321         0.80230         0.00627
| 12>    C       -2.54506         1.23717        -0.03920
| 13>    O       -3.00505         2.35159        -0.08251
| 14>    N       -3.29518         0.07003        -0.00892
| 15>    C       -4.74053         0.05640        -0.06690
| 16>    C       -5.23487         0.01162        -1.50880
| 17>    C       -2.52469        -1.08368         0.04493
| 18>    O       -2.96569        -2.20617         0.08236
| 19>    C       -1.12179        -0.62360         0.05815
| 20>    C        0.03213        -1.34233         0.11275
| 21>    C        2.93818        -2.51602         0.23217
| 22>    C        4.19730        -2.94810         0.28309
| 23>    H        2.78981         2.38122         0.05024
| 24>    H        0.00282         2.61104        -0.03090
| 25>    H       -5.09622         0.96314         0.42863
| 26>    H       -5.08088        -0.82662         0.47961
| 27>    H       -4.88280         0.88511        -2.05282
| 28>    H       -6.32109         0.00286        -1.52531
| 29>    H       -4.86920        -0.88567        -2.00289
| 30>    H        0.01324        -2.41986         0.15216
| 31>    H        2.12291        -3.22712         0.23400
| 32>    H        5.02901        -2.26341         0.28450
| 33>    H        4.43066        -3.99669         0.32751
| 34> *
| 35>
| 36>                          ****END OF INPUT****
 Total Charge           Charge          ....    0
 Multiplicity           Mult            ....    1
 Number of Electrons    NEL             ....  134
Dispersion correction           -0.067689469
FINAL SINGLE POINT ENERGY     -1142.939472273109
Dispersion correction            ... done
Dispersion correction           -0.067283082
FINAL SINGLE POINT ENERGY     -1142.943257671847
Dispersion correction            ... done
Dispersion correction           -0.067200069
FINAL SINGLE POINT ENERGY     -1142.943382220130
Dispersion correction            ... done
FINAL SINGLE POINT ENERGY     -1142.943369639141
FINAL SINGLE POINT ENERGY     -1142.943400189924
Dispersion correction            ... done
Dispersion correction           -0.067220980
FINAL SINGLE POINT ENERGY     -1142.943407423165
Dispersion correction            ... done
Dispersion correction           -0.067220491
FINAL SINGLE POINT ENERGY     -1142.943407044511
Dispersion correction            ... done
                    ***********************HURRAY********************

CARTESIAN COORDINATES (ANGSTROEM)
---------------------------------
  C      2.531251    1.388349    0.116893
  S      3.729960    0.165370    0.168169
  C      2.569574   -1.124681    0.186520
  C      1.266081   -0.603816    0.161270
  C      1.249560    0.855943    0.111259
  C      0.007420    1.568156    0.050464
  C     -1.136768    0.825298    0.051898
  C     -2.556966    1.266212   -0.033685
  O     -3.005420    2.385266   -0.140304
  N     -3.321167    0.089016    0.025827
  C     -4.768916    0.070363   -0.097549
  C     -5.225285   -0.043973   -1.550791
  C     -2.537419   -1.073625    0.118169
  O     -2.969775   -2.202650    0.174844
  C     -1.123915   -0.604381    0.126888
  C      0.032968   -1.329589    0.176231
  C      2.959748   -2.520335    0.210795
  C      4.211739   -3.009652    0.191477
  H      2.814428    2.438879    0.087249
  H     -0.022065    2.658622   -0.004447
  H     -5.143091    0.999396    0.355961
  H     -5.134233   -0.781220    0.494144
  H     -4.847083    0.802622   -2.143401
  H     -6.325037   -0.039806   -1.612743
  H     -4.859832   -0.979765   -2.000014
  H      0.003815   -2.420121    0.225501
  H      2.121566   -3.223722    0.242633
  H      5.088802   -2.357112    0.153262
  H      4.397360   -4.085185    0.210239

 Multiplicity           Mult            ....    1
 Number of Electrons    NEL             ....  134
 Basis Dimension        Dim             ....  311

ORBITAL ENERGIES
----------------

  NO   OCC          E(Eh)            E(eV)
   0   2.0000     -88.903406     -2419.1847
   1   2.0000     -19.126556      -520.4601
   2   2.0000     -19.126514      -520.4589
   3   2.0000     -14.374603      -391.1528
   4   2.0000     -10.304979      -280.4127
   5   2.0000     -10.304878      -280.4100
   6   2.0000     -10.240078      -278.6467
   7   2.0000     -10.235859      -278.5319
   8   2.0000     -10.228923      -278.3431
   9   2.0000     -10.224352      -278.2188
  10   2.0000     -10.224308      -278.2176
  11   2.0000     -10.224040      -278.2103
  12   2.0000     -10.223777      -278.2031
  13   2.0000     -10.219871      -278.0968
  14   2.0000     -10.212669      -277.9009
  15   2.0000     -10.212258      -277.8897
  16   2.0000     -10.205509      -277.7060
  17   2.0000     -10.186329      -277.1841
  18   2.0000      -7.998053      -217.6381
  19   2.0000      -5.965726      -162.3357
  20   2.0000      -5.961695      -162.2260
  21   2.0000      -5.960311      -162.1883
  22   2.0000      -1.058495       -28.8031
  23   2.0000      -1.038481       -28.2585
  24   2.0000      -0.951257       -25.8850
  25   2.0000      -0.914207       -24.8768
  26   2.0000      -0.859943       -23.4003
  27   2.0000      -0.808253       -21.9937
  28   2.0000      -0.791348       -21.5337
  29   2.0000      -0.773667       -21.0526
  30   2.0000      -0.741605       -20.1801
  31   2.0000      -0.716651       -19.5011
  32   2.0000      -0.676011       -18.3952
  33   2.0000      -0.656488       -17.8639
  34   2.0000      -0.626470       -17.0471
  35   2.0000      -0.617377       -16.7997
  36   2.0000      -0.601018       -16.3545
  37   2.0000      -0.566195       -15.4069
  38   2.0000      -0.531925       -14.4744
  39   2.0000      -0.529457       -14.4073
  40   2.0000      -0.523994       -14.2586
  41   2.0000      -0.484790       -13.1918
  42   2.0000      -0.480127       -13.0649
  43   2.0000      -0.468327       -12.7438
  44   2.0000      -0.462952       -12.5976
  45   2.0000      -0.456458       -12.4208
  46   2.0000      -0.445899       -12.1335
  47   2.0000      -0.444079       -12.0840
  48   2.0000      -0.430522       -11.7151
  49   2.0000      -0.428598       -11.6627
  50   2.0000      -0.427881       -11.6432
  51   2.0000      -0.410223       -11.1627
  52   2.0000      -0.401860       -10.9352
  53   2.0000      -0.400134       -10.8882
  54   2.0000      -0.390384       -10.6229
  55   2.0000      -0.380966       -10.3666
  56   2.0000      -0.374488       -10.1903
  57   2.0000      -0.360700        -9.8152
  58   2.0000      -0.355828        -9.6826
  59   2.0000      -0.355327        -9.6689
  60   2.0000      -0.330583        -8.9956
  61   2.0000      -0.289502        -7.8777
  62   2.0000      -0.288726        -7.8566
  63   2.0000      -0.282209        -7.6793
  64   2.0000      -0.268518        -7.3068
  65   2.0000      -0.266522        -7.2524
  66   2.0000      -0.218703        -5.9512
  67   0.0000      -0.095280        -2.5927
  68   0.0000      -0.070012        -1.9051
  69   0.0000      -0.032224        -0.8769
  70   0.0000       0.022096         0.6013
  71   0.0000       0.031805         0.8655

MULLIKEN ATOMIC CHARGES
-----------------------
   0 C :   -0.119723
   1 S :    0.156244
   2 C :   -0.146260
   3 C :    0.130884
   4 C :    0.091370
   5 C :   -0.066701
   6 C :    0.011434
   7 C :    0.199557
   8 O :   -0.184069
   9 N :   -0.313152
  10 C :    0.155524
  11 C :   -0.024004
  12 C :    0.199933
  13 O :   -0.184968
  14 C :    0.008672
  15 C :   -0.090177
  16 C :    0.007657
  17 C :   -0.032778
  18 H :    0.028939
  19 H :   -0.008261
  20 H :    0.022716
  21 H :    0.025117
  22 H :    0.028071
  23 H :    0.025436
  24 H :    0.025825
  25 H :   -0.005162
  26 H :    0.002589
  27 H :    0.022125
  28 H :    0.033161
Sum of atomic charges:    0.0000000

LOEWDIN ATOMIC CHARGES
----------------------
   0 C :   -0.187427
   1 S :    0.494431
   2 C :   -0.179931
   3 C :   -0.040195
   4 C :   -0.046990
   5 C :    0.024343
   6 C :   -0.063664
   7 C :    0.085857
   8 O :   -0.170758
   9 N :   -0.034760
  10 C :    0.046876
  11 C :   -0.060099
  12 C :    0.085539
  13 O :   -0.171320
  14 C :   -0.062154
  15 C :    0.021030
  16 C :   -0.040258
  17 C :   -0.045715
  18 H :    0.030781
  19 H :    0.040477
  20 H :    0.030095
  21 H :    0.030632
  22 H :    0.028241
  23 H :    0.030796
  24 H :    0.027641
  25 H :    0.038433
  26 H :    0.037154
  27 H :    0.019803
  28 H :    0.031141

  Mayer bond orders larger than 0.100000
B(  0-C ,  1-S ) :   1.1949 B(  0-C ,  4-C ) :   1.4115 B(  0-C , 18-H ) :   0.9645
B(  1-S ,  2-C ) :   1.1538 B(  2-C ,  3-C ) :   1.3441 B(  2-C , 16-C ) :   1.1586
B(  3-C ,  4-C ) :   1.1808 B(  3-C , 15-C ) :   1.1666 B(  4-C ,  5-C ) :   1.1399
B(  5-C ,  6-C ) :   1.5309 B(  5-C , 19-H ) :   1.0096 B(  6-C ,  7-C ) :   0.8934
B(  6-C , 14-C ) :   1.1858 B(  7-C ,  8-O ) :   2.1717 B(  7-C ,  9-N ) :   1.0501
B(  9-N , 10-C ) :   0.9279 B(  9-N , 12-C ) :   1.0501 B( 10-C , 11-C ) :   1.1231
B( 10-C , 20-H ) :   0.9382 B( 10-C , 21-H ) :   0.9385 B( 11-C , 22-H ) :   0.9684
B( 11-C , 23-H ) :   0.9676 B( 11-C , 24-H ) :   0.9683 B( 12-C , 13-O ) :   2.1663
B( 12-C , 14-C ) :   0.8948 B( 14-C , 15-C ) :   1.5371 B( 15-C , 25-H ) :   0.9971
B( 16-C , 17-C ) :   1.8904 B( 16-C , 26-H ) :   0.9477 B( 17-C , 27-H ) :   0.9553
B( 17-C , 28-H ) :   0.9453

Dispersion correction           -0.067218812
FINAL SINGLE POINT ENERGY     -1142.943406886541

DIPOLE MOMENT
-------------
                                X             Y             Z
Electronic contribution:     10.01105       4.55664       3.70590
Nuclear contribution   :     -8.78292      -4.56452      -3.75380
                        -----------------------------------------
Total Dipole Moment    :      1.22813      -0.00788      -0.04790
                        -----------------------------------------
Magnitude (a.u.)       :      1.22909
Magnitude (Debye)      :      3.12410

Rotational constants in cm-1:     0.031286     0.006863     0.005752
Rotational constants in MHz :   937.922884   205.748411   172.437658

                             ****ORCA TERMINATED NORMALLY****
TOTAL RUN TIME: 0 days 0 hours 22 minutes 19 seconds 870 msec
