                         Program Version 4.2.0 -  RELEASE  -
|  1> # ORCA input file
|  2> # SCF done        -19.349582185308          0.000580671271
|  3> ! B3LYP/G D3BJ Opt RIJCOSX def2-SVP def2/J
|  4> * xyz 0 1
|  5>    C       -0.83784        -0.72881        -0.06932
|  6>    S       -0.56752         0.99781        -0.01480
|  7>    C        1.17615         0.83821         0.07645
|  8>    C        1.47092        -0.47529         0.07055
|  9>    C        0.34951        -1.35077        -0.01955
| 10>    C        1.31586        -2.51400        -0.01338
| 11>    N        2.39811        -1.52532         0.20695
| 12>    H       -1.84234        -1.09393        -0.13820
| 13>    H        1.77855         1.72118         0.12098
| 14>    H        1.37038        -3.05877        -0.95837
| 15>    H        1.21969        -3.21207         0.81904
| 16>    H        3.24512        -1.55351        -0.34330
| 17> *
| 18>
| 19>                          ****END OF INPUT****
 Total Charge           Charge          ....    0
 Multiplicity           Mult            ....    1
 Number of Electrons    NEL             ....   58
Dispersion correction           -0.021288348
FINAL SINGLE POINT ENERGY      -646.127986341761
Dispersion correction            ... done
Dispersion correction           -0.021239736
FINAL SINGLE POINT ENERGY      -646.129915715507
Dispersion correction            ... done
Dispersion correction           -0.021235660
FINAL SINGLE POINT ENERGY      -646.130056576060
Dispersion correction            ... done
FINAL SINGLE POINT ENERGY      -646.130137285269
FINAL SINGLE POINT ENERGY      -646.130184654628
FINAL SINGLE POINT ENERGY      -646.130219704498
Dispersion correction            ... done
Dispersion correction           -0.021249417
FINAL SINGLE POINT ENERGY      -646.130228652293
Dispersion correction            ... done
Dispersion correction           -0.021253730
FINAL SINGLE POINT ENERGY      -646.130236875782
Dispersion correction            ... done
                    ***********************HURRAY********************

CARTESIAN COORDINATES (ANGSTROEM)
---------------------------------
  C     -0.852609   -0.716609   -0.066726
  S     -0.576709    1.016880   -0.035612
  C      1.174414    0.856249    0.074874
  C      1.465648   -0.478176    0.089385
  C      0.349631   -1.349271   -0.007148
  C      1.320405   -2.530385    0.001092
  N      2.421825   -1.525162    0.229759
  H     -1.868623   -1.100015   -0.149539
  H      1.800826    1.743655    0.128913
  H      1.391374   -3.066694   -0.959787
  H      1.220956   -3.257816    0.822288
  H      3.229454   -1.547928   -0.390447

 Multiplicity           Mult            ....    1
 Number of Electrons    NEL             ....   58
 Basis Dimension        Dim             ....  127

ORBITAL ENERGIES
----------------

  NO   OCC          E(Eh)            E(eV)
   0   2.0000     -88.863039     -2418.0862
   1   2.0000     -14.337463      -390.1422
   2   2.0000     -10.238908      -278.6148
   3   2.0000     -10.213488      -277.9231
   4   2.0000     -10.212531      -277.8971
   5   2.0000     -10.202069      -277.6124
   6   2.0000     -10.186286      -277.1829
   7   2.0000      -7.957390      -216.5316
   8   2.0000      -5.925938      -161.2530
   9   2.0000      -5.921699      -161.1376
  10   2.0000      -5.918152      -161.0411
  11   2.0000      -0.952822       -25.9276
  12   2.0000      -0.847638       -23.0654
  13   2.0000      -0.728840       -19.8327
  14   2.0000      -0.696457       -18.9516
  15   2.0000      -0.661048       -17.9880
  16   2.0000      -0.586030       -15.9467
  17   2.0000      -0.524290       -14.2667
  18   2.0000      -0.505521       -13.7559
  19   2.0000      -0.470870       -12.8130
  20   2.0000      -0.438430       -11.9303
  21   2.0000      -0.412945       -11.2368
  22   2.0000      -0.390609       -10.6290
  23   2.0000      -0.367133        -9.9902
  24   2.0000      -0.350136        -9.5277
  25   2.0000      -0.326323        -8.8797
  26   2.0000      -0.293939        -7.9985
  27   2.0000      -0.238202        -6.4818
  28   2.0000      -0.207498        -5.6463
  29   0.0000      -0.010891        -0.2964
  30   0.0000       0.036160         0.9840
  31   0.0000       0.058193         1.5835
  32   0.0000       0.074668         2.0318
  33   0.0000       0.086706         2.3594

MULLIKEN ATOMIC CHARGES
-----------------------
   0 C :   -0.173321
   1 S :    0.055958
   2 C :   -0.240262
   3 C :    0.177626
   4 C :   -0.039314
   5 C :    0.212486
   6 N :   -0.208966
   7 H :    0.023914
   8 H :    0.019448
   9 H :    0.025739
  10 H :    0.031320
  11 H :    0.115373
Sum of atomic charges:   -0.0000000

LOEWDIN ATOMIC CHARGES
----------------------
   0 C :   -0.189772
   1 S :    0.392915
   2 C :   -0.241115
   3 C :   -0.022918
   4 C :   -0.092500
   5 C :    0.072013
   6 N :   -0.079936
   7 H :    0.023857
   8 H :    0.022654
   9 H :    0.024378
  10 H :    0.026695
  11 H :    0.063729

  Mayer bond orders larger than 0.100000
B(  0-C ,  1-S ) :   1.1408 B(  0-C ,  4-C ) :   1.5708 B(  0-C ,  7-H ) :   0.9815
B(  1-S ,  2-C ) :   1.0862 B(  2-C ,  3-C ) :   1.5231 B(  2-C ,  8-H ) :   0.9946
B(  3-C ,  4-C ) :   1.2437 B(  3-C ,  6-N ) :   1.0773 B(  4-C ,  5-C ) :   1.0200
B(  5-C ,  6-N ) :   1.0336 B(  5-C ,  9-H ) :   0.9292 B(  5-C , 10-H ) :   0.9253
B(  6-N , 11-H ) :   0.9314

Dispersion correction           -0.021254103
FINAL SINGLE POINT ENERGY      -646.130238527803

DIPOLE MOMENT
-------------
                                X             Y             Z
Electronic contribution:     -2.54044       4.33788       0.19162
Nuclear contribution   :      2.81101      -4.85835      -0.62246
                        -----------------------------------------
Total Dipole Moment    :      0.27057      -0.52046      -0.43084
                        -----------------------------------------
Magnitude (a.u.)       :      0.72781
Magnitude (Debye)      :      1.84996

Rotational constants in cm-1:     0.200824     0.064338     0.049334
Rotational constants in MHz :  6020.544581  1928.792264  1478.981579

                             ****ORCA TERMINATED NORMALLY****
TOTAL RUN TIME: 0 days 0 hours 4 minutes 5 seconds 601 msec
