                         Program Version 4.2.0 -  RELEASE  -
|  1> # ORCA input file
|  2> # SCF done        -51.671395589354          0.000581028488
|  3> ! B3LYP/G D3BJ Opt RIJCOSX def2-SVP def2/J
|  4> * xyz 0 1
|  5>    C        1.56699        -1.35861        -0.09302
|  6>    S        2.78410        -0.16551        -0.19539
|  7>    C        1.61218         1.11858        -0.15023
|  8>    C        0.33679         0.60376        -0.07246
|  9>    C        0.31847        -0.81418        -0.03469
| 10>    C       -0.93808        -1.62232        -0.00422
| 11>    N       -1.19977        -2.18155        -1.36408
| 12>    O       -1.60901        -3.31366        -1.41749
| 13>    O       -1.01850        -1.45408        -2.31022
| 14>    C       -2.14892        -0.76623         0.38365
| 15>    C       -2.14652         0.55336        -0.37991
| 16>    C       -0.92117         1.40396        -0.01899
| 17>    N       -1.13775         1.91773         1.36602
| 18>    O       -1.55687         3.04455         1.46924
| 19>    O       -0.91654         1.16528         2.28250
| 20>    C        2.12095         2.46629        -0.23807
| 21>    C        1.50026         3.61256         0.02955
| 22>    H        1.83205        -2.39735        -0.08183
| 23>    H       -0.84928        -2.48415         0.66357
| 24>    H       -2.09456        -0.58157         1.45893
| 25>    H       -3.07001        -1.31677         0.18248
| 26>    H       -3.05766         1.11487        -0.16403
| 27>    H       -2.11246         0.36444        -1.45546
| 28>    H       -0.86880         2.28040        -0.67146
| 29>    H        3.15721         2.50474        -0.55098
| 30>    H        0.49273         3.69794         0.39179
| 31>    H        2.02387         4.54489        -0.09324
| 32> *
| 33>
| 34>                          ****END OF INPUT****
 Total Charge           Charge          ....    0
 Multiplicity           Mult            ....    1
 Number of Electrons    NEL             ....  132
Dispersion correction           -0.065429086
FINAL SINGLE POINT ENERGY     -1194.826407996179
Dispersion correction            ... done
Dispersion correction           -0.064394967
FINAL SINGLE POINT ENERGY     -1194.831542175813
Dispersion correction            ... done
Dispersion correction           -0.064332204
FINAL SINGLE POINT ENERGY     -1194.831712344768
Dispersion correction            ... done
FINAL SINGLE POINT ENERGY     -1194.831573819623
FINAL SINGLE POINT ENERGY     -1194.832026047121
FINAL SINGLE POINT ENERGY     -1194.832012063513
FINAL SINGLE POINT ENERGY     -1194.832019552842
FINAL SINGLE POINT ENERGY     -1194.831956321922
FINAL SINGLE POINT ENERGY     -1194.831667277138
FINAL SINGLE POINT ENERGY     -1194.831495872754
FINAL SINGLE POINT ENERGY     -1194.832404134624
FINAL SINGLE POINT ENERGY     -1194.832522409253
FINAL SINGLE POINT ENERGY     -1194.832609165528
FINAL SINGLE POINT ENERGY     -1194.832814937204
FINAL SINGLE POINT ENERGY     -1194.832909466135
FINAL SINGLE POINT ENERGY     -1194.833078658179
FINAL SINGLE POINT ENERGY     -1194.833080734505
Dispersion correction            ... done
Dispersion correction           -0.064144018
FINAL SINGLE POINT ENERGY     -1194.833097847733
Dispersion correction            ... done
Dispersion correction           -0.064142218
FINAL SINGLE POINT ENERGY     -1194.833101093843
Dispersion correction            ... done
                    ***********************HURRAY********************

CARTESIAN COORDINATES (ANGSTROEM)
---------------------------------
  C      1.532270   -1.393581   -0.130924
  S      2.766057   -0.206724   -0.274854
  C      1.623812    1.109912   -0.167895
  C      0.331795    0.612977   -0.031867
  C      0.287071   -0.819943   -0.016596
  C     -1.003400   -1.599466    0.020201
  N     -1.114401   -2.352273   -1.320545
  O     -0.481752   -3.386938   -1.409032
  O     -1.792583   -1.860864   -2.202780
  C     -2.238043   -0.735146    0.272070
  C     -2.159015    0.642555   -0.387986
  C     -0.913438    1.437189    0.028735
  N     -1.159104    1.964289    1.452927
  O     -1.471908    3.136948    1.558782
  O     -1.076697    1.170387    2.370684
  C      2.151071    2.464231   -0.282624
  C      1.575711    3.626456    0.071919
  H      1.769979   -2.455160   -0.166926
  H     -0.937096   -2.418929    0.747143
  H     -2.334574   -0.621207    1.360994
  H     -3.129703   -1.268748   -0.085590
  H     -3.056935    1.235341   -0.155673
  H     -2.118247    0.522074   -1.479918
  H     -0.819790    2.352074   -0.566711
  H      3.156385    2.510808   -0.716134
  H      0.601572    3.709024    0.553987
  H      2.110664    4.562084   -0.109427

 Multiplicity           Mult            ....    1
 Number of Electrons    NEL             ....  132
 Basis Dimension        Dim             ....  292

ORBITAL ENERGIES
----------------

  NO   OCC          E(Eh)            E(eV)
   0   2.0000     -88.898278     -2419.0451
   1   2.0000     -19.180224      -521.9204
   2   2.0000     -19.180081      -521.9165
   3   2.0000     -19.179892      -521.9114
   4   2.0000     -19.178143      -521.8638
   5   2.0000     -14.565297      -396.3419
   6   2.0000     -14.565286      -396.3416
   7   2.0000     -10.269390      -279.4443
   8   2.0000     -10.267365      -279.3892
   9   2.0000     -10.245013      -278.7810
  10   2.0000     -10.235456      -278.5209
  11   2.0000     -10.228514      -278.3320
  12   2.0000     -10.226719      -278.2832
  13   2.0000     -10.222572      -278.1703
  14   2.0000     -10.222321      -278.1635
  15   2.0000     -10.219147      -278.0771
  16   2.0000     -10.207198      -277.7520
  17   2.0000      -7.993461      -217.5131
  18   2.0000      -5.961361      -162.2169
  19   2.0000      -5.957358      -162.1080
  20   2.0000      -5.955077      -162.0459
  21   2.0000      -1.236325       -33.6421
  22   2.0000      -1.236201       -33.6387
  23   2.0000      -1.064847       -28.9759
  24   2.0000      -1.064761       -28.9736
  25   2.0000      -0.919433       -25.0190
  26   2.0000      -0.866193       -23.5703
  27   2.0000      -0.839760       -22.8510
  28   2.0000      -0.797042       -21.6886
  29   2.0000      -0.764996       -20.8166
  30   2.0000      -0.733247       -19.9527
  31   2.0000      -0.724695       -19.7200
  32   2.0000      -0.664825       -18.0908
  33   2.0000      -0.635545       -17.2941
  34   2.0000      -0.615502       -16.7486
  35   2.0000      -0.603636       -16.4258
  36   2.0000      -0.578467       -15.7409
  37   2.0000      -0.569456       -15.4957
  38   2.0000      -0.558813       -15.2061
  39   2.0000      -0.547837       -14.9074
  40   2.0000      -0.545679       -14.8487
  41   2.0000      -0.529844       -14.4178
  42   2.0000      -0.521375       -14.1873
  43   2.0000      -0.506000       -13.7690
  44   2.0000      -0.496821       -13.5192
  45   2.0000      -0.478933       -13.0324
  46   2.0000      -0.471124       -12.8199
  47   2.0000      -0.460533       -12.5317
  48   2.0000      -0.443840       -12.0775
  49   2.0000      -0.439724       -11.9655
  50   2.0000      -0.421035       -11.4569
  51   2.0000      -0.408406       -11.1133
  52   2.0000      -0.395534       -10.7630
  53   2.0000      -0.388056       -10.5596
  54   2.0000      -0.376436       -10.2433
  55   2.0000      -0.367727       -10.0064
  56   2.0000      -0.362847        -9.8736
  57   2.0000      -0.330117        -8.9829
  58   2.0000      -0.328758        -8.9460
  59   2.0000      -0.327644        -8.9156
  60   2.0000      -0.320141        -8.7115
  61   2.0000      -0.310728        -8.4553
  62   2.0000      -0.308021        -8.3817
  63   2.0000      -0.306650        -8.3444
  64   2.0000      -0.275357        -7.4928
  65   2.0000      -0.242883        -6.6092
  66   0.0000      -0.080531        -2.1914
  67   0.0000      -0.078761        -2.1432
  68   0.0000      -0.069016        -1.8780
  69   0.0000      -0.011162        -0.3037
  70   0.0000       0.012310         0.3350

MULLIKEN ATOMIC CHARGES
-----------------------
   0 C :   -0.102668
   1 S :    0.142163
   2 C :   -0.158631
   3 C :    0.020878
   4 C :   -0.012854
   5 C :    0.131295
   6 N :    0.194715
   7 O :   -0.232058
   8 O :   -0.228851
   9 C :    0.079785
  10 C :    0.056481
  11 C :    0.104497
  12 N :    0.194746
  13 O :   -0.226971
  14 O :   -0.222563
  15 C :    0.031997
  16 C :   -0.042723
  17 H :    0.039731
  18 H :    0.028243
  19 H :    0.035389
  20 H :    0.020243
  21 H :    0.019895
  22 H :    0.047634
  23 H :    0.011157
  24 H :   -0.001568
  25 H :    0.036655
  26 H :    0.033383
Sum of atomic charges:    0.0000000

LOEWDIN ATOMIC CHARGES
----------------------
   0 C :   -0.176548
   1 S :    0.470683
   2 C :   -0.163243
   3 C :   -0.074000
   4 C :   -0.072102
   5 C :    0.032784
   6 N :    0.266911
   7 O :   -0.199287
   8 O :   -0.195401
   9 C :   -0.032060
  10 C :   -0.018452
  11 C :    0.026758
  12 N :    0.265300
  13 O :   -0.198457
  14 O :   -0.194362
  15 C :   -0.048351
  16 C :   -0.035645
  17 H :    0.032904
  18 H :    0.044232
  19 H :    0.036528
  20 H :    0.035990
  21 H :    0.034526
  22 H :    0.039464
  23 H :    0.038303
  24 H :    0.031644
  25 H :    0.019479
  26 H :    0.032402

  Mayer bond orders larger than 0.100000
B(  0-C ,  1-S ) :   1.1697 B(  0-C ,  4-C ) :   1.5370 B(  0-C , 17-H ) :   0.9598
B(  1-S ,  2-C ) :   1.1497 B(  2-C ,  3-C ) :   1.4996 B(  2-C , 15-C ) :   1.1036
B(  3-C ,  4-C ) :   1.2892 B(  3-C , 11-C ) :   1.0090 B(  4-C ,  5-C ) :   1.0092
B(  5-C ,  6-N ) :   0.7945 B(  5-C ,  9-C ) :   1.0625 B(  5-C , 18-H ) :   0.8973
B(  6-N ,  7-O ) :   1.5499 B(  6-N ,  8-O ) :   1.5694 B(  7-O ,  8-O ) :   0.2818
B(  9-C , 10-C ) :   1.0552 B(  9-C , 19-H ) :   0.9109 B(  9-C , 20-H ) :   0.9210
B( 10-C , 11-C ) :   1.0665 B( 10-C , 21-H ) :   0.9225 B( 10-C , 22-H ) :   0.9322
B( 11-C , 12-N ) :   0.7967 B( 11-C , 23-H ) :   0.8936 B( 12-N , 13-O ) :   1.5207
B( 12-N , 14-O ) :   1.5626 B( 13-O , 14-O ) :   0.2771 B( 15-C , 16-C ) :   1.9137
B( 15-C , 24-H ) :   0.9382 B( 16-C , 25-H ) :   0.9431 B( 16-C , 26-H ) :   0.9418

Dispersion correction           -0.064141070
FINAL SINGLE POINT ENERGY     -1194.833100484117

DIPOLE MOMENT
-------------
                                X             Y             Z
Electronic contribution:      4.57100      -5.76709       0.08588
Nuclear contribution   :     -4.22519       5.93656      -0.19586
                        -----------------------------------------
Total Dipole Moment    :      0.34580       0.16947      -0.10997
                        -----------------------------------------
Magnitude (a.u.)       :      0.40049
Magnitude (Debye)      :      1.01797

Rotational constants in cm-1:     0.019577     0.013277     0.009187
Rotational constants in MHz :   586.909350   398.047202   275.426489

                             ****ORCA TERMINATED NORMALLY****
TOTAL RUN TIME: 0 days 1 hours 12 minutes 20 seconds 493 msec
