                         Program Version 4.2.0 -  RELEASE  -
|  1> # ORCA input file
|  2> # SCF done        -21.158602201529          0.000845942062
|  3> ! B3LYP/G D3BJ Opt RIJCOSX def2-SVP def2/J
|  4> * xyz 0 1
|  5>    C        1.40918        -0.18322         0.07829
|  6>    C        0.87053         1.09211         0.11419
|  7>    C       -0.49465         1.27059        -0.00201
|  8>    C       -1.35272         0.18094        -0.16173
|  9>    C       -0.79418        -1.09745        -0.19370
| 10>    C        0.57049        -1.27549        -0.07490
| 11>    C       -2.78586         0.42461        -0.28007
| 12>    C       -3.72357        -0.47170        -0.56408
| 13>    H        2.47568        -0.32611         0.17156
| 14>    H        1.51733         1.94921         0.23493
| 15>    H       -0.90802         2.26934         0.02673
| 16>    H       -1.43177        -1.96101        -0.30425
| 17>    H        0.98491        -2.27317        -0.09929
| 18>    H       -3.07971         1.45570        -0.11945
| 19>    H       -3.50277        -1.50893        -0.75032
| 20>    H       -4.76149        -0.19376        -0.62998
| 21> *
| 22>
| 23>                          ****END OF INPUT****
 Total Charge           Charge          ....    0
 Multiplicity           Mult            ....    1
 Number of Electrons    NEL             ....   56
Dispersion correction           -0.027789598
FINAL SINGLE POINT ENERGY      -309.454410219696
Dispersion correction            ... done
Dispersion correction           -0.027586665
FINAL SINGLE POINT ENERGY      -309.456647926807
Dispersion correction            ... done
Dispersion correction           -0.027563542
FINAL SINGLE POINT ENERGY      -309.456692093950
Dispersion correction            ... done
FINAL SINGLE POINT ENERGY      -309.456701562421
Dispersion correction            ... done
Dispersion correction           -0.027562316
FINAL SINGLE POINT ENERGY      -309.456707325588
Dispersion correction            ... done
Dispersion correction           -0.027564290
FINAL SINGLE POINT ENERGY      -309.456711195641
Dispersion correction            ... done
                    ***********************HURRAY********************

CARTESIAN COORDINATES (ANGSTROEM)
---------------------------------
  C      1.434260   -0.182843    0.077526
  C      0.888301    1.101273    0.123845
  C     -0.491088    1.278592    0.007843
  C     -1.355457    0.182338   -0.161073
  C     -0.788439   -1.106429   -0.198113
  C      0.587333   -1.285916   -0.080387
  C     -2.799771    0.426071   -0.296821
  C     -3.755397   -0.477299   -0.554523
  H      2.513020   -0.329381    0.172154
  H      1.536787    1.970228    0.256285
  H     -0.915828    2.285243    0.048198
  H     -1.432693   -1.979104   -0.319904
  H      1.008530   -2.294011   -0.112451
  H     -3.100718    1.473033   -0.174690
  H     -3.534157   -1.537967   -0.703187
  H     -4.801304   -0.172168   -0.638783

 Multiplicity           Mult            ....    1
 Number of Electrons    NEL             ....   56
 Basis Dimension        Dim             ....  152

ORBITAL ENERGIES
----------------

  NO   OCC          E(Eh)            E(eV)
   0   2.0000     -10.198729      -277.5215
   1   2.0000     -10.195656      -277.4379
   2   2.0000     -10.193366      -277.3756
   3   2.0000     -10.193051      -277.3670
   4   2.0000     -10.192692      -277.3573
   5   2.0000     -10.192192      -277.3436
   6   2.0000     -10.191981      -277.3379
   7   2.0000     -10.188107      -277.2325
   8   2.0000      -0.853583       -23.2272
   9   2.0000      -0.783413       -21.3178
  10   2.0000      -0.740629       -20.1535
  11   2.0000      -0.718852       -19.5610
  12   2.0000      -0.620225       -16.8772
  13   2.0000      -0.600866       -16.3504
  14   2.0000      -0.555627       -15.1194
  15   2.0000      -0.513402       -13.9704
  16   2.0000      -0.474855       -12.9215
  17   2.0000      -0.455080       -12.3833
  18   2.0000      -0.440903       -11.9976
  19   2.0000      -0.422505       -11.4970
  20   2.0000      -0.414582       -11.2813
  21   2.0000      -0.379060       -10.3147
  22   2.0000      -0.373140       -10.1536
  23   2.0000      -0.348942        -9.4952
  24   2.0000      -0.341801        -9.3009
  25   2.0000      -0.305742        -8.3197
  26   2.0000      -0.258722        -7.0402
  27   2.0000      -0.230796        -6.2803
  28   0.0000      -0.042002        -1.1429
  29   0.0000      -0.010031        -0.2730
  30   0.0000       0.049410         1.3445
  31   0.0000       0.061204         1.6655
  32   0.0000       0.077064         2.0970

MULLIKEN ATOMIC CHARGES
-----------------------
   0 C :    0.013271
   1 C :    0.030302
   2 C :   -0.024326
   3 C :    0.086796
   4 C :   -0.014637
   5 C :    0.026019
   6 C :   -0.001982
   7 C :   -0.025406
   8 H :   -0.012539
   9 H :   -0.017021
  10 H :   -0.029169
  11 H :   -0.031761
  12 H :   -0.021365
  13 H :   -0.019063
  14 H :    0.018169
  15 H :    0.022712
Sum of atomic charges:   -0.0000000

LOEWDIN ATOMIC CHARGES
----------------------
   0 C :   -0.026776
   1 C :   -0.024402
   2 C :   -0.019221
   3 C :   -0.027902
   4 C :   -0.013149
   5 C :   -0.022459
   6 C :   -0.020552
   7 C :   -0.049183
   8 H :    0.027139
   9 H :    0.027365
  10 H :    0.024204
  11 H :    0.024345
  12 H :    0.026463
  13 H :    0.026763
  14 H :    0.020822
  15 H :    0.026543

  Mayer bond orders larger than 0.100000
B(  0-C ,  1-C ) :   1.3848 B(  0-C ,  5-C ) :   1.3630 B(  0-C ,  8-H ) :   0.9862
B(  1-C ,  2-C ) :   1.3761 B(  1-C ,  9-H ) :   0.9836 B(  2-C ,  3-C ) :   1.3514
B(  2-C , 10-H ) :   0.9903 B(  3-C ,  4-C ) :   1.3454 B(  3-C ,  6-C ) :   1.0773
B(  4-C ,  5-C ) :   1.4120 B(  4-C , 11-H ) :   0.9840 B(  5-C , 12-H ) :   0.9833
B(  6-C ,  7-C ) :   1.9345 B(  6-C , 13-H ) :   0.9628 B(  7-C , 14-H ) :   0.9428
B(  7-C , 15-H ) :   0.9446

Dispersion correction           -0.027565312
FINAL SINGLE POINT ENERGY      -309.456716675471

DIPOLE MOMENT
-------------
                                X             Y             Z
Electronic contribution:      2.18291       0.45394       0.34239
Nuclear contribution   :     -2.11720      -0.45000      -0.33815
                        -----------------------------------------
Total Dipole Moment    :      0.06572       0.00394       0.00425
                        -----------------------------------------
Magnitude (a.u.)       :      0.06597
Magnitude (Debye)      :      0.16769

Rotational constants in cm-1:     0.171979     0.051226     0.039487
Rotational constants in MHz :  5155.806057  1535.714883  1183.797622

                             ****ORCA TERMINATED NORMALLY****
TOTAL RUN TIME: 0 days 0 hours 4 minutes 7 seconds 208 msec
