                         Program Version 4.2.0 -  RELEASE  -
|  1> # ORCA input file
|  2> # SCF done        -35.917998717274          0.000596614725
|  3> ! B3LYP/G D3BJ Opt RIJCOSX def2-SVP def2/J
|  4> * xyz 0 1
|  5>    C       -1.75376        -1.58529         0.22060
|  6>    S       -2.95220        -0.38148         0.41456
|  7>    C       -1.79377         0.86827         0.41220
|  8>    C       -0.51849         0.37830         0.26538
|  9>    C       -0.48750        -1.05516         0.14818
| 10>    C        0.76596        -1.73235        -0.00389
| 11>    C        1.89544        -0.95598        -0.03285
| 12>    C        1.87339         0.44934         0.08065
| 13>    C        0.69570         1.12910         0.22682
| 14>    O        0.55006         2.47708         0.33942
| 15>    C        1.70832         3.27423         0.30567
| 16>    C        0.79823        -3.17980        -0.14118
| 17>    C        1.84904        -3.96181         0.08088
| 18>    H       -2.05705        -2.61132         0.17657
| 19>    H       -2.09372         1.89020         0.51974
| 20>    H        2.85752        -1.42640        -0.16772
| 21>    H        2.81586         0.97254         0.04138
| 22>    H        1.36341         4.30198         0.40601
| 23>    H        2.24406         3.16217        -0.64241
| 24>    H        2.38322         3.03538         1.13379
| 25>    H       -0.13558        -3.63496        -0.44363
| 26>    H        2.79734        -3.57625         0.41336
| 27>    H        1.79270        -5.02832        -0.05310
| 28> *
| 29>
| 30>                          ****END OF INPUT****
 Total Charge           Charge          ....    0
 Multiplicity           Mult            ....    1
 Number of Electrons    NEL             ....  100
Dispersion correction           -0.049287162
FINAL SINGLE POINT ENERGY      -898.139539728611
Dispersion correction            ... done
Dispersion correction           -0.049070402
FINAL SINGLE POINT ENERGY      -898.142735112150
Dispersion correction            ... done
Dispersion correction           -0.049041438
FINAL SINGLE POINT ENERGY      -898.142838537216
Dispersion correction            ... done
FINAL SINGLE POINT ENERGY      -898.142807294328
FINAL SINGLE POINT ENERGY      -898.142843425289
FINAL SINGLE POINT ENERGY      -898.142848118692
FINAL SINGLE POINT ENERGY      -898.142845363456
Dispersion correction            ... done
Dispersion correction           -0.049051671
FINAL SINGLE POINT ENERGY      -898.142843345836
Dispersion correction            ... done
Dispersion correction           -0.049051872
FINAL SINGLE POINT ENERGY      -898.142843554099
Dispersion correction            ... done
                    ***********************HURRAY********************

CARTESIAN COORDINATES (ANGSTROEM)
---------------------------------
  C     -1.765391   -1.599618    0.243553
  S     -2.959479   -0.384012    0.453071
  C     -1.811572    0.886901    0.421630
  C     -0.526428    0.390654    0.256972
  C     -0.489359   -1.055312    0.144446
  C      0.773857   -1.736056   -0.025032
  C      1.909776   -0.953120   -0.058311
  C      1.888390    0.468244    0.062118
  C      0.695577    1.143215    0.208444
  O      0.548911    2.482440    0.315513
  C      1.702585    3.292703    0.311912
  C      0.809241   -3.196079   -0.171963
  C      1.838389   -4.002609    0.127954
  H     -2.057250   -2.646837    0.210943
  H     -2.109952    1.926215    0.534127
  H      2.876222   -1.434659   -0.219305
  H      2.833162    1.008419    0.012108
  H      1.357741    4.326052    0.450912
  H      2.250013    3.216152   -0.644701
  H      2.388782    3.023308    1.134114
  H     -0.102693   -3.651821   -0.574740
  H      2.763038   -3.616868    0.566281
  H      1.784620   -5.077841   -0.059617

 Multiplicity           Mult            ....    1
 Number of Electrons    NEL             ....  100
 Basis Dimension        Dim             ....  236

ORBITAL ENERGIES
----------------

  NO   OCC          E(Eh)            E(eV)
   0   2.0000     -88.882068     -2418.6040
   1   2.0000     -19.172872      -521.7204
   2   2.0000     -10.252564      -278.9864
   3   2.0000     -10.250855      -278.9399
   4   2.0000     -10.210301      -277.8364
   5   2.0000     -10.207971      -277.7730
   6   2.0000     -10.197558      -277.4897
   7   2.0000     -10.195785      -277.4414
   8   2.0000     -10.190184      -277.2890
   9   2.0000     -10.189724      -277.2765
  10   2.0000     -10.189199      -277.2622
  11   2.0000     -10.185486      -277.1612
  12   2.0000     -10.180680      -277.0304
  13   2.0000      -7.976753      -217.0585
  14   2.0000      -5.944510      -161.7583
  15   2.0000      -5.940327      -161.6445
  16   2.0000      -5.939079      -161.6105
  17   2.0000      -1.068279       -29.0694
  18   2.0000      -0.888206       -24.1693
  19   2.0000      -0.828416       -22.5424
  20   2.0000      -0.786024       -21.3888
  21   2.0000      -0.741832       -20.1863
  22   2.0000      -0.731762       -19.9123
  23   2.0000      -0.706399       -19.2221
  24   2.0000      -0.682006       -18.5583
  25   2.0000      -0.614102       -16.7106
  26   2.0000      -0.590146       -16.0587
  27   2.0000      -0.576198       -15.6791
  28   2.0000      -0.543397       -14.7866
  29   2.0000      -0.533359       -14.5134
  30   2.0000      -0.502539       -13.6748
  31   2.0000      -0.478092       -13.0096
  32   2.0000      -0.469665       -12.7802
  33   2.0000      -0.465471       -12.6661
  34   2.0000      -0.442963       -12.0536
  35   2.0000      -0.432553       -11.7704
  36   2.0000      -0.411985       -11.2107
  37   2.0000      -0.407212       -11.0808
  38   2.0000      -0.404504       -11.0071
  39   2.0000      -0.383485       -10.4352
  40   2.0000      -0.375301       -10.2125
  41   2.0000      -0.357448        -9.7267
  42   2.0000      -0.349260        -9.5039
  43   2.0000      -0.342881        -9.3303
  44   2.0000      -0.337055        -9.1717
  45   2.0000      -0.332132        -9.0378
  46   2.0000      -0.278373        -7.5749
  47   2.0000      -0.251035        -6.8310
  48   2.0000      -0.248832        -6.7711
  49   2.0000      -0.190180        -5.1751
  50   0.0000      -0.056836        -1.5466
  51   0.0000      -0.007083        -0.1927
  52   0.0000       0.025191         0.6855
  53   0.0000       0.050854         1.3838
  54   0.0000       0.060632         1.6499

MULLIKEN ATOMIC CHARGES
-----------------------
   0 C :   -0.170332
   1 S :    0.134595
   2 C :   -0.147435
   3 C :    0.064346
   4 C :    0.077897
   5 C :    0.101495
   6 C :   -0.047674
   7 C :   -0.117686
   8 C :    0.225135
   9 O :   -0.306994
  10 C :    0.183294
  11 C :   -0.040013
  12 C :   -0.020698
  13 H :    0.017890
  14 H :    0.021041
  15 H :   -0.032950
  16 H :   -0.040269
  17 H :    0.033737
  18 H :    0.022672
  19 H :    0.024417
  20 H :   -0.012771
  21 H :    0.011230
  22 H :    0.019072
Sum of atomic charges:   -0.0000000

LOEWDIN ATOMIC CHARGES
----------------------
   0 C :   -0.216767
   1 S :    0.479411
   2 C :   -0.198280
   3 C :   -0.066264
   4 C :   -0.039750
   5 C :   -0.046509
   6 C :   -0.010493
   7 C :   -0.099447
   8 C :    0.058163
   9 O :   -0.090310
  10 C :    0.081121
  11 C :   -0.020843
  12 C :   -0.054834
  13 H :    0.022343
  14 H :    0.027342
  15 H :    0.025269
  16 H :    0.024681
  17 H :    0.026845
  18 H :    0.014855
  19 H :    0.015306
  20 H :    0.025230
  21 H :    0.019226
  22 H :    0.023703

  Mayer bond orders larger than 0.100000
B(  0-C ,  1-S ) :   1.1937 B(  0-C ,  2-C ) :   0.1141 B(  0-C ,  4-C ) :   1.4381
B(  0-C , 13-H ) :   0.9511 B(  1-S ,  2-C ) :   1.2041 B(  2-C ,  3-C ) :   1.4139
B(  2-C , 14-H ) :   0.9666 B(  3-C ,  4-C ) :   1.2215 B(  3-C ,  8-C ) :   1.1715
B(  4-C ,  5-C ) :   1.1428 B(  5-C ,  6-C ) :   1.5075 B(  5-C , 11-C ) :   1.0734
B(  6-C ,  7-C ) :   1.1752 B(  6-C , 15-H ) :   0.9791 B(  7-C ,  8-C ) :   1.4212
B(  7-C , 16-H ) :   0.9905 B(  8-C ,  9-O ) :   1.1926 B(  9-O , 10-C ) :   0.9611
B( 10-C , 17-H ) :   0.9771 B( 10-C , 18-H ) :   0.9657 B( 10-C , 19-H ) :   0.9642
B( 11-C , 12-C ) :   1.9474 B( 11-C , 20-H ) :   0.9486 B( 12-C , 21-H ) :   0.9467
B( 12-C , 22-H ) :   0.9434

Dispersion correction           -0.049051866
FINAL SINGLE POINT ENERGY      -898.142845690792

DIPOLE MOMENT
-------------
                                X             Y             Z
Electronic contribution:    -11.65202       0.70323       0.62565
Nuclear contribution   :     12.00932      -0.14128      -0.61910
                        -----------------------------------------
Total Dipole Moment    :      0.35731       0.56195       0.00654
                        -----------------------------------------
Magnitude (a.u.)       :      0.66596
Magnitude (Debye)      :      1.69273

Rotational constants in cm-1:     0.027787     0.021997     0.012350
Rotational constants in MHz :   833.034974   659.443181   370.243701

                             ****ORCA TERMINATED NORMALLY****
TOTAL RUN TIME: 0 days 0 hours 16 minutes 44 seconds 145 msec
