                         Program Version 4.2.0 -  RELEASE  -
|  1> # ORCA input file
|  2> # SCF done        -24.632632740179          0.000831849734
|  3> ! B3LYP/G D3BJ Opt RIJCOSX def2-SVP def2/J
|  4> * xyz 0 1
|  5>    C       -0.88409        -0.72249         0.12125
|  6>    S       -0.46304         0.97103         0.07081
|  7>    C        1.27864         0.66728        -0.08317
|  8>    C        1.43476        -0.68487        -0.08393
|  9>    C        0.24212        -1.44879         0.02223
| 10>    C        1.08570        -2.70055        -0.06542
| 11>    N        2.27351        -1.81365        -0.04976
| 12>    C        2.20624         1.75667        -0.17948
| 13>    C        3.52715         1.60253        -0.24068
| 14>    H       -1.91491        -1.00014         0.20998
| 15>    H        0.94898        -3.27538        -0.98346
| 16>    H        1.05274        -3.35922         0.80275
| 17>    H        3.01766        -1.93582        -0.72236
| 18>    H        1.76538         2.74344        -0.19429
| 19>    H        3.98058         0.62660        -0.21396
| 20>    H        4.19073         2.44551        -0.31183
| 21> *
| 22>
| 23>                          ****END OF INPUT****
 Total Charge           Charge          ....    0
 Multiplicity           Mult            ....    1
 Number of Electrons    NEL             ....   72
Dispersion correction           -0.030313213
FINAL SINGLE POINT ENERGY      -723.483806858233
Dispersion correction            ... done
Dispersion correction           -0.030147535
FINAL SINGLE POINT ENERGY      -723.486366384892
Dispersion correction            ... done
Dispersion correction           -0.030120783
FINAL SINGLE POINT ENERGY      -723.486577547766
Dispersion correction            ... done
FINAL SINGLE POINT ENERGY      -723.486676574467
FINAL SINGLE POINT ENERGY      -723.486710313096
FINAL SINGLE POINT ENERGY      -723.486743740338
FINAL SINGLE POINT ENERGY      -723.486757794178
Dispersion correction            ... done
Dispersion correction           -0.030170194
FINAL SINGLE POINT ENERGY      -723.486764071364
Dispersion correction            ... done
Dispersion correction           -0.030172304
FINAL SINGLE POINT ENERGY      -723.486764854416
Dispersion correction            ... done
                    ***********************HURRAY********************

CARTESIAN COORDINATES (ANGSTROEM)
---------------------------------
  C     -0.908638   -0.719183    0.123587
  S     -0.483994    0.980832    0.058989
  C      1.261557    0.674348   -0.088159
  C      1.416112   -0.692713   -0.073759
  C      0.233115   -1.456498    0.029641
  C      1.089939   -2.720497   -0.050110
  N      2.295685   -1.810411   -0.045934
  C      2.214361    1.761596   -0.182036
  C      3.549695    1.611266   -0.230522
  H     -1.953873   -1.012168    0.212584
  H      0.966790   -3.304824   -0.976456
  H      1.060234   -3.394485    0.820388
  H      2.977626   -1.917364   -0.796149
  H      1.794012    2.772708   -0.214143
  H      4.017548    0.623640   -0.184924
  H      4.211982    2.475903   -0.304315

 Multiplicity           Mult            ....    1
 Number of Electrons    NEL             ....   72
 Basis Dimension        Dim             ....  165

ORBITAL ENERGIES
----------------

  NO   OCC          E(Eh)            E(eV)
   0   2.0000     -88.865606     -2418.1561
   1   2.0000     -14.342881      -390.2896
   2   2.0000     -10.242612      -278.7156
   3   2.0000     -10.217751      -278.0391
   4   2.0000     -10.214174      -277.9418
   5   2.0000     -10.210180      -277.8331
   6   2.0000     -10.199290      -277.5368
   7   2.0000     -10.190158      -277.2883
   8   2.0000     -10.181664      -277.0572
   9   2.0000      -7.959994      -216.6024
  10   2.0000      -5.928438      -161.3210
  11   2.0000      -5.924467      -161.2129
  12   2.0000      -5.920658      -161.1093
  13   2.0000      -0.957867       -26.0649
  14   2.0000      -0.854765       -23.2593
  15   2.0000      -0.779520       -21.2118
  16   2.0000      -0.720101       -19.5949
  17   2.0000      -0.695929       -18.9372
  18   2.0000      -0.666795       -18.1444
  19   2.0000      -0.600916       -16.3517
  20   2.0000      -0.572504       -15.5786
  21   2.0000      -0.529278       -14.4024
  22   2.0000      -0.482400       -13.1268
  23   2.0000      -0.475139       -12.9292
  24   2.0000      -0.454319       -12.3627
  25   2.0000      -0.441968       -12.0266
  26   2.0000      -0.415028       -11.2935
  27   2.0000      -0.392655       -10.6847
  28   2.0000      -0.378706       -10.3051
  29   2.0000      -0.370303       -10.0764
  30   2.0000      -0.345153        -9.3921
  31   2.0000      -0.328180        -8.9302
  32   2.0000      -0.302112        -8.2209
  33   2.0000      -0.293772        -7.9939
  34   2.0000      -0.231356        -6.2955
  35   2.0000      -0.199846        -5.4381
  36   0.0000      -0.036756        -1.0002
  37   0.0000       0.022993         0.6257
  38   0.0000       0.026418         0.7189
  39   0.0000       0.052510         1.4289
  40   0.0000       0.080413         2.1881

MULLIKEN ATOMIC CHARGES
-----------------------
   0 C :   -0.183439
   1 S :    0.071618
   2 C :   -0.224134
   3 C :    0.120163
   4 C :   -0.025336
   5 C :    0.216336
   6 N :   -0.203847
   7 C :    0.048641
   8 C :   -0.038528
   9 H :    0.026334
  10 H :    0.028368
  11 H :    0.032505
  12 H :    0.121061
  13 H :   -0.019809
  14 H :    0.009459
  15 H :    0.020607
Sum of atomic charges:   -0.0000000

LOEWDIN ATOMIC CHARGES
----------------------
   0 C :   -0.186661
   1 S :    0.396179
   2 C :   -0.216307
   3 C :   -0.015333
   4 C :   -0.090371
   5 C :    0.075090
   6 N :   -0.074009
   7 C :   -0.038070
   8 C :   -0.065969
   9 H :    0.024626
  10 H :    0.025582
  11 H :    0.028511
  12 H :    0.065013
  13 H :    0.027549
  14 H :    0.019470
  15 H :    0.024700

  Mayer bond orders larger than 0.100000
B(  0-C ,  1-S ) :   1.1380 B(  0-C ,  4-C ) :   1.5497 B(  0-C ,  9-H ) :   0.9799
B(  1-S ,  2-C ) :   1.0573 B(  2-C ,  3-C ) :   1.5162 B(  2-C ,  7-C ) :   1.1309
B(  3-C ,  4-C ) :   1.2494 B(  3-C ,  6-N ) :   1.0950 B(  4-C ,  5-C ) :   1.0193
B(  5-C ,  6-N ) :   1.0282 B(  5-C , 10-H ) :   0.9303 B(  5-C , 11-H ) :   0.9231
B(  6-N , 12-H ) :   0.9219 B(  7-C ,  8-C ) :   1.9188 B(  7-C , 13-H ) :   0.9462
B(  8-C , 14-H ) :   0.9476 B(  8-C , 15-H ) :   0.9422

Dispersion correction           -0.030171747
FINAL SINGLE POINT ENERGY      -723.486764831429

DIPOLE MOMENT
-------------
                                X             Y             Z
Electronic contribution:     -5.79785       2.10820       0.66174
Nuclear contribution   :      5.79711      -2.78925      -1.07588
                        -----------------------------------------
Total Dipole Moment    :     -0.00074      -0.68105      -0.41413
                        -----------------------------------------
Magnitude (a.u.)       :      0.79708
Magnitude (Debye)      :      2.02601

Rotational constants in cm-1:     0.064377     0.049938     0.028327
Rotational constants in MHz :  1929.969539  1497.106491   849.212788

                             ****ORCA TERMINATED NORMALLY****
TOTAL RUN TIME: 0 days 0 hours 6 minutes 56 seconds 694 msec
