                         Program Version 4.2.0 -  RELEASE  -
|  1> # ORCA input file
|  2> # SCF done        -34.799738579890          0.000469755866
|  3> ! B3LYP/G D3BJ Opt RIJCOSX def2-SVP def2/J
|  4> * xyz 0 1
|  5>    C       -1.37796         1.25380        -0.05327
|  6>    S       -2.65700         0.11659        -0.14962
|  7>    C       -1.57776        -1.22707        -0.13902
|  8>    C       -0.29028        -0.80047        -0.06426
|  9>    C       -0.15926         0.63007        -0.01417
| 10>    C        1.20139         1.03060         0.06185
| 11>    C        2.04835        -0.03295         0.06906
| 12>    C        3.51006        -0.02729         0.13614
| 13>    O        4.19724        -1.01854         0.14630
| 14>    O        4.00127         1.22317         0.18536
| 15>    C        5.41654         1.32112         0.24882
| 16>    S        1.25575        -1.59816        -0.01509
| 17>    H       -1.59388         2.30241        -0.03133
| 18>    H       -1.96203        -2.22443        -0.18821
| 19>    H        1.53626         2.05025         0.10864
| 20>    H        5.64260         2.38025         0.34121
| 21>    H        5.86581         0.91016        -0.65774
| 22>    H        5.79701         0.76849         1.11020
| 23> *
| 24>
| 25>                          ****END OF INPUT****
 Total Charge           Charge          ....    0
 Multiplicity           Mult            ....    1
 Number of Electrons    NEL             ....  102
Dispersion correction           -0.040640130
FINAL SINGLE POINT ENERGY     -1254.765555618420
Dispersion correction            ... done
Dispersion correction           -0.040541991
FINAL SINGLE POINT ENERGY     -1254.767575103039
Dispersion correction            ... done
Dispersion correction           -0.040533848
FINAL SINGLE POINT ENERGY     -1254.767628444285
Dispersion correction            ... done
FINAL SINGLE POINT ENERGY     -1254.767591900207
Dispersion correction            ... done
Dispersion correction           -0.040531003
FINAL SINGLE POINT ENERGY     -1254.767586598253
Dispersion correction            ... done
Dispersion correction           -0.040531634
FINAL SINGLE POINT ENERGY     -1254.767587407524
Dispersion correction            ... done
                    ***********************HURRAY********************

CARTESIAN COORDINATES (ANGSTROEM)
---------------------------------
  C     -1.405174    1.262673   -0.080153
  S     -2.683881    0.113284   -0.164850
  C     -1.607023   -1.243719   -0.122201
  C     -0.305552   -0.810263   -0.050720
  C     -0.175057    0.630961   -0.022095
  C      1.201054    1.037510    0.057657
  C      2.051353   -0.032331    0.082578
  C      3.523230   -0.030180    0.135168
  O      4.206456   -1.027281    0.082641
  O      4.018682    1.216213    0.246854
  C      5.440045    1.325648    0.261983
  S      1.254215   -1.609635    0.011384
  H     -1.626412    2.328414   -0.074909
  H     -1.996334   -2.258776   -0.153957
  H      1.554336    2.067088    0.090129
  H      5.664517    2.389352    0.407291
  H      5.867954    0.971835   -0.689100
  H      5.871700    0.727205    1.077170

 Multiplicity           Mult            ....    1
 Number of Electrons    NEL             ....  102
 Basis Dimension        Dim             ....  206

ORBITAL ENERGIES
----------------

  NO   OCC          E(Eh)            E(eV)
   0   2.0000     -88.890812     -2418.8420
   1   2.0000     -88.873629     -2418.3744
   2   2.0000     -19.182886      -521.9929
   3   2.0000     -19.124923      -520.4156
   4   2.0000     -10.321743      -280.8689
   5   2.0000     -10.249663      -278.9075
   6   2.0000     -10.228933      -278.3434
   7   2.0000     -10.225839      -278.2592
   8   2.0000     -10.225722      -278.2560
   9   2.0000     -10.223360      -278.1918
  10   2.0000     -10.214105      -277.9399
  11   2.0000     -10.212226      -277.8888
  12   2.0000      -7.985366      -217.2929
  13   2.0000      -7.968147      -216.8243
  14   2.0000      -5.953405      -162.0004
  15   2.0000      -5.949147      -161.8845
  16   2.0000      -5.947157      -161.8304
  17   2.0000      -5.936885      -161.5508
  18   2.0000      -5.932982      -161.4447
  19   2.0000      -5.927935      -161.3073
  20   2.0000      -1.101570       -29.9753
  21   2.0000      -1.011329       -27.5196
  22   2.0000      -0.908778       -24.7291
  23   2.0000      -0.851896       -23.1813
  24   2.0000      -0.766622       -20.8609
  25   2.0000      -0.754443       -20.5294
  26   2.0000      -0.715661       -19.4741
  27   2.0000      -0.695498       -18.9255
  28   2.0000      -0.631387       -17.1809
  29   2.0000      -0.578209       -15.7339
  30   2.0000      -0.561074       -15.2676
  31   2.0000      -0.543797       -14.7975
  32   2.0000      -0.510284       -13.8855
  33   2.0000      -0.490964       -13.3598
  34   2.0000      -0.488915       -13.3041
  35   2.0000      -0.474721       -12.9178
  36   2.0000      -0.436656       -11.8820
  37   2.0000      -0.426025       -11.5927
  38   2.0000      -0.424011       -11.5379
  39   2.0000      -0.412440       -11.2231
  40   2.0000      -0.403326       -10.9751
  41   2.0000      -0.394906       -10.7459
  42   2.0000      -0.366189        -9.9645
  43   2.0000      -0.360925        -9.8213
  44   2.0000      -0.346983        -9.4419
  45   2.0000      -0.342059        -9.3079
  46   2.0000      -0.311107        -8.4657
  47   2.0000      -0.292401        -7.9566
  48   2.0000      -0.286293        -7.7904
  49   2.0000      -0.251024        -6.8307
  50   2.0000      -0.217363        -5.9148
  51   0.0000      -0.070837        -1.9276
  52   0.0000      -0.011097        -0.3020
  53   0.0000       0.026771         0.7285
  54   0.0000       0.027704         0.7539
  55   0.0000       0.056080         1.5260

MULLIKEN ATOMIC CHARGES
-----------------------
   0 C :   -0.134840
   1 S :    0.121841
   2 C :   -0.159405
   3 C :    0.005025
   4 C :    0.102427
   5 C :    0.042518
   6 C :   -0.161539
   7 C :    0.225867
   8 O :   -0.216488
   9 O :   -0.312216
  10 C :    0.199211
  11 S :    0.148231
  12 H :    0.026629
  13 H :    0.027174
  14 H :   -0.004653
  15 H :    0.028891
  16 H :    0.028760
  17 H :    0.032566
Sum of atomic charges:    0.0000000

LOEWDIN ATOMIC CHARGES
----------------------
   0 C :   -0.199481
   1 S :    0.464478
   2 C :   -0.221640
   3 C :   -0.187328
   4 C :   -0.080763
   5 C :   -0.019131
   6 C :   -0.195981
   7 C :    0.063209
   8 O :   -0.179937
   9 O :   -0.098120
  10 C :    0.086864
  11 S :    0.403969
  12 H :    0.028481
  13 H :    0.028487
  14 H :    0.037764
  15 H :    0.024322
  16 H :    0.022200
  17 H :    0.022609

  Mayer bond orders larger than 0.100000
B(  0-C ,  1-S ) :   1.1938 B(  0-C ,  2-C ) :   0.1046 B(  0-C ,  4-C ) :   1.4338
B(  0-C , 12-H ) :   0.9662 B(  1-S ,  2-C ) :   1.1688 B(  2-C ,  3-C ) :   1.5195
B(  2-C , 13-H ) :   0.9733 B(  3-C ,  4-C ) :   1.2297 B(  3-C , 11-S ) :   1.0329
B(  4-C ,  5-C ) :   1.1203 B(  5-C ,  6-C ) :   1.5843 B(  5-C , 14-H ) :   1.0017
B(  6-C ,  7-C ) :   0.9855 B(  6-C , 11-S ) :   1.0679 B(  7-C ,  8-O ) :   2.0981
B(  7-C ,  9-O ) :   1.2169 B(  9-O , 10-C ) :   0.9205 B( 10-C , 15-H ) :   0.9794
B( 10-C , 16-H ) :   0.9747 B( 10-C , 17-H ) :   0.9727

Dispersion correction           -0.040532052
FINAL SINGLE POINT ENERGY     -1254.767581108983

DIPOLE MOMENT
-------------
                                X             Y             Z
Electronic contribution:     -9.06613      -5.28832      -0.49201
Nuclear contribution   :      8.73146       6.25273       0.50774
                        -----------------------------------------
Total Dipole Moment    :     -0.33467       0.96441       0.01573
                        -----------------------------------------
Magnitude (a.u.)       :      1.02095
Magnitude (Debye)      :      2.59505

Rotational constants in cm-1:     0.074589     0.012404     0.010659
Rotational constants in MHz :  2236.120784   371.852501   319.534289

                             ****ORCA TERMINATED NORMALLY****
TOTAL RUN TIME: 0 days 0 hours 7 minutes 29 seconds 863 msec
