                         Program Version 4.2.0 -  RELEASE  -
|  1> # ORCA input file
|  2> # SCF done        -21.730976211638          0.000673210337
|  3> ! B3LYP/G D3BJ Opt RIJCOSX def2-SVP def2/J
|  4> * xyz 0 1
|  5>    C       -1.30191        -1.12507        -0.00281
|  6>    N       -2.07282         0.00722        -0.00186
|  7>    C       -1.31190         1.13675        -0.00063
|  8>    C        0.00597         0.73546        -0.00061
|  9>    C        0.00008        -0.69576        -0.00201
| 10>    N        1.29694        -1.12604        -0.00206
| 11>    C        2.10761        -0.01238        -0.00077
| 12>    C        1.37458         1.13274         0.00031
| 13>    H       -1.74091        -2.10178        -0.00390
| 14>    H       -3.07906         0.00059        -0.00210
| 15>    H       -1.75852         2.11022         0.00018
| 16>    H        1.61478        -2.07826        -0.00286
| 17>    H        3.17552        -0.12877        -0.00063
| 18>    H        1.75807         2.13349         0.00148
| 19> *
| 20>
| 21>                          ****END OF INPUT****
 Total Charge           Charge          ....    0
 Multiplicity           Mult            ....    1
 Number of Electrons    NEL             ....   56
Dispersion correction           -0.023257039
FINAL SINGLE POINT ENERGY      -341.494607226978
Dispersion correction            ... done
Dispersion correction           -0.023350262
FINAL SINGLE POINT ENERGY      -341.497217275980
Dispersion correction            ... done
Dispersion correction           -0.023362132
FINAL SINGLE POINT ENERGY      -341.497286151738
Dispersion correction            ... done
Dispersion correction           -0.023360192
FINAL SINGLE POINT ENERGY      -341.497295829195
Dispersion correction            ... done
Dispersion correction           -0.023355747
FINAL SINGLE POINT ENERGY      -341.497295325374
Dispersion correction            ... done
                    ***********************HURRAY********************

CARTESIAN COORDINATES (ANGSTROEM)
---------------------------------
  C     -1.318028   -1.144051   -0.002806
  N     -2.090915    0.004204   -0.001902
  C     -1.328673    1.148833   -0.000483
  C      0.004900    0.742460   -0.000560
  C     -0.005843   -0.695382   -0.001989
  N      1.304848   -1.128562   -0.002042
  C      2.132637   -0.011828   -0.000679
  C      1.391572    1.145770    0.000138
  H     -1.765999   -2.132938   -0.003987
  H     -3.101735   -0.002286   -0.002261
  H     -1.792663    2.131464    0.000406
  H      1.625718   -2.084847   -0.002915
  H      3.214503   -0.138950   -0.000446
  H      1.798107    2.154523    0.001255

 Multiplicity           Mult            ....    1
 Number of Electrons    NEL             ....   56
 Basis Dimension        Dim             ....  142

ORBITAL ENERGIES
----------------

  NO   OCC          E(Eh)            E(eV)
   0   2.0000     -14.366218      -390.9247
   1   2.0000     -14.352680      -390.5563
   2   2.0000     -10.202500      -277.6242
   3   2.0000     -10.195162      -277.4245
   4   2.0000     -10.193998      -277.3928
   5   2.0000     -10.191704      -277.3304
   6   2.0000     -10.161052      -276.4963
   7   2.0000     -10.157536      -276.4006
   8   2.0000      -0.963477       -26.2175
   9   2.0000      -0.934567       -25.4309
  10   2.0000      -0.761054       -20.7093
  11   2.0000      -0.728611       -19.8265
  12   2.0000      -0.689719       -18.7682
  13   2.0000      -0.616268       -16.7695
  14   2.0000      -0.571601       -15.5540
  15   2.0000      -0.539580       -14.6827
  16   2.0000      -0.519060       -14.1243
  17   2.0000      -0.485240       -13.2040
  18   2.0000      -0.439255       -11.9527
  19   2.0000      -0.417279       -11.3548
  20   2.0000      -0.415728       -11.3125
  21   2.0000      -0.411711       -11.2032
  22   2.0000      -0.380307       -10.3487
  23   2.0000      -0.362090        -9.8530
  24   2.0000      -0.341109        -9.2821
  25   2.0000      -0.253902        -6.9090
  26   2.0000      -0.209745        -5.7074
  27   2.0000      -0.169972        -4.6252
  28   0.0000       0.018232         0.4961
  29   0.0000       0.056330         1.5328
  30   0.0000       0.063971         1.7407
  31   0.0000       0.084050         2.2871
  32   0.0000       0.107530         2.9260

MULLIKEN ATOMIC CHARGES
-----------------------
   0 C :   -0.098910
   1 N :   -0.068108
   2 C :   -0.041125
   3 C :    0.058380
   4 C :    0.112881
   5 N :   -0.095213
   6 C :    0.057241
   7 C :   -0.057992
   8 H :   -0.028983
   9 H :    0.117261
  10 H :   -0.021088
  11 H :    0.110514
  12 H :   -0.009009
  13 H :   -0.035847
Sum of atomic charges:    0.0000000

LOEWDIN ATOMIC CHARGES
----------------------
   0 C :   -0.088123
   1 N :    0.088289
   2 C :   -0.052103
   3 C :   -0.080074
   4 C :   -0.028266
   5 N :    0.034444
   6 C :   -0.002767
   7 C :   -0.096993
   8 H :    0.011856
   9 H :    0.084021
  10 H :    0.013548
  11 H :    0.079509
  12 H :    0.016687
  13 H :    0.019972

  Mayer bond orders larger than 0.100000
B(  0-C ,  1-N ) :   1.1885 B(  0-C ,  2-C ) :   0.1471 B(  0-C ,  4-C ) :   1.3672
B(  0-C ,  8-H ) :   1.0074 B(  1-N ,  2-C ) :   1.2339 B(  1-N ,  9-H ) :   0.9425
B(  2-C ,  3-C ) :   1.3582 B(  2-C , 10-H ) :   0.9895 B(  3-C ,  4-C ) :   1.3042
B(  3-C ,  7-C ) :   1.1534 B(  4-C ,  5-N ) :   1.1280 B(  5-N ,  6-C ) :   1.1510
B(  5-N , 11-H ) :   0.9482 B(  6-C ,  7-C ) :   1.5710 B(  6-C , 12-H ) :   0.9828
B(  7-C , 13-H ) :   1.0086

Dispersion correction           -0.023353994
FINAL SINGLE POINT ENERGY      -341.497294547299

DIPOLE MOMENT
-------------
                                X             Y             Z
Electronic contribution:     -0.41677      -0.63834      -0.00071
Nuclear contribution   :      0.00177       0.00925      -0.00005
                        -----------------------------------------
Total Dipole Moment    :     -0.41501      -0.62910      -0.00076
                        -----------------------------------------
Magnitude (a.u.)       :      0.75365
Magnitude (Debye)      :      1.91563

Rotational constants in cm-1:     0.175960     0.070983     0.050579
Rotational constants in MHz :  5275.136072  2128.003923  1516.317438

                             ****ORCA TERMINATED NORMALLY****
TOTAL RUN TIME: 0 days 0 hours 3 minutes 22 seconds 848 msec
