                         Program Version 4.2.0 -  RELEASE  -
|  1> # ORCA input file
|  2> # SCF done        -23.522631962709          0.000514945850
|  3> ! B3LYP/G D3BJ Opt RIJCOSX def2-SVP def2/J
|  4> * xyz 0 1
|  5>    C       -1.05434         0.05809        -0.19857
|  6>    N       -0.20522         1.11388        -0.19877
|  7>    C        1.06197         0.67941         0.08402
|  8>    C        1.00188        -0.69079         0.26441
|  9>    C       -0.33465        -1.07533         0.08400
| 10>    C        2.15320         1.54669         0.15895
| 11>    C        3.09863         2.29984         0.22498
| 12>    C        4.18834         3.18002         0.30505
| 13>    C        5.41750         2.80513         0.65305
| 14>    H       -2.10125         0.18123        -0.39615
| 15>    H       -0.45419         2.07273        -0.37658
| 16>    H        1.83155        -1.32805         0.49759
| 17>    H       -0.72367        -2.07187         0.15487
| 18>    H        3.96839         4.21380         0.06422
| 19>    H        5.64546         1.78081         0.89514
| 20>    H        6.22794         3.51137         0.70525
| 21> *
| 22>
| 23>                          ****END OF INPUT****
 Total Charge           Charge          ....    0
 Multiplicity           Mult            ....    1
 Number of Electrons    NEL             ....   62
Dispersion correction           -0.024804117
FINAL SINGLE POINT ENERGY      -363.492453517823
Dispersion correction            ... done
Dispersion correction           -0.024681496
FINAL SINGLE POINT ENERGY      -363.495567569169
Dispersion correction            ... done
Dispersion correction           -0.024661169
FINAL SINGLE POINT ENERGY      -363.495649170781
Dispersion correction            ... done
FINAL SINGLE POINT ENERGY      -363.495655761625
FINAL SINGLE POINT ENERGY      -363.495640952342
FINAL SINGLE POINT ENERGY      -363.495624935907
FINAL SINGLE POINT ENERGY      -363.495611774754
FINAL SINGLE POINT ENERGY      -363.495563256581
FINAL SINGLE POINT ENERGY      -363.495472479719
FINAL SINGLE POINT ENERGY      -363.495340128753
Dispersion correction            ... done
Dispersion correction           -0.024641180
FINAL SINGLE POINT ENERGY      -363.495428141556
Dispersion correction            ... done
Dispersion correction           -0.024643267
FINAL SINGLE POINT ENERGY      -363.495465900042
Dispersion correction            ... done
                    ***********************HURRAY********************

CARTESIAN COORDINATES (ANGSTROEM)
---------------------------------
  C     -1.102347    0.076416   -0.146342
  N     -0.209858    1.108114   -0.126944
  C      1.073050    0.627378    0.077563
  C      0.969658   -0.762117    0.186861
  C     -0.398142   -1.104422    0.043822
  C      2.190290    1.485001    0.142912
  C      3.149300    2.240713    0.194329
  C      4.235987    3.152562    0.229596
  C      5.456993    2.903837    0.740674
  H     -2.164200    0.255578   -0.300773
  H     -0.433658    2.086396   -0.250910
  H      1.806394   -1.435259    0.355649
  H     -0.828440   -2.103052    0.079000
  H      4.035495    4.137585   -0.211316
  H      5.703627    1.940565    1.193380
  H      6.237392    3.667664    0.713958

 Multiplicity           Mult            ....    1
 Number of Electrons    NEL             ....   62
 Basis Dimension        Dim             ....  161

ORBITAL ENERGIES
----------------

  NO   OCC          E(Eh)            E(eV)
   0   2.0000     -14.381972      -391.3534
   1   2.0000     -10.229431      -278.3570
   2   2.0000     -10.218333      -278.0550
   3   2.0000     -10.212624      -277.8996
   4   2.0000     -10.194228      -277.3990
   5   2.0000     -10.191919      -277.3362
   6   2.0000     -10.189269      -277.2641
   7   2.0000     -10.181299      -277.0472
   8   2.0000     -10.178896      -276.9818
   9   2.0000      -0.978639       -26.6301
  10   2.0000      -0.795150       -21.6371
  11   2.0000      -0.774187       -21.0667
  12   2.0000      -0.758956       -20.6523
  13   2.0000      -0.702493       -19.1158
  14   2.0000      -0.617047       -16.7907
  15   2.0000      -0.594801       -16.1854
  16   2.0000      -0.576023       -15.6744
  17   2.0000      -0.567916       -15.4538
  18   2.0000      -0.495568       -13.4851
  19   2.0000      -0.457901       -12.4601
  20   2.0000      -0.444239       -12.0883
  21   2.0000      -0.439984       -11.9726
  22   2.0000      -0.424372       -11.5478
  23   2.0000      -0.403607       -10.9827
  24   2.0000      -0.392090       -10.6693
  25   2.0000      -0.377736       -10.2787
  26   2.0000      -0.339662        -9.2427
  27   2.0000      -0.282617        -7.6904
  28   2.0000      -0.265707        -7.2302
  29   2.0000      -0.256435        -6.9779
  30   2.0000      -0.201169        -5.4741
  31   0.0000      -0.042740        -1.1630
  32   0.0000       0.017232         0.4689
  33   0.0000       0.039999         1.0884
  34   0.0000       0.053466         1.4549
  35   0.0000       0.067181         1.8281

MULLIKEN ATOMIC CHARGES
-----------------------
   0 C :    0.049236
   1 N :   -0.062384
   2 C :   -0.003482
   3 C :   -0.019490
   4 C :   -0.008668
   5 C :    0.115667
   6 C :   -0.119574
   7 C :   -0.097203
   8 C :   -0.011579
   9 H :    0.001517
  10 H :    0.118430
  11 H :   -0.022842
  12 H :   -0.017808
  13 H :    0.023814
  14 H :    0.025601
  15 H :    0.028763
Sum of atomic charges:   -0.0000000

LOEWDIN ATOMIC CHARGES
----------------------
   0 C :   -0.012027
   1 N :    0.093611
   2 C :   -0.040440
   3 C :   -0.049904
   4 C :   -0.078610
   5 C :   -0.051237
   6 C :   -0.045276
   7 C :   -0.044660
   8 C :   -0.032937
   9 H :    0.021546
  10 H :    0.090252
  11 H :    0.028333
  12 H :    0.025179
  13 H :    0.041811
  14 H :    0.027622
  15 H :    0.026739

  Mayer bond orders larger than 0.100000
B(  0-C ,  1-N ) :   1.2297 B(  0-C ,  2-C ) :   0.1070 B(  0-C ,  4-C ) :   1.4490
B(  0-C ,  9-H ) :   0.9870 B(  1-N ,  2-C ) :   1.2212 B(  1-N , 10-H ) :   0.9402
B(  2-C ,  3-C ) :   1.4504 B(  2-C ,  5-C ) :   0.8826 B(  3-C ,  4-C ) :   1.3131
B(  3-C , 11-H ) :   1.0100 B(  4-C , 12-H ) :   1.0000 B(  5-C ,  6-C ) :   2.2813
B(  5-C ,  8-C ) :   0.1057 B(  6-C ,  7-C ) :   1.0533 B(  7-C ,  8-C ) :   1.9086
B(  7-C , 13-H ) :   0.9502 B(  8-C , 14-H ) :   0.9579 B(  8-C , 15-H ) :   0.9488

Dispersion correction           -0.024643370
FINAL SINGLE POINT ENERGY      -363.495468214273

DIPOLE MOMENT
-------------
                                X             Y             Z
Electronic contribution:     -2.85140      -0.37441      -0.62851
Nuclear contribution   :      2.32541       0.86431       0.50093
                        -----------------------------------------
Total Dipole Moment    :     -0.52599       0.48990      -0.12758
                        -----------------------------------------
Magnitude (a.u.)       :      0.73003
Magnitude (Debye)      :      1.85559

Rotational constants in cm-1:     0.248129     0.022415     0.020610
Rotational constants in MHz :  7438.723633   671.995266   617.884580

                             ****ORCA TERMINATED NORMALLY****
TOTAL RUN TIME: 0 days 0 hours 7 minutes 55 seconds 464 msec
