                         Program Version 4.2.0 -  RELEASE  -
|  1> # ORCA input file
|  2> # SCF done        -27.873328194795          0.000736733073
|  3> ! B3LYP/G D3BJ Opt RIJCOSX def2-SVP def2/J
|  4> * xyz 0 1
|  5>    C       -1.21076        -1.40143        -0.00502
|  6>    S       -2.42144        -0.17412        -0.02681
|  7>    C       -1.26332         1.12654        -0.03604
|  8>    C       -1.69385         2.55368        -0.00055
|  9>    C       -1.78145         3.07767         1.43553
| 10>    C       -0.00864         0.59134        -0.00801
| 11>    C        0.03642        -0.84627         0.00312
| 12>    C        1.42011        -1.20425         0.01802
| 13>    C        2.12310        -0.04308         0.01442
| 14>    N        1.28336         1.04720         0.00120
| 15>    H       -1.50534        -2.43047         0.00136
| 16>    H       -2.67079         2.64852        -0.47752
| 17>    H       -0.97926         3.15850        -0.56634
| 18>    H       -2.52120         2.51078         1.99588
| 19>    H       -2.06963         4.12633         1.44000
| 20>    H       -0.82109         2.97715         1.93698
| 21>    H        1.82273        -2.19672         0.02846
| 22>    H        3.18763         0.10021         0.02261
| 23>    H        1.57437         2.00772        -0.00779
| 24> *
| 25>
| 26>                          ****END OF INPUT****
 Total Charge           Charge          ....    0
 Multiplicity           Mult            ....    1
 Number of Electrons    NEL             ....   80
Dispersion correction           -0.037173935
FINAL SINGLE POINT ENERGY      -762.854012270953
Dispersion correction            ... done
Dispersion correction           -0.036996783
FINAL SINGLE POINT ENERGY      -762.856899160690
Dispersion correction            ... done
Dispersion correction           -0.036972316
FINAL SINGLE POINT ENERGY      -762.857033252932
Dispersion correction            ... done
FINAL SINGLE POINT ENERGY      -762.857077563774
FINAL SINGLE POINT ENERGY      -762.857093359228
FINAL SINGLE POINT ENERGY      -762.857086861181
FINAL SINGLE POINT ENERGY      -762.857065436794
FINAL SINGLE POINT ENERGY      -762.856958335025
FINAL SINGLE POINT ENERGY      -762.856818245514
FINAL SINGLE POINT ENERGY      -762.856772727108
FINAL SINGLE POINT ENERGY      -762.856811608893
FINAL SINGLE POINT ENERGY      -762.856794869890
Dispersion correction            ... done
Dispersion correction           -0.036967238
FINAL SINGLE POINT ENERGY      -762.856800455211
Dispersion correction            ... done
Dispersion correction           -0.036969126
FINAL SINGLE POINT ENERGY      -762.856787458597
Dispersion correction            ... done
                    ***********************HURRAY********************

CARTESIAN COORDINATES (ANGSTROEM)
---------------------------------
  C     -1.201140   -1.374873    0.175142
  S     -2.364270   -0.091523    0.230458
  C     -1.169294    1.173273    0.062364
  C     -1.552854    2.623327    0.085438
  C     -2.078946    3.095415    1.448035
  C      0.070692    0.579847   -0.018978
  C      0.075811   -0.866412    0.036752
  C      1.458674   -1.277749   -0.074203
  C      2.200580   -0.129417   -0.182016
  N      1.385438    0.993775   -0.149069
  H     -1.532200   -2.409138    0.243708
  H     -2.311453    2.827846   -0.690305
  H     -0.669989    3.218902   -0.205204
  H     -2.957150    2.504227    1.749558
  H     -2.378143    4.155635    1.419465
  H     -1.313392    2.965066    2.228435
  H      1.853847   -2.290574   -0.071838
  H      3.279002   -0.014898   -0.285660
  H      1.705738    1.946571   -0.232581

 Multiplicity           Mult            ....    1
 Number of Electrons    NEL             ....   80
 Basis Dimension        Dim             ....  189

ORBITAL ENERGIES
----------------

  NO   OCC          E(Eh)            E(eV)
   0   2.0000     -88.859977     -2418.0029
   1   2.0000     -14.365081      -390.8937
   2   2.0000     -10.220553      -278.1154
   3   2.0000     -10.212229      -277.8889
   4   2.0000     -10.201359      -277.5931
   5   2.0000     -10.200263      -277.5633
   6   2.0000     -10.195295      -277.4281
   7   2.0000     -10.183139      -277.0973
   8   2.0000     -10.181295      -277.0471
   9   2.0000     -10.173700      -276.8404
  10   2.0000      -7.954338      -216.4485
  11   2.0000      -5.922543      -161.1606
  12   2.0000      -5.918398      -161.0478
  13   2.0000      -5.915797      -160.9770
  14   2.0000      -0.964170       -26.2364
  15   2.0000      -0.856260       -23.3000
  16   2.0000      -0.783595       -21.3227
  17   2.0000      -0.752187       -20.4681
  18   2.0000      -0.712192       -19.3797
  19   2.0000      -0.680767       -18.5246
  20   2.0000      -0.623201       -16.9582
  21   2.0000      -0.587664       -15.9911
  22   2.0000      -0.577610       -15.7176
  23   2.0000      -0.542183       -14.7535
  24   2.0000      -0.496990       -13.5238
  25   2.0000      -0.458159       -12.4671
  26   2.0000      -0.442993       -12.0544
  27   2.0000      -0.430824       -11.7233
  28   2.0000      -0.422678       -11.5016
  29   2.0000      -0.417099       -11.3498
  30   2.0000      -0.402225       -10.9451
  31   2.0000      -0.388839       -10.5809
  32   2.0000      -0.370872       -10.0920
  33   2.0000      -0.355888        -9.6842
  34   2.0000      -0.343029        -9.3343
  35   2.0000      -0.333209        -9.0671
  36   2.0000      -0.324727        -8.8363
  37   2.0000      -0.268224        -7.2987
  38   2.0000      -0.222875        -6.0647
  39   2.0000      -0.184469        -5.0197
  40   0.0000      -0.020561        -0.5595
  41   0.0000       0.033996         0.9251
  42   0.0000       0.052720         1.4346
  43   0.0000       0.058555         1.5934
  44   0.0000       0.079919         2.1747

MULLIKEN ATOMIC CHARGES
-----------------------
   0 C :   -0.168708
   1 S :    0.079857
   2 C :   -0.306877
   3 C :    0.090977
   4 C :    0.005743
   5 C :    0.121441
   6 C :    0.113603
   7 C :   -0.049530
   8 C :    0.076139
   9 N :   -0.094244
  10 H :    0.010063
  11 H :    0.010108
  12 H :   -0.013130
  13 H :    0.015540
  14 H :    0.009849
  15 H :    0.017910
  16 H :   -0.029174
  17 H :   -0.000993
  18 H :    0.111425
Sum of atomic charges:    0.0000000

LOEWDIN ATOMIC CHARGES
----------------------
   0 C :   -0.220732
   1 S :    0.419009
   2 C :   -0.228729
   3 C :   -0.042749
   4 C :   -0.054541
   5 C :   -0.024002
   6 C :   -0.068324
   7 C :   -0.094834
   8 C :    0.016661
   9 N :    0.031925
  10 H :    0.020282
  11 H :    0.029771
  12 H :    0.024321
  13 H :    0.021077
  14 H :    0.020914
  15 H :    0.024363
  16 H :    0.023851
  17 H :    0.021106
  18 H :    0.080632

  Mayer bond orders larger than 0.100000
B(  0-C ,  1-S ) :   1.1553 B(  0-C ,  2-C ) :   0.1278 B(  0-C ,  6-C ) :   1.4332
B(  0-C , 10-H ) :   0.9708 B(  1-S ,  2-C ) :   1.1176 B(  2-C ,  3-C ) :   1.0735
B(  2-C ,  5-C ) :   1.4927 B(  3-C ,  4-C ) :   1.1072 B(  3-C , 11-H ) :   0.9134
B(  3-C , 12-H ) :   0.9302 B(  4-C , 13-H ) :   0.9692 B(  4-C , 14-H ) :   0.9629
B(  4-C , 15-H ) :   0.9688 B(  5-C ,  6-C ) :   1.2203 B(  5-C ,  9-N ) :   1.1449
B(  6-C ,  7-C ) :   1.1447 B(  7-C ,  8-C ) :   1.5750 B(  7-C , 16-H ) :   1.0095
B(  8-C ,  9-N ) :   1.1426 B(  8-C , 17-H ) :   0.9817 B(  9-N , 18-H ) :   0.9451

Dispersion correction           -0.036969228
FINAL SINGLE POINT ENERGY      -762.856789996464

DIPOLE MOMENT
-------------
                                X             Y             Z
Electronic contribution:     -0.24864      -7.49365      -2.41020
Nuclear contribution   :      0.87110       8.22120       2.33792
                        -----------------------------------------
Total Dipole Moment    :      0.62246       0.72755      -0.07228
                        -----------------------------------------
Magnitude (a.u.)       :      0.96021
Magnitude (Debye)      :      2.44067

Rotational constants in cm-1:     0.065037     0.033239     0.023128
Rotational constants in MHz :  1949.747301   996.488939   693.359990

                             ****ORCA TERMINATED NORMALLY****
TOTAL RUN TIME: 0 days 0 hours 14 minutes 20 seconds 203 msec
