                         Program Version 4.2.0 -  RELEASE  -
|  1> # ORCA input file
|  2> # SCF done        -26.393734037350          0.000725096755
|  3> ! B3LYP/G D3BJ Opt RIJCOSX def2-SVP def2/J
|  4> * xyz 0 1
|  5>    C        1.78152         0.68368        -0.02502
|  6>    O        1.82872        -0.65757        -0.16004
|  7>    C        0.58845        -1.11860        -0.05988
|  8>    C       -0.30405        -0.09002         0.14376
|  9>    C        0.49300         1.10546         0.16603
| 10>    O        0.13801         2.39393         0.33191
| 11>    C       -1.23530         2.66959         0.51313
| 12>    C       -1.69057        -0.24216         0.29089
| 13>    N       -2.82253        -0.38859         0.40738
| 14>    H        2.69823         1.23204        -0.07865
| 15>    H        0.42464        -2.17501        -0.14264
| 16>    H       -1.30667         3.75085         0.61404
| 17>    H       -1.62388         2.19139         1.41757
| 18>    H       -1.82708         2.34255        -0.34728
| 19> *
| 20>
| 21>                          ****END OF INPUT****
 Total Charge           Charge          ....    0
 Multiplicity           Mult            ....    1
 Number of Electrons    NEL             ....   64
Dispersion correction           -0.022922326
FINAL SINGLE POINT ENERGY      -436.478059857208
Dispersion correction            ... done
Dispersion correction           -0.022719220
FINAL SINGLE POINT ENERGY      -436.480211041609
Dispersion correction            ... done
Dispersion correction           -0.022767031
FINAL SINGLE POINT ENERGY      -436.480292092622
Dispersion correction            ... done
FINAL SINGLE POINT ENERGY      -436.480317040551
FINAL SINGLE POINT ENERGY      -436.480315291813
FINAL SINGLE POINT ENERGY      -436.480285462398
FINAL SINGLE POINT ENERGY      -436.480252482716
FINAL SINGLE POINT ENERGY      -436.480268304530
FINAL SINGLE POINT ENERGY      -436.480281860847
Dispersion correction            ... done
Dispersion correction           -0.022776043
FINAL SINGLE POINT ENERGY      -436.480281509796
Dispersion correction            ... done
Dispersion correction           -0.022776707
FINAL SINGLE POINT ENERGY      -436.480280700243
Dispersion correction            ... done
                    ***********************HURRAY********************

CARTESIAN COORDINATES (ANGSTROEM)
---------------------------------
  C      1.787454    0.699987   -0.021591
  O      1.838482   -0.663968   -0.093838
  C      0.594328   -1.138901   -0.014539
  C     -0.312420   -0.106440    0.104620
  C      0.484380    1.111547    0.096858
  O      0.106566    2.397098    0.162940
  C     -1.229091    2.694599    0.543164
  C     -1.719905   -0.273982    0.204031
  N     -2.868955   -0.422889    0.285540
  H      2.725965    1.241241   -0.073661
  H      0.460553   -2.216778   -0.055925
  H     -1.282846    3.785010    0.656188
  H     -1.491580    2.217368    1.502142
  H     -1.950441    2.373647   -0.224728

 Multiplicity           Mult            ....    1
 Number of Electrons    NEL             ....   64
 Basis Dimension        Dim             ....  151

ORBITAL ENERGIES
----------------

  NO   OCC          E(Eh)            E(eV)
   0   2.0000     -19.232190      -523.3345
   1   2.0000     -19.183819      -522.0183
   2   2.0000     -14.333074      -390.0228
   3   2.0000     -10.276417      -279.6355
   4   2.0000     -10.274343      -279.5791
   5   2.0000     -10.255779      -279.0739
   6   2.0000     -10.250603      -278.9331
   7   2.0000     -10.240547      -278.6595
   8   2.0000     -10.238172      -278.5948
   9   2.0000      -1.137772       -30.9603
  10   2.0000      -1.078314       -29.3424
  11   2.0000      -0.904394       -24.6098
  12   2.0000      -0.829665       -22.5763
  13   2.0000      -0.780824       -21.2473
  14   2.0000      -0.720392       -19.6029
  15   2.0000      -0.657742       -17.8981
  16   2.0000      -0.604379       -16.4460
  17   2.0000      -0.583025       -15.8649
  18   2.0000      -0.520366       -14.1599
  19   2.0000      -0.501564       -13.6482
  20   2.0000      -0.498801       -13.5731
  21   2.0000      -0.471407       -12.8276
  22   2.0000      -0.465008       -12.6535
  23   2.0000      -0.450398       -12.2560
  24   2.0000      -0.402353       -10.9486
  25   2.0000      -0.381901       -10.3920
  26   2.0000      -0.374709       -10.1963
  27   2.0000      -0.366612        -9.9760
  28   2.0000      -0.363859        -9.9011
  29   2.0000      -0.328746        -8.9456
  30   2.0000      -0.276720        -7.5299
  31   2.0000      -0.239587        -6.5195
  32   0.0000      -0.040232        -1.0948
  33   0.0000       0.013333         0.3628
  34   0.0000       0.017561         0.4779
  35   0.0000       0.067387         1.8337
  36   0.0000       0.078822         2.1449

MULLIKEN ATOMIC CHARGES
-----------------------
   0 C :    0.044430
   1 O :   -0.182376
   2 C :    0.123117
   3 C :   -0.172167
   4 C :    0.224855
   5 O :   -0.302390
   6 C :    0.178483
   7 C :   -0.157023
   8 N :    0.087399
   9 H :    0.012463
  10 H :    0.027255
  11 H :    0.038939
  12 H :    0.031762
  13 H :    0.045252
Sum of atomic charges:   -0.0000000

LOEWDIN ATOMIC CHARGES
----------------------
   0 C :   -0.001355
   1 O :    0.030769
   2 C :    0.072999
   3 C :   -0.145205
   4 C :    0.019896
   5 O :   -0.096703
   6 C :    0.087473
   7 C :   -0.033618
   8 N :   -0.072410
   9 H :    0.029327
  10 H :    0.035206
  11 H :    0.030226
  12 H :    0.020463
  13 H :    0.022933

  Mayer bond orders larger than 0.100000
B(  0-C ,  1-O ) :   1.0844 B(  0-C ,  4-C ) :   1.5054 B(  0-C ,  9-H ) :   1.0041
B(  1-O ,  2-C ) :   1.2146 B(  2-C ,  3-C ) :   1.4505 B(  2-C , 10-H ) :   1.0118
B(  3-C ,  4-C ) :   1.1870 B(  3-C ,  7-C ) :   1.1375 B(  4-C ,  5-O ) :   1.1814
B(  5-O ,  6-C ) :   0.9350 B(  6-C , 11-H ) :   0.9752 B(  6-C , 12-H ) :   0.9655
B(  6-C , 13-H ) :   0.9664 B(  7-C ,  8-N ) :   2.9780

Dispersion correction           -0.022777376
FINAL SINGLE POINT ENERGY      -436.480280855653

DIPOLE MOMENT
-------------
                                X             Y             Z
Electronic contribution:      1.69367      -4.14748      -0.93865
Nuclear contribution   :     -0.84046       4.46571       1.00855
                        -----------------------------------------
Total Dipole Moment    :      0.85322       0.31823       0.06990
                        -----------------------------------------
Magnitude (a.u.)       :      0.91331
Magnitude (Debye)      :      2.32145

Rotational constants in cm-1:     0.076951     0.056998     0.033019
Rotational constants in MHz :  2306.921109  1708.770493   989.881589

                             ****ORCA TERMINATED NORMALLY****
TOTAL RUN TIME: 0 days 0 hours 6 minutes 37 seconds 76 msec
