                         Program Version 4.2.0 -  RELEASE  -
|  1> # ORCA input file
|  2> # SCF done        -13.714378101651          0.000344444133
|  3> ! B3LYP/G D3BJ Opt RIJCOSX def2-SVP def2/J
|  4> * xyz 0 1
|  5>    C        0.62539         1.01171        -0.00351
|  6>    C        1.18693        -0.20385         0.00397
|  7>    C        0.11706        -1.24533         0.00894
|  8>    C       -1.13308        -0.42899         0.00432
|  9>    C       -0.81576         0.87183        -0.00413
| 10>    H        1.13531         1.95874        -0.00936
| 11>    H        2.23487        -0.44179         0.00577
| 12>    H        0.17953        -1.88768         0.89027
| 13>    H        0.18017        -1.89705        -0.86551
| 14>    H       -2.11572        -0.86396         0.00677
| 15>    H       -1.49828         1.70312        -0.01012
| 16> *
| 17>
| 18>                          ****END OF INPUT****
 Total Charge           Charge          ....    0
 Multiplicity           Mult            ....    1
 Number of Electrons    NEL             ....   36
Dispersion correction           -0.014903998
FINAL SINGLE POINT ENERGY      -193.976640917129
Dispersion correction            ... done
Dispersion correction           -0.014847500
FINAL SINGLE POINT ENERGY      -193.978653450722
Dispersion correction            ... done
Dispersion correction           -0.014841638
FINAL SINGLE POINT ENERGY      -193.978708446071
Dispersion correction            ... done
Dispersion correction           -0.014839339
FINAL SINGLE POINT ENERGY      -193.978726329107
Dispersion correction            ... done
Dispersion correction           -0.014838394
FINAL SINGLE POINT ENERGY      -193.978734376547
Dispersion correction            ... done
                    ***********************HURRAY********************

CARTESIAN COORDINATES (ANGSTROEM)
---------------------------------
  C      0.635040    1.022215   -0.003893
  C      1.201634   -0.206482    0.003606
  C      0.116859   -1.246166    0.009126
  C     -1.148601   -0.433986    0.003665
  C     -0.827438    0.880229   -0.003657
  H      1.162802    1.977514   -0.009488
  H      2.267099   -0.441285    0.005267
  H      0.184618   -1.907988    0.894438
  H      0.185737   -1.918555   -0.868135
  H     -2.151003   -0.863860    0.005537
  H     -1.530325    1.715113   -0.009055

 Multiplicity           Mult            ....    1
 Number of Electrons    NEL             ....   36
 Basis Dimension        Dim             ....  100

ORBITAL ENERGIES
----------------

  NO   OCC          E(Eh)            E(eV)
   0   2.0000     -10.193532      -277.3801
   1   2.0000     -10.183431      -277.1052
   2   2.0000     -10.183167      -277.0981
   3   2.0000     -10.182356      -277.0760
   4   2.0000     -10.182172      -277.0710
   5   2.0000      -0.847728       -23.0679
   6   2.0000      -0.695004       -18.9120
   7   2.0000      -0.694389       -18.8953
   8   2.0000      -0.544563       -14.8183
   9   2.0000      -0.523954       -14.2575
  10   2.0000      -0.510635       -13.8951
  11   2.0000      -0.434584       -11.8256
  12   2.0000      -0.397360       -10.8127
  13   2.0000      -0.376103       -10.2343
  14   2.0000      -0.360531        -9.8105
  15   2.0000      -0.360141        -9.7999
  16   2.0000      -0.301330        -8.1996
  17   2.0000      -0.221154        -6.0179
  18   0.0000      -0.021797        -0.5931
  19   0.0000       0.070833         1.9275
  20   0.0000       0.074431         2.0254
  21   0.0000       0.100595         2.7373
  22   0.0000       0.116820         3.1788

MULLIKEN ATOMIC CHARGES
-----------------------
   0 C :    0.017622
   1 C :   -0.086319
   2 C :    0.099980
   3 C :   -0.075349
   4 C :    0.009033
   5 H :   -0.017036
   6 H :   -0.005204
   7 H :    0.039462
   8 H :    0.039723
   9 H :   -0.007818
  10 H :   -0.014094
Sum of atomic charges:   -0.0000000

LOEWDIN ATOMIC CHARGES
----------------------
   0 C :   -0.037250
   1 C :   -0.039243
   2 C :   -0.030925
   3 C :   -0.037898
   4 C :   -0.038215
   5 H :    0.020752
   6 H :    0.020167
   7 H :    0.050803
   8 H :    0.050834
   9 H :    0.019655
  10 H :    0.021319

  Mayer bond orders larger than 0.100000
B(  0-C ,  1-C ) :   1.7661 B(  0-C ,  4-C ) :   1.0849 B(  0-C ,  5-H ) :   0.9976
B(  1-C ,  2-C ) :   1.0486 B(  1-C ,  6-H ) :   0.9903 B(  2-C ,  3-C ) :   1.0478
B(  2-C ,  7-H ) :   0.9046 B(  2-C ,  8-H ) :   0.9047 B(  3-C ,  4-C ) :   1.7663
B(  3-C ,  9-H ) :   0.9910 B(  4-C , 10-H ) :   0.9973

Dispersion correction           -0.014838446
FINAL SINGLE POINT ENERGY      -193.978735883990

DIPOLE MOMENT
-------------
                                X             Y             Z
Electronic contribution:     -0.10542       1.04399      -0.00586
Nuclear contribution   :      0.12439      -1.24274       0.00677
                        -----------------------------------------
Total Dipole Moment    :      0.01896      -0.19875       0.00092
                        -----------------------------------------
Magnitude (a.u.)       :      0.19965
Magnitude (Debye)      :      0.50748

Rotational constants in cm-1:     0.280717     0.273516     0.142194
Rotational constants in MHz :  8415.674817  8199.811246  4262.877690

                             ****ORCA TERMINATED NORMALLY****
TOTAL RUN TIME: 0 days 0 hours 1 minutes 43 seconds 169 msec
