                         Program Version 4.2.0 -  RELEASE  -
|  1> # ORCA input file
|  2> # SCF done        -37.763085125546          0.000350465744
|  3> ! B3LYP/G D3BJ Opt RIJCOSX def2-SVP def2/J
|  4> * xyz 0 1
|  5>    C       -1.62577        -1.13651         0.27379
|  6>    S       -2.74845         0.15330         0.33236
|  7>    C       -1.52657         1.32042         0.14478
|  8>    C       -0.28128         0.74455         0.05091
|  9>    C       -0.33090        -0.69404         0.11155
| 10>    C        0.89430        -1.42885         0.04777
| 11>    C        0.96316        -2.90990         0.02471
| 12>    O        1.87240        -3.53712         0.49602
| 13>    O       -0.04887        -3.54304        -0.60908
| 14>    C        2.07422        -0.73163        -0.00356
| 15>    C        2.12117         0.67194        -0.06473
| 16>    C        0.97120         1.41497        -0.05813
| 17>    O        0.94837         2.76468        -0.13815
| 18>    H       -1.98754        -2.13505         0.42047
| 19>    H       -1.76221         2.36471         0.12875
| 20>    H       -0.65859        -2.92096        -1.02720
| 21>    H        2.99697        -1.29105        -0.02252
| 22>    H        3.08122         1.16480        -0.12824
| 23>    H        1.84967         3.10754        -0.19316
| 24> *
| 25>
| 26>                          ****END OF INPUT****
 Total Charge           Charge          ....    0
 Multiplicity           Mult            ....    1
 Number of Electrons    NEL             ....  100
Dispersion correction           -0.043921395
FINAL SINGLE POINT ENERGY      -969.947638633822
Dispersion correction            ... done
Dispersion correction           -0.043824846
FINAL SINGLE POINT ENERGY      -969.949949751536
Dispersion correction            ... done
Dispersion correction           -0.043786749
FINAL SINGLE POINT ENERGY      -969.949929965012
Dispersion correction            ... done
FINAL SINGLE POINT ENERGY      -969.950103959355
FINAL SINGLE POINT ENERGY      -969.950165328928
Dispersion correction            ... done
Dispersion correction           -0.043826745
FINAL SINGLE POINT ENERGY      -969.950138290208
Dispersion correction            ... done
Dispersion correction           -0.043829715
FINAL SINGLE POINT ENERGY      -969.950150003806
Dispersion correction            ... done
                    ***********************HURRAY********************

CARTESIAN COORDINATES (ANGSTROEM)
---------------------------------
  C     -1.645763   -1.147004    0.265899
  S     -2.760759    0.159967    0.320307
  C     -1.538645    1.340329    0.143215
  C     -0.285177    0.751487    0.050710
  C     -0.332711   -0.699121    0.113980
  C      0.902686   -1.441946    0.055530
  C      0.977708   -2.931771    0.002426
  O      1.913821   -3.573332    0.401886
  O     -0.081556   -3.551719   -0.582017
  C      2.087702   -0.738377    0.019787
  C      2.138112    0.679741   -0.042016
  C      0.977365    1.423132   -0.056499
  O      0.934232    2.768294   -0.156339
  H     -1.999758   -2.163151    0.426468
  H     -1.775065    2.401585    0.116763
  H     -0.668066   -2.888798   -0.976801
  H      3.017487   -1.310122    0.010853
  H      3.107403    1.182230   -0.102841
  H      1.833485    3.117334   -0.224970

 Multiplicity           Mult            ....    1
 Number of Electrons    NEL             ....  100
 Basis Dimension        Dim             ....  216

ORBITAL ENERGIES
----------------

  NO   OCC          E(Eh)            E(eV)
   0   2.0000     -88.902874     -2419.1702
   1   2.0000     -19.194209      -522.3010
   2   2.0000     -19.171990      -521.6964
   3   2.0000     -19.108598      -519.9714
   4   2.0000     -10.310024      -280.5500
   5   2.0000     -10.278622      -279.6955
   6   2.0000     -10.232897      -278.4513
   7   2.0000     -10.228900      -278.3425
   8   2.0000     -10.224569      -278.2247
   9   2.0000     -10.218097      -278.0486
  10   2.0000     -10.212554      -277.8977
  11   2.0000     -10.206339      -277.7286
  12   2.0000     -10.204889      -277.6892
  13   2.0000      -7.997542      -217.6242
  14   2.0000      -5.965261      -162.3230
  15   2.0000      -5.961051      -162.2084
  16   2.0000      -5.959922      -162.1777
  17   2.0000      -1.082154       -29.4469
  18   2.0000      -1.081561       -29.4308
  19   2.0000      -0.999662       -27.2022
  20   2.0000      -0.909004       -24.7352
  21   2.0000      -0.845019       -22.9941
  22   2.0000      -0.780298       -21.2330
  23   2.0000      -0.754182       -20.5223
  24   2.0000      -0.720361       -19.6020
  25   2.0000      -0.658562       -17.9204
  26   2.0000      -0.624428       -16.9916
  27   2.0000      -0.605133       -16.4665
  28   2.0000      -0.597808       -16.2672
  29   2.0000      -0.560985       -15.2652
  30   2.0000      -0.549992       -14.9660
  31   2.0000      -0.505965       -13.7680
  32   2.0000      -0.479769       -13.0552
  33   2.0000      -0.452797       -12.3212
  34   2.0000      -0.452730       -12.3194
  35   2.0000      -0.442387       -12.0380
  36   2.0000      -0.439147       -11.9498
  37   2.0000      -0.428423       -11.6580
  38   2.0000      -0.412876       -11.2349
  39   2.0000      -0.410910       -11.1814
  40   2.0000      -0.400122       -10.8879
  41   2.0000      -0.375347       -10.2137
  42   2.0000      -0.371816       -10.1176
  43   2.0000      -0.367142        -9.9904
  44   2.0000      -0.344172        -9.3654
  45   2.0000      -0.312769        -8.5109
  46   2.0000      -0.285035        -7.7562
  47   2.0000      -0.272416        -7.4128
  48   2.0000      -0.269052        -7.3213
  49   2.0000      -0.217654        -5.9227
  50   0.0000      -0.078376        -2.1327
  51   0.0000      -0.017213        -0.4684
  52   0.0000       0.001887         0.0514
  53   0.0000       0.025815         0.7025
  54   0.0000       0.034485         0.9384

MULLIKEN ATOMIC CHARGES
-----------------------
   0 C :   -0.211735
   1 S :    0.159584
   2 C :   -0.138508
   3 C :    0.049965
   4 C :    0.090584
   5 C :   -0.046722
   6 C :    0.155842
   7 O :   -0.192749
   8 O :   -0.173252
   9 C :    0.002531
  10 C :   -0.085088
  11 C :    0.169299
  12 O :   -0.171524
  13 H :    0.034518
  14 H :    0.034622
  15 H :    0.170490
  16 H :    0.001962
  17 H :   -0.035240
  18 H :    0.185418
Sum of atomic charges:   -0.0000000

LOEWDIN ATOMIC CHARGES
----------------------
   0 C :   -0.237911
   1 S :    0.499600
   2 C :   -0.185525
   3 C :   -0.070145
   4 C :   -0.043330
   5 C :   -0.107903
   6 C :    0.080996
   7 O :   -0.164167
   8 O :   -0.041271
   9 C :    0.028113
  10 C :   -0.101491
  11 C :    0.070627
  12 O :   -0.032391
  13 H :    0.025207
  14 H :    0.033043
  15 H :    0.079656
  16 H :    0.039934
  17 H :    0.026604
  18 H :    0.100355

  Mayer bond orders larger than 0.100000
B(  0-C ,  1-S ) :   1.1910 B(  0-C ,  2-C ) :   0.1079 B(  0-C ,  4-C ) :   1.4123
B(  0-C , 13-H ) :   0.9497 B(  1-S ,  2-C ) :   1.2244 B(  2-C ,  3-C ) :   1.4032
B(  2-C , 14-H ) :   0.9675 B(  3-C ,  4-C ) :   1.2334 B(  3-C , 11-C ) :   1.1710
B(  4-C ,  5-C ) :   1.1399 B(  5-C ,  6-C ) :   0.9186 B(  5-C ,  9-C ) :   1.5426
B(  6-C ,  7-O ) :   2.1561 B(  6-C ,  8-O ) :   1.1952 B(  8-O , 15-H ) :   0.9478
B(  9-C , 10-C ) :   1.1871 B(  9-C , 16-H ) :   0.9801 B( 10-C , 11-C ) :   1.4258
B( 10-C , 17-H ) :   0.9874 B( 11-C , 12-O ) :   1.2660 B( 12-O , 18-H ) :   0.9556

Dispersion correction           -0.043830965
FINAL SINGLE POINT ENERGY      -969.950152918326

DIPOLE MOMENT
-------------
                                X             Y             Z
Electronic contribution:     -3.90715      -0.99087       0.63663
Nuclear contribution   :      3.45658       3.08071      -1.03145
                        -----------------------------------------
Total Dipole Moment    :     -0.45057       2.08984      -0.39483
                        -----------------------------------------
Magnitude (a.u.)       :      2.17402
Magnitude (Debye)      :      5.52591

Rotational constants in cm-1:     0.032853     0.021331     0.013181
Rotational constants in MHz :   984.910497   639.501355   395.168760

                             ****ORCA TERMINATED NORMALLY****
TOTAL RUN TIME: 0 days 0 hours 12 minutes 27 seconds 960 msec
