                         Program Version 4.2.0 -  RELEASE  -
|  1> # ORCA input file
|  2> # SCF done        -15.773249392162          0.000474639882
|  3> ! B3LYP/G D3BJ Opt RIJCOSX def2-SVP def2/J
|  4> * xyz 0 1
|  5>    C        1.09339         0.05623         0.02403
|  6>    C        0.35082        -0.83099         0.67718
|  7>    C        2.50130         0.03614         0.00377
|  8>    C        3.70957         0.03652        -0.03243
|  9>    C        5.11748         0.05703        -0.05229
| 10>    C        5.86005        -0.81656        -0.72356
| 11>    H        0.63591         0.86278        -0.53800
| 12>    H        0.79533        -1.63376         1.24154
| 13>    H       -0.72433        -0.77954         0.66987
| 14>    H        5.57496         0.85182         0.52625
| 15>    H        5.41555        -1.60755        -1.30432
| 16>    H        6.93520        -0.76529        -0.71517
| 17> *
| 18>
| 19>                          ****END OF INPUT****
 Total Charge           Charge          ....    0
 Multiplicity           Mult            ....    1
 Number of Electrons    NEL             ....   42
Dispersion correction           -0.014758116
FINAL SINGLE POINT ENERGY      -231.988618910411
Dispersion correction            ... done
Dispersion correction           -0.014616015
FINAL SINGLE POINT ENERGY      -231.990956006855
Dispersion correction            ... done
Dispersion correction           -0.014593341
FINAL SINGLE POINT ENERGY      -231.991102017953
Dispersion correction            ... done
FINAL SINGLE POINT ENERGY      -231.991283384343
FINAL SINGLE POINT ENERGY      -231.991459667275
FINAL SINGLE POINT ENERGY      -231.991653498438
FINAL SINGLE POINT ENERGY      -231.991708304018
FINAL SINGLE POINT ENERGY      -231.992059557507
FINAL SINGLE POINT ENERGY      -231.992252818169
FINAL SINGLE POINT ENERGY      -231.992194294350
FINAL SINGLE POINT ENERGY      -231.992238878334
FINAL SINGLE POINT ENERGY      -231.992310828052
FINAL SINGLE POINT ENERGY      -231.992365625008
FINAL SINGLE POINT ENERGY      -231.992342551381
Dispersion correction            ... done
Dispersion correction           -0.014634131
FINAL SINGLE POINT ENERGY      -231.992328902658
Dispersion correction            ... done
Dispersion correction           -0.014636086
FINAL SINGLE POINT ENERGY      -231.992321719715
Dispersion correction            ... done
                    ***********************HURRAY********************

CARTESIAN COORDINATES (ANGSTROEM)
---------------------------------
  C      1.103582    0.167213    0.324490
  C      0.355713   -0.947696    0.414688
  C      2.503939    0.172844    0.089884
  C      3.706939    0.175050   -0.115601
  C      5.107234    0.174134   -0.350564
  C      5.855180   -0.938666   -0.463430
  H      0.622370    1.146317    0.440861
  H      0.802140   -1.939672    0.308709
  H     -0.718540   -0.889157    0.604784
  H      5.588651    1.155382   -0.446300
  H      5.408634   -1.932628   -0.378159
  H      6.929388   -0.876290   -0.652492

 Multiplicity           Mult            ....    1
 Number of Electrons    NEL             ....   42
 Basis Dimension        Dim             ....  114

ORBITAL ENERGIES
----------------

  NO   OCC          E(Eh)            E(eV)
   0   2.0000     -10.216410      -278.0026
   1   2.0000     -10.216236      -277.9979
   2   2.0000     -10.201188      -277.5884
   3   2.0000     -10.201162      -277.5877
   4   2.0000     -10.192459      -277.3509
   5   2.0000     -10.190477      -277.2970
   6   2.0000      -0.805214       -21.9110
   7   2.0000      -0.784401       -21.3446
   8   2.0000      -0.716010       -19.4836
   9   2.0000      -0.626930       -17.0596
  10   2.0000      -0.590632       -16.0719
  11   2.0000      -0.507411       -13.8074
  12   2.0000      -0.494072       -13.4444
  13   2.0000      -0.449401       -12.2288
  14   2.0000      -0.449202       -12.2234
  15   2.0000      -0.385029       -10.4772
  16   2.0000      -0.381020       -10.3681
  17   2.0000      -0.355337        -9.6692
  18   2.0000      -0.305327        -8.3084
  19   2.0000      -0.272132        -7.4051
  20   2.0000      -0.228202        -6.2097
  21   0.0000      -0.058357        -1.5880
  22   0.0000       0.017099         0.4653
  23   0.0000       0.030766         0.8372
  24   0.0000       0.082672         2.2496
  25   0.0000       0.096532         2.6268

MULLIKEN ATOMIC CHARGES
-----------------------
   0 C :   -0.086769
   1 C :   -0.007300
   2 C :    0.003129
   3 C :    0.003531
   4 C :   -0.086834
   5 C :   -0.007219
   6 H :    0.027371
   7 H :    0.029879
   8 H :    0.033456
   9 H :    0.027427
  10 H :    0.029912
  11 H :    0.033419
Sum of atomic charges:   -0.0000000

LOEWDIN ATOMIC CHARGES
----------------------
   0 C :   -0.041917
   1 C :   -0.018642
   2 C :   -0.038373
   3 C :   -0.038361
   4 C :   -0.041945
   5 C :   -0.018631
   6 H :    0.041667
   7 H :    0.029060
   8 H :    0.028205
   9 H :    0.041666
  10 H :    0.029066
  11 H :    0.028205

  Mayer bond orders larger than 0.100000
B(  0-C ,  1-C ) :   1.9101 B(  0-C ,  2-C ) :   1.0424 B(  0-C ,  6-H ) :   0.9548
B(  1-C ,  3-C ) :   0.1060 B(  1-C ,  7-H ) :   0.9589 B(  1-C ,  8-H ) :   0.9499
B(  2-C ,  3-C ) :   2.3617 B(  2-C ,  5-C ) :   0.1060 B(  3-C ,  4-C ) :   1.0420
B(  4-C ,  5-C ) :   1.9103 B(  4-C ,  9-H ) :   0.9550 B(  5-C , 10-H ) :   0.9589
B(  5-C , 11-H ) :   0.9499

Dispersion correction           -0.014638513
FINAL SINGLE POINT ENERGY      -231.992313107223

DIPOLE MOMENT
-------------
                                X             Y             Z
Electronic contribution:     -0.00004       1.79494       0.01844
Nuclear contribution   :      0.00005      -1.85132      -0.01910
                        -----------------------------------------
Total Dipole Moment    :      0.00001      -0.05638      -0.00065
                        -----------------------------------------
Magnitude (a.u.)       :      0.05639
Magnitude (Debye)      :      0.14333

Rotational constants in cm-1:     0.551285     0.048408     0.044503
Rotational constants in MHz : 16527.094745  1451.223046  1334.152713

                             ****ORCA TERMINATED NORMALLY****
TOTAL RUN TIME: 0 days 0 hours 5 minutes 33 seconds 293 msec
