                         Program Version 4.2.0 -  RELEASE  -
|  1> # ORCA input file
|  2> # SCF done        -36.966967372313          0.000854847984
|  3> ! B3LYP/G D3BJ Opt RIJCOSX def2-SVP def2/J
|  4> * xyz 0 1
|  5>    C       -1.73468         1.24052        -0.22066
|  6>    S       -2.90613         0.00291        -0.14322
|  7>    C       -1.69933        -1.21004         0.16134
|  8>    C       -0.44039        -0.63905         0.18930
|  9>    C       -0.47072         0.75929        -0.02602
| 10>    S        0.88935         1.87975        -0.01401
| 11>    C        2.38700         0.94934         0.01825
| 12>    O        3.41634         1.56548         0.01599
| 13>    C        2.43108        -0.56507         0.06689
| 14>    O        3.48670        -1.12484        -0.04430
| 15>    S        1.02653        -1.58841         0.39735
| 16>    C       -2.15532        -2.56599         0.32507
| 17>    C       -1.44280        -3.61378         0.73032
| 18>    H       -2.01677         2.25795        -0.39903
| 19>    H       -3.20602        -2.69390         0.09615
| 20>    H       -0.40352        -3.54941         0.99594
| 21>    H       -1.89927        -4.58445         0.81205
| 22> *
| 23>
| 24>                          ****END OF INPUT****
 Total Charge           Charge          ....    0
 Multiplicity           Mult            ....    1
 Number of Electrons    NEL             ....  116
Dispersion correction           -0.049648541
FINAL SINGLE POINT ENERGY     -1651.607633800429
Dispersion correction            ... done
Dispersion correction           -0.049352647
FINAL SINGLE POINT ENERGY     -1651.610139932390
Dispersion correction            ... done
Dispersion correction           -0.049267382
FINAL SINGLE POINT ENERGY     -1651.609372021291
Dispersion correction            ... done
FINAL SINGLE POINT ENERGY     -1651.610465089048
FINAL SINGLE POINT ENERGY     -1651.610162127289
FINAL SINGLE POINT ENERGY     -1651.610486033400
FINAL SINGLE POINT ENERGY     -1651.610459191671
FINAL SINGLE POINT ENERGY     -1651.610535661060
FINAL SINGLE POINT ENERGY     -1651.610565397230
FINAL SINGLE POINT ENERGY     -1651.610546628116
Dispersion correction            ... done
Dispersion correction           -0.049427729
FINAL SINGLE POINT ENERGY     -1651.610547145976
Dispersion correction            ... done
Dispersion correction           -0.049434748
FINAL SINGLE POINT ENERGY     -1651.610542500586
Dispersion correction            ... done
                    ***********************HURRAY********************

CARTESIAN COORDINATES (ANGSTROEM)
---------------------------------
  C     -1.720047    1.267112   -0.170512
  S     -2.878621   -0.002052   -0.210569
  C     -1.673667   -1.218831    0.125921
  C     -0.420083   -0.630126    0.266991
  C     -0.456414    0.792974    0.105109
  S      0.895584    1.912787    0.280860
  C      2.373085    0.974647   -0.079134
  O      3.399377    1.566465   -0.263527
  C      2.421605   -0.580760   -0.003830
  O      3.473217   -1.126309   -0.184063
  S      1.038857   -1.582770    0.547941
  C     -2.115547   -2.603389    0.203254
  C     -1.494944   -3.621915    0.820375
  H     -2.012170    2.299022   -0.356888
  H     -3.072868   -2.802922   -0.290965
  H     -0.563847   -3.500384    1.375767
  H     -1.931468   -4.623251    0.794679

 Multiplicity           Mult            ....    1
 Number of Electrons    NEL             ....  116
 Basis Dimension        Dim             ....  214

ORBITAL ENERGIES
----------------

  NO   OCC          E(Eh)            E(eV)
   0   2.0000     -88.904770     -2419.2218
   1   2.0000     -88.894582     -2418.9445
   2   2.0000     -88.893772     -2418.9225
   3   2.0000     -19.167480      -521.5736
   4   2.0000     -19.165393      -521.5169
   5   2.0000     -10.326293      -280.9927
   6   2.0000     -10.325557      -280.9727
   7   2.0000     -10.256035      -279.0809
   8   2.0000     -10.255164      -279.0572
   9   2.0000     -10.251146      -278.9479
  10   2.0000     -10.245177      -278.7854
  11   2.0000     -10.225559      -278.2516
  12   2.0000     -10.211501      -277.8691
  13   2.0000      -7.999905      -217.6885
  14   2.0000      -7.989962      -217.4179
  15   2.0000      -7.989611      -217.4084
  16   2.0000      -5.967966      -162.3966
  17   2.0000      -5.964009      -162.2889
  18   2.0000      -5.961128      -162.2106
  19   2.0000      -5.958703      -162.1446
  20   2.0000      -5.958296      -162.1335
  21   2.0000      -5.954312      -162.0251
  22   2.0000      -5.954119      -162.0198
  23   2.0000      -5.949846      -161.9035
  24   2.0000      -5.949381      -161.8909
  25   2.0000      -1.093405       -29.7531
  26   2.0000      -1.064474       -28.9658
  27   2.0000      -0.925924       -25.1957
  28   2.0000      -0.843210       -22.9449
  29   2.0000      -0.826427       -22.4882
  30   2.0000      -0.791041       -21.5253
  31   2.0000      -0.745007       -20.2727
  32   2.0000      -0.723639       -19.6912
  33   2.0000      -0.660940       -17.9851
  34   2.0000      -0.631200       -17.1758
  35   2.0000      -0.597940       -16.2708
  36   2.0000      -0.561394       -15.2763
  37   2.0000      -0.547984       -14.9114
  38   2.0000      -0.504877       -13.7384
  39   2.0000      -0.487114       -13.2550
  40   2.0000      -0.480534       -13.0760
  41   2.0000      -0.474813       -12.9203
  42   2.0000      -0.471195       -12.8219
  43   2.0000      -0.455104       -12.3840
  44   2.0000      -0.433545       -11.7974
  45   2.0000      -0.422459       -11.4957
  46   2.0000      -0.413756       -11.2589
  47   2.0000      -0.406216       -11.0537
  48   2.0000      -0.388584       -10.5739
  49   2.0000      -0.381844       -10.3905
  50   2.0000      -0.365566        -9.9476
  51   2.0000      -0.342252        -9.3131
  52   2.0000      -0.330926        -9.0050
  53   2.0000      -0.326252        -8.8778
  54   2.0000      -0.298609        -8.1256
  55   2.0000      -0.276240        -7.5169
  56   2.0000      -0.251337        -6.8392
  57   2.0000      -0.239436        -6.5154
  58   0.0000      -0.102715        -2.7950
  59   0.0000      -0.069881        -1.9015
  60   0.0000      -0.024307        -0.6614
  61   0.0000      -0.005316        -0.1446
  62   0.0000       0.009429         0.2566

MULLIKEN ATOMIC CHARGES
-----------------------
   0 C :   -0.095578
   1 S :    0.145917
   2 C :   -0.163520
   3 C :    0.002363
   4 C :   -0.058458
   5 S :    0.100699
   6 C :    0.069643
   7 O :   -0.138143
   8 C :    0.078317
   9 O :   -0.134849
  10 S :    0.083473
  11 C :    0.025066
  12 C :   -0.034407
  13 H :    0.037821
  14 H :    0.002483
  15 H :    0.042555
  16 H :    0.036619
Sum of atomic charges:    0.0000000

LOEWDIN ATOMIC CHARGES
----------------------
   0 C :   -0.204252
   1 S :    0.466879
   2 C :   -0.188185
   3 C :   -0.219161
   4 C :   -0.222332
   5 S :    0.371948
   6 C :   -0.111755
   7 O :   -0.101479
   8 C :   -0.107466
   9 O :   -0.096921
  10 S :    0.381181
  11 C :   -0.050034
  12 C :   -0.035131
  13 H :    0.032664
  14 H :    0.032612
  15 H :    0.018409
  16 H :    0.033023

  Mayer bond orders larger than 0.100000
B(  0-C ,  1-S ) :   1.1704 B(  0-C ,  4-C ) :   1.5581 B(  0-C , 13-H ) :   0.9666
B(  1-S ,  2-C ) :   1.1483 B(  2-C ,  3-C ) :   1.5266 B(  2-C , 11-C ) :   1.1082
B(  3-C ,  4-C ) :   1.2525 B(  3-C , 10-S ) :   0.9962 B(  4-C ,  5-S ) :   0.9797
B(  5-S ,  6-C ) :   1.0339 B(  5-S ,  7-O ) :   0.1486 B(  6-C ,  7-O ) :   2.1293
B(  6-C ,  8-C ) :   0.7509 B(  8-C ,  9-O ) :   2.1339 B(  8-C , 10-S ) :   1.0236
B(  9-O , 10-S ) :   0.1425 B( 11-C , 12-C ) :   1.9191 B( 11-C , 14-H ) :   0.9448
B( 12-C , 15-H ) :   0.9515 B( 12-C , 16-H ) :   0.9427

Dispersion correction           -0.049439006
FINAL SINGLE POINT ENERGY     -1651.610544127131

DIPOLE MOMENT
-------------
                                X             Y             Z
Electronic contribution:      5.57249       6.95562      -0.79919
Nuclear contribution   :     -7.54891      -7.14785       0.92762
                        -----------------------------------------
Total Dipole Moment    :     -1.97641      -0.19223       0.12844
                        -----------------------------------------
Magnitude (a.u.)       :      1.98989
Magnitude (Debye)      :      5.05789

Rotational constants in cm-1:     0.030983     0.015335     0.010478
Rotational constants in MHz :   928.845965   459.727787   314.109740

                             ****ORCA TERMINATED NORMALLY****
TOTAL RUN TIME: 0 days 0 hours 17 minutes 8 seconds 223 msec
