                         Program Version 4.2.0 -  RELEASE  -
|  1> # ORCA input file
|  2> # SCF done        -28.883061768481          0.000603036636
|  3> ! B3LYP/G D3BJ Opt RIJCOSX def2-SVP def2/J
|  4> * xyz 0 1
|  5>    C        1.61996        -1.50409         0.00265
|  6>    S        3.20601        -0.83292         0.00498
|  7>    C        2.60439         0.78238         0.00646
|  8>    C        1.24816         0.78337         0.00523
|  9>    C        0.66736        -0.53119         0.00304
| 10>    C       -0.76219        -0.46042         0.00190
| 11>    C       -1.19616         0.85270         0.00321
| 12>    S        0.05581         2.06990         0.00582
| 13>    S       -2.90949         0.99119         0.00207
| 14>    C       -3.04317        -0.73787        -0.00027
| 15>    C       -1.84523        -1.37162        -0.00007
| 16>    H        1.49452        -2.56745         0.00117
| 17>    H        3.28412         1.60918         0.00815
| 18>    H       -4.02294        -1.17217        -0.00160
| 19>    H       -1.72849        -2.43981        -0.00130
| 20> *
| 21>
| 22>                          ****END OF INPUT****
 Total Charge           Charge          ....    0
 Multiplicity           Mult            ....    1
 Number of Electrons    NEL             ....  100
Dispersion correction           -0.042930740
FINAL SINGLE POINT ENERGY     -1501.294915408195
Dispersion correction            ... done
Dispersion correction           -0.042913682
FINAL SINGLE POINT ENERGY     -1501.297679949400
Dispersion correction            ... done
Dispersion correction           -0.042913336
FINAL SINGLE POINT ENERGY     -1501.297789246863
Dispersion correction            ... done
Dispersion correction           -0.042912361
FINAL SINGLE POINT ENERGY     -1501.297799181567
Dispersion correction            ... done
Dispersion correction           -0.042911027
FINAL SINGLE POINT ENERGY     -1501.297798914266
Dispersion correction            ... done
                    ***********************HURRAY********************

CARTESIAN COORDINATES (ANGSTROEM)
---------------------------------
  C      1.636602   -1.512996    0.002698
  S      3.231716   -0.838670    0.003584
  C      2.639107    0.792635    0.006766
  C      1.267934    0.795577    0.005370
  C      0.676721   -0.525667    0.002989
  C     -0.770047   -0.453805    0.001859
  C     -1.208230    0.867219    0.003293
  S      0.058255    2.090721    0.006439
  S     -2.931494    0.996554    0.000402
  C     -3.076771   -0.746200    0.000023
  C     -1.861471   -1.377832   -0.000148
  H      1.495218   -2.592448    0.001434
  H      3.329481    1.632895    0.008899
  H     -4.069101   -1.194096   -0.001034
  H     -1.745261   -2.462707   -0.001135

 Multiplicity           Mult            ....    1
 Number of Electrons    NEL             ....  100
 Basis Dimension        Dim             ....  186

ORBITAL ENERGIES
----------------

  NO   OCC          E(Eh)            E(eV)
   0   2.0000     -88.884957     -2418.6826
   1   2.0000     -88.882441     -2418.6142
   2   2.0000     -88.877884     -2418.4902
   3   2.0000     -10.236958      -278.5618
   4   2.0000     -10.224691      -278.2280
   5   2.0000     -10.220170      -278.1050
   6   2.0000     -10.218827      -278.0684
   7   2.0000     -10.217703      -278.0378
   8   2.0000     -10.208712      -277.7932
   9   2.0000     -10.204210      -277.6707
  10   2.0000     -10.203345      -277.6471
  11   2.0000      -7.979609      -217.1362
  12   2.0000      -7.977103      -217.0680
  13   2.0000      -7.972015      -216.9296
  14   2.0000      -5.948025      -161.8540
  15   2.0000      -5.945363      -161.7815
  16   2.0000      -5.943854      -161.7405
  17   2.0000      -5.941105      -161.6657
  18   2.0000      -5.941037      -161.6638
  19   2.0000      -5.940486      -161.6488
  20   2.0000      -5.938386      -161.5917
  21   2.0000      -5.937188      -161.5591
  22   2.0000      -5.931366      -161.4007
  23   2.0000      -0.912064       -24.8185
  24   2.0000      -0.878259       -23.8987
  25   2.0000      -0.819309       -22.2945
  26   2.0000      -0.766682       -20.8625
  27   2.0000      -0.728527       -19.8242
  28   2.0000      -0.705700       -19.2031
  29   2.0000      -0.685436       -18.6517
  30   2.0000      -0.598307       -16.2808
  31   2.0000      -0.558929       -15.2092
  32   2.0000      -0.549263       -14.9462
  33   2.0000      -0.542814       -14.7707
  34   2.0000      -0.494749       -13.4628
  35   2.0000      -0.466253       -12.6874
  36   2.0000      -0.424471       -11.5504
  37   2.0000      -0.421991       -11.4830
  38   2.0000      -0.416837       -11.3427
  39   2.0000      -0.403677       -10.9846
  40   2.0000      -0.385838       -10.4992
  41   2.0000      -0.380711       -10.3597
  42   2.0000      -0.366997        -9.9865
  43   2.0000      -0.360898        -9.8205
  44   2.0000      -0.339714        -9.2441
  45   2.0000      -0.321227        -8.7410
  46   2.0000      -0.291235        -7.9249
  47   2.0000      -0.257138        -6.9971
  48   2.0000      -0.232208        -6.3187
  49   2.0000      -0.206425        -5.6171
  50   0.0000      -0.037541        -1.0215
  51   0.0000      -0.015309        -0.4166
  52   0.0000       0.021497         0.5850
  53   0.0000       0.022322         0.6074
  54   0.0000       0.028512         0.7759

MULLIKEN ATOMIC CHARGES
-----------------------
   0 C :   -0.154008
   1 S :    0.102926
   2 C :   -0.161312
   3 C :   -0.011895
   4 C :    0.113498
   5 C :    0.083481
   6 C :   -0.220022
   7 S :    0.122804
   8 S :    0.119914
   9 C :   -0.094223
  10 C :    0.032585
  11 H :    0.020876
  12 H :    0.025697
  13 H :    0.029489
  14 H :   -0.009808
Sum of atomic charges:   -0.0000000

LOEWDIN ATOMIC CHARGES
----------------------
   0 C :   -0.204988
   1 S :    0.441892
   2 C :   -0.218560
   3 C :   -0.181728
   4 C :   -0.069768
   5 C :   -0.089647
   6 C :   -0.329315
   7 S :    0.360688
   8 S :    0.418324
   9 C :   -0.184693
  10 C :   -0.056232
  11 H :    0.026582
  12 H :    0.028110
  13 H :    0.025941
  14 H :    0.033395

  Mayer bond orders larger than 0.100000
B(  0-C ,  1-S ) :   1.1532 B(  0-C ,  4-C ) :   1.5015 B(  0-C , 11-H ) :   0.9654
B(  1-S ,  2-C ) :   1.1670 B(  2-C ,  3-C ) :   1.5439 B(  2-C , 12-H ) :   0.9708
B(  3-C ,  4-C ) :   1.2230 B(  3-C ,  7-S ) :   1.0197 B(  4-C ,  5-C ) :   1.0982
B(  5-C ,  6-C ) :   1.4342 B(  5-C , 10-C ) :   1.2393 B(  6-C ,  7-S ) :   1.0391
B(  6-C ,  8-S ) :   1.1255 B(  8-S ,  9-C ) :   1.1412 B(  9-C , 10-C ) :   1.5720
B(  9-C , 13-H ) :   0.9633 B( 10-C , 14-H ) :   0.9933

Dispersion correction           -0.042910433
FINAL SINGLE POINT ENERGY     -1501.297797220416

DIPOLE MOMENT
-------------
                                X             Y             Z
Electronic contribution:      0.90570       4.80006       0.00327
Nuclear contribution   :     -0.97870      -5.17069      -0.00416
                        -----------------------------------------
Total Dipole Moment    :     -0.07300      -0.37063      -0.00089
                        -----------------------------------------
Magnitude (a.u.)       :      0.37775
Magnitude (Debye)      :      0.96017

Rotational constants in cm-1:     0.062140     0.017155     0.013443
Rotational constants in MHz :  1862.923061   514.283524   403.023795

                             ****ORCA TERMINATED NORMALLY****
TOTAL RUN TIME: 0 days 0 hours 5 minutes 15 seconds 334 msec
