                         Program Version 4.2.0 -  RELEASE  -
|  1> # ORCA input file
|  2> # SCF done        -25.643082165594          0.000552588215
|  3> ! B3LYP/G D3BJ Opt RIJCOSX def2-SVP def2/J
|  4> * xyz 0 1
|  5>    C       -2.18386         0.40362        -0.17694
|  6>    C       -1.74671        -0.86087        -0.30252
|  7>    C       -0.34000        -0.86783         0.10257
|  8>    C        0.77906        -1.58324         0.27536
|  9>    C        1.79738        -0.59245         0.77046
| 10>    N        1.31407         0.60742         0.87596
| 11>    C       -0.00928         0.51481         0.47559
| 12>    C       -1.10248         1.28468         0.30969
| 13>    C        3.15174        -0.95616         1.08934
| 14>    C        4.05604        -0.08485         1.53613
| 15>    H       -3.17415         0.76460        -0.39072
| 16>    H       -2.30079        -1.71948        -0.63192
| 17>    H        0.97913        -2.62675         0.11773
| 18>    H       -1.21708         2.33858         0.48372
| 19>    H        3.40613        -1.99881         0.94666
| 20>    H        3.78860         0.94892         1.67187
| 21>    H        5.06455        -0.37821         1.77163
| 22> *
| 23>
| 24>                          ****END OF INPUT****
 Total Charge           Charge          ....    0
 Multiplicity           Mult            ....    1
 Number of Electrons    NEL             ....   68
Dispersion correction           -0.030734097
FINAL SINGLE POINT ENERGY      -401.553958527191
Dispersion correction            ... done
Dispersion correction           -0.030700699
FINAL SINGLE POINT ENERGY      -401.557261778660
Dispersion correction            ... done
Dispersion correction           -0.030682141
FINAL SINGLE POINT ENERGY      -401.557371223574
Dispersion correction            ... done
FINAL SINGLE POINT ENERGY      -401.557402111294
Dispersion correction            ... done
Dispersion correction           -0.030664573
FINAL SINGLE POINT ENERGY      -401.557411560069
Dispersion correction            ... done
Dispersion correction           -0.030664998
FINAL SINGLE POINT ENERGY      -401.557414624534
Dispersion correction            ... done
                    ***********************HURRAY********************

CARTESIAN COORDINATES (ANGSTROEM)
---------------------------------
  C     -2.220027    0.401220   -0.186522
  C     -1.775689   -0.874753   -0.318840
  C     -0.353786   -0.866289    0.092539
  C      0.775740   -1.582577    0.275969
  C      1.804353   -0.578711    0.776671
  N      1.317782    0.628984    0.878997
  C     -0.017416    0.514387    0.469114
  C     -1.118318    1.292239    0.311118
  C      3.175501   -0.949977    1.104984
  C      4.104228   -0.082924    1.541721
  H     -3.226494    0.756875   -0.410267
  H     -2.349101   -1.734672   -0.660292
  H      0.968474   -2.643772    0.113336
  H     -1.223434    2.359455    0.507285
  H      3.433383   -2.006080    0.975079
  H      3.848950    0.972222    1.672302
  H      5.118205   -0.411647    1.781415

 Multiplicity           Mult            ....    1
 Number of Electrons    NEL             ....   68
 Basis Dimension        Dim             ....  175

ORBITAL ENERGIES
----------------

  NO   OCC          E(Eh)            E(eV)
   0   2.0000     -14.313232      -389.4829
   1   2.0000     -10.234636      -278.4986
   2   2.0000     -10.213363      -277.9197
   3   2.0000     -10.210291      -277.8361
   4   2.0000     -10.206193      -277.7246
   5   2.0000     -10.203831      -277.6604
   6   2.0000     -10.201834      -277.6060
   7   2.0000     -10.201740      -277.6035
   8   2.0000     -10.199972      -277.5554
   9   2.0000     -10.197480      -277.4875
  10   2.0000      -0.949824       -25.8460
  11   2.0000      -0.850716       -23.1492
  12   2.0000      -0.779234       -21.2040
  13   2.0000      -0.758687       -20.6449
  14   2.0000      -0.701336       -19.0843
  15   2.0000      -0.665229       -18.1018
  16   2.0000      -0.605807       -16.4848
  17   2.0000      -0.555610       -15.1189
  18   2.0000      -0.548863       -14.9353
  19   2.0000      -0.516046       -14.0423
  20   2.0000      -0.491834       -13.3835
  21   2.0000      -0.473373       -12.8811
  22   2.0000      -0.439525       -11.9601
  23   2.0000      -0.424612       -11.5543
  24   2.0000      -0.420143       -11.4327
  25   2.0000      -0.402321       -10.9477
  26   2.0000      -0.386857       -10.5269
  27   2.0000      -0.371709       -10.1147
  28   2.0000      -0.350426        -9.5356
  29   2.0000      -0.346065        -9.4169
  30   2.0000      -0.282946        -7.6994
  31   2.0000      -0.270841        -7.3700
  32   2.0000      -0.268675        -7.3110
  33   2.0000      -0.206978        -5.6322
  34   0.0000      -0.117449        -3.1959
  35   0.0000      -0.023611        -0.6425
  36   0.0000       0.059846         1.6285
  37   0.0000       0.070156         1.9090
  38   0.0000       0.081743         2.2244

MULLIKEN ATOMIC CHARGES
-----------------------
   0 C :    0.001929
   1 C :    0.032257
   2 C :    0.095917
   3 C :   -0.087463
   4 C :   -0.004652
   5 N :   -0.096180
   6 C :    0.123609
   7 C :   -0.088610
   8 C :   -0.020660
   9 C :    0.033554
  10 H :   -0.007124
  11 H :   -0.011859
  12 H :   -0.014995
  13 H :   -0.008573
  14 H :   -0.015976
  15 H :    0.044549
  16 H :    0.024277
Sum of atomic charges:    0.0000000

LOEWDIN ATOMIC CHARGES
----------------------
   0 C :   -0.013344
   1 C :   -0.025804
   2 C :   -0.023178
   3 C :   -0.004048
   4 C :    0.019503
   5 N :   -0.107159
   6 C :   -0.014839
   7 C :    0.012187
   8 C :   -0.049847
   9 C :    0.009530
  10 H :    0.023914
  11 H :    0.026726
  12 H :    0.025912
  13 H :    0.029957
  14 H :    0.027733
  15 H :    0.035159
  16 H :    0.027599

  Mayer bond orders larger than 0.100000
B(  0-C ,  1-C ) :   1.7360 B(  0-C ,  7-C ) :   0.9910 B(  0-C , 10-H ) :   0.9880
B(  1-C ,  2-C ) :   0.9777 B(  1-C , 11-H ) :   1.0049 B(  2-C ,  3-C ) :   1.6386
B(  2-C ,  6-C ) :   1.0765 B(  3-C ,  4-C ) :   0.9426 B(  3-C , 12-H ) :   0.9968
B(  4-C ,  5-N ) :   1.7768 B(  4-C ,  8-C ) :   1.0904 B(  5-N ,  6-C ) :   1.1670
B(  6-C ,  7-C ) :   1.5973 B(  7-C , 13-H ) :   1.0157 B(  8-C ,  9-C ) :   1.9124
B(  8-C , 14-H ) :   0.9555 B(  9-C , 15-H ) :   0.9412 B(  9-C , 16-H ) :   0.9388

Dispersion correction           -0.030666315
FINAL SINGLE POINT ENERGY      -401.557415967814

DIPOLE MOMENT
-------------
                                X             Y             Z
Electronic contribution:     -2.38294       0.60487      -0.58133
Nuclear contribution   :      2.22097      -1.17920       0.42144
                        -----------------------------------------
Total Dipole Moment    :     -0.16197      -0.57432      -0.15989
                        -----------------------------------------
Magnitude (a.u.)       :      0.61777
Magnitude (Debye)      :      1.57026

Rotational constants in cm-1:     0.155812     0.029207     0.024596
Rotational constants in MHz :  4671.124259   875.601437   737.382265

                             ****ORCA TERMINATED NORMALLY****
TOTAL RUN TIME: 0 days 0 hours 5 minutes 30 seconds 262 msec
