                         Program Version 4.2.0 -  RELEASE  -
|  1> # ORCA input file
|  2> # SCF done        -20.158568681182          0.000726454158
|  3> ! B3LYP/G D3BJ Opt RIJCOSX def2-SVP def2/J
|  4> * xyz 0 1
|  5>    C        0.48116        -1.21531        -0.01969
|  6>    S        1.69061         0.00725        -0.02816
|  7>    C        0.47890         1.22806        -0.00685
|  8>    C       -0.78071         0.71933         0.00660
|  9>    C       -0.78025        -0.70946        -0.00059
| 10>    C       -2.01021        -1.56100         0.01585
| 11>    C       -2.01582         1.55937         0.02709
| 12>    H        0.77763        -2.24564        -0.02956
| 13>    H        0.77460         2.25854        -0.00541
| 14>    H       -2.90560        -0.94869        -0.02712
| 15>    H       -2.04362        -2.16105         0.92470
| 16>    H       -2.01210        -2.24219        -0.83397
| 17>    H       -1.75388         2.61418         0.00932
| 18>    H       -2.59782         1.36082         0.92681
| 19>    H       -2.64024         1.34192        -0.83903
| 20> *
| 21>
| 22>                          ****END OF INPUT****
 Total Charge           Charge          ....    0
 Multiplicity           Mult            ....    1
 Number of Electrons    NEL             ....   60
Dispersion correction           -0.026512160
FINAL SINGLE POINT ENERGY      -631.387549660467
Dispersion correction            ... done
Dispersion correction           -0.026353889
FINAL SINGLE POINT ENERGY      -631.389798835080
Dispersion correction            ... done
Dispersion correction           -0.026332459
FINAL SINGLE POINT ENERGY      -631.389898031933
Dispersion correction            ... done
FINAL SINGLE POINT ENERGY      -631.389932400419
FINAL SINGLE POINT ENERGY      -631.389951950409
FINAL SINGLE POINT ENERGY      -631.389981555370
FINAL SINGLE POINT ENERGY      -631.390017072191
FINAL SINGLE POINT ENERGY      -631.389958602550
FINAL SINGLE POINT ENERGY      -631.390053339082
FINAL SINGLE POINT ENERGY      -631.390072604057
FINAL SINGLE POINT ENERGY      -631.390094352242
FINAL SINGLE POINT ENERGY      -631.390079571610
FINAL SINGLE POINT ENERGY      -631.390076952286
FINAL SINGLE POINT ENERGY      -631.390083488451
FINAL SINGLE POINT ENERGY      -631.390086399031
FINAL SINGLE POINT ENERGY      -631.390080415098
FINAL SINGLE POINT ENERGY      -631.390072204272
Dispersion correction            ... done
Dispersion correction           -0.026343113
FINAL SINGLE POINT ENERGY      -631.390067606533
Dispersion correction            ... done
Dispersion correction           -0.026343071
FINAL SINGLE POINT ENERGY      -631.390069451299
Dispersion correction            ... done
                    ***********************HURRAY********************

CARTESIAN COORDINATES (ANGSTROEM)
---------------------------------
  C      0.509934   -1.228036   -0.050787
  S      1.714355    0.010631   -0.073397
  C      0.502835    1.241783   -0.024428
  C     -0.770293    0.724082    0.007961
  C     -0.767148   -0.720313   -0.008924
  C     -2.011376   -1.567107    0.024374
  C     -2.016936    1.561516    0.049293
  H      0.806085   -2.276232   -0.068201
  H      0.790265    2.292364   -0.018112
  H     -2.908061   -0.970560   -0.195115
  H     -2.164401   -2.033158    1.012773
  H     -1.966697   -2.382089   -0.714092
  H     -1.771768    2.629216    0.148318
  H     -2.665013    1.285064    0.897718
  H     -2.619132    1.438970   -0.867393

 Multiplicity           Mult            ....    1
 Number of Electrons    NEL             ....   60
 Basis Dimension        Dim             ....  142

ORBITAL ENERGIES
----------------

  NO   OCC          E(Eh)            E(eV)
   0   2.0000     -88.863172     -2418.0899
   1   2.0000     -10.199478      -277.5419
   2   2.0000     -10.199155      -277.5331
   3   2.0000     -10.190334      -277.2931
   4   2.0000     -10.190237      -277.2904
   5   2.0000     -10.189821      -277.2791
   6   2.0000     -10.188963      -277.2558
   7   2.0000      -7.958296      -216.5562
   8   2.0000      -5.926380      -161.2650
   9   2.0000      -5.922286      -161.1536
  10   2.0000      -5.919817      -161.0864
  11   2.0000      -0.870658       -23.6918
  12   2.0000      -0.764120       -20.7928
  13   2.0000      -0.744310       -20.2537
  14   2.0000      -0.666661       -18.1408
  15   2.0000      -0.657397       -17.8887
  16   2.0000      -0.558980       -15.2106
  17   2.0000      -0.514358       -13.9964
  18   2.0000      -0.477146       -12.9838
  19   2.0000      -0.430719       -11.7205
  20   2.0000      -0.429614       -11.6904
  21   2.0000      -0.405701       -11.0397
  22   2.0000      -0.401526       -10.9261
  23   2.0000      -0.393786       -10.7155
  24   2.0000      -0.365577        -9.9478
  25   2.0000      -0.355510        -9.6739
  26   2.0000      -0.354892        -9.6571
  27   2.0000      -0.335595        -9.1320
  28   2.0000      -0.234968        -6.3938
  29   2.0000      -0.227674        -6.1953
  30   0.0000      -0.008815        -0.2399
  31   0.0000       0.054751         1.4899
  32   0.0000       0.056701         1.5429
  33   0.0000       0.057203         1.5566
  34   0.0000       0.088354         2.4042

MULLIKEN ATOMIC CHARGES
-----------------------
   0 C :   -0.134296
   1 S :    0.085891
   2 C :   -0.142059
   3 C :   -0.054429
   4 C :   -0.063331
   5 C :    0.104443
   6 C :    0.084794
   7 H :    0.009606
   8 H :    0.011546
   9 H :   -0.001273
  10 H :    0.022617
  11 H :    0.019123
  12 H :    0.006162
  13 H :    0.023156
  14 H :    0.028049
Sum of atomic charges:   -0.0000000

LOEWDIN ATOMIC CHARGES
----------------------
   0 C :   -0.204364
   1 S :    0.416236
   2 C :   -0.208221
   3 C :   -0.069195
   4 C :   -0.069992
   5 C :   -0.046250
   6 C :   -0.047718
   7 H :    0.019739
   8 H :    0.020091
   9 H :    0.026943
  10 H :    0.034207
  11 H :    0.033350
  12 H :    0.030758
  13 H :    0.031687
  14 H :    0.032729

  Mayer bond orders larger than 0.100000
B(  0-C ,  1-S ) :   1.1602 B(  0-C ,  4-C ) :   1.5619 B(  0-C ,  7-H ) :   0.9688
B(  1-S ,  2-C ) :   1.1570 B(  2-C ,  3-C ) :   1.5617 B(  2-C ,  8-H ) :   0.9621
B(  3-C ,  4-C ) :   1.2772 B(  3-C ,  6-C ) :   1.0987 B(  4-C ,  5-C ) :   1.0946
B(  5-C ,  9-H ) :   0.9464 B(  5-C , 10-H ) :   0.9503 B(  5-C , 11-H ) :   0.9532
B(  6-C , 12-H ) :   0.9507 B(  6-C , 13-H ) :   0.9464 B(  6-C , 14-H ) :   0.9466

Dispersion correction           -0.026343079
FINAL SINGLE POINT ENERGY      -631.390070105415

DIPOLE MOMENT
-------------
                                X             Y             Z
Electronic contribution:     10.54346       0.02539      -0.31288
Nuclear contribution   :    -10.95446      -0.04687       0.33157
                        -----------------------------------------
Total Dipole Moment    :     -0.41100      -0.02149       0.01870
                        -----------------------------------------
Magnitude (a.u.)       :      0.41198
Magnitude (Debye)      :      1.04718

Rotational constants in cm-1:     0.117721     0.067503     0.043605
Rotational constants in MHz :  3529.186775  2023.698682  1307.252561

                             ****ORCA TERMINATED NORMALLY****
TOTAL RUN TIME: 0 days 0 hours 14 minutes 32 seconds 619 msec
