                         Program Version 4.2.0 -  RELEASE  -
|  1> # ORCA input file
|  2> # SCF done        -30.183649236637          0.000649047142
|  3> ! B3LYP/G D3BJ Opt RIJCOSX def2-SVP def2/J
|  4> * xyz 0 1
|  5>    C        1.14635         0.09362        -0.08996
|  6>    N        0.43026         0.49678        -0.96111
|  7>    N        2.47018         0.01376         0.17370
|  8>    C        3.01740        -0.35125         1.27449
|  9>    C        2.26579        -0.74528         2.46778
| 10>    C        2.53513        -0.32355         3.72221
| 11>    S        1.31882        -0.50601         4.92178
| 12>    C        0.35568        -1.55465         3.93700
| 13>    S        0.70248        -1.54281         2.25357
| 14>    C        4.47150        -0.28536         1.32878
| 15>    C        5.22987        -0.94518         2.19772
| 16>    H        0.50922        -0.39716         0.86386
| 17>    H        3.41475         0.23219         3.99223
| 18>    H       -0.66331        -1.70792         4.24369
| 19>    H        4.91264         0.29920         0.53401
| 20>    H        4.81354        -1.57962         2.96302
| 21>    H        6.30356        -0.88716         2.15643
| 22> *
| 23>
| 24>                          ****END OF INPUT****
 Total Charge           Charge          ....    0
 Multiplicity           Mult            ....    1
 Number of Electrons    NEL             ....   94
Dispersion correction           -0.042629331
FINAL SINGLE POINT ENERGY     -1175.573273556347
Dispersion correction            ... done
Dispersion correction           -0.041987638
FINAL SINGLE POINT ENERGY     -1175.573638957436
Dispersion correction            ... done
Dispersion correction           -0.041816565
FINAL SINGLE POINT ENERGY     -1175.576468901761
Dispersion correction            ... done
FINAL SINGLE POINT ENERGY     -1175.579238606055
FINAL SINGLE POINT ENERGY     -1175.579435402570
FINAL SINGLE POINT ENERGY     -1175.580156777705
FINAL SINGLE POINT ENERGY     -1175.580464572041
FINAL SINGLE POINT ENERGY     -1175.580676221436
FINAL SINGLE POINT ENERGY     -1175.580897419445
FINAL SINGLE POINT ENERGY     -1175.580975136101
FINAL SINGLE POINT ENERGY     -1175.581017911121
Dispersion correction            ... done
Dispersion correction           -0.042152104
FINAL SINGLE POINT ENERGY     -1175.581025478645
Dispersion correction            ... done
Dispersion correction           -0.042152545
FINAL SINGLE POINT ENERGY     -1175.581028153673
Dispersion correction            ... done
                    ***********************HURRAY********************

CARTESIAN COORDINATES (ANGSTROEM)
---------------------------------
  C      1.079547    0.186204    0.003494
  N      0.443075    0.945265   -0.712094
  N      2.483428    0.013140    0.127392
  C      3.042986   -0.371812    1.221883
  C      2.278698   -0.714929    2.458814
  C      2.430664   -0.124846    3.672099
  S      1.216744   -0.413811    4.871647
  C      0.373378   -1.583859    3.923958
  S      0.865539   -1.755810    2.305726
  C      4.511000   -0.437390    1.262825
  C      5.245307   -0.989602    2.241283
  H      0.483225   -0.530929    0.747112
  H      3.225324    0.585782    3.902116
  H     -0.554710   -2.027212    4.281600
  H      4.984087   -0.006726    0.375613
  H      4.789730   -1.452245    3.120538
  H      6.335838   -1.011621    2.175196

 Multiplicity           Mult            ....    1
 Number of Electrons    NEL             ....   94
 Basis Dimension        Dim             ....  192

ORBITAL ENERGIES
----------------

  NO   OCC          E(Eh)            E(eV)
   0   2.0000     -88.941161     -2420.2120
   1   2.0000     -88.924807     -2419.7670
   2   2.0000     -14.343071      -390.2948
   3   2.0000     -14.283673      -388.6785
   4   2.0000     -10.270433      -279.4727
   5   2.0000     -10.267789      -279.4007
   6   2.0000     -10.267464      -279.3919
   7   2.0000     -10.262123      -279.2466
   8   2.0000     -10.220782      -278.1216
   9   2.0000     -10.217136      -278.0224
  10   2.0000     -10.216451      -278.0038
  11   2.0000      -8.032293      -218.5698
  12   2.0000      -8.019198      -218.2135
  13   2.0000      -6.000153      -163.2725
  14   2.0000      -5.996396      -163.1702
  15   2.0000      -5.994266      -163.1123
  16   2.0000      -5.987521      -162.9287
  17   2.0000      -5.983323      -162.8145
  18   2.0000      -5.980205      -162.7297
  19   2.0000      -0.954171       -25.9643
  20   2.0000      -0.923542       -25.1309
  21   2.0000      -0.845476       -23.0066
  22   2.0000      -0.816146       -22.2085
  23   2.0000      -0.797708       -21.7067
  24   2.0000      -0.775749       -21.1092
  25   2.0000      -0.673029       -18.3140
  26   2.0000      -0.626754       -17.0548
  27   2.0000      -0.621524       -16.9125
  28   2.0000      -0.569331       -15.4923
  29   2.0000      -0.564908       -15.3719
  30   2.0000      -0.509972       -13.8770
  31   2.0000      -0.484296       -13.1784
  32   2.0000      -0.469626       -12.7792
  33   2.0000      -0.455972       -12.4076
  34   2.0000      -0.449069       -12.2198
  35   2.0000      -0.440592       -11.9891
  36   2.0000      -0.424603       -11.5540
  37   2.0000      -0.398078       -10.8323
  38   2.0000      -0.387138       -10.5346
  39   2.0000      -0.373910       -10.1746
  40   2.0000      -0.330882        -9.0038
  41   2.0000      -0.322413        -8.7733
  42   2.0000      -0.316947        -8.6246
  43   2.0000      -0.306913        -8.3515
  44   2.0000      -0.271030        -7.3751
  45   2.0000      -0.256894        -6.9904
  46   2.0000      -0.170371        -4.6360
  47   0.0000      -0.105681        -2.8757
  48   0.0000      -0.083823        -2.2809
  49   0.0000      -0.050522        -1.3748
  50   0.0000      -0.028207        -0.7675
  51   0.0000       0.031842         0.8665

MULLIKEN ATOMIC CHARGES
-----------------------
   0 C :   -0.083035
   1 N :   -0.130387
   2 N :   -0.071332
   3 C :    0.002092
   4 C :   -0.180703
   5 C :   -0.010183
   6 S :    0.169957
   7 C :   -0.214326
   8 S :    0.256135
   9 C :    0.039167
  10 C :   -0.019592
  11 H :    0.000084
  12 H :    0.062355
  13 H :    0.093601
  14 H :    0.009730
  15 H :    0.032732
  16 H :    0.043704
Sum of atomic charges:    0.0000000

LOEWDIN ATOMIC CHARGES
----------------------
   0 C :   -0.102516
   1 N :   -0.146186
   2 N :   -0.064386
   3 C :   -0.008539
   4 C :   -0.195199
   5 C :   -0.164452
   6 S :    0.460097
   7 C :   -0.432751
   8 S :    0.573066
   9 C :   -0.021977
  10 C :   -0.029846
  11 H :   -0.043387
  12 H :    0.046093
  13 H :    0.029672
  14 H :    0.041967
  15 H :    0.024032
  16 H :    0.034313

  Mayer bond orders larger than 0.100000
B(  0-C ,  1-N ) :   2.2951 B(  0-C ,  2-N ) :   1.0151 B(  0-C , 11-H ) :   0.6973
B(  1-N ,  7-C ) :   0.2459 B(  1-N ,  8-S ) :   0.1524 B(  2-N ,  3-C ) :   1.8403
B(  3-C ,  4-C ) :   0.9436 B(  3-C ,  9-C ) :   1.1026 B(  4-C ,  5-C ) :   1.6831
B(  4-C ,  8-S ) :   1.0931 B(  5-C ,  6-S ) :   1.1396 B(  5-C , 12-H ) :   0.9494
B(  6-S ,  7-C ) :   1.1221 B(  7-C ,  8-S ) :   1.1971 B(  7-C , 13-H ) :   0.9611
B(  8-S , 11-H ) :   0.1615 B(  9-C , 10-C ) :   1.8893 B(  9-C , 14-H ) :   0.9520
B( 10-C , 15-H ) :   0.9382 B( 10-C , 16-H ) :   0.9495

Dispersion correction           -0.042152856
FINAL SINGLE POINT ENERGY     -1175.581029260983

DIPOLE MOMENT
-------------
                                X             Y             Z
Electronic contribution:     -6.32066      -0.39853       1.88480
Nuclear contribution   :      7.15817      -0.75897       0.80210
                        -----------------------------------------
Total Dipole Moment    :      0.83751      -1.15750       2.68690
                        -----------------------------------------
Magnitude (a.u.)       :      3.04314
Magnitude (Debye)      :      7.73504

Rotational constants in cm-1:     0.035894     0.024189     0.016980
Rotational constants in MHz :  1076.069633   725.174585   509.057126

                             ****ORCA TERMINATED NORMALLY****
TOTAL RUN TIME: 0 days 0 hours 17 minutes 35 seconds 690 msec
