                         Program Version 4.2.0 -  RELEASE  -
|  1> # ORCA input file
|  2> # SCF done        -51.511593781465          0.000339191638
|  3> ! B3LYP/G D3BJ Opt RIJCOSX def2-SVP def2/J
|  4> * xyz 0 1
|  5>    C       -0.12276         1.52409        -0.00646
|  6>    C        1.09650         0.86802        -0.00174
|  7>    C        2.47443         1.42825         0.00186
|  8>    O        2.82111         2.57747         0.00117
|  9>    N        3.33325         0.32480         0.00623
| 10>    C        2.64758        -0.88895         0.00577
| 11>    O        3.13000        -1.98827         0.00881
| 12>    C        1.20016        -0.52704         0.00060
| 13>    C        0.09059        -1.35496        -0.00168
| 14>    C       -1.13173        -0.69804        -0.00639
| 15>    C       -1.23493         0.69427        -0.00868
| 16>    C       -2.68314         1.02875        -0.01349
| 17>    O       -3.22098         2.08856        -0.01655
| 18>    O       -3.37003        -0.16395        -0.01389
| 19>    C       -2.51490        -1.24231        -0.00980
| 20>    O       -2.89056        -2.36985        -0.00936
| 21>    C        4.72457         0.51047         0.01050
| 22>    C        5.63186        -0.44999         0.01565
| 23>    H       -0.20213         2.59930        -0.00826
| 24>    H        0.17099        -2.43010         0.00010
| 25>    H        4.97766         1.56243         0.00942
| 26>    H        5.37395        -1.49309         0.01737
| 27>    H        6.67655        -0.19750         0.01929
| 28> *
| 29>
| 30>                          ****END OF INPUT****
 Total Charge           Charge          ....    0
 Multiplicity           Mult            ....    1
 Number of Electrons    NEL             ....  124
Dispersion correction           -0.053114846
FINAL SINGLE POINT ENERGY      -890.589658620563
Dispersion correction            ... done
Dispersion correction           -0.052914245
FINAL SINGLE POINT ENERGY      -890.591809201607
Dispersion correction            ... done
Dispersion correction           -0.052900363
FINAL SINGLE POINT ENERGY      -890.591911281466
Dispersion correction            ... done
Dispersion correction           -0.052904947
FINAL SINGLE POINT ENERGY      -890.591936815118
Dispersion correction            ... done
Dispersion correction           -0.052910044
FINAL SINGLE POINT ENERGY      -890.591935819309
Dispersion correction            ... done
                    ***********************HURRAY********************

CARTESIAN COORDINATES (ANGSTROEM)
---------------------------------
  C     -0.132801    1.533753   -0.003981
  C      1.092013    0.873219    0.003148
  C      2.474499    1.443173    0.007165
  O      2.813447    2.599021    0.006926
  N      3.350772    0.330539    0.010086
  C      2.647912   -0.891543    0.011173
  O      3.131994   -1.994925    0.014680
  C      1.195795   -0.526232    0.005851
  C      0.082970   -1.362463    0.002328
  C     -1.145763   -0.699567   -0.004604
  C     -1.249062    0.694693   -0.008124
  C     -2.699212    1.035654   -0.018521
  O     -3.241292    2.095267   -0.028728
  O     -3.398451   -0.166302   -0.019298
  C     -2.530223   -1.252586   -0.010546
  O     -2.908960   -2.381703   -0.010996
  C      4.747097    0.505108    0.010313
  C      5.664204   -0.466504    0.008591
  H     -0.212730    2.622431   -0.006446
  H      0.166825   -2.450950    0.004284
  H      5.011272    1.564696    0.011450
  H      5.400466   -1.523267    0.007375
  H      6.717269   -0.179153    0.008344

 Multiplicity           Mult            ....    1
 Number of Electrons    NEL             ....  124
 Basis Dimension        Dim             ....  277

ORBITAL ENERGIES
----------------

  NO   OCC          E(Eh)            E(eV)
   0   2.0000     -19.221983      -523.0568
   1   2.0000     -19.172810      -521.7187
   2   2.0000     -19.172497      -521.7102
   3   2.0000     -19.169115      -521.6181
   4   2.0000     -19.167618      -521.5774
   5   2.0000     -14.418819      -392.3560
   6   2.0000     -10.362173      -281.9691
   7   2.0000     -10.361811      -281.9592
   8   2.0000     -10.345372      -281.5119
   9   2.0000     -10.345050      -281.5031
  10   2.0000     -10.266330      -279.3610
  11   2.0000     -10.265850      -279.3480
  12   2.0000     -10.263919      -279.2954
  13   2.0000     -10.263451      -279.2827
  14   2.0000     -10.262318      -279.2519
  15   2.0000     -10.261805      -279.2379
  16   2.0000     -10.252123      -278.9744
  17   2.0000     -10.204581      -277.6808
  18   2.0000      -1.154803       -31.4238
  19   2.0000      -1.100396       -29.9433
  20   2.0000      -1.091651       -29.7053
  21   2.0000      -1.081265       -29.4227
  22   2.0000      -1.053582       -28.6694
  23   2.0000      -0.993548       -27.0358
  24   2.0000      -0.928147       -25.2562
  25   2.0000      -0.854433       -23.2503
  26   2.0000      -0.818847       -22.2820
  27   2.0000      -0.786390       -21.3988
  28   2.0000      -0.723807       -19.6958
  29   2.0000      -0.721132       -19.6230
  30   2.0000      -0.693766       -18.8783
  31   2.0000      -0.659877       -17.9562
  32   2.0000      -0.636291       -17.3144
  33   2.0000      -0.617495       -16.8029
  34   2.0000      -0.587689       -15.9918
  35   2.0000      -0.551895       -15.0178
  36   2.0000      -0.539171       -14.6716
  37   2.0000      -0.528227       -14.3738
  38   2.0000      -0.514731       -14.0066
  39   2.0000      -0.510402       -13.8888
  40   2.0000      -0.503845       -13.7103
  41   2.0000      -0.501073       -13.6349
  42   2.0000      -0.489341       -13.3157
  43   2.0000      -0.481942       -13.1143
  44   2.0000      -0.474355       -12.9079
  45   2.0000      -0.461789       -12.5659
  46   2.0000      -0.450530       -12.2596
  47   2.0000      -0.445290       -12.1170
  48   2.0000      -0.438429       -11.9303
  49   2.0000      -0.431022       -11.7287
  50   2.0000      -0.428043       -11.6476
  51   2.0000      -0.427402       -11.6302
  52   2.0000      -0.408660       -11.1202
  53   2.0000      -0.366987        -9.9862
  54   2.0000      -0.357103        -9.7173
  55   2.0000      -0.338165        -9.2019
  56   2.0000      -0.327748        -8.9185
  57   2.0000      -0.325701        -8.8628
  58   2.0000      -0.323801        -8.8111
  59   2.0000      -0.315170        -8.5762
  60   2.0000      -0.306217        -8.3326
  61   2.0000      -0.266788        -7.2597
  62   0.0000      -0.139914        -3.8073
  63   0.0000      -0.104658        -2.8479
  64   0.0000      -0.077414        -2.1065
  65   0.0000      -0.019650        -0.5347
  66   0.0000       0.028574         0.7776

MULLIKEN ATOMIC CHARGES
-----------------------
   0 C :   -0.057755
   1 C :    0.014428
   2 C :    0.211176
   3 O :   -0.147739
   4 N :   -0.258060
   5 C :    0.234141
   6 O :   -0.147720
   7 C :   -0.004249
   8 C :   -0.059977
   9 C :   -0.021166
  10 C :   -0.027691
  11 C :    0.254188
  12 O :   -0.106492
  13 O :   -0.253018
  14 C :    0.254245
  15 O :   -0.107313
  16 C :    0.064269
  17 C :   -0.028343
  18 H :    0.028428
  19 H :    0.028679
  20 H :    0.035437
  21 H :    0.059811
  22 H :    0.034721
Sum of atomic charges:   -0.0000000

LOEWDIN ATOMIC CHARGES
----------------------
   0 C :    0.045877
   1 C :   -0.030691
   2 C :    0.096274
   3 O :   -0.129803
   4 N :   -0.019074
   5 C :    0.097759
   6 O :   -0.126607
   7 C :   -0.027966
   8 C :    0.044888
   9 C :   -0.044704
  10 C :   -0.046204
  11 C :    0.105830
  12 O :   -0.091823
  13 O :   -0.071506
  14 C :    0.106316
  15 O :   -0.091963
  16 C :    0.023028
  17 C :   -0.055291
  18 H :    0.055660
  19 H :    0.055607
  20 H :    0.035527
  21 H :    0.033364
  22 H :    0.035504

  Mayer bond orders larger than 0.100000
B(  0-C ,  1-C ) :   1.3579 B(  0-C , 10-C ) :   1.3100 B(  0-C , 18-H ) :   1.0206
B(  1-C ,  2-C ) :   0.8846 B(  1-C ,  7-C ) :   1.3674 B(  2-C ,  3-O ) :   2.1915
B(  2-C ,  4-N ) :   1.0241 B(  4-N ,  5-C ) :   1.0242 B(  4-N , 16-C ) :   1.0009
B(  5-C ,  6-O ) :   2.1780 B(  5-C ,  7-C ) :   0.8931 B(  7-C ,  8-C ) :   1.3519
B(  8-C ,  9-C ) :   1.3142 B(  8-C , 19-H ) :   1.0207 B(  9-C , 10-C ) :   1.3712
B(  9-C , 14-C ) :   0.8993 B( 10-C , 11-C ) :   0.9002 B( 11-C , 12-O ) :   2.2693
B( 11-C , 13-O ) :   1.0276 B( 13-O , 14-C ) :   1.0286 B( 14-C , 15-O ) :   2.2665
B( 16-C , 17-C ) :   1.9355 B( 16-C , 20-H ) :   0.9606 B( 17-C , 21-H ) :   0.9418
B( 17-C , 22-H ) :   0.9419

Dispersion correction           -0.052913315
FINAL SINGLE POINT ENERGY      -890.591932098249

DIPOLE MOMENT
-------------
                                X             Y             Z
Electronic contribution:    -12.26581       0.39213      -0.02261
Nuclear contribution   :     13.47358      -0.31219       0.03078
                        -----------------------------------------
Total Dipole Moment    :      1.20776       0.07994       0.00818
                        -----------------------------------------
Magnitude (a.u.)       :      1.21043
Magnitude (Debye)      :      3.07668

Rotational constants in cm-1:     0.033956     0.008397     0.006732
Rotational constants in MHz :  1017.985865   251.736327   201.827598

                             ****ORCA TERMINATED NORMALLY****
TOTAL RUN TIME: 0 days 0 hours 11 minutes 54 seconds 178 msec
