                         Program Version 4.2.0 -  RELEASE  -
|  1> # ORCA input file
|  2> # SCF done        -21.135609803986          0.000271259997
|  3> ! B3LYP/G D3BJ Opt RIJCOSX def2-SVP def2/J
|  4> * xyz 0 1
|  5>    N       -0.00172         0.86739        -0.01370
|  6>    C       -1.15053         0.09687        -0.00416
|  7>    O       -2.27624         0.51275        -0.00206
|  8>    C       -0.66477        -1.31585         0.00195
|  9>    C        0.66519        -1.31470        -0.00175
| 10>    C        1.14846         0.09886        -0.01148
| 11>    O        2.27344         0.51669        -0.01596
| 12>    H       -0.00260         1.87626        -0.01797
| 13>    H       -1.34200        -2.14932         0.00844
| 14>    H        1.34389        -2.14699         0.00109
| 15> *
| 16>
| 17>                          ****END OF INPUT****
 Total Charge           Charge          ....    0
 Multiplicity           Mult            ....    1
 Number of Electrons    NEL             ....   50
Dispersion correction           -0.015265634
FINAL SINGLE POINT ENERGY      -359.184337708574
Dispersion correction            ... done
Dispersion correction           -0.015215439
FINAL SINGLE POINT ENERGY      -359.185458806612
Dispersion correction            ... done
Dispersion correction           -0.015211212
FINAL SINGLE POINT ENERGY      -359.185489995604
Dispersion correction            ... done
Dispersion correction           -0.015210966
FINAL SINGLE POINT ENERGY      -359.185495819539
Dispersion correction            ... done
Dispersion correction           -0.015211634
FINAL SINGLE POINT ENERGY      -359.185496735930
Dispersion correction            ... done
                    ***********************HURRAY********************

CARTESIAN COORDINATES (ANGSTROEM)
---------------------------------
  N     -0.001739    0.884954   -0.012083
  C     -1.158343    0.103598   -0.004305
  O     -2.295373    0.504997   -0.003187
  C     -0.669620   -1.321444    0.001931
  C      0.670058   -1.320290   -0.001694
  C      1.156230    0.105568   -0.011559
  O      2.292544    0.508899   -0.017336
  H     -0.002615    1.898891   -0.017594
  H     -1.361284   -2.162802    0.008805
  H      1.363261   -2.160411    0.001421

 Multiplicity           Mult            ....    1
 Number of Electrons    NEL             ....   50
 Basis Dimension        Dim             ....  113

ORBITAL ENERGIES
----------------

  NO   OCC          E(Eh)            E(eV)
   0   2.0000     -19.144772      -520.9557
   1   2.0000     -19.144746      -520.9550
   2   2.0000     -14.383341      -391.3906
   3   2.0000     -10.323180      -280.9080
   4   2.0000     -10.323080      -280.9053
   5   2.0000     -10.236348      -278.5452
   6   2.0000     -10.235663      -278.5266
   7   2.0000      -1.074243       -29.2316
   8   2.0000      -1.056768       -28.7561
   9   2.0000      -0.961512       -26.1641
  10   2.0000      -0.820019       -22.3139
  11   2.0000      -0.683086       -18.5877
  12   2.0000      -0.628578       -17.1045
  13   2.0000      -0.611579       -16.6419
  14   2.0000      -0.510379       -13.8881
  15   2.0000      -0.485654       -13.2153
  16   2.0000      -0.482820       -13.1382
  17   2.0000      -0.466401       -12.6914
  18   2.0000      -0.453401       -12.3377
  19   2.0000      -0.436242       -11.8708
  20   2.0000      -0.413093       -11.2408
  21   2.0000      -0.317951        -8.6519
  22   2.0000      -0.309818        -8.4306
  23   2.0000      -0.304444        -8.2844
  24   2.0000      -0.280134        -7.6228
  25   0.0000      -0.105668        -2.8754
  26   0.0000       0.050690         1.3793
  27   0.0000       0.054157         1.4737
  28   0.0000       0.056245         1.5305
  29   0.0000       0.078407         2.1336

MULLIKEN ATOMIC CHARGES
-----------------------
   0 N :   -0.161056
   1 C :    0.172716
   2 O :   -0.159201
   3 C :   -0.023968
   4 C :   -0.023973
   5 C :    0.172738
   6 O :   -0.159195
   7 H :    0.138296
   8 H :    0.021803
   9 H :    0.021839
Sum of atomic charges:    0.0000000

LOEWDIN ATOMIC CHARGES
----------------------
   0 N :   -0.015761
   1 C :    0.077728
   2 O :   -0.143140
   3 C :   -0.015725
   4 C :   -0.015735
   5 C :    0.077719
   6 O :   -0.143126
   7 H :    0.094337
   8 H :    0.041847
   9 H :    0.041857

  Mayer bond orders larger than 0.100000
B(  0-N ,  1-C ) :   1.0674 B(  0-N ,  5-C ) :   1.0674 B(  0-N ,  7-H ) :   0.9203
B(  1-C ,  2-O ) :   2.1699 B(  1-C ,  3-C ) :   0.9437 B(  3-C ,  4-C ) :   1.7216
B(  3-C ,  8-H ) :   1.0046 B(  4-C ,  5-C ) :   0.9438 B(  4-C ,  9-H ) :   1.0045
B(  5-C ,  6-O ) :   2.1699

Dispersion correction           -0.015212041
FINAL SINGLE POINT ENERGY      -359.185497008261

DIPOLE MOMENT
-------------
                                X             Y             Z
Electronic contribution:     -0.00148       1.62253      -0.00964
Nuclear contribution   :      0.00200      -2.16520       0.01305
                        -----------------------------------------
Total Dipole Moment    :      0.00053      -0.54267       0.00341
                        -----------------------------------------
Magnitude (a.u.)       :      0.54268
Magnitude (Debye)      :      1.37939

Rotational constants in cm-1:     0.226801     0.078380     0.058250
Rotational constants in MHz :  6799.321713  2349.772115  1746.277525

                             ****ORCA TERMINATED NORMALLY****
TOTAL RUN TIME: 0 days 0 hours 1 minutes 51 seconds 782 msec
