                         Program Version 4.2.0 -  RELEASE  -
|  1> # ORCA input file
|  2> # SCF done        -43.005886775931          0.000446409870
|  3> ! B3LYP/G D3BJ Opt RIJCOSX def2-SVP def2/J
|  4> * xyz 0 1
|  5>    C       -0.46568         1.16056         0.11363
|  6>    O       -1.19710         0.05947         0.08332
|  7>    C       -0.35687        -1.00299         0.04701
|  8>    C        0.95893        -0.55920         0.05370
|  9>    C        0.87809         0.86667         0.09772
| 10>    C        1.92437         1.92144         0.12741
| 11>    F        1.37728         3.14594         0.16673
| 12>    F        2.73847         1.84686         1.19883
| 13>    F        2.73379         1.91336        -0.94959
| 14>    O        1.98695        -1.42500         0.01911
| 15>    C        3.31566        -0.94107         0.04171
| 16>    C       -0.84770        -2.35430         0.01105
| 17>    C       -2.13526        -2.68706         0.01006
| 18>    H       -0.96527         2.10870         0.14459
| 19>    H        3.94263        -1.83049         0.01366
| 20>    H        3.52567        -0.38366         0.95725
| 21>    H        3.53354        -0.32174        -0.83134
| 22>    H       -0.06575        -3.09871        -0.01487
| 23>    H       -2.90786        -1.93767         0.03497
| 24>    H       -2.44954        -3.71475        -0.01587
| 25> *
| 26>
| 27>                          ****END OF INPUT****
 Total Charge           Charge          ....    0
 Multiplicity           Mult            ....    1
 Number of Electrons    NEL             ....   98
Dispersion correction           -0.032742495
FINAL SINGLE POINT ENERGY      -758.455983969274
Dispersion correction            ... done
Dispersion correction           -0.032742037
FINAL SINGLE POINT ENERGY      -758.458102634296
Dispersion correction            ... done
Dispersion correction           -0.032732104
FINAL SINGLE POINT ENERGY      -758.458234090290
Dispersion correction            ... done
FINAL SINGLE POINT ENERGY      -758.458241308587
FINAL SINGLE POINT ENERGY      -758.458240787645
FINAL SINGLE POINT ENERGY      -758.458243476869
FINAL SINGLE POINT ENERGY      -758.458239907908
FINAL SINGLE POINT ENERGY      -758.458237718355
FINAL SINGLE POINT ENERGY      -758.458236975311
FINAL SINGLE POINT ENERGY      -758.458250623399
Dispersion correction            ... done
Dispersion correction           -0.032719146
FINAL SINGLE POINT ENERGY      -758.458298246586
Dispersion correction            ... done
Dispersion correction           -0.032718199
FINAL SINGLE POINT ENERGY      -758.458298591252
Dispersion correction            ... done
                    ***********************HURRAY********************

CARTESIAN COORDINATES (ANGSTROEM)
---------------------------------
  C     -0.449943    1.160005    0.141727
  O     -1.179514    0.040726    0.114654
  C     -0.329106   -1.031642    0.044032
  C      0.976650   -0.569410    0.016468
  C      0.891763    0.873353    0.086786
  C      1.925110    1.945474    0.083205
  F      1.338827    3.153375    0.148307
  F      2.774595    1.866125    1.128219
  F      2.684014    1.929580   -1.034541
  O      2.014849   -1.415397   -0.084763
  C      3.342877   -0.945217    0.080975
  C     -0.863810   -2.367107    0.006025
  C     -2.170493   -2.680717    0.013037
  H     -0.979342    2.105901    0.200827
  H      3.992190   -1.825229   -0.008505
  H      3.484773   -0.481580    1.070176
  H      3.612964   -0.217375   -0.698645
  H     -0.100410   -3.149125   -0.030212
  H     -2.939747   -1.905240    0.046100
  H     -2.501900   -3.720139   -0.014791

 Multiplicity           Mult            ....    1
 Number of Electrons    NEL             ....   98
 Basis Dimension        Dim             ....  217

ORBITAL ENERGIES
----------------

  NO   OCC          E(Eh)            E(eV)
   0   2.0000     -24.727771      -672.8768
   1   2.0000     -24.724761      -672.7950
   2   2.0000     -24.724503      -672.7879
   3   2.0000     -19.219624      -522.9926
   4   2.0000     -19.180829      -521.9369
   5   2.0000     -10.447251      -284.2842
   6   2.0000     -10.267958      -279.4053
   7   2.0000     -10.267095      -279.3819
   8   2.0000     -10.252167      -278.9756
   9   2.0000     -10.246078      -278.8100
  10   2.0000     -10.219520      -278.0873
  11   2.0000     -10.201769      -277.6042
  12   2.0000     -10.187644      -277.2199
  13   2.0000      -1.304554       -35.4987
  14   2.0000      -1.213797       -33.0291
  15   2.0000      -1.209940       -32.9241
  16   2.0000      -1.128017       -30.6949
  17   2.0000      -1.074091       -29.2275
  18   2.0000      -0.832187       -22.6450
  19   2.0000      -0.808104       -21.9896
  20   2.0000      -0.751644       -20.4533
  21   2.0000      -0.711335       -19.3564
  22   2.0000      -0.707174       -19.2432
  23   2.0000      -0.635208       -17.2849
  24   2.0000      -0.625055       -17.0086
  25   2.0000      -0.605263       -16.4700
  26   2.0000      -0.599376       -16.3098
  27   2.0000      -0.579283       -15.7631
  28   2.0000      -0.542387       -14.7591
  29   2.0000      -0.530136       -14.4257
  30   2.0000      -0.495671       -13.4879
  31   2.0000      -0.492812       -13.4101
  32   2.0000      -0.476053       -12.9541
  33   2.0000      -0.475355       -12.9351
  34   2.0000      -0.465653       -12.6711
  35   2.0000      -0.462781       -12.5929
  36   2.0000      -0.458402       -12.4738
  37   2.0000      -0.439498       -11.9594
  38   2.0000      -0.437199       -11.8968
  39   2.0000      -0.434812       -11.8318
  40   2.0000      -0.417066       -11.3489
  41   2.0000      -0.400149       -10.8886
  42   2.0000      -0.389401       -10.5961
  43   2.0000      -0.369956       -10.0670
  44   2.0000      -0.365865        -9.9557
  45   2.0000      -0.345026        -9.3886
  46   2.0000      -0.312668        -8.5081
  47   2.0000      -0.281079        -7.6486
  48   2.0000      -0.211681        -5.7601
  49   0.0000      -0.041200        -1.1211
  50   0.0000       0.011582         0.3152
  51   0.0000       0.068835         1.8731
  52   0.0000       0.081005         2.2042
  53   0.0000       0.084970         2.3122

MULLIKEN ATOMIC CHARGES
-----------------------
   0 C :    0.113035
   1 O :   -0.198387
   2 C :    0.070276
   3 C :    0.148865
   4 C :   -0.183856
   5 C :    0.565787
   6 F :   -0.166980
   7 F :   -0.174153
   8 F :   -0.173618
   9 O :   -0.307403
  10 C :    0.184657
  11 C :   -0.023721
  12 C :   -0.013798
  13 H :    0.021809
  14 H :    0.035515
  15 H :    0.025092
  16 H :    0.031223
  17 H :    0.003074
  18 H :    0.023285
  19 H :    0.019297
Sum of atomic charges:   -0.0000000

LOEWDIN ATOMIC CHARGES
----------------------
   0 C :    0.064646
   1 O :    0.023799
   2 C :   -0.007082
   3 C :    0.020047
   4 C :   -0.163979
   5 C :    0.179044
   6 F :   -0.057325
   7 F :   -0.066085
   8 F :   -0.066988
   9 O :   -0.095100
  10 C :    0.080659
  11 C :   -0.038223
  12 C :   -0.050686
  13 H :    0.030850
  14 H :    0.028831
  15 H :    0.014751
  16 H :    0.013368
  17 H :    0.039710
  18 H :    0.024335
  19 H :    0.025429

  Mayer bond orders larger than 0.100000
B(  0-C ,  1-O ) :   1.1856 B(  0-C ,  4-C ) :   1.4875 B(  0-C , 13-H ) :   1.0083
B(  1-O ,  2-C ) :   1.0965 B(  2-C ,  3-C ) :   1.4324 B(  2-C , 11-C ) :   1.1481
B(  3-C ,  4-C ) :   1.2027 B(  3-C ,  9-O ) :   1.2124 B(  4-C ,  5-C ) :   0.9630
B(  5-C ,  6-F ) :   1.1477 B(  5-C ,  7-F ) :   1.1305 B(  5-C ,  8-F ) :   1.1291
B(  9-O , 10-C ) :   0.9325 B( 10-C , 14-H ) :   0.9755 B( 10-C , 15-H ) :   0.9647
B( 10-C , 16-H ) :   0.9606 B( 11-C , 12-C ) :   1.8812 B( 11-C , 17-H ) :   0.9539
B( 12-C , 18-H ) :   0.9543 B( 12-C , 19-H ) :   0.9435

Dispersion correction           -0.032719078
FINAL SINGLE POINT ENERGY      -758.458300200948

DIPOLE MOMENT
-------------
                                X             Y             Z
Electronic contribution:      5.87168      16.01092      -0.00427
Nuclear contribution   :     -5.71520     -16.22245       0.08141
                        -----------------------------------------
Total Dipole Moment    :      0.15648      -0.21153       0.07715
                        -----------------------------------------
Magnitude (a.u.)       :      0.27419
Magnitude (Debye)      :      0.69695

Rotational constants in cm-1:     0.047852     0.018362     0.014317
Rotational constants in MHz :  1434.578355   550.467359   429.211747

                             ****ORCA TERMINATED NORMALLY****
TOTAL RUN TIME: 0 days 0 hours 14 minutes 54 seconds 22 msec
