                         Program Version 4.2.0 -  RELEASE  -
|  1> # ORCA input file
|  2> # SCF done        -33.830035900980          0.000310378790
|  3> ! B3LYP/G D3BJ Opt RIJCOSX def2-SVP def2/J
|  4> * xyz 0 1
|  5>    C        0.66873         1.24273        -0.03229
|  6>    C        1.26206        -0.00678        -0.05068
|  7>    C        2.75279        -0.16570        -0.07526
|  8>    C        0.43740        -1.12172        -0.06055
|  9>    C       -0.94689        -1.01403        -0.03701
| 10>    C       -1.74758        -2.29050        -0.02477
| 11>    C       -2.02483        -2.74697         1.40896
| 12>    C       -1.53759         0.24919         0.00730
| 13>    C       -3.02762         0.43513         0.08647
| 14>    C       -0.71539         1.38485        -0.00792
| 15>    C       -1.29760         2.72942        -0.01961
| 16>    C       -0.78721         3.77631         0.61284
| 17>    H        1.28595         2.12901        -0.05786
| 18>    H        3.24788         0.80026        -0.01578
| 19>    H        3.06678        -0.66015        -0.99407
| 20>    H        3.08334        -0.77926         0.76197
| 21>    H        0.88563        -2.10559        -0.09086
| 22>    H       -1.17754        -3.06900        -0.53679
| 23>    H       -2.68739        -2.16734        -0.56431
| 24>    H       -1.08778        -2.91423         1.93537
| 25>    H       -2.59456        -3.67389         1.41145
| 26>    H       -2.58692        -1.99210         1.95403
| 27>    H       -3.53779        -0.47969         0.36684
| 28>    H       -3.42063         0.76133        -0.87801
| 29>    H       -3.27137         1.19759         0.82449
| 30>    H       -2.20540         2.84902        -0.59698
| 31>    H        0.09651         3.69883         1.22418
| 32>    H       -1.24370         4.75024         0.55807
| 33> *
| 34>
| 35>                          ****END OF INPUT****
 Total Charge           Charge          ....    0
 Multiplicity           Mult            ....    1
 Number of Electrons    NEL             ....   88
Dispersion correction           -0.052309764
FINAL SINGLE POINT ENERGY      -466.620752772481
Dispersion correction            ... done
Dispersion correction           -0.051746284
FINAL SINGLE POINT ENERGY      -466.624675318869
Dispersion correction            ... done
Dispersion correction           -0.051659769
FINAL SINGLE POINT ENERGY      -466.624896641065
Dispersion correction            ... done
FINAL SINGLE POINT ENERGY      -466.624986010559
FINAL SINGLE POINT ENERGY      -466.625003562411
FINAL SINGLE POINT ENERGY      -466.625011339241
FINAL SINGLE POINT ENERGY      -466.625018058671
FINAL SINGLE POINT ENERGY      -466.625030890229
FINAL SINGLE POINT ENERGY      -466.625046549495
Dispersion correction            ... done
Dispersion correction           -0.051659435
FINAL SINGLE POINT ENERGY      -466.625058274963
Dispersion correction            ... done
Dispersion correction           -0.051661667
FINAL SINGLE POINT ENERGY      -466.625064432672
Dispersion correction            ... done
                    ***********************HURRAY********************

CARTESIAN COORDINATES (ANGSTROEM)
---------------------------------
  C      0.689754    1.247183   -0.021231
  C      1.299290   -0.007208   -0.055369
  C      2.798329   -0.156729   -0.109317
  C      0.469580   -1.133978   -0.066253
  C     -0.927143   -1.036540   -0.041590
  C     -1.729754   -2.321289    0.003965
  C     -2.107715   -2.733104    1.434243
  C     -1.533080    0.238341   -0.000482
  C     -3.034998    0.401623    0.058087
  C     -0.707732    1.390112    0.006834
  C     -1.310051    2.737262    0.042567
  C     -0.766618    3.834110    0.589796
  H      1.311472    2.145622   -0.042123
  H      3.306579    0.792825    0.114128
  H      3.132194   -0.491472   -1.106868
  H      3.151864   -0.908415    0.613326
  H      0.925013   -2.128980   -0.103213
  H     -1.132744   -3.123912   -0.458402
  H     -2.640015   -2.233089   -0.609402
  H     -1.204251   -2.884109    2.044780
  H     -2.687952   -3.669822    1.442980
  H     -2.711529   -1.955398    1.928237
  H     -3.555907   -0.550107    0.208960
  H     -3.432768    0.845678   -0.871183
  H     -3.331779    1.072721    0.878583
  H     -2.294268    2.837561   -0.425375
  H      0.196537    3.811366    1.107284
  H     -1.283030    4.796707    0.546258

 Multiplicity           Mult            ....    1
 Number of Electrons    NEL             ....   88
 Basis Dimension        Dim             ....  248

ORBITAL ENERGIES
----------------

  NO   OCC          E(Eh)            E(eV)
   0   2.0000     -10.190097      -277.2866
   1   2.0000     -10.189489      -277.2701
   2   2.0000     -10.188155      -277.2338
   3   2.0000     -10.187572      -277.2179
   4   2.0000     -10.187351      -277.2119
   5   2.0000     -10.187229      -277.2086
   6   2.0000     -10.184460      -277.1333
   7   2.0000     -10.184409      -277.1318
   8   2.0000     -10.183914      -277.1184
   9   2.0000     -10.181019      -277.0396
  10   2.0000     -10.178630      -276.9746
  11   2.0000     -10.177951      -276.9561
  12   2.0000      -0.854159       -23.2429
  13   2.0000      -0.789112       -21.4728
  14   2.0000      -0.784637       -21.3511
  15   2.0000      -0.743179       -20.2229
  16   2.0000      -0.709439       -19.3048
  17   2.0000      -0.703789       -19.1511
  18   2.0000      -0.646756       -17.5991
  19   2.0000      -0.625815       -17.0293
  20   2.0000      -0.604463       -16.4483
  21   2.0000      -0.551879       -15.0174
  22   2.0000      -0.536456       -14.5977
  23   2.0000      -0.493001       -13.4152
  24   2.0000      -0.481668       -13.1069
  25   2.0000      -0.450258       -12.2521
  26   2.0000      -0.439529       -11.9602
  27   2.0000      -0.432103       -11.7581
  28   2.0000      -0.424209       -11.5433
  29   2.0000      -0.413598       -11.2546
  30   2.0000      -0.407425       -11.0866
  31   2.0000      -0.399798       -10.8790
  32   2.0000      -0.393570       -10.7096
  33   2.0000      -0.387008       -10.5310
  34   2.0000      -0.372878       -10.1465
  35   2.0000      -0.370180       -10.0731
  36   2.0000      -0.364978        -9.9315
  37   2.0000      -0.346411        -9.4263
  38   2.0000      -0.338212        -9.2032
  39   2.0000      -0.326391        -8.8816
  40   2.0000      -0.322266        -8.7693
  41   2.0000      -0.286770        -7.8034
  42   2.0000      -0.233170        -6.3449
  43   2.0000      -0.222525        -6.0552
  44   0.0000      -0.032950        -0.8966
  45   0.0000      -0.000004        -0.0001
  46   0.0000       0.040703         1.1076
  47   0.0000       0.059447         1.6176
  48   0.0000       0.068912         1.8752

MULLIKEN ATOMIC CHARGES
-----------------------
   0 C :   -0.075474
   1 C :   -0.013274
   2 C :    0.090564
   3 C :   -0.069689
   4 C :   -0.043712
   5 C :    0.042573
   6 C :    0.023530
   7 C :   -0.115146
   8 C :    0.084411
   9 C :    0.080615
  10 C :   -0.032900
  11 C :   -0.025300
  12 H :   -0.045126
  13 H :    0.002895
  14 H :    0.022933
  15 H :    0.016678
  16 H :   -0.049737
  17 H :   -0.004868
  18 H :    0.004473
  19 H :    0.007444
  20 H :    0.011520
  21 H :    0.010215
  22 H :    0.006739
  23 H :    0.022100
  24 H :    0.023901
  25 H :   -0.010884
  26 H :    0.017360
  27 H :    0.018161
Sum of atomic charges:    0.0000000

LOEWDIN ATOMIC CHARGES
----------------------
   0 C :   -0.025495
   1 C :   -0.029481
   2 C :   -0.043649
   3 C :   -0.032719
   4 C :   -0.020889
   5 C :   -0.029477
   6 C :   -0.050868
   7 C :   -0.026082
   8 C :   -0.049669
   9 C :   -0.028565
  10 C :   -0.019656
  11 C :   -0.049419
  12 H :    0.020582
  13 H :    0.026213
  14 H :    0.033693
  15 H :    0.030689
  16 H :    0.018902
  17 H :    0.024761
  18 H :    0.022690
  19 H :    0.023412
  20 H :    0.022096
  21 H :    0.021164
  22 H :    0.025490
  23 H :    0.032808
  24 H :    0.033095
  25 H :    0.026031
  26 H :    0.020650
  27 H :    0.023692

  Mayer bond orders larger than 0.100000
B(  0-C ,  1-C ) :   1.3690 B(  0-C ,  9-C ) :   1.3424 B(  0-C , 12-H ) :   0.9884
B(  1-C ,  2-C ) :   1.0569 B(  1-C ,  3-C ) :   1.3492 B(  2-C , 13-H ) :   0.9582
B(  2-C , 14-H ) :   0.9534 B(  2-C , 15-H ) :   0.9566 B(  3-C ,  4-C ) :   1.3751
B(  3-C , 16-H ) :   0.9908 B(  4-C ,  5-C ) :   1.0534 B(  4-C ,  7-C ) :   1.3937
B(  5-C ,  6-C ) :   1.1074 B(  5-C , 17-H ) :   0.9253 B(  5-C , 18-H ) :   0.9208
B(  6-C , 19-H ) :   0.9625 B(  6-C , 20-H ) :   0.9638 B(  6-C , 21-H ) :   0.9675
B(  7-C ,  8-C ) :   1.1128 B(  7-C ,  9-C ) :   1.3584 B(  8-C , 22-H ) :   0.9420
B(  8-C , 23-H ) :   0.9372 B(  8-C , 24-H ) :   0.9395 B(  9-C , 10-C ) :   1.0522
B( 10-C , 11-C ) :   1.9549 B( 10-C , 25-H ) :   0.9427 B( 11-C , 26-H ) :   0.9490
B( 11-C , 27-H ) :   0.9447

Dispersion correction           -0.051664028
FINAL SINGLE POINT ENERGY      -466.625066574899

DIPOLE MOMENT
-------------
                                X             Y             Z
Electronic contribution:      2.54223       3.97837      -2.38582
Nuclear contribution   :     -2.61881      -4.15344       2.37348
                        -----------------------------------------
Total Dipole Moment    :     -0.07658      -0.17508      -0.01235
                        -----------------------------------------
Magnitude (a.u.)       :      0.19149
Magnitude (Debye)      :      0.48673

Rotational constants in cm-1:     0.036311     0.026385     0.016296
Rotational constants in MHz :  1088.571332   791.015633   488.541010

                             ****ORCA TERMINATED NORMALLY****
TOTAL RUN TIME: 0 days 0 hours 21 minutes 5 seconds 366 msec
