                         Program Version 4.2.0 -  RELEASE  -
|  1> # ORCA input file
|  2> # SCF done        -25.479173222389          0.000220373853
|  3> ! B3LYP/G D3BJ Opt RIJCOSX def2-SVP def2/J
|  4> * xyz 0 1
|  5>    C        1.56860         1.22710         0.05282
|  6>    S        2.77383         0.00173        -0.03222
|  7>    C        1.56110        -1.21848        -0.07851
|  8>    C        0.30486        -0.70431        -0.03154
|  9>    C        0.30946         0.71825         0.04674
| 10>    C       -0.95216         1.51777         0.14751
| 11>    C       -2.14810         0.69263        -0.32322
| 12>    C       -2.15205        -0.66611         0.37163
| 13>    C       -0.96158        -1.50047        -0.09773
| 14>    H        1.86780         2.25521         0.10491
| 15>    H        1.85420        -2.24770        -0.14170
| 16>    H       -0.86259         2.43699        -0.43587
| 17>    H       -1.10328         1.80787         1.19302
| 18>    H       -2.08978         0.54526        -1.40403
| 19>    H       -3.07221         1.23134        -0.10558
| 20>    H       -3.07935        -1.19968         0.15425
| 21>    H       -2.09402        -0.51774         1.45239
| 22>    H       -1.12594        -1.81225        -1.13474
| 23>    H       -0.86674        -2.40771         0.50319
| 24> *
| 25>
| 26>                          ****END OF INPUT****
 Total Charge           Charge          ....    0
 Multiplicity           Mult            ....    1
 Number of Electrons    NEL             ....   74
Dispersion correction           -0.037500334
FINAL SINGLE POINT ENERGY      -708.766134469980
Dispersion correction            ... done
Dispersion correction           -0.037236464
FINAL SINGLE POINT ENERGY      -708.768716250234
Dispersion correction            ... done
Dispersion correction           -0.037162631
FINAL SINGLE POINT ENERGY      -708.768801222880
Dispersion correction            ... done
FINAL SINGLE POINT ENERGY      -708.768739482699
FINAL SINGLE POINT ENERGY      -708.768685914621
Dispersion correction            ... done
Dispersion correction           -0.037111026
FINAL SINGLE POINT ENERGY      -708.768665216302
Dispersion correction            ... done
Dispersion correction           -0.037112925
FINAL SINGLE POINT ENERGY      -708.768683142533
Dispersion correction            ... done
                    ***********************HURRAY********************

CARTESIAN COORDINATES (ANGSTROEM)
---------------------------------
  C      1.605754    1.241667    0.010921
  S      2.809414    0.000807   -0.028034
  C      1.599426   -1.234469   -0.033449
  C      0.327468   -0.713416   -0.013277
  C      0.331404    0.726450    0.026356
  C     -0.944608    1.524470    0.139445
  C     -2.175876    0.712357   -0.287683
  C     -2.177131   -0.685930    0.339285
  C     -0.954116   -1.506597   -0.096079
  H      1.902917    2.289201    0.040506
  H      1.891049   -2.283350   -0.070319
  H     -0.869313    2.453793   -0.446789
  H     -1.073834    1.840506    1.191146
  H     -2.193754    0.616703   -1.388143
  H     -3.090070    1.257696   -0.001839
  H     -3.096362   -1.226547    0.060698
  H     -2.187101   -0.588927    1.439711
  H     -1.099511   -1.835604   -1.141539
  H     -0.873708   -2.429109    0.500403

 Multiplicity           Mult            ....    1
 Number of Electrons    NEL             ....   74
 Basis Dimension        Dim             ....  180

ORBITAL ENERGIES
----------------

  NO   OCC          E(Eh)            E(eV)
   0   2.0000     -88.863599     -2418.1015
   1   2.0000     -10.199072      -277.5309
   2   2.0000     -10.199025      -277.5296
   3   2.0000     -10.189490      -277.2701
   4   2.0000     -10.189423      -277.2683
   5   2.0000     -10.186631      -277.1923
   6   2.0000     -10.186427      -277.1868
   7   2.0000     -10.186134      -277.1788
   8   2.0000     -10.186050      -277.1765
   9   2.0000      -7.958600      -216.5645
  10   2.0000      -5.926665      -161.2727
  11   2.0000      -5.922571      -161.1614
  12   2.0000      -5.920174      -161.0961
  13   2.0000      -0.873059       -23.7571
  14   2.0000      -0.808543       -22.0016
  15   2.0000      -0.752593       -20.4791
  16   2.0000      -0.721971       -19.6458
  17   2.0000      -0.685018       -18.6403
  18   2.0000      -0.623360       -16.9625
  19   2.0000      -0.578403       -15.7391
  20   2.0000      -0.560756       -15.2589
  21   2.0000      -0.507527       -13.8105
  22   2.0000      -0.491608       -13.3773
  23   2.0000      -0.454021       -12.3545
  24   2.0000      -0.430441       -11.7129
  25   2.0000      -0.421386       -11.4665
  26   2.0000      -0.402776       -10.9601
  27   2.0000      -0.394317       -10.7299
  28   2.0000      -0.391367       -10.6496
  29   2.0000      -0.390931       -10.6378
  30   2.0000      -0.347313        -9.4509
  31   2.0000      -0.334288        -9.0964
  32   2.0000      -0.332945        -9.0599
  33   2.0000      -0.326029        -8.8717
  34   2.0000      -0.318933        -8.6786
  35   2.0000      -0.234310        -6.3759
  36   2.0000      -0.226151        -6.1539
  37   0.0000      -0.012516        -0.3406
  38   0.0000       0.045428         1.2362
  39   0.0000       0.057074         1.5531
  40   0.0000       0.064835         1.7643
  41   0.0000       0.081833         2.2268

MULLIKEN ATOMIC CHARGES
-----------------------
   0 C :   -0.142519
   1 S :    0.087864
   2 C :   -0.142553
   3 C :   -0.049138
   4 C :   -0.049542
   5 C :    0.140898
   6 C :    0.000685
   7 C :    0.001415
   8 C :    0.139399
   9 H :    0.006676
  10 H :    0.006698
  11 H :   -0.004691
  12 H :    0.007456
  13 H :    0.003687
  14 H :   -0.006711
  15 H :   -0.006759
  16 H :    0.003554
  17 H :    0.007269
  18 H :   -0.003688
Sum of atomic charges:    0.0000000

LOEWDIN ATOMIC CHARGES
----------------------
   0 C :   -0.205703
   1 S :    0.419500
   2 C :   -0.205657
   3 C :   -0.068374
   4 C :   -0.068349
   5 C :   -0.023374
   6 C :   -0.031203
   7 C :   -0.031236
   8 C :   -0.023521
   9 H :    0.019813
  10 H :    0.019804
  11 H :    0.027665
  12 H :    0.029610
  13 H :    0.020245
  14 H :    0.021498
  15 H :    0.021532
  16 H :    0.020216
  17 H :    0.029650
  18 H :    0.027885

  Mayer bond orders larger than 0.100000
B(  0-C ,  1-S ) :   1.1599 B(  0-C ,  4-C ) :   1.5541 B(  0-C ,  9-H ) :   0.9655
B(  1-S ,  2-C ) :   1.1601 B(  2-C ,  3-C ) :   1.5541 B(  2-C , 10-H ) :   0.9656
B(  3-C ,  4-C ) :   1.2956 B(  3-C ,  8-C ) :   1.0407 B(  4-C ,  5-C ) :   1.0410
B(  5-C ,  6-C ) :   1.0917 B(  5-C , 11-H ) :   0.9181 B(  5-C , 12-H ) :   0.9157
B(  6-C ,  7-C ) :   1.0778 B(  6-C , 13-H ) :   0.9439 B(  6-C , 14-H ) :   0.9330
B(  7-C ,  8-C ) :   1.0919 B(  7-C , 15-H ) :   0.9331 B(  7-C , 16-H ) :   0.9436
B(  8-C , 17-H ) :   0.9160 B(  8-C , 18-H ) :   0.9185

Dispersion correction           -0.037112025
FINAL SINGLE POINT ENERGY      -708.768683589869

DIPOLE MOMENT
-------------
                                X             Y             Z
Electronic contribution:     13.10715      -0.02773      -0.14727
Nuclear contribution   :    -13.53495       0.02787       0.15206
                        -----------------------------------------
Total Dipole Moment    :     -0.42780       0.00014       0.00479
                        -----------------------------------------
Magnitude (a.u.)       :      0.42783
Magnitude (Debye)      :      1.08745

Rotational constants in cm-1:     0.105791     0.034801     0.027022
Rotational constants in MHz :  3171.530763  1043.313609   810.098412

                             ****ORCA TERMINATED NORMALLY****
TOTAL RUN TIME: 0 days 0 hours 7 minutes 0 seconds 478 msec
