                         Program Version 4.2.0 -  RELEASE  -
|  1> # ORCA input file
|  2> # SCF done        -43.861415061937          0.000583249029
|  3> ! B3LYP/G D3BJ Opt RIJCOSX def2-SVP def2/J
|  4> * xyz 0 1
|  5>    C       -2.40343        -0.62389        -0.31472
|  6>    C       -2.63024         0.87918        -0.40595
|  7>    O       -3.56895         1.44346        -0.87882
|  8>    O       -1.58695         1.52314         0.14751
|  9>    C       -0.56438         0.61360         0.53523
| 10>    C       -1.29669        -0.72702         0.73175
| 11>    C       -0.39681        -1.95406         0.65639
| 12>    C        0.48625        -1.95550        -0.58407
| 13>    C        1.33072        -0.69291        -0.70174
| 14>    C        0.53929         0.61966        -0.55051
| 15>    O        1.52006         1.58649        -0.19471
| 16>    C        2.59019         1.00883         0.38033
| 17>    O        3.50221         1.63011         0.83352
| 18>    C        2.43093        -0.50510         0.33987
| 19>    H       -2.08647        -0.98475        -1.29442
| 20>    H       -3.32367        -1.13518        -0.04159
| 21>    H       -0.13102         0.99601         1.46443
| 22>    H       -1.76506        -0.70176         1.72223
| 23>    H       -1.02038        -2.84933         0.66099
| 24>    H        0.22555        -1.98665         1.55239
| 25>    H       -0.13337        -2.04614        -1.47797
| 26>    H        1.14903        -2.82178        -0.55874
| 27>    H        1.79835        -0.68059        -1.69282
| 28>    H        0.09010         0.95053        -1.49189
| 29>    H        2.12983        -0.84666         1.33140
| 30>    H        3.37335        -0.98355         0.08332
| 31> *
| 32>
| 33>                          ****END OF INPUT****
 Total Charge           Charge          ....    0
 Multiplicity           Mult            ....    1
 Number of Electrons    NEL             ....  104
Dispersion correction           -0.052627611
FINAL SINGLE POINT ENERGY      -688.755940700148
Dispersion correction            ... done
Dispersion correction           -0.052216529
FINAL SINGLE POINT ENERGY      -688.757791109891
Dispersion correction            ... done
Dispersion correction           -0.052147600
FINAL SINGLE POINT ENERGY      -688.757982063795
Dispersion correction            ... done
FINAL SINGLE POINT ENERGY      -688.758038277691
FINAL SINGLE POINT ENERGY      -688.758072577189
Dispersion correction            ... done
Dispersion correction           -0.052200795
FINAL SINGLE POINT ENERGY      -688.758083167694
Dispersion correction            ... done
Dispersion correction           -0.052205865
FINAL SINGLE POINT ENERGY      -688.758091370642
Dispersion correction            ... done
                    ***********************HURRAY********************

CARTESIAN COORDINATES (ANGSTROEM)
---------------------------------
  C     -2.408261   -0.619481   -0.322237
  C     -2.670730    0.878434   -0.395937
  O     -3.621071    1.447804   -0.843946
  O     -1.604373    1.535720    0.147923
  C     -0.568305    0.618694    0.530625
  C     -1.299123   -0.730202    0.724634
  C     -0.398615   -1.964188    0.657876
  C      0.488757   -1.963963   -0.586182
  C      1.332850   -0.693010   -0.694327
  C      0.543020    0.627217   -0.542905
  O      1.537673    1.602725   -0.192236
  C      2.633862    1.010380    0.366477
  O      3.563969    1.633456    0.784473
  C      2.433471   -0.498420    0.348627
  H     -2.085728   -0.960014   -1.321130
  H     -3.332923   -1.157307   -0.076504
  H     -0.138125    0.992717    1.470736
  H     -1.777009   -0.692365    1.716749
  H     -1.022398   -2.871880    0.686589
  H      0.228022   -2.002290    1.564794
  H     -0.134794   -2.060607   -1.490574
  H      1.154046   -2.842197   -0.585457
  H      1.809710   -0.666785   -1.687366
  H      0.095797    0.952540   -1.493263
  H      2.118811   -0.813674    1.358411
  H      3.379909   -1.007164    0.125561

 Multiplicity           Mult            ....    1
 Number of Electrons    NEL             ....  104
 Basis Dimension        Dim             ....  256

ORBITAL ENERGIES
----------------

  NO   OCC          E(Eh)            E(eV)
   0   2.0000     -19.184379      -522.0335
   1   2.0000     -19.184279      -522.0308
   2   2.0000     -19.127456      -520.4845
   3   2.0000     -19.127254      -520.4790
   4   2.0000     -10.321219      -280.8546
   5   2.0000     -10.321034      -280.8496
   6   2.0000     -10.270553      -279.4760
   7   2.0000     -10.270462      -279.4735
   8   2.0000     -10.227835      -278.3135
   9   2.0000     -10.227743      -278.3110
  10   2.0000     -10.220344      -278.1097
  11   2.0000     -10.220152      -278.1045
  12   2.0000     -10.219021      -278.0737
  13   2.0000     -10.218846      -278.0689
  14   2.0000      -1.107901       -30.1475
  15   2.0000      -1.100678       -29.9510
  16   2.0000      -1.027762       -27.9668
  17   2.0000      -1.022243       -27.8167
  18   2.0000      -0.865534       -23.5524
  19   2.0000      -0.818341       -22.2682
  20   2.0000      -0.773569       -21.0499
  21   2.0000      -0.763346       -20.7717
  22   2.0000      -0.722772       -19.6676
  23   2.0000      -0.661477       -17.9997
  24   2.0000      -0.636192       -17.3117
  25   2.0000      -0.588637       -16.0176
  26   2.0000      -0.587819       -15.9954
  27   2.0000      -0.558655       -15.2018
  28   2.0000      -0.538108       -14.6427
  29   2.0000      -0.533882       -14.5277
  30   2.0000      -0.501159       -13.6372
  31   2.0000      -0.498146       -13.5553
  32   2.0000      -0.474537       -12.9128
  33   2.0000      -0.467923       -12.7328
  34   2.0000      -0.465423       -12.6648
  35   2.0000      -0.456021       -12.4090
  36   2.0000      -0.452414       -12.3108
  37   2.0000      -0.433561       -11.7978
  38   2.0000      -0.424075       -11.5397
  39   2.0000      -0.401278       -10.9193
  40   2.0000      -0.399202       -10.8629
  41   2.0000      -0.395215       -10.7544
  42   2.0000      -0.391300       -10.6478
  43   2.0000      -0.380453       -10.3526
  44   2.0000      -0.373846       -10.1729
  45   2.0000      -0.369458       -10.0535
  46   2.0000      -0.341998        -9.3062
  47   2.0000      -0.341429        -9.2908
  48   2.0000      -0.323971        -8.8157
  49   2.0000      -0.297491        -8.0951
  50   2.0000      -0.280461        -7.6317
  51   2.0000      -0.280090        -7.6216
  52   0.0000      -0.005322        -0.1448
  53   0.0000      -0.003628        -0.0987
  54   0.0000       0.016919         0.4604
  55   0.0000       0.026572         0.7231
  56   0.0000       0.048412         1.3174

MULLIKEN ATOMIC CHARGES
-----------------------
   0 C :    0.033207
   1 C :    0.160614
   2 O :   -0.165004
   3 O :   -0.285898
   4 C :    0.177508
   5 C :   -0.124294
   6 C :    0.092889
   7 C :    0.097950
   8 C :   -0.129338
   9 C :    0.180731
  10 O :   -0.285720
  11 C :    0.160286
  12 O :   -0.165518
  13 C :    0.035253
  14 H :    0.038237
  15 H :    0.037908
  16 H :    0.009037
  17 H :    0.012300
  18 H :    0.008433
  19 H :    0.003386
  20 H :    0.002488
  21 H :    0.009083
  22 H :    0.012226
  23 H :    0.009104
  24 H :    0.037827
  25 H :    0.037304
Sum of atomic charges:    0.0000000

LOEWDIN ATOMIC CHARGES
----------------------
   0 C :   -0.056792
   1 C :    0.082428
   2 O :   -0.143549
   3 O :   -0.090927
   4 C :    0.072942
   5 C :   -0.037808
   6 C :   -0.025854
   7 C :   -0.025640
   8 C :   -0.037915
   9 C :    0.073407
  10 O :   -0.091054
  11 C :    0.082251
  12 O :   -0.143677
  13 C :   -0.056547
  14 H :    0.040517
  15 H :    0.044082
  16 H :    0.027225
  17 H :    0.033323
  18 H :    0.031191
  19 H :    0.023262
  20 H :    0.023184
  21 H :    0.031232
  22 H :    0.033243
  23 H :    0.027270
  24 H :    0.040367
  25 H :    0.043836

  Mayer bond orders larger than 0.100000
B(  0-C ,  1-C ) :   0.9597 B(  0-C ,  5-C ) :   1.0269 B(  0-C , 14-H ) :   0.9210
B(  0-C , 15-H ) :   0.9271 B(  1-C ,  2-O ) :   2.2122 B(  1-C ,  3-O ) :   1.0960
B(  3-O ,  4-C ) :   0.9519 B(  4-C ,  5-C ) :   1.0170 B(  4-C ,  9-C ) :   0.9679
B(  4-C , 16-H ) :   0.9129 B(  5-C ,  6-C ) :   1.0601 B(  5-C , 17-H ) :   0.9092
B(  6-C ,  7-C ) :   1.0692 B(  6-C , 18-H ) :   0.9228 B(  6-C , 19-H ) :   0.9342
B(  7-C ,  8-C ) :   1.0606 B(  7-C , 20-H ) :   0.9329 B(  7-C , 21-H ) :   0.9234
B(  8-C ,  9-C ) :   1.0157 B(  8-C , 13-C ) :   1.0267 B(  8-C , 22-H ) :   0.9094
B(  9-C , 10-O ) :   0.9512 B(  9-C , 23-H ) :   0.9133 B( 10-O , 11-C ) :   1.0963
B( 11-C , 12-O ) :   2.2112 B( 11-C , 13-C ) :   0.9602 B( 13-C , 24-H ) :   0.9208
B( 13-C , 25-H ) :   0.9272

Dispersion correction           -0.052204844
FINAL SINGLE POINT ENERGY      -688.758095388381

DIPOLE MOMENT
-------------
                                X             Y             Z
Electronic contribution:     -0.26127      12.24241      -0.21913
Nuclear contribution   :      0.31208     -14.89163       0.27054
                        -----------------------------------------
Total Dipole Moment    :      0.05081      -2.64922       0.05141
                        -----------------------------------------
Magnitude (a.u.)       :      2.65021
Magnitude (Debye)      :      6.73630

Rotational constants in cm-1:     0.043820     0.017332     0.013756
Rotational constants in MHz :  1313.676486   519.585572   412.406890

                             ****ORCA TERMINATED NORMALLY****
TOTAL RUN TIME: 0 days 0 hours 15 minutes 6 seconds 535 msec
