                         Program Version 4.2.0 -  RELEASE  -
|  1> # ORCA input file
|  2> # SCF done        -33.206521959387          0.000705493265
|  3> ! B3LYP/G D3BJ Opt RIJCOSX def2-SVP def2/J
|  4> * xyz 0 1
|  5>    C       -1.56340         1.24084        -0.06313
|  6>    S       -2.70650        -0.02111        -0.11433
|  7>    C       -1.49092        -1.25122        -0.03370
|  8>    C       -0.22017        -0.67871        -0.00480
|  9>    C       -0.27736         0.75850        -0.00971
| 10>    C        0.93548         1.50988         0.03124
| 11>    C        0.87777         2.91824         0.05002
| 12>    N        0.82698         4.06447         0.06873
| 13>    C        2.13804         0.84721         0.04417
| 14>    C        2.18366        -0.55904        -0.00742
| 15>    C        1.04340        -1.31055        -0.03523
| 16>    C       -1.92031        -2.62344         0.01541
| 17>    C       -1.25642        -3.64152         0.55963
| 18>    H       -1.88241         2.26410        -0.07040
| 19>    H        3.05872         1.41087         0.07565
| 20>    H        3.14827        -1.04315        -0.03247
| 21>    H        1.10028        -2.38459        -0.10735
| 22>    H       -2.90659        -2.79719        -0.39790
| 23>    H       -0.30506        -3.52069         1.04659
| 24>    H       -1.66983        -4.63490         0.55604
| 25> *
| 26>
| 27>                          ****END OF INPUT****
 Total Charge           Charge          ....    0
 Multiplicity           Mult            ....    1
 Number of Electrons    NEL             ....   96
Dispersion correction           -0.048000607
FINAL SINGLE POINT ENERGY      -875.872123025673
Dispersion correction            ... done
Dispersion correction           -0.047685658
FINAL SINGLE POINT ENERGY      -875.875678851566
Dispersion correction            ... done
Dispersion correction           -0.047635124
FINAL SINGLE POINT ENERGY      -875.875770458525
Dispersion correction            ... done
FINAL SINGLE POINT ENERGY      -875.875794839122
FINAL SINGLE POINT ENERGY      -875.875795424091
FINAL SINGLE POINT ENERGY      -875.875797640504
Dispersion correction            ... done
Dispersion correction           -0.047639679
FINAL SINGLE POINT ENERGY      -875.875801021594
Dispersion correction            ... done
Dispersion correction           -0.047640279
FINAL SINGLE POINT ENERGY      -875.875803542700
Dispersion correction            ... done
                    ***********************HURRAY********************

CARTESIAN COORDINATES (ANGSTROEM)
---------------------------------
  C     -1.577847    1.263825   -0.056494
  S     -2.711001   -0.014265   -0.102733
  C     -1.503093   -1.254004   -0.024660
  C     -0.221888   -0.672269    0.008156
  C     -0.278002    0.777683   -0.001595
  C      0.949347    1.530326    0.025014
  C      0.893390    2.960075    0.038134
  N      0.817590    4.119204    0.051763
  C      2.157429    0.858950    0.029319
  C      2.202449   -0.562987    0.000502
  C      1.050415   -1.315086   -0.007718
  C     -1.935130   -2.641368    0.020434
  C     -1.267599   -3.683888    0.545092
  H     -1.898607    2.303733   -0.070991
  H      3.086195    1.431457    0.042407
  H      3.174154   -1.060219   -0.025830
  H      1.107731   -2.402785   -0.052515
  H     -2.929525   -2.830016   -0.400477
  H     -0.301451   -3.574026    1.040218
  H     -1.700929   -4.686341    0.513016

 Multiplicity           Mult            ....    1
 Number of Electrons    NEL             ....   96
 Basis Dimension        Dim             ....  221

ORBITAL ENERGIES
----------------

  NO   OCC          E(Eh)            E(eV)
   0   2.0000     -88.901702     -2419.1383
   1   2.0000     -14.329065      -389.9137
   2   2.0000     -10.241008      -278.6720
   3   2.0000     -10.237310      -278.5714
   4   2.0000     -10.229351      -278.3548
   5   2.0000     -10.228977      -278.3446
   6   2.0000     -10.224398      -278.2200
   7   2.0000     -10.223260      -278.1890
   8   2.0000     -10.220540      -278.1150
   9   2.0000     -10.219496      -278.0866
  10   2.0000     -10.218753      -278.0664
  11   2.0000     -10.213486      -277.9231
  12   2.0000     -10.204193      -277.6702
  13   2.0000      -7.996404      -217.5932
  14   2.0000      -5.964021      -162.2893
  15   2.0000      -5.959967      -162.1790
  16   2.0000      -5.958811      -162.1475
  17   2.0000      -0.915921       -24.9235
  18   2.0000      -0.897316       -24.4172
  19   2.0000      -0.853720       -23.2309
  20   2.0000      -0.806855       -21.9556
  21   2.0000      -0.778448       -21.1827
  22   2.0000      -0.755058       -20.5462
  23   2.0000      -0.713649       -19.4194
  24   2.0000      -0.657596       -17.8941
  25   2.0000      -0.627592       -17.0777
  26   2.0000      -0.603500       -16.4221
  27   2.0000      -0.582997       -15.8642
  28   2.0000      -0.528891       -14.3918
  29   2.0000      -0.513212       -13.9652
  30   2.0000      -0.493403       -13.4262
  31   2.0000      -0.477439       -12.9918
  32   2.0000      -0.468656       -12.7528
  33   2.0000      -0.445740       -12.1292
  34   2.0000      -0.433441       -11.7945
  35   2.0000      -0.421559       -11.4712
  36   2.0000      -0.397470       -10.8157
  37   2.0000      -0.391975       -10.6662
  38   2.0000      -0.383822       -10.4443
  39   2.0000      -0.370124       -10.0716
  40   2.0000      -0.367484        -9.9997
  41   2.0000      -0.356453        -9.6996
  42   2.0000      -0.346583        -9.4310
  43   2.0000      -0.338077        -9.1996
  44   2.0000      -0.320863        -8.7311
  45   2.0000      -0.280876        -7.6430
  46   2.0000      -0.272706        -7.4207
  47   2.0000      -0.216855        -5.9009
  48   0.0000      -0.093773        -2.5517
  49   0.0000      -0.041103        -1.1185
  50   0.0000      -0.004322        -0.1176
  51   0.0000       0.019533         0.5315
  52   0.0000       0.025952         0.7062

MULLIKEN ATOMIC CHARGES
-----------------------
   0 C :   -0.126963
   1 S :    0.163731
   2 C :   -0.167126
   3 C :    0.109475
   4 C :    0.098379
   5 C :   -0.071256
   6 C :   -0.164029
   7 N :    0.066988
   8 C :    0.032038
   9 C :    0.017670
  10 C :   -0.012351
  11 C :    0.026950
  12 C :   -0.038386
  13 H :    0.039812
  14 H :   -0.009367
  15 H :   -0.009369
  16 H :   -0.014680
  17 H :   -0.000642
  18 H :    0.028381
  19 H :    0.030745
Sum of atomic charges:   -0.0000000

LOEWDIN ATOMIC CHARGES
----------------------
   0 C :   -0.198339
   1 S :    0.504720
   2 C :   -0.185767
   3 C :   -0.044206
   4 C :   -0.035421
   5 C :   -0.064562
   6 C :   -0.023901
   7 N :   -0.069330
   8 C :    0.011656
   9 C :   -0.030107
  10 C :    0.002440
  11 C :   -0.042890
  12 C :   -0.046933
  13 H :    0.034911
  14 H :    0.038625
  15 H :    0.032743
  16 H :    0.032225
  17 H :    0.031467
  18 H :    0.023191
  19 H :    0.029476

  Mayer bond orders larger than 0.100000
B(  0-C ,  1-S ) :   1.1892 B(  0-C ,  2-C ) :   0.1095 B(  0-C ,  4-C ) :   1.4277
B(  0-C , 13-H ) :   0.9491 B(  1-S ,  2-C ) :   1.1844 B(  2-C ,  3-C ) :   1.3438
B(  2-C , 11-C ) :   1.1095 B(  3-C ,  4-C ) :   1.1879 B(  3-C , 10-C ) :   1.2128
B(  4-C ,  5-C ) :   1.1920 B(  5-C ,  6-C ) :   1.0883 B(  5-C ,  8-C ) :   1.5215
B(  6-C ,  7-N ) :   2.9952 B(  8-C ,  9-C ) :   1.1993 B(  8-C , 14-H ) :   0.9893
B(  9-C , 10-C ) :   1.5075 B(  9-C , 15-H ) :   0.9798 B( 10-C , 16-H ) :   0.9881
B( 11-C , 12-C ) :   1.9133 B( 11-C , 17-H ) :   0.9437 B( 12-C , 18-H ) :   0.9534
B( 12-C , 19-H ) :   0.9436

Dispersion correction           -0.047639562
FINAL SINGLE POINT ENERGY      -875.875805617362

DIPOLE MOMENT
-------------
                                X             Y             Z
Electronic contribution:     -3.16651       8.88707      -0.82587
Nuclear contribution   :      3.03472     -10.60107       0.79346
                        -----------------------------------------
Total Dipole Moment    :     -0.13178      -1.71400      -0.03242
                        -----------------------------------------
Magnitude (a.u.)       :      1.71937
Magnitude (Debye)      :      4.37028

Rotational constants in cm-1:     0.042329     0.018817     0.013111
Rotational constants in MHz :  1269.002621   564.115948   393.047557

                             ****ORCA TERMINATED NORMALLY****
TOTAL RUN TIME: 0 days 0 hours 12 minutes 4 seconds 453 msec
