                         Program Version 4.2.0 -  RELEASE  -
|  1> # ORCA input file
|  2> # SCF done        -23.864028888960          0.000554481732
|  3> ! B3LYP/G D3BJ Opt RIJCOSX def2-SVP def2/J
|  4> * xyz 0 1
|  5>    C       -1.55690        -1.16541         0.01551
|  6>    C       -2.36349         0.00345         0.04156
|  7>    C       -1.58342         1.13531         0.03905
|  8>    C       -0.23459         0.72456         0.00845
|  9>    C       -0.25810        -0.74795        -0.00506
| 10>    N        0.94409        -1.38874        -0.03421
| 11>    C        2.08188        -0.66876        -0.04893
| 12>    N        2.13882         0.62883        -0.03751
| 13>    C        0.99138         1.33380        -0.00917
| 14>    H       -1.91630        -2.17733         0.01240
| 15>    H       -3.43890        -0.01261         0.06149
| 16>    H       -1.92508         2.15212         0.05636
| 17>    H        0.96907        -2.40094        -0.04463
| 18>    H        3.01327        -1.21634        -0.07224
| 19>    H        1.11297         2.40857        -0.00010
| 20> *
| 21>
| 22>                          ****END OF INPUT****
 Total Charge           Charge          ....    0
 Multiplicity           Mult            ....    1
 Number of Electrons    NEL             ....   62
Dispersion correction           -0.028037702
FINAL SINGLE POINT ENERGY      -379.582394144574
Dispersion correction            ... done
Dispersion correction           -0.028004921
FINAL SINGLE POINT ENERGY      -379.585063220791
Dispersion correction            ... done
Dispersion correction           -0.027999362
FINAL SINGLE POINT ENERGY      -379.585224993801
Dispersion correction            ... done
Dispersion correction           -0.027997031
FINAL SINGLE POINT ENERGY      -379.585269487717
Dispersion correction            ... done
Dispersion correction           -0.027996916
FINAL SINGLE POINT ENERGY      -379.585273130077
Dispersion correction            ... done
                    ***********************HURRAY********************

CARTESIAN COORDINATES (ANGSTROEM)
---------------------------------
  C     -1.571046   -1.183992    0.014962
  C     -2.380428    0.004441    0.042429
  C     -1.594999    1.151523    0.038969
  C     -0.233962    0.725865    0.009107
  C     -0.262387   -0.746528   -0.005319
  N      0.953389   -1.379399   -0.034426
  C      2.110349   -0.671241   -0.049223
  N      2.168191    0.636515   -0.038795
  C      1.004342    1.336982   -0.009286
  H     -1.929843   -2.211661    0.011382
  H     -3.471961   -0.006078    0.063506
  H     -1.944581    2.181835    0.056948
  H      0.993042   -2.394766   -0.045362
  H      3.031282   -1.263206   -0.071587
  H      1.103310    2.428268   -0.000334

 Multiplicity           Mult            ....    1
 Number of Electrons    NEL             ....   62
 Basis Dimension        Dim             ....  156

ORBITAL ENERGIES
----------------

  NO   OCC          E(Eh)            E(eV)
   0   2.0000     -14.414906      -392.2495
   1   2.0000     -14.324151      -389.7800
   2   2.0000     -10.276677      -279.6426
   3   2.0000     -10.233166      -278.4586
   4   2.0000     -10.228249      -278.3248
   5   2.0000     -10.189710      -277.2761
   6   2.0000     -10.181513      -277.0531
   7   2.0000     -10.169784      -276.7339
   8   2.0000     -10.164258      -276.5835
   9   2.0000      -1.009269       -27.4636
  10   2.0000      -0.907544       -24.6955
  11   2.0000      -0.851280       -23.1645
  12   2.0000      -0.742580       -20.2066
  13   2.0000      -0.707288       -19.2463
  14   2.0000      -0.660163       -17.9639
  15   2.0000      -0.619566       -16.8592
  16   2.0000      -0.593747       -16.1567
  17   2.0000      -0.541003       -14.7214
  18   2.0000      -0.520351       -14.1595
  19   2.0000      -0.498840       -13.5741
  20   2.0000      -0.453915       -12.3517
  21   2.0000      -0.449868       -12.2415
  22   2.0000      -0.425386       -11.5753
  23   2.0000      -0.390097       -10.6151
  24   2.0000      -0.375740       -10.2244
  25   2.0000      -0.354812        -9.6549
  26   2.0000      -0.351545        -9.5660
  27   2.0000      -0.343422        -9.3450
  28   2.0000      -0.272572        -7.4171
  29   2.0000      -0.231660        -6.3038
  30   2.0000      -0.196757        -5.3540
  31   0.0000      -0.058075        -1.5803
  32   0.0000       0.002924         0.0796
  33   0.0000       0.030790         0.8379
  34   0.0000       0.084200         2.2912
  35   0.0000       0.092130         2.5070

MULLIKEN ATOMIC CHARGES
-----------------------
   0 C :   -0.100229
   1 C :    0.015303
   2 C :   -0.023973
   3 C :    0.010291
   4 C :    0.067738
   5 N :    0.005651
   6 C :    0.100469
   7 N :   -0.146874
   8 C :    0.027804
   9 H :   -0.053027
  10 H :   -0.019749
  11 H :   -0.039040
  12 H :    0.135099
  13 H :    0.022754
  14 H :   -0.002218
Sum of atomic charges:   -0.0000000

LOEWDIN ATOMIC CHARGES
----------------------
   0 C :   -0.127695
   1 C :   -0.008756
   2 C :   -0.092950
   3 C :   -0.053834
   4 C :    0.003633
   5 N :    0.102087
   6 C :    0.054503
   7 N :   -0.124779
   8 C :    0.044583
   9 H :    0.014624
  10 H :    0.020227
  11 H :    0.018265
  12 H :    0.101478
  13 H :    0.023436
  14 H :    0.025180

  Mayer bond orders larger than 0.100000
B(  0-C ,  1-C ) :   1.1919 B(  0-C ,  4-C ) :   1.4650 B(  0-C ,  9-H ) :   1.0226
B(  1-C ,  2-C ) :   1.4786 B(  1-C , 10-H ) :   0.9909 B(  2-C ,  3-C ) :   1.2220
B(  2-C , 11-H ) :   1.0092 B(  3-C ,  4-C ) :   1.0903 B(  3-C ,  8-C ) :   1.4203
B(  4-C ,  5-N ) :   1.1619 B(  5-N ,  6-C ) :   1.2538 B(  5-N , 12-H ) :   0.9136
B(  6-C ,  7-N ) :   1.6290 B(  6-C , 13-H ) :   0.9647 B(  7-N ,  8-C ) :   1.4015
B(  8-C , 14-H ) :   0.9752

Dispersion correction           -0.027997112
FINAL SINGLE POINT ENERGY      -379.585274046831

DIPOLE MOMENT
-------------
                                X             Y             Z
Electronic contribution:      2.66445      -0.14191      -0.05294
Nuclear contribution   :     -2.36600      -0.98761       0.03764
                        -----------------------------------------
Total Dipole Moment    :      0.29844      -1.12952      -0.01530
                        -----------------------------------------
Magnitude (a.u.)       :      1.16838
Magnitude (Debye)      :      2.96978

Rotational constants in cm-1:     0.131834     0.055280     0.038948
Rotational constants in MHz :  3952.292434  1657.247800  1167.640910

                             ****ORCA TERMINATED NORMALLY****
TOTAL RUN TIME: 0 days 0 hours 4 minutes 12 seconds 199 msec
