                         Program Version 4.2.0 -  RELEASE  -
|  1> # ORCA input file
|  2> # SCF done        -43.385502159501          0.000892301895
|  3> ! B3LYP/G D3BJ Opt RIJCOSX def2-SVP def2/J
|  4> * xyz 0 1
|  5>    C        0.92907         1.54764         0.18001
|  6>    S        2.39663         0.66368         0.09652
|  7>    C        1.59335        -0.87243        -0.05600
|  8>    C        0.21682        -0.67934        -0.03577
|  9>    C       -0.13531         0.70535         0.09775
| 10>    S       -1.85183         0.97749         0.13105
| 11>    C       -2.13110        -0.74869        -0.01731
| 12>    C       -3.53695        -1.16581        -0.03187
| 13>    O       -4.41212        -0.33064         0.02776
| 14>    C       -3.80320        -2.65091        -0.11453
| 15>    C       -5.29377        -2.95568        -0.08346
| 16>    C       -0.96716        -1.46290        -0.09318
| 17>    F       -0.96010        -2.79858        -0.20965
| 18>    C        2.44081        -2.02567        -0.17539
| 19>    C        2.07641        -3.28979        -0.38179
| 20>    H        0.93823         2.61268         0.28311
| 21>    H       -3.29357        -3.14060         0.71910
| 22>    H       -3.35269        -3.03059        -1.03516
| 23>    H       -5.73568        -2.57443         0.83359
| 24>    H       -5.46189        -4.02809        -0.13774
| 25>    H       -5.79317        -2.47624        -0.92139
| 26>    H        3.49392        -1.78823        -0.09294
| 27>    H        1.05526        -3.59982        -0.48699
| 28>    H        2.81949        -4.06403        -0.45816
| 29> *
| 30>
| 31>                          ****END OF INPUT****
 Total Charge           Charge          ....    0
 Multiplicity           Mult            ....    1
 Number of Electrons    NEL             ....  124
Dispersion correction           -0.055402115
FINAL SINGLE POINT ENERGY     -1395.391739830007
Dispersion correction            ... done
Dispersion correction           -0.055069926
FINAL SINGLE POINT ENERGY     -1395.394899820764
Dispersion correction            ... done
Dispersion correction           -0.055010022
FINAL SINGLE POINT ENERGY     -1395.395143941367
Dispersion correction            ... done
FINAL SINGLE POINT ENERGY     -1395.395129390371
FINAL SINGLE POINT ENERGY     -1395.395168453070
FINAL SINGLE POINT ENERGY     -1395.395200830291
Dispersion correction            ... done
Dispersion correction           -0.055022610
FINAL SINGLE POINT ENERGY     -1395.395192293123
Dispersion correction            ... done
Dispersion correction           -0.055021463
FINAL SINGLE POINT ENERGY     -1395.395189783140
Dispersion correction            ... done
                    ***********************HURRAY********************

CARTESIAN COORDINATES (ANGSTROEM)
---------------------------------
  C      0.956505    1.586051    0.161428
  S      2.418933    0.688504    0.007580
  C      1.615493   -0.855953   -0.098760
  C      0.230850   -0.653618   -0.014042
  C     -0.124890    0.737795    0.131218
  S     -1.856509    1.003509    0.217248
  C     -2.134445   -0.737293    0.056728
  C     -3.543026   -1.180775    0.016950
  O     -4.431372   -0.348089    0.072151
  C     -3.836959   -2.665623   -0.105486
  C     -5.329604   -2.967224   -0.142403
  C     -0.963459   -1.446688   -0.044156
  F     -0.941498   -2.776899   -0.174038
  C      2.461501   -2.028529   -0.242212
  C      2.095603   -3.319918   -0.325121
  H      0.976277    2.668991    0.262033
  H     -3.336005   -3.185879    0.730187
  H     -3.322435   -3.042897   -1.007034
  H     -5.821974   -2.632311    0.782554
  H     -5.508720   -4.046192   -0.262865
  H     -5.819102   -2.437356   -0.971907
  H      3.532863   -1.799926   -0.286334
  H      1.055404   -3.640925   -0.292450
  H      2.858020   -4.094383   -0.433710

 Multiplicity           Mult            ....    1
 Number of Electrons    NEL             ....  124
 Basis Dimension        Dim             ....  263

ORBITAL ENERGIES
----------------

  NO   OCC          E(Eh)            E(eV)
   0   2.0000     -88.898566     -2419.0530
   1   2.0000     -88.880887     -2418.5719
   2   2.0000     -24.734789      -673.0678
   3   2.0000     -19.127243      -520.4787
   4   2.0000     -10.304155      -280.3903
   5   2.0000     -10.282895      -279.8118
   6   2.0000     -10.245309      -278.7890
   7   2.0000     -10.237793      -278.5845
   8   2.0000     -10.232515      -278.4409
   9   2.0000     -10.230917      -278.3974
  10   2.0000     -10.225259      -278.2434
  11   2.0000     -10.217892      -278.0430
  12   2.0000     -10.199926      -277.5541
  13   2.0000     -10.199112      -277.5320
  14   2.0000     -10.181395      -277.0498
  15   2.0000      -7.993334      -217.5097
  16   2.0000      -7.975102      -217.0136
  17   2.0000      -5.961346      -162.2165
  18   2.0000      -5.957179      -162.1031
  19   2.0000      -5.954940      -162.0422
  20   2.0000      -5.943901      -161.7418
  21   2.0000      -5.940108      -161.6386
  22   2.0000      -5.934665      -161.4904
  23   2.0000      -1.243126       -33.8272
  24   2.0000      -1.035738       -28.1839
  25   2.0000      -0.921111       -25.0647
  26   2.0000      -0.863794       -23.5050
  27   2.0000      -0.799840       -21.7648
  28   2.0000      -0.779958       -21.2237
  29   2.0000      -0.758838       -20.6490
  30   2.0000      -0.745390       -20.2831
  31   2.0000      -0.703816       -19.1518
  32   2.0000      -0.668555       -18.1923
  33   2.0000      -0.622790       -16.9470
  34   2.0000      -0.612671       -16.6716
  35   2.0000      -0.590966       -16.0810
  36   2.0000      -0.573469       -15.6049
  37   2.0000      -0.542645       -14.7661
  38   2.0000      -0.513724       -13.9791
  39   2.0000      -0.504607       -13.7311
  40   2.0000      -0.494501       -13.4561
  41   2.0000      -0.474102       -12.9010
  42   2.0000      -0.467811       -12.7298
  43   2.0000      -0.463931       -12.6242
  44   2.0000      -0.443358       -12.0644
  45   2.0000      -0.433234       -11.7889
  46   2.0000      -0.426106       -11.5949
  47   2.0000      -0.421904       -11.4806
  48   2.0000      -0.403204       -10.9717
  49   2.0000      -0.394292       -10.7292
  50   2.0000      -0.387285       -10.5386
  51   2.0000      -0.379168       -10.3177
  52   2.0000      -0.367285        -9.9943
  53   2.0000      -0.365380        -9.9425
  54   2.0000      -0.353448        -9.6178
  55   2.0000      -0.346967        -9.4414
  56   2.0000      -0.343966        -9.3598
  57   2.0000      -0.321245        -8.7415
  58   2.0000      -0.274955        -7.4819
  59   2.0000      -0.263541        -7.1713
  60   2.0000      -0.260195        -7.0803
  61   2.0000      -0.213621        -5.8129
  62   0.0000      -0.089857        -2.4451
  63   0.0000      -0.033598        -0.9143
  64   0.0000       0.003658         0.0996
  65   0.0000       0.010820         0.2944
  66   0.0000       0.019484         0.5302

MULLIKEN ATOMIC CHARGES
-----------------------
   0 C :   -0.153795
   1 S :    0.136299
   2 C :   -0.147782
   3 C :    0.060435
   4 C :   -0.002436
   5 S :    0.171536
   6 C :   -0.176911
   7 C :    0.045121
   8 O :   -0.202602
   9 C :   -0.019761
  10 C :    0.048511
  11 C :    0.236730
  12 F :   -0.176167
  13 C :    0.032206
  14 C :   -0.030434
  15 H :    0.034952
  16 H :    0.027189
  17 H :    0.026627
  18 H :    0.018052
  19 H :    0.006289
  20 H :    0.018947
  21 H :   -0.009461
  22 H :    0.026637
  23 H :    0.029819
Sum of atomic charges:   -0.0000000

LOEWDIN ATOMIC CHARGES
----------------------
   0 C :   -0.219827
   1 S :    0.477377
   2 C :   -0.169191
   3 C :   -0.098896
   4 C :   -0.180191
   5 S :    0.418606
   6 C :   -0.229495
   7 C :    0.062853
   8 O :   -0.159318
   9 C :   -0.065448
  10 C :   -0.048654
  11 C :    0.067433
  12 F :   -0.034598
  13 C :   -0.051387
  14 C :   -0.037583
  15 H :    0.031883
  16 H :    0.038264
  17 H :    0.037846
  18 H :    0.028642
  19 H :    0.023998
  20 H :    0.028806
  21 H :    0.029662
  22 H :    0.019766
  23 H :    0.029452

  Mayer bond orders larger than 0.100000
B(  0-C ,  1-S ) :   1.1624 B(  0-C ,  2-C ) :   0.1000 B(  0-C ,  4-C ) :   1.5106
B(  0-C , 15-H ) :   0.9713 B(  1-S ,  2-C ) :   1.1654 B(  2-C ,  3-C ) :   1.3592
B(  2-C , 13-C ) :   1.1351 B(  3-C ,  4-C ) :   1.2386 B(  3-C , 11-C ) :   1.1395
B(  4-C ,  5-S ) :   1.0289 B(  5-S ,  6-C ) :   1.0538 B(  6-C ,  7-C ) :   0.9920
B(  6-C , 11-C ) :   1.5328 B(  7-C ,  8-O ) :   2.1487 B(  7-C ,  9-C ) :   1.0234
B(  9-C , 10-C ) :   1.1063 B(  9-C , 16-H ) :   0.9144 B(  9-C , 17-H ) :   0.9123
B( 10-C , 18-H ) :   0.9675 B( 10-C , 19-H ) :   0.9603 B( 10-C , 20-H ) :   0.9663
B( 11-C , 12-F ) :   1.0942 B( 13-C , 14-C ) :   1.9130 B( 13-C , 21-H ) :   0.9404
B( 14-C , 22-H ) :   0.9449 B( 14-C , 23-H ) :   0.9387

Dispersion correction           -0.055021578
FINAL SINGLE POINT ENERGY     -1395.395189592444

DIPOLE MOMENT
-------------
                                X             Y             Z
Electronic contribution:      8.93166      12.05916       1.06733
Nuclear contribution   :     -7.75883     -12.44090      -1.11679
                        -----------------------------------------
Total Dipole Moment    :      1.17283      -0.38174      -0.04946
                        -----------------------------------------
Magnitude (a.u.)       :      1.23439
Magnitude (Debye)      :      3.13756

Rotational constants in cm-1:     0.029842     0.010644     0.007870
Rotational constants in MHz :   894.655086   319.094923   235.928630

                             ****ORCA TERMINATED NORMALLY****
TOTAL RUN TIME: 0 days 0 hours 16 minutes 32 seconds 144 msec
