                         Program Version 4.2.0 -  RELEASE  -
|  1> # ORCA input file
|  2> # SCF done        -22.384131978524          0.000805030879
|  3> ! B3LYP/G D3BJ Opt RIJCOSX def2-SVP def2/J
|  4> * xyz 0 2
|  5>    C        1.16699         0.31731         0.01776
|  6>    C        0.66395        -0.95212        -0.02052
|  7>    C       -0.75323        -0.97391         0.03255
|  8>    C       -1.29676         0.28358         0.14289
|  9>    S       -0.08893         1.49951         0.11927
| 10>    O        0.00663         2.09722        -1.58241
| 11>    O       -1.51007        -2.09983         0.01616
| 12>    H        2.19242         0.62160         0.05020
| 13>    H        1.27327        -1.83710        -0.08204
| 14>    H       -2.33057         0.52819         0.26294
| 15>    H       -0.46771         2.92690        -1.67290
| 16>    H       -0.93465        -2.86811        -0.07411
| 17> *
| 18>
| 19>                          ****END OF INPUT****
 Total Charge           Charge          ....    0
 Multiplicity           Mult            ....    2
 Number of Electrons    NEL             ....   61
Dispersion correction           -0.020992242
FINAL SINGLE POINT ENERGY      -703.628059204491
Dispersion correction            ... done
Dispersion correction           -0.020909489
FINAL SINGLE POINT ENERGY      -703.631012441386
Dispersion correction            ... done
Dispersion correction           -0.020840222
FINAL SINGLE POINT ENERGY      -703.632416297694
Dispersion correction            ... done
FINAL SINGLE POINT ENERGY      -703.633807006198
FINAL SINGLE POINT ENERGY      -703.635664030176
FINAL SINGLE POINT ENERGY      -703.637964681786
FINAL SINGLE POINT ENERGY      -703.639770609487
FINAL SINGLE POINT ENERGY      -703.640722385793
FINAL SINGLE POINT ENERGY      -703.641135490100
FINAL SINGLE POINT ENERGY      -703.641408080140
FINAL SINGLE POINT ENERGY      -703.641880086422
FINAL SINGLE POINT ENERGY      -703.641862444602
FINAL SINGLE POINT ENERGY      -703.641821324047
FINAL SINGLE POINT ENERGY      -703.641820656063
FINAL SINGLE POINT ENERGY      -703.641908761255
FINAL SINGLE POINT ENERGY      -703.641886154467
FINAL SINGLE POINT ENERGY      -703.641879828850
Dispersion correction            ... done
Dispersion correction           -0.020301435
FINAL SINGLE POINT ENERGY      -703.641815079262
Dispersion correction            ... done
Dispersion correction           -0.020310251
FINAL SINGLE POINT ENERGY      -703.641850975731
Dispersion correction            ... done
                    ***********************HURRAY********************

CARTESIAN COORDINATES (ANGSTROEM)
---------------------------------
  C      0.941812    0.343824   -0.135732
  C      0.574586   -0.969810   -0.084522
  C     -0.835735   -1.134219    0.153862
  C     -1.501036    0.066797    0.255494
  S     -0.411469    1.403665    0.113816
  O      0.805834    2.768550   -1.564564
  O     -1.461529   -2.323940    0.298366
  H      1.917593    0.777283   -0.338519
  H      1.267420   -1.802970   -0.222971
  H     -2.560917    0.209300    0.452663
  H      0.013132    3.244914   -1.877441
  H     -0.828351   -3.040152    0.159338

 Multiplicity           Mult            ....    2
 Number of Electrons    NEL             ....   61
 Basis Dimension        Dim             ....  127

ORBITAL ENERGIES
----------------
                 SPIN UP ORBITALS
  NO   OCC          E(Eh)            E(eV)
   0   1.0000     -88.886888     -2418.7352
   1   1.0000     -19.177123      -521.8360
   2   1.0000     -19.141971      -520.8795
   3   1.0000     -10.260772      -279.2098
   4   1.0000     -10.219570      -278.0886
   5   1.0000     -10.202435      -277.6224
   6   1.0000     -10.202325      -277.6194
   7   1.0000      -7.979641      -217.1371
   8   1.0000      -5.947428      -161.8377
   9   1.0000      -5.943896      -161.7416
  10   1.0000      -5.941860      -161.6862
  11   1.0000      -1.064158       -28.9572
  12   1.0000      -0.944163       -25.6920
  13   1.0000      -0.879713       -23.9382
  14   1.0000      -0.736210       -20.0333
  15   1.0000      -0.723782       -19.6951
  16   1.0000      -0.599848       -16.3227
  17   1.0000      -0.570763       -15.5312
  18   1.0000      -0.535335       -14.5672
  19   1.0000      -0.477513       -12.9938
  20   1.0000      -0.436622       -11.8811
  21   1.0000      -0.427987       -11.6461
  22   1.0000      -0.421619       -11.4728
  23   1.0000      -0.406827       -11.0703
  24   1.0000      -0.380700       -10.3594
  25   1.0000      -0.369441       -10.0530
  26   1.0000      -0.358489        -9.7550
  27   1.0000      -0.322627        -8.7791
  28   1.0000      -0.285264        -7.7624
  29   1.0000      -0.255356        -6.9486
  30   1.0000      -0.221089        -6.0161
  31   0.0000      -0.019702        -0.5361
  32   0.0000       0.026759         0.7282
  33   0.0000       0.063625         1.7313
  34   0.0000       0.070840         1.9277
  35   0.0000       0.072308         1.9676

                 SPIN DOWN ORBITALS
  NO   OCC          E(Eh)            E(eV)
   0   1.0000     -88.885993     -2418.7108
   1   1.0000     -19.176391      -521.8161
   2   1.0000     -19.120597      -520.2979
   3   1.0000     -10.259571      -279.1771
   4   1.0000     -10.218924      -278.0711
   5   1.0000     -10.202585      -277.6265
   6   1.0000     -10.202454      -277.6229
   7   1.0000      -7.978679      -217.1109
   8   1.0000      -5.946840      -161.8217
   9   1.0000      -5.942633      -161.7073
  10   1.0000      -5.940049      -161.6370
  11   1.0000      -1.062598       -28.9148
  12   1.0000      -0.891374       -24.2555
  13   1.0000      -0.874305       -23.7910
  14   1.0000      -0.733829       -19.9685
  15   1.0000      -0.721536       -19.6340
  16   1.0000      -0.598605       -16.2889
  17   1.0000      -0.569234       -15.4896
  18   1.0000      -0.534501       -14.5445
  19   1.0000      -0.475546       -12.9403
  20   1.0000      -0.433965       -11.8088
  21   1.0000      -0.423205       -11.5160
  22   1.0000      -0.407499       -11.0886
  23   1.0000      -0.397369       -10.8130
  24   1.0000      -0.369367       -10.0510
  25   1.0000      -0.357675        -9.7328
  26   1.0000      -0.352114        -9.5815
  27   1.0000      -0.264483        -7.1969
  28   1.0000      -0.257183        -6.9983
  29   1.0000      -0.226449        -6.1620
  30   0.0000      -0.124603        -3.3906
  31   0.0000      -0.014516        -0.3950
  32   0.0000       0.028490         0.7753
  33   0.0000       0.067116         1.8263
  34   0.0000       0.074223         2.0197

MULLIKEN ATOMIC CHARGES AND SPIN POPULATIONS
--------------------------------------------
   0 C :   -0.057841    0.043422
   1 C :   -0.008509   -0.014211
   2 C :    0.167417    0.077021
   3 C :   -0.165906   -0.028444
   4 S :    0.135904    0.094961
   5 O :   -0.288617    0.828003
   6 O :   -0.185362    0.020832
   7 H :    0.051665   -0.002992
   8 H :   -0.014321   -0.000003
   9 H :    0.021564    0.001482
  10 H :    0.163360   -0.019959
  11 H :    0.180644   -0.000112
Sum of atomic charges         :    0.0000000

LOEWDIN ATOMIC CHARGES AND SPIN POPULATIONS
-------------------------------------------
   0 C :   -0.147754    0.038117
   1 C :   -0.105784   -0.004553
   2 C :    0.015456    0.061239
   3 C :   -0.254046   -0.015945
   4 S :    0.508065    0.099475
   5 O :   -0.204306    0.796303
   6 O :   -0.044772    0.022326
   7 H :    0.033329   -0.000631
   8 H :    0.028390   -0.000289
   9 H :    0.027075   -0.000061
  10 H :    0.048073    0.003437
  11 H :    0.096273    0.000581

  Mayer bond orders larger than 0.100000
B(  0-C ,  1-C ) :   1.5734 B(  0-C ,  4-S ) :   1.1510 B(  0-C ,  7-H ) :   0.9688
B(  1-C ,  2-C ) :   1.1878 B(  1-C ,  8-H ) :   0.9867 B(  2-C ,  3-C ) :   1.5176
B(  2-C ,  6-O ) :   1.1963 B(  3-C ,  4-S ) :   1.1139 B(  3-C ,  9-H ) :   0.9666
B(  4-S ,  5-O ) :   0.2289 B(  5-O , 10-H ) :   0.9865 B(  6-O , 11-H ) :   0.9638

Dispersion correction           -0.020309984
FINAL SINGLE POINT ENERGY      -703.641857380227

DIPOLE MOMENT
-------------
                                X             Y             Z
Electronic contribution:     -1.25857       1.16529       1.10503
Nuclear contribution   :      1.17372      -1.85577      -1.08803
                        -----------------------------------------
Total Dipole Moment    :     -0.08485      -0.69049       0.01700
                        -----------------------------------------
Magnitude (a.u.)       :      0.69589
Magnitude (Debye)      :      1.76881

Rotational constants in cm-1:     0.186236     0.043338     0.037743
Rotational constants in MHz :  5583.225329  1299.249792  1131.497070

                             ****ORCA TERMINATED NORMALLY****
TOTAL RUN TIME: 0 days 0 hours 27 minutes 48 seconds 497 msec
