                         Program Version 4.2.0 -  RELEASE  -
|  1> # ORCA input file
|  2> # SCF done        -44.637008979777          0.000447930534
|  3> ! B3LYP/G D3BJ Opt RIJCOSX def2-SVP def2/J
|  4> * xyz 0 1
|  5>    C        1.34986        -1.27226         0.22723
|  6>    S        2.58062        -0.10389         0.00942
|  7>    C        1.40518         1.16169        -0.21861
|  8>    C        0.12777         0.66225        -0.10680
|  9>    C        0.10204        -0.73283         0.14792
| 10>    C       -1.16241        -1.51268         0.33767
| 11>    C       -2.36640        -0.77478        -0.24968
| 12>    N       -2.35172        -0.89644        -1.68120
| 13>    C       -2.35621         0.70526         0.25516
| 14>    N       -2.43367         0.66420         1.72766
| 15>    O       -3.47273         0.24781         2.19145
| 16>    O       -1.47542         1.01599         2.37133
| 17>    C       -1.12860         1.47215        -0.21896
| 18>    C        1.91237         2.48673        -0.46655
| 19>    C        1.24761         3.55319        -0.90365
| 20>    H        1.61126        -2.29558         0.40897
| 21>    H       -1.32235        -1.68966         1.40527
| 22>    H       -1.07925        -2.48634        -0.14746
| 23>    H       -3.29234        -1.23737         0.11409
| 24>    H       -1.47796        -0.56821        -2.07411
| 25>    H       -3.12472        -0.41133        -2.11866
| 26>    H       -3.27787         1.19106        -0.08452
| 27>    H       -1.02043         2.38415         0.37452
| 28>    H       -1.28726         1.76969        -1.26075
| 29>    H        2.97494         2.58177        -0.27884
| 30>    H        0.20215         3.54508        -1.14895
| 31>    H        1.75686         4.49080        -1.04439
| 32> *
| 33>
| 34>                          ****END OF INPUT****
 Total Charge           Charge          ....    0
 Multiplicity           Mult            ....    1
 Number of Electrons    NEL             ....  118
Dispersion correction           -0.062475154
FINAL SINGLE POINT ENERGY     -1045.785562357629
Dispersion correction            ... done
Dispersion correction           -0.061857740
FINAL SINGLE POINT ENERGY     -1045.789225817850
Dispersion correction            ... done
Dispersion correction           -0.061437006
FINAL SINGLE POINT ENERGY     -1045.788195237775
Dispersion correction            ... done
FINAL SINGLE POINT ENERGY     -1045.789760732713
FINAL SINGLE POINT ENERGY     -1045.789754682714
FINAL SINGLE POINT ENERGY     -1045.789744758835
FINAL SINGLE POINT ENERGY     -1045.789754505974
FINAL SINGLE POINT ENERGY     -1045.789666334810
FINAL SINGLE POINT ENERGY     -1045.789688695388
FINAL SINGLE POINT ENERGY     -1045.789835512419
FINAL SINGLE POINT ENERGY     -1045.789902332266
FINAL SINGLE POINT ENERGY     -1045.789866763313
FINAL SINGLE POINT ENERGY     -1045.789901179373
Dispersion correction            ... done
Dispersion correction           -0.061596088
FINAL SINGLE POINT ENERGY     -1045.789909162612
Dispersion correction            ... done
Dispersion correction           -0.061615264
FINAL SINGLE POINT ENERGY     -1045.789897204208
Dispersion correction            ... done
                    ***********************HURRAY********************

CARTESIAN COORDINATES (ANGSTROEM)
---------------------------------
  C      1.379745   -1.321818    0.118282
  S      2.605715   -0.151685   -0.175354
  C      1.435728    1.143680   -0.294145
  C      0.149414    0.654549   -0.096872
  C      0.124939   -0.758662    0.146925
  C     -1.156855   -1.499610    0.425255
  C     -2.351806   -0.803414   -0.232909
  N     -2.300024   -0.983626   -1.669054
  C     -2.369639    0.692599    0.200988
  N     -2.592670    0.724283    1.704967
  O     -3.640490    0.238075    2.094604
  O     -1.721178    1.185783    2.418470
  C     -1.116297    1.465675   -0.195086
  C      1.945202    2.474563   -0.585854
  C      1.270501    3.627857   -0.746784
  H      1.638719   -2.367476    0.276538
  H     -1.325912   -1.554898    1.513975
  H     -1.099880   -2.533475    0.056322
  H     -3.282437   -1.250802    0.145860
  H     -1.396103   -0.706969   -2.051209
  H     -3.021232   -0.451040   -2.152746
  H     -3.274565    1.166749   -0.203667
  H     -1.047597    2.370646    0.424157
  H     -1.251132    1.811188   -1.234783
  H      3.036053    2.520209   -0.688162
  H      0.186220    3.709536   -0.668725
  H      1.816901    4.548533   -0.963434

 Multiplicity           Mult            ....    1
 Number of Electrons    NEL             ....  118
 Basis Dimension        Dim             ....  274

ORBITAL ENERGIES
----------------

  NO   OCC          E(Eh)            E(eV)
   0   2.0000     -88.877247     -2418.4728
   1   2.0000     -19.170362      -521.6521
   2   2.0000     -19.167175      -521.5654
   3   2.0000     -14.556562      -396.1042
   4   2.0000     -14.326344      -389.8396
   5   2.0000     -10.253485      -279.0115
   6   2.0000     -10.240176      -278.6494
   7   2.0000     -10.222172      -278.1594
   8   2.0000     -10.215909      -277.9890
   9   2.0000     -10.214996      -277.9642
  10   2.0000     -10.210744      -277.8485
  11   2.0000     -10.206045      -277.7206
  12   2.0000     -10.203900      -277.6622
  13   2.0000     -10.203782      -277.6590
  14   2.0000     -10.195269      -277.4274
  15   2.0000      -7.972449      -216.9414
  16   2.0000      -5.940385      -161.6461
  17   2.0000      -5.936541      -161.5415
  18   2.0000      -5.933870      -161.4688
  19   2.0000      -1.226591       -33.3772
  20   2.0000      -1.054362       -28.6907
  21   2.0000      -0.915504       -24.9121
  22   2.0000      -0.886741       -24.1295
  23   2.0000      -0.832864       -22.6634
  24   2.0000      -0.794933       -21.6312
  25   2.0000      -0.767351       -20.8807
  26   2.0000      -0.753832       -20.5128
  27   2.0000      -0.701230       -19.0814
  28   2.0000      -0.679698       -18.4955
  29   2.0000      -0.632582       -17.2134
  30   2.0000      -0.608054       -16.5460
  31   2.0000      -0.582416       -15.8483
  32   2.0000      -0.566400       -15.4125
  33   2.0000      -0.555328       -15.1113
  34   2.0000      -0.534941       -14.5565
  35   2.0000      -0.517507       -14.0821
  36   2.0000      -0.514577       -14.0023
  37   2.0000      -0.506108       -13.7719
  38   2.0000      -0.491241       -13.3673
  39   2.0000      -0.463826       -12.6213
  40   2.0000      -0.460483       -12.5304
  41   2.0000      -0.452827       -12.3220
  42   2.0000      -0.432245       -11.7620
  43   2.0000      -0.426529       -11.6064
  44   2.0000      -0.415886       -11.3168
  45   2.0000      -0.408338       -11.1114
  46   2.0000      -0.399245       -10.8640
  47   2.0000      -0.380960       -10.3665
  48   2.0000      -0.376857       -10.2548
  49   2.0000      -0.352333        -9.5875
  50   2.0000      -0.351948        -9.5770
  51   2.0000      -0.341528        -9.2934
  52   2.0000      -0.318307        -8.6616
  53   2.0000      -0.311328        -8.4717
  54   2.0000      -0.307065        -8.3557
  55   2.0000      -0.298215        -8.1148
  56   2.0000      -0.259658        -7.0657
  57   2.0000      -0.248086        -6.7508
  58   2.0000      -0.222611        -6.0576
  59   0.0000      -0.070793        -1.9264
  60   0.0000      -0.051330        -1.3968
  61   0.0000       0.015288         0.4160
  62   0.0000       0.026445         0.7196
  63   0.0000       0.031457         0.8560

MULLIKEN ATOMIC CHARGES
-----------------------
   0 C :   -0.124582
   1 S :    0.111927
   2 C :   -0.161329
   3 C :   -0.044046
   4 C :   -0.081709
   5 C :    0.179802
   6 C :   -0.021568
   7 N :   -0.162501
   8 C :    0.042595
   9 N :    0.196794
  10 O :   -0.240293
  11 O :   -0.224659
  12 C :    0.162014
  13 C :    0.039934
  14 C :   -0.040656
  15 H :    0.015843
  16 H :    0.036088
  17 H :    0.009433
  18 H :    0.015298
  19 H :    0.102941
  20 H :    0.093749
  21 H :    0.017136
  22 H :    0.041010
  23 H :    0.016110
  24 H :   -0.008600
  25 H :    0.007185
  26 H :    0.022085
Sum of atomic charges:   -0.0000000

LOEWDIN ATOMIC CHARGES
----------------------
   0 C :   -0.196665
   1 S :    0.439226
   2 C :   -0.179938
   3 C :   -0.060629
   4 C :   -0.069719
   5 C :   -0.022194
   6 C :    0.019440
   7 N :   -0.087321
   8 C :    0.004051
   9 N :    0.263834
  10 O :   -0.208631
  11 O :   -0.193628
  12 C :   -0.031176
  13 C :   -0.040416
  14 C :   -0.057882
  15 H :    0.024962
  16 H :    0.038157
  17 H :    0.036749
  18 H :    0.024817
  19 H :    0.057409
  20 H :    0.056623
  21 H :    0.033322
  22 H :    0.039959
  23 H :    0.035072
  24 H :    0.029447
  25 H :    0.017638
  26 H :    0.027495

  Mayer bond orders larger than 0.100000
B(  0-C ,  1-S ) :   1.1575 B(  0-C ,  4-C ) :   1.5347 B(  0-C , 15-H ) :   0.9635
B(  1-S ,  2-C ) :   1.1347 B(  2-C ,  3-C ) :   1.5055 B(  2-C , 13-C ) :   1.1237
B(  3-C ,  4-C ) :   1.2893 B(  3-C , 12-C ) :   1.0554 B(  4-C ,  5-C ) :   1.0213
B(  5-C ,  6-C ) :   1.0494 B(  5-C , 16-H ) :   0.9146 B(  5-C , 17-H ) :   0.9087
B(  6-C ,  7-N ) :   1.1243 B(  6-C ,  8-C ) :   0.9777 B(  6-C , 18-H ) :   0.9120
B(  7-N , 19-H ) :   0.9642 B(  7-N , 20-H ) :   0.9639 B(  8-C ,  9-N ) :   0.8077
B(  8-C , 12-C ) :   1.0128 B(  8-C , 21-H ) :   0.9084 B(  9-N , 10-O ) :   1.5212
B(  9-N , 11-O ) :   1.5586 B( 10-O , 11-O ) :   0.2835 B( 12-C , 22-H ) :   0.8837
B( 12-C , 23-H ) :   0.8913 B( 13-C , 14-C ) :   1.9073 B( 13-C , 24-H ) :   0.9414
B( 14-C , 25-H ) :   0.9524 B( 14-C , 26-H ) :   0.9383

Dispersion correction           -0.061610525
FINAL SINGLE POINT ENERGY     -1045.789892222953

DIPOLE MOMENT
-------------
                                X             Y             Z
Electronic contribution:      4.35899      -2.14390       6.15908
Nuclear contribution   :     -4.21580       2.32626      -7.46050
                        -----------------------------------------
Total Dipole Moment    :      0.14319       0.18236      -1.30142
                        -----------------------------------------
Magnitude (a.u.)       :      1.32191
Magnitude (Debye)      :      3.36003

Rotational constants in cm-1:     0.027801     0.013785     0.011740
Rotational constants in MHz :   833.448623   413.256219   351.964126

                             ****ORCA TERMINATED NORMALLY****
TOTAL RUN TIME: 0 days 0 hours 42 minutes 43 seconds 725 msec
