                         Program Version 4.2.0 -  RELEASE  -
|  1> # ORCA input file
|  2> # SCF done        -34.358744032692          0.000475778661
|  3> ! B3LYP/G D3BJ Opt RIJCOSX def2-SVP def2/J
|  4> * xyz 0 1
|  5>    C       -0.51195         0.96679         0.75097
|  6>    S       -1.39411        -0.45080         1.28727
|  7>    C       -0.26877        -1.39000         0.39425
|  8>    C        0.66470        -0.56417        -0.22391
|  9>    N        0.50471         0.75009        -0.00681
| 10>    C        1.65335        -1.36670        -1.00905
| 11>    C        1.15432        -2.76016        -0.75734
| 12>    C        0.03263        -2.73737         0.06652
| 13>    S       -0.57704        -4.30711         0.38259
| 14>    C        0.68585        -5.01269        -0.60545
| 15>    C        1.52062        -4.05201        -1.13544
| 16>    C        0.71710        -6.44087        -0.75589
| 17>    C        1.59657        -7.12123        -1.48886
| 18>    H       -0.83061         1.94217         1.05699
| 19>    H        2.67236        -1.22071        -0.64630
| 20>    H        1.63722        -1.10609        -2.06870
| 21>    H        2.35737        -4.28509        -1.76767
| 22>    H       -0.05533        -6.97277        -0.21557
| 23>    H        2.37965        -6.63541        -2.04411
| 24>    H        1.55581        -8.19378        -1.55466
| 25> *
| 26>
| 27>                          ****END OF INPUT****
 Total Charge           Charge          ....    0
 Multiplicity           Mult            ....    1
 Number of Electrons    NEL             ....  106
Dispersion correction           -0.048580903
FINAL SINGLE POINT ENERGY     -1235.874231950240
Dispersion correction            ... done
Dispersion correction           -0.048446854
FINAL SINGLE POINT ENERGY     -1235.877940426051
Dispersion correction            ... done
Dispersion correction           -0.048423168
FINAL SINGLE POINT ENERGY     -1235.878062530378
Dispersion correction            ... done
FINAL SINGLE POINT ENERGY     -1235.878067679962
Dispersion correction            ... done
Dispersion correction           -0.048414066
FINAL SINGLE POINT ENERGY     -1235.878083621657
Dispersion correction            ... done
Dispersion correction           -0.048414300
FINAL SINGLE POINT ENERGY     -1235.878084387565
Dispersion correction            ... done
                    ***********************HURRAY********************

CARTESIAN COORDINATES (ANGSTROEM)
---------------------------------
  C     -0.530737    1.017905    0.761056
  S     -1.407922   -0.423732    1.288747
  C     -0.279514   -1.367388    0.394759
  C      0.651379   -0.533497   -0.216665
  N      0.500777    0.797177   -0.005714
  C      1.655558   -1.342048   -1.002074
  C      1.164648   -2.754176   -0.756880
  C      0.034893   -2.733272    0.065744
  S     -0.566760   -4.312653    0.383734
  C      0.699324   -5.033202   -0.605666
  C      1.536933   -4.060608   -1.139792
  C      0.726385   -6.478037   -0.755662
  C      1.591875   -7.180881   -1.506729
  H     -0.870782    2.003093    1.084739
  H      2.683221   -1.185202   -0.630922
  H      1.652834   -1.074558   -2.072541
  H      2.385186   -4.304793   -1.779736
  H     -0.042581   -7.024371   -0.197942
  H      2.380686   -6.697657   -2.089117
  H      1.529047   -8.270008   -1.560508

 Multiplicity           Mult            ....    1
 Number of Electrons    NEL             ....  106
 Basis Dimension        Dim             ....  225

ORBITAL ENERGIES
----------------

  NO   OCC          E(Eh)            E(eV)
   0   2.0000     -88.888859     -2418.7888
   1   2.0000     -88.883616     -2418.6461
   2   2.0000     -14.335543      -390.0900
   3   2.0000     -10.249091      -278.8920
   4   2.0000     -10.226961      -278.2897
   5   2.0000     -10.226263      -278.2708
   6   2.0000     -10.223892      -278.2062
   7   2.0000     -10.223188      -278.1871
   8   2.0000     -10.213161      -277.9142
   9   2.0000     -10.207469      -277.7593
  10   2.0000     -10.203517      -277.6518
  11   2.0000     -10.201555      -277.5984
  12   2.0000     -10.192361      -277.3482
  13   2.0000      -7.983513      -217.2424
  14   2.0000      -7.977984      -217.0920
  15   2.0000      -5.951514      -161.9489
  16   2.0000      -5.947602      -161.8425
  17   2.0000      -5.946103      -161.8017
  18   2.0000      -5.944927      -161.7697
  19   2.0000      -5.942272      -161.6974
  20   2.0000      -5.939182      -161.6134
  21   2.0000      -0.967949       -26.3392
  22   2.0000      -0.898971       -24.4623
  23   2.0000      -0.832176       -22.6447
  24   2.0000      -0.802306       -21.8318
  25   2.0000      -0.775439       -21.1008
  26   2.0000      -0.743541       -20.2328
  27   2.0000      -0.694360       -18.8945
  28   2.0000      -0.686719       -18.6866
  29   2.0000      -0.631232       -17.1767
  30   2.0000      -0.578042       -15.7293
  31   2.0000      -0.561489       -15.2789
  32   2.0000      -0.541064       -14.7231
  33   2.0000      -0.523165       -14.2361
  34   2.0000      -0.487768       -13.2728
  35   2.0000      -0.477071       -12.9818
  36   2.0000      -0.466451       -12.6928
  37   2.0000      -0.452177       -12.3044
  38   2.0000      -0.445503       -12.1228
  39   2.0000      -0.415692       -11.3116
  40   2.0000      -0.403272       -10.9736
  41   2.0000      -0.398567       -10.8455
  42   2.0000      -0.392158       -10.6712
  43   2.0000      -0.381758       -10.3882
  44   2.0000      -0.365368        -9.9422
  45   2.0000      -0.359325        -9.7777
  46   2.0000      -0.350990        -9.5509
  47   2.0000      -0.325233        -8.8500
  48   2.0000      -0.289806        -7.8860
  49   2.0000      -0.281424        -7.6579
  50   2.0000      -0.264049        -7.1852
  51   2.0000      -0.260273        -7.0824
  52   2.0000      -0.200115        -5.4454
  53   0.0000      -0.066158        -1.8002
  54   0.0000      -0.019605        -0.5335
  55   0.0000       0.011749         0.3197
  56   0.0000       0.016382         0.4458
  57   0.0000       0.035712         0.9718

MULLIKEN ATOMIC CHARGES
-----------------------
   0 C :   -0.003922
   1 S :    0.107237
   2 C :   -0.065259
   3 C :   -0.197624
   4 N :   -0.074723
   5 C :    0.340754
   6 C :   -0.155914
   7 C :   -0.102122
   8 S :    0.135012
   9 C :   -0.101822
  10 C :    0.003880
  11 C :    0.039783
  12 C :   -0.038256
  13 H :    0.039082
  14 H :    0.032035
  15 H :    0.034817
  16 H :   -0.025806
  17 H :   -0.010761
  18 H :    0.014606
  19 H :    0.029003
Sum of atomic charges:   -0.0000000

LOEWDIN ATOMIC CHARGES
----------------------
   0 C :   -0.130938
   1 S :    0.401716
   2 C :   -0.214206
   3 C :   -0.045106
   4 N :   -0.093754
   5 C :   -0.009313
   6 C :   -0.049004
   7 C :   -0.202080
   8 S :    0.431407
   9 C :   -0.171983
  10 C :   -0.053222
  11 C :   -0.043595
  12 C :   -0.053326
  13 H :    0.019329
  14 H :    0.053215
  15 H :    0.052976
  16 H :    0.030368
  17 H :    0.028554
  18 H :    0.020962
  19 H :    0.027999

  Mayer bond orders larger than 0.100000
B(  0-C ,  1-S ) :   1.1183 B(  0-C ,  4-N ) :   1.6595 B(  0-C , 13-H ) :   0.9608
B(  1-S ,  2-C ) :   1.0952 B(  1-S ,  4-N ) :   0.1089 B(  2-C ,  3-C ) :   1.5040
B(  2-C ,  7-C ) :   1.1830 B(  3-C ,  4-N ) :   1.3918 B(  3-C ,  5-C ) :   1.0535
B(  5-C ,  6-C ) :   1.0001 B(  5-C , 14-H ) :   0.8693 B(  5-C , 15-H ) :   0.8728
B(  6-C ,  7-C ) :   1.5139 B(  6-C , 10-C ) :   1.2954 B(  7-C ,  8-S ) :   1.0927
B(  8-S ,  9-C ) :   1.1041 B(  9-C , 10-C ) :   1.4714 B(  9-C , 11-C ) :   1.1150
B( 10-C , 16-H ) :   0.9931 B( 11-C , 12-C ) :   1.9194 B( 11-C , 17-H ) :   0.9472
B( 12-C , 18-H ) :   0.9497 B( 12-C , 19-H ) :   0.9449

Dispersion correction           -0.048413828
FINAL SINGLE POINT ENERGY     -1235.878082296120

DIPOLE MOMENT
-------------
                                X             Y             Z
Electronic contribution:     -7.86661       7.56807       6.46354
Nuclear contribution   :      7.88866      -7.84433      -6.49871
                        -----------------------------------------
Total Dipole Moment    :      0.02204      -0.27625      -0.03516
                        -----------------------------------------
Magnitude (a.u.)       :      0.27935
Magnitude (Debye)      :      0.71006

Rotational constants in cm-1:     0.063954     0.012054     0.010163
Rotational constants in MHz :  1917.303354   361.380546   304.672106

                             ****ORCA TERMINATED NORMALLY****
TOTAL RUN TIME: 0 days 0 hours 9 minutes 11 seconds 958 msec
