                         Program Version 4.2.0 -  RELEASE  -
|  1> # ORCA input file
|  2> # SCF done        -31.613218220706          0.000819907934
|  3> ! B3LYP/G D3BJ Opt RIJCOSX def2-SVP def2/J
|  4> * xyz 0 1
|  5>    C        1.36787        -0.24932         0.21999
|  6>    C        0.87839         1.03311         0.36172
|  7>    C       -0.47807         1.27808         0.17779
|  8>    N       -0.93475         2.64010         0.28035
|  9>    O       -0.28009         3.39483         0.96880
| 10>    O       -1.92577         2.95577        -0.34152
| 11>    C       -1.37120         0.24936        -0.12969
| 12>    C       -0.85141        -1.03447        -0.27205
| 13>    C        0.49887        -1.28157        -0.10380
| 14>    C       -2.82364         0.46612        -0.25634
| 15>    C       -3.62317         0.65925         0.77689
| 16>    H        2.42017        -0.44437         0.35492
| 17>    H        1.52703         1.86170         0.60277
| 18>    H       -1.52604        -1.84399        -0.50723
| 19>    H        0.87666        -2.28606        -0.22085
| 20>    H       -3.21478         0.41286        -1.26339
| 21>    H       -3.24663         0.70776         1.78567
| 22>    H       -4.68343         0.78828         0.65434
| 23> *
| 24>
| 25>                          ****END OF INPUT****
 Total Charge           Charge          ....    0
 Multiplicity           Mult            ....    1
 Number of Electrons    NEL             ....   78
Dispersion correction           -0.035192448
FINAL SINGLE POINT ENERGY      -513.793713387389
Dispersion correction            ... done
Dispersion correction           -0.034604842
FINAL SINGLE POINT ENERGY      -513.797077699555
Dispersion correction            ... done
Dispersion correction           -0.034546850
FINAL SINGLE POINT ENERGY      -513.794476641425
Dispersion correction            ... done
FINAL SINGLE POINT ENERGY      -513.797623641656
FINAL SINGLE POINT ENERGY      -513.797879099560
FINAL SINGLE POINT ENERGY      -513.798392034342
FINAL SINGLE POINT ENERGY      -513.797647320403
FINAL SINGLE POINT ENERGY      -513.799675120019
FINAL SINGLE POINT ENERGY      -513.800665370241
FINAL SINGLE POINT ENERGY      -513.801550638927
FINAL SINGLE POINT ENERGY      -513.803123807626
FINAL SINGLE POINT ENERGY      -513.803307573453
FINAL SINGLE POINT ENERGY      -513.803416943768
FINAL SINGLE POINT ENERGY      -513.803505778374
FINAL SINGLE POINT ENERGY      -513.803482767424
FINAL SINGLE POINT ENERGY      -513.803574175115
FINAL SINGLE POINT ENERGY      -513.803586267800
Dispersion correction            ... done
Dispersion correction           -0.034582566
FINAL SINGLE POINT ENERGY      -513.803590258632
Dispersion correction            ... done
Dispersion correction           -0.034581373
FINAL SINGLE POINT ENERGY      -513.803588618455
Dispersion correction            ... done
                    ***********************HURRAY********************

CARTESIAN COORDINATES (ANGSTROEM)
---------------------------------
  C      1.366567   -0.253280    0.236525
  C      0.982683    1.082188    0.177533
  C     -0.372835    1.413666    0.111595
  N     -0.681109    2.857699    0.109824
  O      0.186648    3.613344   -0.299035
  O     -1.769076    3.214136    0.535987
  C     -1.393067    0.437971    0.077830
  C     -0.962199   -0.903658    0.121431
  C      0.384035   -1.247960    0.210294
  C     -2.829104    0.747013   -0.054932
  C     -3.818692   -0.025354    0.412912
  H      2.424061   -0.517975    0.298331
  H      1.712072    1.890763    0.188216
  H     -1.713888   -1.690953    0.049166
  H      0.672626   -2.301334    0.242070
  H     -3.086214    1.675388   -0.565759
  H     -3.629565   -0.936827    0.987360
  H     -4.862930    0.252615    0.249022

 Multiplicity           Mult            ....    1
 Number of Electrons    NEL             ....   78
 Basis Dimension        Dim             ....  189

ORBITAL ENERGIES
----------------

  NO   OCC          E(Eh)            E(eV)
   0   2.0000     -19.165947      -521.5319
   1   2.0000     -19.164589      -521.4950
   2   2.0000     -14.562423      -396.2637
   3   2.0000     -10.255323      -279.0615
   4   2.0000     -10.234913      -278.5062
   5   2.0000     -10.221694      -278.1464
   6   2.0000     -10.221008      -278.1278
   7   2.0000     -10.217895      -278.0431
   8   2.0000     -10.217507      -278.0325
   9   2.0000     -10.209220      -277.8070
  10   2.0000     -10.202067      -277.6124
  11   2.0000      -1.225868       -33.3576
  12   2.0000      -1.051460       -28.6117
  13   2.0000      -0.891893       -24.2696
  14   2.0000      -0.807830       -21.9822
  15   2.0000      -0.803359       -21.8605
  16   2.0000      -0.744303       -20.2535
  17   2.0000      -0.697513       -18.9803
  18   2.0000      -0.644996       -17.5512
  19   2.0000      -0.598642       -16.2899
  20   2.0000      -0.582245       -15.8437
  21   2.0000      -0.547393       -14.8953
  22   2.0000      -0.545073       -14.8322
  23   2.0000      -0.514350       -13.9962
  24   2.0000      -0.510078       -13.8799
  25   2.0000      -0.489230       -13.3126
  26   2.0000      -0.468146       -12.7389
  27   2.0000      -0.458750       -12.4832
  28   2.0000      -0.439105       -11.9487
  29   2.0000      -0.406522       -11.0620
  30   2.0000      -0.401801       -10.9336
  31   2.0000      -0.380106       -10.3432
  32   2.0000      -0.370850       -10.0913
  33   2.0000      -0.326161        -8.8753
  34   2.0000      -0.315082        -8.5738
  35   2.0000      -0.309548        -8.4232
  36   2.0000      -0.298273        -8.1164
  37   2.0000      -0.281945        -7.6721
  38   2.0000      -0.256268        -6.9734
  39   0.0000      -0.092022        -2.5040
  40   0.0000      -0.054101        -1.4722
  41   0.0000      -0.016380        -0.4457
  42   0.0000       0.022908         0.6234
  43   0.0000       0.050794         1.3822

MULLIKEN ATOMIC CHARGES
-----------------------
   0 C :    0.017862
   1 C :    0.002744
   2 C :    0.116988
   3 N :    0.225022
   4 O :   -0.239553
   5 O :   -0.235497
   6 C :    0.059874
   7 C :   -0.050034
   8 C :    0.059887
   9 C :    0.006313
  10 C :   -0.028800
  11 H :   -0.000850
  12 H :    0.008408
  13 H :   -0.008617
  14 H :   -0.003958
  15 H :    0.011222
  16 H :    0.024511
  17 H :    0.034479
Sum of atomic charges:    0.0000000

LOEWDIN ATOMIC CHARGES
----------------------
   0 C :   -0.018895
   1 C :   -0.001181
   2 C :   -0.018518
   3 N :    0.275250
   4 O :   -0.204077
   5 O :   -0.194918
   6 C :   -0.005575
   7 C :   -0.007762
   8 C :   -0.001603
   9 C :   -0.017235
  10 C :   -0.033091
  11 H :    0.034242
  12 H :    0.040896
  13 H :    0.032930
  14 H :    0.034044
  15 H :    0.031661
  16 H :    0.022670
  17 H :    0.031162

  Mayer bond orders larger than 0.100000
B(  0-C ,  1-C ) :   1.3579 B(  0-C ,  8-C ) :   1.3383 B(  0-C , 11-H ) :   0.9886
B(  1-C ,  2-C ) :   1.3864 B(  1-C , 12-H ) :   0.9819 B(  2-C ,  3-N ) :   0.8544
B(  2-C ,  6-C ) :   1.3450 B(  3-N ,  4-O ) :   1.5368 B(  3-N ,  5-O ) :   1.5119
B(  4-O ,  5-O ) :   0.2775 B(  6-C ,  7-C ) :   1.3535 B(  6-C ,  9-C ) :   1.0645
B(  7-C ,  8-C ) :   1.3869 B(  7-C , 13-H ) :   0.9826 B(  8-C , 14-H ) :   0.9890
B(  9-C , 10-C ) :   1.9458 B(  9-C , 15-H ) :   0.9410 B( 10-C , 16-H ) :   0.9526
B( 10-C , 17-H ) :   0.9471

Dispersion correction           -0.034581836
FINAL SINGLE POINT ENERGY      -513.803586766655

DIPOLE MOMENT
-------------
                                X             Y             Z
Electronic contribution:      2.77328       6.98582      -0.37266
Nuclear contribution   :     -2.53312      -8.61047       0.37486
                        -----------------------------------------
Total Dipole Moment    :      0.24016      -1.62465       0.00220
                        -----------------------------------------
Magnitude (a.u.)       :      1.64231
Magnitude (Debye)      :      4.17441

Rotational constants in cm-1:     0.046136     0.040958     0.022123
Rotational constants in MHz :  1383.108058  1227.892767   663.232259

                             ****ORCA TERMINATED NORMALLY****
TOTAL RUN TIME: 0 days 0 hours 32 minutes 30 seconds 293 msec
