                         Program Version 4.2.0 -  RELEASE  -
|  1> # ORCA input file
|  2> # SCF done        -31.802762440985          0.000321933097
|  3> ! B3LYP/G D3BJ Opt RIJCOSX def2-SVP def2/J
|  4> * xyz 0 1
|  5>    C       -1.37018        -1.22092         0.11412
|  6>    S       -2.46680         0.10057        -0.02535
|  7>    C       -1.20714         1.25099        -0.13299
|  8>    C        0.02466         0.64996        -0.06441
|  9>    C       -0.08657        -0.77855         0.07845
| 10>    S        1.46655        -1.56020         0.16704
| 11>    C        2.22147         0.01301         0.01337
| 12>    N        3.63174         0.04390         0.01727
| 13>    O        4.17171         1.12649        -0.08909
| 14>    O        4.20158        -1.02381         0.12720
| 15>    C        1.37607         1.07475        -0.09876
| 16>    H       -1.74103        -2.21999         0.21178
| 17>    H       -1.43550         2.29184        -0.23895
| 18>    H        1.70905         2.09138        -0.19915
| 19> *
| 20>
| 21>                          ****END OF INPUT****
 Total Charge           Charge          ....    0
 Multiplicity           Mult            ....    1
 Number of Electrons    NEL             ....   94
Dispersion correction           -0.035036654
FINAL SINGLE POINT ENERGY     -1231.389580925667
Dispersion correction            ... done
Dispersion correction           -0.034938153
FINAL SINGLE POINT ENERGY     -1231.392201697638
Dispersion correction            ... done
Dispersion correction           -0.034918926
FINAL SINGLE POINT ENERGY     -1231.392238854375
Dispersion correction            ... done
FINAL SINGLE POINT ENERGY     -1231.392199263925
FINAL SINGLE POINT ENERGY     -1231.392391475598
Dispersion correction            ... done
Dispersion correction           -0.034913296
FINAL SINGLE POINT ENERGY     -1231.392394080944
Dispersion correction            ... done
Dispersion correction           -0.034912250
FINAL SINGLE POINT ENERGY     -1231.392399166350
Dispersion correction            ... done
                    ***********************HURRAY********************

CARTESIAN COORDINATES (ANGSTROEM)
---------------------------------
  C     -1.404061   -1.235110    0.106519
  S     -2.490149    0.109891   -0.014012
  C     -1.220868    1.263822   -0.120488
  C      0.015920    0.643089   -0.067022
  C     -0.104283   -0.794418    0.065978
  S      1.462987   -1.588454    0.149187
  C      2.223362   -0.005617    0.002045
  N      3.666500    0.060516    0.019877
  O      4.185297    1.155261   -0.133189
  O      4.258754   -0.997572    0.189936
  C      1.387831    1.065465   -0.103079
  H     -1.788913   -2.247181    0.209354
  H     -1.447943    2.322946   -0.226142
  H      1.751175    2.086782   -0.198434

 Multiplicity           Mult            ....    1
 Number of Electrons    NEL             ....   94
 Basis Dimension        Dim             ....  177

ORBITAL ENERGIES
----------------

  NO   OCC          E(Eh)            E(eV)
   0   2.0000     -88.907282     -2419.2901
   1   2.0000     -88.896721     -2419.0028
   2   2.0000     -19.168201      -521.5933
   3   2.0000     -19.167549      -521.5755
   4   2.0000     -14.569847      -396.4657
   5   2.0000     -10.275174      -279.6017
   6   2.0000     -10.244521      -278.7676
   7   2.0000     -10.242802      -278.7208
   8   2.0000     -10.239565      -278.6327
   9   2.0000     -10.237373      -278.5731
  10   2.0000     -10.231492      -278.4131
  11   2.0000      -8.001837      -217.7411
  12   2.0000      -7.991217      -217.4521
  13   2.0000      -5.969830      -162.4473
  14   2.0000      -5.965564      -162.3312
  15   2.0000      -5.963682      -162.2800
  16   2.0000      -5.960084      -162.1821
  17   2.0000      -5.956124      -162.0744
  18   2.0000      -5.950706      -161.9269
  19   2.0000      -1.229307       -33.4511
  20   2.0000      -1.056006       -28.7354
  21   2.0000      -0.929918       -25.3043
  22   2.0000      -0.879030       -23.9196
  23   2.0000      -0.792290       -21.5593
  24   2.0000      -0.781715       -21.2715
  25   2.0000      -0.721039       -19.6205
  26   2.0000      -0.700212       -19.0537
  27   2.0000      -0.596922       -16.2431
  28   2.0000      -0.570763       -15.5313
  29   2.0000      -0.565067       -15.3762
  30   2.0000      -0.549640       -14.9565
  31   2.0000      -0.534557       -14.5460
  32   2.0000      -0.512587       -13.9482
  33   2.0000      -0.511161       -13.9094
  34   2.0000      -0.457155       -12.4398
  35   2.0000      -0.435519       -11.8511
  36   2.0000      -0.430827       -11.7234
  37   2.0000      -0.415922       -11.3178
  38   2.0000      -0.387800       -10.5526
  39   2.0000      -0.367017        -9.9871
  40   2.0000      -0.365662        -9.9502
  41   2.0000      -0.319791        -8.7020
  42   2.0000      -0.317294        -8.6340
  43   2.0000      -0.310030        -8.4363
  44   2.0000      -0.301550        -8.2056
  45   2.0000      -0.270338        -7.3563
  46   2.0000      -0.236345        -6.4313
  47   0.0000      -0.106195        -2.8897
  48   0.0000      -0.040686        -1.1071
  49   0.0000       0.004585         0.1248
  50   0.0000       0.006434         0.1751
  51   0.0000       0.012736         0.3466

MULLIKEN ATOMIC CHARGES
-----------------------
   0 C :   -0.157808
   1 S :    0.139908
   2 C :   -0.123339
   3 C :    0.088026
   4 C :    0.000231
   5 S :    0.166969
   6 C :    0.007890
   7 N :    0.248730
   8 O :   -0.244022
   9 O :   -0.249775
  10 C :    0.040109
  11 H :    0.034073
  12 H :    0.035336
  13 H :    0.013671
Sum of atomic charges:   -0.0000000

LOEWDIN ATOMIC CHARGES
----------------------
   0 C :   -0.215643
   1 S :    0.481455
   2 C :   -0.189419
   3 C :   -0.079530
   4 C :   -0.184731
   5 S :    0.410270
   6 C :   -0.167301
   7 N :    0.265402
   8 O :   -0.207919
   9 O :   -0.213750
  10 C :   -0.011058
  11 H :    0.031844
  12 H :    0.032820
  13 H :    0.047560

  Mayer bond orders larger than 0.100000
B(  0-C ,  1-S ) :   1.1733 B(  0-C ,  2-C ) :   0.1008 B(  0-C ,  4-C ) :   1.5356
B(  0-C , 11-H ) :   0.9712 B(  1-S ,  2-C ) :   1.2076 B(  2-C ,  3-C ) :   1.4332
B(  2-C , 12-H ) :   0.9650 B(  3-C ,  4-C ) :   1.2241 B(  3-C , 10-C ) :   1.1155
B(  4-C ,  5-S ) :   1.0153 B(  5-S ,  6-C ) :   1.0740 B(  6-C ,  7-N ) :   0.9200
B(  6-C , 10-C ) :   1.5565 B(  7-N ,  8-O ) :   1.5289 B(  7-N ,  9-O ) :   1.5109
B(  8-O ,  9-O ) :   0.2820 B( 10-C , 13-H ) :   0.9980

Dispersion correction           -0.034912230
FINAL SINGLE POINT ENERGY     -1231.392397362990

DIPOLE MOMENT
-------------
                                X             Y             Z
Electronic contribution:      1.72451      -2.29026       0.22121
Nuclear contribution   :     -3.67302       2.53548      -0.26380
                        -----------------------------------------
Total Dipole Moment    :     -1.94851       0.24522      -0.04259
                        -----------------------------------------
Magnitude (a.u.)       :      1.96435
Magnitude (Debye)      :      4.99297

Rotational constants in cm-1:     0.086955     0.016588     0.013933
Rotational constants in MHz :  2606.851269   497.285855   417.700576

                             ****ORCA TERMINATED NORMALLY****
TOTAL RUN TIME: 0 days 0 hours 7 minutes 1 seconds 921 msec
