                         Program Version 4.2.0 -  RELEASE  -
|  1> # ORCA input file
|  2> # SCF done        -30.654625855896          0.000555881104
|  3> ! B3LYP/G D3BJ Opt RIJCOSX def2-SVP def2/J
|  4> * xyz 0 1
|  5>    C        1.20050        -1.27620         0.20454
|  6>    S        2.50766        -0.15163         0.17738
|  7>    C        1.42384         1.18913         0.04082
|  8>    C        0.14290         0.76845         0.01483
|  9>    C       -0.00393        -0.64774         0.12133
| 10>    C       -1.39574        -1.06692         0.02839
| 11>    C       -2.22090        -0.02320        -0.16295
| 12>    S       -1.45288         1.62378        -0.10922
| 13>    O       -1.55198         2.21281        -1.44712
| 14>    C       -1.86204        -2.44324         0.10785
| 15>    C       -1.25090        -3.42101         0.76370
| 16>    H        1.42410        -2.32163         0.26623
| 17>    H        1.81327         2.18456        -0.02638
| 18>    H       -3.28781        -0.08128        -0.28150
| 19>    H       -2.80982        -2.62933        -0.38080
| 20>    H       -0.33295        -3.26469         1.30327
| 21>    H       -1.66660        -4.41315         0.80271
| 22> *
| 23>
| 24>                          ****END OF INPUT****
 Total Charge           Charge          ....    0
 Multiplicity           Mult            ....    1
 Number of Electrons    NEL             ....   94
Dispersion correction           -0.041556730
FINAL SINGLE POINT ENERGY     -1179.483412610722
Dispersion correction            ... done
Dispersion correction           -0.041349859
FINAL SINGLE POINT ENERGY     -1179.487979189677
Dispersion correction            ... done
Dispersion correction           -0.041260440
FINAL SINGLE POINT ENERGY     -1179.488553303285
Dispersion correction            ... done
FINAL SINGLE POINT ENERGY     -1179.488579163794
FINAL SINGLE POINT ENERGY     -1179.488806262811
FINAL SINGLE POINT ENERGY     -1179.488869070278
Dispersion correction            ... done
Dispersion correction           -0.041235560
FINAL SINGLE POINT ENERGY     -1179.488936366147
Dispersion correction            ... done
Dispersion correction           -0.041229135
FINAL SINGLE POINT ENERGY     -1179.488955466530
Dispersion correction            ... done
                    ***********************HURRAY********************

CARTESIAN COORDINATES (ANGSTROEM)
---------------------------------
  C      1.232327   -1.275346    0.265318
  S      2.530611   -0.124318    0.212681
  C      1.436723    1.214127    0.030536
  C      0.150040    0.766746    0.007046
  C      0.011609   -0.654762    0.139994
  C     -1.395434   -1.081236    0.027990
  C     -2.216703   -0.026940   -0.217561
  S     -1.452541    1.619075   -0.143552
  O     -1.583339    2.349126   -1.454929
  C     -1.895384   -2.447972    0.164168
  C     -1.244795   -3.480753    0.719504
  H      1.465513   -2.331971    0.371853
  H      1.814120    2.230058   -0.071878
  H     -3.296329   -0.072196   -0.367946
  H     -2.915734   -2.602166   -0.201484
  H     -0.244291   -3.381059    1.142964
  H     -1.719673   -4.461701    0.798376

 Multiplicity           Mult            ....    1
 Number of Electrons    NEL             ....   94
 Basis Dimension        Dim             ....  192

ORBITAL ENERGIES
----------------

  NO   OCC          E(Eh)            E(eV)
   0   2.0000     -88.959536     -2420.7120
   1   2.0000     -88.895277     -2418.9635
   2   2.0000     -19.085249      -519.3360
   3   2.0000     -10.237353      -278.5725
   4   2.0000     -10.235562      -278.5238
   5   2.0000     -10.235450      -278.5208
   6   2.0000     -10.222623      -278.1717
   7   2.0000     -10.219152      -278.0773
   8   2.0000     -10.218284      -278.0536
   9   2.0000     -10.217790      -278.0402
  10   2.0000     -10.211225      -277.8616
  11   2.0000      -8.041261      -218.8138
  12   2.0000      -7.990112      -217.4220
  13   2.0000      -6.009418      -163.5246
  14   2.0000      -6.008652      -163.5037
  15   2.0000      -6.001998      -163.3227
  16   2.0000      -5.958340      -162.1347
  17   2.0000      -5.953996      -162.0165
  18   2.0000      -5.951487      -161.9482
  19   2.0000      -0.999246       -27.1909
  20   2.0000      -0.908506       -24.7217
  21   2.0000      -0.848799       -23.0970
  22   2.0000      -0.790261       -21.5041
  23   2.0000      -0.747047       -20.3282
  24   2.0000      -0.731672       -19.9098
  25   2.0000      -0.690904       -18.8004
  26   2.0000      -0.606112       -16.4932
  27   2.0000      -0.601708       -16.3733
  28   2.0000      -0.576450       -15.6860
  29   2.0000      -0.545772       -14.8512
  30   2.0000      -0.505120       -13.7450
  31   2.0000      -0.474610       -12.9148
  32   2.0000      -0.451047       -12.2736
  33   2.0000      -0.436724       -11.8839
  34   2.0000      -0.432641       -11.7728
  35   2.0000      -0.430981       -11.7276
  36   2.0000      -0.418343       -11.3837
  37   2.0000      -0.406286       -11.0556
  38   2.0000      -0.381630       -10.3847
  39   2.0000      -0.379519       -10.3272
  40   2.0000      -0.362345        -9.8599
  41   2.0000      -0.353243        -9.6122
  42   2.0000      -0.284668        -7.7462
  43   2.0000      -0.280170        -7.6238
  44   2.0000      -0.262375        -7.1396
  45   2.0000      -0.243014        -6.6127
  46   2.0000      -0.226870        -6.1734
  47   0.0000      -0.075748        -2.0612
  48   0.0000      -0.042480        -1.1559
  49   0.0000       0.001352         0.0368
  50   0.0000       0.015937         0.4337
  51   0.0000       0.028661         0.7799

MULLIKEN ATOMIC CHARGES
-----------------------
   0 C :   -0.153717
   1 S :    0.115592
   2 C :   -0.132086
   3 C :   -0.046097
   4 C :    0.102292
   5 C :    0.131200
   6 C :   -0.145355
   7 S :    0.555243
   8 O :   -0.552868
   9 C :   -0.006048
  10 C :   -0.018208
  11 H :    0.032448
  12 H :    0.036939
  13 H :    0.029963
  14 H :   -0.004531
  15 H :    0.021072
  16 H :    0.034161
Sum of atomic charges:   -0.0000000

LOEWDIN ATOMIC CHARGES
----------------------
   0 C :   -0.186584
   1 S :    0.448921
   2 C :   -0.175372
   3 C :   -0.209021
   4 C :   -0.069678
   5 C :   -0.020079
   6 C :   -0.167740
   7 S :    0.836033
   8 O :   -0.585653
   9 C :   -0.020006
  10 C :   -0.028888
  11 H :    0.025968
  12 H :    0.035020
  13 H :    0.027038
  14 H :    0.034944
  15 H :    0.023649
  16 H :    0.031448

  Mayer bond orders larger than 0.100000
B(  0-C ,  1-S ) :   1.1534 B(  0-C ,  4-C ) :   1.5276 B(  0-C , 11-H ) :   0.9571
B(  1-S ,  2-C ) :   1.1715 B(  2-C ,  3-C ) :   1.6131 B(  2-C , 12-H ) :   0.9676
B(  3-C ,  4-C ) :   1.2426 B(  3-C ,  7-S ) :   0.8104 B(  4-C ,  5-C ) :   1.0329
B(  5-C ,  6-C ) :   1.6659 B(  5-C ,  9-C ) :   1.0970 B(  6-C ,  7-S ) :   0.8828
B(  6-C , 10-C ) :   0.1012 B(  6-C , 13-H ) :   0.9529 B(  7-S ,  8-O ) :   1.5593
B(  9-C , 10-C ) :   1.9143 B(  9-C , 14-H ) :   0.9561 B( 10-C , 15-H ) :   0.9468
B( 10-C , 16-H ) :   0.9440

Dispersion correction           -0.041225467
FINAL SINGLE POINT ENERGY     -1179.488958056663

DIPOLE MOMENT
-------------
                                X             Y             Z
Electronic contribution:      3.73638       8.33686      -0.75717
Nuclear contribution   :     -3.33631      -9.69188       1.72030
                        -----------------------------------------
Total Dipole Moment    :      0.40007      -1.35502       0.96313
                        -----------------------------------------
Magnitude (a.u.)       :      1.70989
Magnitude (Debye)      :      4.34621

Rotational constants in cm-1:     0.031901     0.030453     0.016021
Rotational constants in MHz :   956.365726   912.956437   480.303037

                             ****ORCA TERMINATED NORMALLY****
TOTAL RUN TIME: 0 days 0 hours 9 minutes 39 seconds 735 msec
