                         Program Version 4.2.0 -  RELEASE  -
|  1> # ORCA input file
|  2> # SCF done        -51.665503028563          0.000989447718
|  3> ! B3LYP/G D3BJ Opt RIJCOSX def2-SVP def2/J
|  4> * xyz 0 1
|  5>    C        1.34238        -1.35904         0.34150
|  6>    S        2.60198        -0.21387         0.17683
|  7>    C        1.46491         1.06245        -0.15187
|  8>    C        0.17439         0.58578        -0.11217
|  9>    C        0.11106        -0.80216         0.16873
| 10>    C       -1.17185        -1.56641         0.29634
| 11>    C       -2.36553        -0.76965        -0.22312
| 12>    N       -2.45702        -0.87590        -1.71381
| 13>    O       -2.21392        -1.94844        -2.19823
| 14>    O       -2.80321         0.10713        -2.32120
| 15>    C       -2.31260         0.69995         0.18521
| 16>    N       -2.41715         0.81252         1.67429
| 17>    O       -2.09327         1.86118         2.16512
| 18>    O       -2.85501        -0.13833         2.27369
| 19>    C       -1.05683         1.41280        -0.31473
| 20>    C        1.99742         2.38050        -0.38920
| 21>    C        1.38057         3.41703        -0.95021
| 22>    H        1.57299        -2.38282         0.55759
| 23>    H       -1.34846        -1.81482         1.34675
| 24>    H       -1.10530        -2.50790        -0.25429
| 25>    H       -3.28814        -1.22989         0.15437
| 26>    H       -3.19244         1.22763        -0.20610
| 27>    H       -0.95622         2.36309         0.21621
| 28>    H       -1.19055         1.63472        -1.37754
| 29>    H        3.02998         2.49124        -0.08114
| 30>    H        0.37606         3.37710        -1.32696
| 31>    H        1.89425         4.35477        -1.07163
| 32> *
| 33>
| 34>                          ****END OF INPUT****
 Total Charge           Charge          ....    0
 Multiplicity           Mult            ....    1
 Number of Electrons    NEL             ....  132
Dispersion correction           -0.064286101
FINAL SINGLE POINT ENERGY     -1194.822424110234
Dispersion correction            ... done
Dispersion correction           -0.063366826
FINAL SINGLE POINT ENERGY     -1194.826453324929
Dispersion correction            ... done
Dispersion correction           -0.063227741
FINAL SINGLE POINT ENERGY     -1194.826065134869
Dispersion correction            ... done
FINAL SINGLE POINT ENERGY     -1194.827557236026
FINAL SINGLE POINT ENERGY     -1194.827437353780
FINAL SINGLE POINT ENERGY     -1194.827614061336
FINAL SINGLE POINT ENERGY     -1194.827659002479
FINAL SINGLE POINT ENERGY     -1194.827637363255
FINAL SINGLE POINT ENERGY     -1194.827531791491
FINAL SINGLE POINT ENERGY     -1194.827478092684
FINAL SINGLE POINT ENERGY     -1194.827332845713
FINAL SINGLE POINT ENERGY     -1194.827528399724
Dispersion correction            ... done
Dispersion correction           -0.063237682
FINAL SINGLE POINT ENERGY     -1194.827565565530
Dispersion correction            ... done
Dispersion correction           -0.063237964
FINAL SINGLE POINT ENERGY     -1194.827562059639
Dispersion correction            ... done
                    ***********************HURRAY********************

CARTESIAN COORDINATES (ANGSTROEM)
---------------------------------
  C      1.386713   -1.421612    0.199130
  S      2.643258   -0.285808   -0.091360
  C      1.509240    1.033431   -0.260931
  C      0.206793    0.578758   -0.081838
  C      0.145161   -0.827852    0.182277
  C     -1.156091   -1.544632    0.421095
  C     -2.331245   -0.793173   -0.194843
  N     -2.340723   -0.975300   -1.714586
  O     -2.149840   -2.101672   -2.122684
  O     -2.585295   -0.003681   -2.408708
  C     -2.324369    0.699079    0.137282
  N     -2.664456    0.871906    1.628891
  O     -2.408476    1.944551    2.133272
  O     -3.228974   -0.051807    2.190054
  C     -1.027653    1.428320   -0.217953
  C      2.050682    2.346638   -0.576411
  C      1.396691    3.506212   -0.773186
  H      1.618286   -2.470430    0.377246
  H     -1.365659   -1.632253    1.499211
  H     -1.133172   -2.562609    0.012856
  H     -3.277059   -1.245282    0.129278
  H     -3.168224    1.192315   -0.362404
  H     -0.970594    2.328703    0.408163
  H     -1.121548    1.776504   -1.258700
  H      3.142809    2.368256   -0.669234
  H      0.313420    3.608068   -0.710876
  H      1.958815    4.412026   -1.010612

 Multiplicity           Mult            ....    1
 Number of Electrons    NEL             ....  132
 Basis Dimension        Dim             ....  292

ORBITAL ENERGIES
----------------

  NO   OCC          E(Eh)            E(eV)
   0   2.0000     -88.885254     -2418.6907
   1   2.0000     -19.190269      -522.1938
   2   2.0000     -19.190136      -522.1902
   3   2.0000     -19.187875      -522.1286
   4   2.0000     -19.186588      -522.0936
   5   2.0000     -14.579537      -396.7294
   6   2.0000     -14.577142      -396.6642
   7   2.0000     -10.279113      -279.7089
   8   2.0000     -10.277371      -279.6615
   9   2.0000     -10.229679      -278.3637
  10   2.0000     -10.224762      -278.2299
  11   2.0000     -10.223424      -278.1935
  12   2.0000     -10.223248      -278.1887
  13   2.0000     -10.215429      -277.9760
  14   2.0000     -10.214712      -277.9564
  15   2.0000     -10.214449      -277.9493
  16   2.0000     -10.199991      -277.5559
  17   2.0000      -7.980463      -217.1594
  18   2.0000      -5.948377      -161.8636
  19   2.0000      -5.944508      -161.7583
  20   2.0000      -5.941926      -161.6880
  21   2.0000      -1.249019       -33.9875
  22   2.0000      -1.246129       -33.9089
  23   2.0000      -1.076865       -29.3030
  24   2.0000      -1.074425       -29.2366
  25   2.0000      -0.911101       -24.7923
  26   2.0000      -0.881853       -23.9964
  27   2.0000      -0.816252       -22.2113
  28   2.0000      -0.792129       -21.5549
  29   2.0000      -0.778440       -21.1824
  30   2.0000      -0.744571       -20.2608
  31   2.0000      -0.698818       -19.0158
  32   2.0000      -0.686104       -18.6698
  33   2.0000      -0.629044       -17.1171
  34   2.0000      -0.617752       -16.8099
  35   2.0000      -0.596363       -16.2279
  36   2.0000      -0.583398       -15.8751
  37   2.0000      -0.582546       -15.8519
  38   2.0000      -0.563289       -15.3279
  39   2.0000      -0.556490       -15.1429
  40   2.0000      -0.544731       -14.8229
  41   2.0000      -0.530777       -14.4432
  42   2.0000      -0.528451       -14.3799
  43   2.0000      -0.511478       -13.9180
  44   2.0000      -0.500342       -13.6150
  45   2.0000      -0.469316       -12.7707
  46   2.0000      -0.468098       -12.7376
  47   2.0000      -0.454895       -12.3783
  48   2.0000      -0.446172       -12.1410
  49   2.0000      -0.438212       -11.9244
  50   2.0000      -0.431971       -11.7545
  51   2.0000      -0.412975       -11.2376
  52   2.0000      -0.390152       -10.6166
  53   2.0000      -0.386302       -10.5118
  54   2.0000      -0.375366       -10.2142
  55   2.0000      -0.360263        -9.8033
  56   2.0000      -0.351992        -9.5782
  57   2.0000      -0.339148        -9.2287
  58   2.0000      -0.335723        -9.1355
  59   2.0000      -0.335207        -9.1214
  60   2.0000      -0.327972        -8.9246
  61   2.0000      -0.316705        -8.6180
  62   2.0000      -0.314161        -8.5487
  63   2.0000      -0.311223        -8.4688
  64   2.0000      -0.260928        -7.1002
  65   2.0000      -0.229067        -6.2332
  66   0.0000      -0.090628        -2.4661
  67   0.0000      -0.086361        -2.3500
  68   0.0000      -0.056857        -1.5472
  69   0.0000       0.008019         0.2182
  70   0.0000       0.020281         0.5519

MULLIKEN ATOMIC CHARGES
-----------------------
   0 C :   -0.120597
   1 S :    0.123734
   2 C :   -0.160368
   3 C :   -0.040997
   4 C :   -0.073263
   5 C :    0.177517
   6 C :    0.024022
   7 N :    0.221254
   8 O :   -0.217578
   9 O :   -0.230706
  10 C :    0.053976
  11 N :    0.209189
  12 O :   -0.209134
  13 O :   -0.228256
  14 C :    0.120096
  15 C :    0.038380
  16 C :   -0.037167
  17 H :    0.019866
  18 H :    0.043752
  19 H :    0.032467
  20 H :    0.058180
  21 H :    0.058366
  22 H :    0.056026
  23 H :    0.050098
  24 H :   -0.006470
  25 H :    0.012138
  26 H :    0.025474
Sum of atomic charges:    0.0000000

LOEWDIN ATOMIC CHARGES
----------------------
   0 C :   -0.192542
   1 S :    0.450966
   2 C :   -0.176501
   3 C :   -0.064260
   4 C :   -0.075045
   5 C :   -0.021505
   6 C :    0.012837
   7 N :    0.269686
   8 O :   -0.182326
   9 O :   -0.195093
  10 C :    0.017656
  11 N :    0.268134
  12 O :   -0.177177
  13 O :   -0.196048
  14 C :   -0.028600
  15 C :   -0.041392
  16 C :   -0.050531
  17 H :    0.026935
  18 H :    0.044121
  19 H :    0.042331
  20 H :    0.049116
  21 H :    0.051696
  22 H :    0.041175
  23 H :    0.046656
  24 H :    0.030403
  25 H :    0.020045
  26 H :    0.029261

  Mayer bond orders larger than 0.100000
B(  0-C ,  1-S ) :   1.1651 B(  0-C ,  4-C ) :   1.5355 B(  0-C , 17-H ) :   0.9647
B(  1-S ,  2-C ) :   1.1426 B(  2-C ,  3-C ) :   1.5048 B(  2-C , 15-C ) :   1.1236
B(  3-C ,  4-C ) :   1.2976 B(  3-C , 14-C ) :   1.0617 B(  4-C ,  5-C ) :   1.0165
B(  5-C ,  6-C ) :   1.0548 B(  5-C , 18-H ) :   0.9062 B(  5-C , 19-H ) :   0.8997
B(  6-C ,  7-N ) :   0.7935 B(  6-C , 10-C ) :   1.0221 B(  6-C , 20-H ) :   0.8905
B(  7-N ,  8-O ) :   1.5615 B(  7-N ,  9-O ) :   1.5421 B(  8-O ,  9-O ) :   0.2874
B( 10-C , 11-N ) :   0.7929 B( 10-C , 14-C ) :   1.0268 B( 10-C , 21-H ) :   0.8889
B( 11-N , 12-O ) :   1.5686 B( 11-N , 13-O ) :   1.5323 B( 12-O , 13-O ) :   0.2840
B( 14-C , 22-H ) :   0.8848 B( 14-C , 23-H ) :   0.8925 B( 15-C , 16-C ) :   1.9074
B( 15-C , 24-H ) :   0.9423 B( 16-C , 25-H ) :   0.9526 B( 16-C , 26-H ) :   0.9384

Dispersion correction           -0.063240726
FINAL SINGLE POINT ENERGY     -1194.827569660181

DIPOLE MOMENT
-------------
                                X             Y             Z
Electronic contribution:     -1.45313      -5.32068       0.69881
Nuclear contribution   :      1.80856       5.30005      -0.63361
                        -----------------------------------------
Total Dipole Moment    :      0.35543      -0.02063       0.06519
                        -----------------------------------------
Magnitude (a.u.)       :      0.36194
Magnitude (Debye)      :      0.91999

Rotational constants in cm-1:     0.018419     0.011727     0.009923
Rotational constants in MHz :   552.193988   351.575572   297.469379

                             ****ORCA TERMINATED NORMALLY****
TOTAL RUN TIME: 0 days 0 hours 45 minutes 15 seconds 930 msec
