                         Program Version 4.2.0 -  RELEASE  -
|  1> # ORCA input file
|  2> # SCF done        -24.984040153590          0.000604489828
|  3> ! B3LYP/G D3BJ Opt RIJCOSX def2-SVP def2/J
|  4> * xyz 0 1
|  5>    C       -2.18081         0.55466         0.06770
|  6>    C       -2.12247        -0.76672         0.06446
|  7>    C       -0.86761        -1.57581        -0.06907
|  8>    C        0.33685        -0.70580        -0.06000
|  9>    C        0.27430         0.71129        -0.05653
| 10>    C       -1.00214         1.47182        -0.06160
| 11>    N        1.46350         1.27004        -0.04178
| 12>    S        2.59771         0.10388        -0.03556
| 13>    N        1.57067        -1.15765        -0.04774
| 14>    H       -3.13590         1.05256         0.16214
| 15>    H       -3.02997        -1.34730         0.15624
| 16>    H       -0.89647        -2.15252        -1.00119
| 17>    H       -0.79995        -2.30736         0.74264
| 18>    H       -1.08189         2.04832        -0.99090
| 19>    H       -0.99903         2.20251         0.75369
| 20> *
| 21>
| 22>                          ****END OF INPUT****
 Total Charge           Charge          ....    0
 Multiplicity           Mult            ....    1
 Number of Electrons    NEL             ....   72
Dispersion correction           -0.029822222
FINAL SINGLE POINT ENERGY      -739.581759865084
Dispersion correction            ... done
Dispersion correction           -0.029659366
FINAL SINGLE POINT ENERGY      -739.584688363654
Dispersion correction            ... done
Dispersion correction           -0.029649465
FINAL SINGLE POINT ENERGY      -739.585076446936
Dispersion correction            ... done
FINAL SINGLE POINT ENERGY      -739.585213733428
FINAL SINGLE POINT ENERGY      -739.585222939048
FINAL SINGLE POINT ENERGY      -739.585260434738
FINAL SINGLE POINT ENERGY      -739.585278237235
FINAL SINGLE POINT ENERGY      -739.585285308069
Dispersion correction            ... done
Dispersion correction           -0.029686960
FINAL SINGLE POINT ENERGY      -739.585266647642
Dispersion correction            ... done
Dispersion correction           -0.029686214
FINAL SINGLE POINT ENERGY      -739.585258630759
Dispersion correction            ... done
                    ***********************HURRAY********************

CARTESIAN COORDINATES (ANGSTROEM)
---------------------------------
  C     -2.195510    0.562590   -0.000453
  C     -2.136512   -0.774719   -0.003915
  C     -0.866289   -1.584806    0.004268
  C      0.357791   -0.717926   -0.057554
  C      0.292900    0.723378   -0.059798
  C     -1.001167    1.479865    0.011460
  N      1.470659    1.306951   -0.135216
  S      2.617717    0.106414   -0.196399
  N      1.584498   -1.192531   -0.128277
  H     -3.176158    1.049252   -0.003011
  H     -3.070847   -1.344490   -0.009844
  H     -0.855149   -2.295624   -0.841860
  H     -0.825709   -2.220338    0.908517
  H     -1.056183    2.196577   -0.827631
  H     -1.013251    2.107328    0.922213

 Multiplicity           Mult            ....    1
 Number of Electrons    NEL             ....   72
 Basis Dimension        Dim             ....  160

ORBITAL ENERGIES
----------------

  NO   OCC          E(Eh)            E(eV)
   0   2.0000     -88.915392     -2419.5108
   1   2.0000     -14.351247      -390.5173
   2   2.0000     -14.351076      -390.5126
   3   2.0000     -10.238461      -278.6027
   4   2.0000     -10.238226      -278.5963
   5   2.0000     -10.210848      -277.8513
   6   2.0000     -10.210587      -277.8442
   7   2.0000     -10.200911      -277.5809
   8   2.0000     -10.200221      -277.5621
   9   2.0000      -8.007433      -217.8933
  10   2.0000      -5.977842      -162.6654
  11   2.0000      -5.970813      -162.4741
  12   2.0000      -5.967364      -162.3802
  13   2.0000      -1.006399       -27.3855
  14   2.0000      -0.879087       -23.9212
  15   2.0000      -0.837887       -22.8001
  16   2.0000      -0.753165       -20.4947
  17   2.0000      -0.748978       -20.3807
  18   2.0000      -0.660993       -17.9865
  19   2.0000      -0.603980       -16.4351
  20   2.0000      -0.589745       -16.0478
  21   2.0000      -0.511871       -13.9287
  22   2.0000      -0.495058       -13.4712
  23   2.0000      -0.474017       -12.8987
  24   2.0000      -0.464217       -12.6320
  25   2.0000      -0.433832       -11.8052
  26   2.0000      -0.429952       -11.6996
  27   2.0000      -0.411408       -11.1950
  28   2.0000      -0.398418       -10.8415
  29   2.0000      -0.377434       -10.2705
  30   2.0000      -0.358653        -9.7595
  31   2.0000      -0.314375        -8.5546
  32   2.0000      -0.306226        -8.3328
  33   2.0000      -0.291059        -7.9201
  34   2.0000      -0.273131        -7.4323
  35   2.0000      -0.252887        -6.8814
  36   0.0000      -0.054847        -1.4925
  37   0.0000       0.004680         0.1274
  38   0.0000       0.019382         0.5274
  39   0.0000       0.035860         0.9758
  40   0.0000       0.055566         1.5120

MULLIKEN ATOMIC CHARGES
-----------------------
   0 C :   -0.108082
   1 C :   -0.103964
   2 C :    0.246843
   3 C :   -0.116230
   4 C :   -0.113060
   5 C :    0.247988
   6 N :   -0.291542
   7 S :    0.411620
   8 N :   -0.291934
   9 H :   -0.005578
  10 H :   -0.004607
  11 H :    0.032506
  12 H :    0.032308
  13 H :    0.031597
  14 H :    0.032135
Sum of atomic charges:    0.0000000

LOEWDIN ATOMIC CHARGES
----------------------
   0 C :   -0.037956
   1 C :   -0.037608
   2 C :   -0.031341
   3 C :   -0.055322
   4 C :   -0.055217
   5 C :   -0.031131
   6 N :   -0.270441
   7 S :    0.543472
   8 N :   -0.270772
   9 H :    0.027576
  10 H :    0.027773
  11 H :    0.047607
  12 H :    0.047970
  13 H :    0.047402
  14 H :    0.047988

  Mayer bond orders larger than 0.100000
B(  0-C ,  1-C ) :   1.9350 B(  0-C ,  5-C ) :   1.0229 B(  0-C ,  9-H ) :   0.9649
B(  1-C ,  2-C ) :   1.0214 B(  1-C , 10-H ) :   0.9649 B(  2-C ,  3-C ) :   1.0562
B(  2-C , 11-H ) :   0.8909 B(  2-C , 12-H ) :   0.8841 B(  3-C ,  4-C ) :   1.2224
B(  3-C ,  8-N ) :   1.6326 B(  4-C ,  5-C ) :   1.0560 B(  4-C ,  6-N ) :   1.6330
B(  5-C , 13-H ) :   0.8908 B(  5-C , 14-H ) :   0.8841 B(  6-N ,  7-S ) :   1.1806
B(  6-N ,  8-N ) :   0.1358 B(  7-S ,  8-N ) :   1.1809

Dispersion correction           -0.029685956
FINAL SINGLE POINT ENERGY      -739.585258861529

DIPOLE MOMENT
-------------
                                X             Y             Z
Electronic contribution:     10.66773       0.47327      -0.53620
Nuclear contribution   :    -11.46819      -0.50925       0.59460
                        -----------------------------------------
Total Dipole Moment    :     -0.80046      -0.03598       0.05840
                        -----------------------------------------
Magnitude (a.u.)       :      0.80339
Magnitude (Debye)      :      2.04206

Rotational constants in cm-1:     0.112875     0.039092     0.029358
Rotational constants in MHz :  3383.919615  1171.958854   880.139986

                             ****ORCA TERMINATED NORMALLY****
TOTAL RUN TIME: 0 days 0 hours 8 minutes 4 seconds 975 msec
