                         Program Version 4.2.0 -  RELEASE  -
|  1> # ORCA input file
|  2> # SCF done        -52.627371661156          0.000694902215
|  3> ! B3LYP/G D3BJ Opt RIJCOSX def2-SVP def2/J
|  4> * xyz 0 1
|  5>    C        0.38217         0.82659        -0.53379
|  6>    C        0.66020        -0.47783        -0.49730
|  7>    C       -0.52518        -1.21724         0.04729
|  8>    N       -0.14826        -2.12840         1.15881
|  9>    O       -0.80818        -2.08725         2.16858
| 10>    O        0.78889        -2.85537         0.96447
| 11>    C       -1.48980        -0.11429         0.38435
| 12>    C       -2.85289        -0.39862         0.93701
| 13>    C       -3.37046         0.54191         1.97478
| 14>    C       -4.61555         0.95189         1.65621
| 15>    C       -4.99356         0.39179         0.39325
| 16>    C       -3.97667        -0.38189        -0.06314
| 17>    N       -3.95750        -1.10718        -1.26414
| 18>    O       -4.87502        -0.94609        -2.04410
| 19>    O       -3.01397        -1.86212        -1.45397
| 20>    C       -0.95887         1.07287        -0.00445
| 21>    C       -1.58810         2.37205         0.07898
| 22>    C       -1.11381         3.48446        -0.47205
| 23>    H        1.03413         1.60289        -0.88524
| 24>    H        1.56218        -0.98070        -0.78817
| 25>    H       -0.96796        -1.86039        -0.72960
| 26>    H       -2.81102        -1.39330         1.40392
| 27>    H       -2.80209         0.79292         2.85071
| 28>    H       -5.24383         1.60270         2.23604
| 29>    H       -5.93197         0.55065        -0.10626
| 30>    H       -2.51851         2.39977         0.63058
| 31>    H       -0.20090         3.50542        -1.04192
| 32>    H       -1.63524         4.42093        -0.37677
| 33> *
| 34>
| 35>                          ****END OF INPUT****
 Total Charge           Charge          ....    0
 Multiplicity           Mult            ....    1
 Number of Electrons    NEL             ....  128
Dispersion correction           -0.063328552
FINAL SINGLE POINT ENERGY      -872.822063898730
Dispersion correction            ... done
Dispersion correction           -0.062446423
FINAL SINGLE POINT ENERGY      -872.827193059420
Dispersion correction            ... done
Dispersion correction           -0.062452988
FINAL SINGLE POINT ENERGY      -872.825643805663
Dispersion correction            ... done
FINAL SINGLE POINT ENERGY      -872.827666887736
FINAL SINGLE POINT ENERGY      -872.827524910280
FINAL SINGLE POINT ENERGY      -872.827013987144
FINAL SINGLE POINT ENERGY      -872.827006083255
FINAL SINGLE POINT ENERGY      -872.827093024800
FINAL SINGLE POINT ENERGY      -872.826682532877
FINAL SINGLE POINT ENERGY      -872.826608496631
Dispersion correction            ... done
Dispersion correction           -0.062320643
FINAL SINGLE POINT ENERGY      -872.826628411678
Dispersion correction            ... done
Dispersion correction           -0.062334289
FINAL SINGLE POINT ENERGY      -872.826633000808
Dispersion correction            ... done
                    ***********************HURRAY********************

CARTESIAN COORDINATES (ANGSTROEM)
---------------------------------
  C      0.421983    0.878565   -0.558900
  C      0.660633   -0.442625   -0.594373
  C     -0.561527   -1.156210   -0.080695
  N     -0.173714   -2.157471    0.998597
  O     -0.672395   -2.047383    2.104026
  O      0.620412   -3.010560    0.659479
  C     -1.501251   -0.053785    0.339196
  C     -2.864310   -0.330231    0.931967
  C     -3.424896    0.721525    1.855680
  C     -4.694283    1.041234    1.498512
  C     -5.067125    0.273512    0.318143
  C     -4.018072   -0.513449   -0.027054
  N     -4.052283   -1.499195   -1.069925
  O     -4.987276   -1.480440   -1.855468
  O     -3.135832   -2.321399   -1.091647
  C     -0.928502    1.140135   -0.002018
  C     -1.511815    2.469664    0.121025
  C     -0.891222    3.625215   -0.166495
  H      1.103802    1.657473   -0.898361
  H      1.548977   -0.967644   -0.939562
  H     -1.033072   -1.783451   -0.855227
  H     -2.765540   -1.259989    1.526077
  H     -2.854016    1.132756    2.687952
  H     -5.352184    1.747057    2.005637
  H     -6.029156    0.288688   -0.192554
  H     -2.540640    2.507121    0.482107
  H      0.136958    3.666433   -0.534246
  H     -1.405426    4.580623   -0.037794

 Multiplicity           Mult            ....    1
 Number of Electrons    NEL             ....  128
 Basis Dimension        Dim             ....  302

ORBITAL ENERGIES
----------------

  NO   OCC          E(Eh)            E(eV)
   0   2.0000     -19.176570      -521.8210
   1   2.0000     -19.173588      -521.7399
   2   2.0000     -19.167669      -521.5788
   3   2.0000     -19.166970      -521.5598
   4   2.0000     -14.568019      -396.4160
   5   2.0000     -14.566356      -396.3707
   6   2.0000     -10.256506      -279.0937
   7   2.0000     -10.255932      -279.0781
   8   2.0000     -10.240416      -278.6559
   9   2.0000     -10.239412      -278.6286
  10   2.0000     -10.231946      -278.4254
  11   2.0000     -10.226167      -278.2682
  12   2.0000     -10.225889      -278.2606
  13   2.0000     -10.224151      -278.2133
  14   2.0000     -10.215092      -277.9668
  15   2.0000     -10.213840      -277.9327
  16   2.0000     -10.213795      -277.9315
  17   2.0000     -10.210490      -277.8416
  18   2.0000      -1.233621       -33.5685
  19   2.0000      -1.226864       -33.3847
  20   2.0000      -1.062206       -28.9041
  21   2.0000      -1.051886       -28.6233
  22   2.0000      -0.914976       -24.8978
  23   2.0000      -0.892796       -24.2942
  24   2.0000      -0.810085       -22.0435
  25   2.0000      -0.800108       -21.7720
  26   2.0000      -0.775162       -21.0932
  27   2.0000      -0.762493       -20.7485
  28   2.0000      -0.709457       -19.3053
  29   2.0000      -0.684325       -18.6214
  30   2.0000      -0.648884       -17.6570
  31   2.0000      -0.609933       -16.5971
  32   2.0000      -0.587629       -15.9902
  33   2.0000      -0.583167       -15.8688
  34   2.0000      -0.572642       -15.5824
  35   2.0000      -0.565860       -15.3978
  36   2.0000      -0.555144       -15.1062
  37   2.0000      -0.549123       -14.9424
  38   2.0000      -0.529729       -14.4147
  39   2.0000      -0.527808       -14.3624
  40   2.0000      -0.516657       -14.0589
  41   2.0000      -0.511964       -13.9312
  42   2.0000      -0.504888       -13.7387
  43   2.0000      -0.477217       -12.9857
  44   2.0000      -0.468508       -12.7488
  45   2.0000      -0.451818       -12.2946
  46   2.0000      -0.436385       -11.8746
  47   2.0000      -0.431816       -11.7503
  48   2.0000      -0.418341       -11.3836
  49   2.0000      -0.413184       -11.2433
  50   2.0000      -0.413001       -11.2383
  51   2.0000      -0.379813       -10.3352
  52   2.0000      -0.377242       -10.2653
  53   2.0000      -0.368303       -10.0220
  54   2.0000      -0.344283        -9.3684
  55   2.0000      -0.324724        -8.8362
  56   2.0000      -0.319561        -8.6957
  57   2.0000      -0.318698        -8.6722
  58   2.0000      -0.316458        -8.6113
  59   2.0000      -0.306459        -8.3392
  60   2.0000      -0.300661        -8.1814
  61   2.0000      -0.286663        -7.8005
  62   2.0000      -0.270088        -7.3495
  63   2.0000      -0.239487        -6.5168
  64   0.0000      -0.109070        -2.9680
  65   0.0000      -0.075945        -2.0666
  66   0.0000      -0.073907        -2.0111
  67   0.0000      -0.033899        -0.9224
  68   0.0000      -0.018579        -0.5056

MULLIKEN ATOMIC CHARGES
-----------------------
   0 C :    0.030221
   1 C :   -0.012642
   2 C :    0.172410
   3 N :    0.207990
   4 O :   -0.233471
   5 O :   -0.226844
   6 C :   -0.120836
   7 C :    0.123847
   8 C :   -0.018973
   9 C :    0.032233
  10 C :    0.002120
  11 C :    0.069283
  12 N :    0.261411
  13 O :   -0.243495
  14 O :   -0.271470
  15 C :    0.012108
  16 C :   -0.006178
  17 C :   -0.012486
  18 H :   -0.008640
  19 H :    0.016119
  20 H :    0.089332
  21 H :    0.062466
  22 H :    0.018230
  23 H :    0.003865
  24 H :    0.011735
  25 H :   -0.007991
  26 H :    0.020493
  27 H :    0.029163
Sum of atomic charges:   -0.0000000

LOEWDIN ATOMIC CHARGES
----------------------
   0 C :   -0.004425
   1 C :   -0.017669
   2 C :    0.022534
   3 N :    0.277059
   4 O :   -0.198365
   5 O :   -0.190783
   6 C :   -0.027659
   7 C :   -0.022873
   8 C :    0.033943
   9 C :   -0.033040
  10 C :    0.029698
  11 C :   -0.031779
  12 N :    0.277863
  13 O :   -0.205985
  14 O :   -0.227261
  15 C :   -0.015337
  16 C :   -0.030436
  17 C :   -0.027599
  18 H :    0.028999
  19 H :    0.034073
  20 H :    0.061876
  21 H :    0.072799
  22 H :    0.035480
  23 H :    0.032221
  24 H :    0.041670
  25 H :    0.032300
  26 H :    0.022993
  27 H :    0.029702

  Mayer bond orders larger than 0.100000
B(  0-C ,  1-C ) :   1.7553 B(  0-C , 15-C ) :   1.0339 B(  0-C , 18-H ) :   0.9962
B(  1-C ,  2-C ) :   1.0188 B(  1-C , 19-H ) :   0.9929 B(  2-C ,  3-N ) :   0.7969
B(  2-C ,  6-C ) :   0.9982 B(  2-C , 20-H ) :   0.8432 B(  3-N ,  4-O ) :   1.5646
B(  3-N ,  5-O ) :   1.5500 B(  4-O ,  5-O ) :   0.2817 B(  6-C ,  7-C ) :   0.9866
B(  6-C , 15-C ) :   1.7064 B(  6-C , 17-C ) :   0.1131 B(  7-C ,  8-C ) :   1.0019
B(  7-C , 11-C ) :   1.0232 B(  7-C , 21-H ) :   0.8151 B(  8-C ,  9-C ) :   1.6489
B(  8-C , 22-H ) :   1.0009 B(  9-C , 10-C ) :   1.0764 B(  9-C , 23-H ) :   1.0011
B( 10-C , 11-C ) :   1.6652 B( 10-C , 24-H ) :   0.9884 B( 11-C , 12-N ) :   0.9332
B( 12-N , 13-O ) :   1.5244 B( 12-N , 14-O ) :   1.4606 B( 13-O , 14-O ) :   0.2668
B( 15-C , 16-C ) :   1.1121 B( 16-C , 17-C ) :   1.9051 B( 16-C , 25-H ) :   0.9445
B( 17-C , 26-H ) :   0.9471 B( 17-C , 27-H ) :   0.9449

Dispersion correction           -0.062341739
FINAL SINGLE POINT ENERGY      -872.826641149221

DIPOLE MOMENT
-------------
                                X             Y             Z
Electronic contribution:     -1.44517     -11.97188      -0.95649
Nuclear contribution   :      1.12892      14.13370       1.38995
                        -----------------------------------------
Total Dipole Moment    :     -0.31625       2.16182       0.43346
                        -----------------------------------------
Magnitude (a.u.)       :      2.22741
Magnitude (Debye)      :      5.66163

Rotational constants in cm-1:     0.016609     0.013511     0.009778
Rotational constants in MHz :   497.938920   405.052905   293.125931

                             ****ORCA TERMINATED NORMALLY****
TOTAL RUN TIME: 0 days 0 hours 41 minutes 56 seconds 982 msec
