                         Program Version 4.2.0 -  RELEASE  -
|  1> # ORCA input file
|  2> # SCF done        -17.340930375294          0.000368177863
|  3> ! B3LYP/G D3BJ Opt RIJCOSX def2-SVP def2/J
|  4> * xyz 0 1
|  5>    C        1.11850         0.54179         0.44260
|  6>    C       -0.01131        -0.16630         0.47483
|  7>    N        2.32632        -0.10923         0.46855
|  8>    N        3.34137         0.65722         0.42175
|  9>    C        4.54932         0.00659         0.45004
| 10>    C        5.67869         0.71404         0.39578
| 11>    H        1.12442         1.63045         0.39568
| 12>    H        0.02060        -1.24136         0.52022
| 13>    H       -0.97733         0.30582         0.45571
| 14>    H        4.54390        -1.08103         0.51668
| 15>    H        5.64603         1.78801         0.32965
| 16>    H        6.64498         0.24247         0.41508
| 17> *
| 18>
| 19>                          ****END OF INPUT****
 Total Charge           Charge          ....    0
 Multiplicity           Mult            ....    1
 Number of Electrons    NEL             ....   44
Dispersion correction           -0.014249506
FINAL SINGLE POINT ENERGY      -265.264139994698
Dispersion correction            ... done
Dispersion correction           -0.014205222
FINAL SINGLE POINT ENERGY      -265.266041559746
Dispersion correction            ... done
Dispersion correction           -0.014192489
FINAL SINGLE POINT ENERGY      -265.266206969225
Dispersion correction            ... done
FINAL SINGLE POINT ENERGY      -265.266256168197
Dispersion correction            ... done
Dispersion correction           -0.014196306
FINAL SINGLE POINT ENERGY      -265.266260076784
Dispersion correction            ... done
Dispersion correction           -0.014199110
FINAL SINGLE POINT ENERGY      -265.266257806718
Dispersion correction            ... done
                    ***********************HURRAY********************

CARTESIAN COORDINATES (ANGSTROEM)
---------------------------------
  C      1.109597    0.543638    0.438790
  C     -0.025805   -0.169804    0.480099
  N      2.339759   -0.115582    0.466425
  N      3.327826    0.663663    0.414810
  C      4.557987    0.004439    0.442322
  C      5.693386    0.717882    0.400956
  H      1.133556    1.640721    0.380500
  H      0.021876   -1.260645    0.537651
  H     -1.003087    0.315717    0.458352
  H      4.534029   -1.092644    0.500607
  H      5.645696    1.808724    0.343428
  H      6.670670    0.232362    0.422631

 Multiplicity           Mult            ....    1
 Number of Electrons    NEL             ....   44
 Basis Dimension        Dim             ....  114

ORBITAL ENERGIES
----------------

  NO   OCC          E(Eh)            E(eV)
   0   2.0000     -14.369121      -391.0037
   1   2.0000     -14.368855      -390.9964
   2   2.0000     -10.220008      -278.1006
   3   2.0000     -10.219987      -278.1000
   4   2.0000     -10.205286      -277.7000
   5   2.0000     -10.205283      -277.6999
   6   2.0000      -1.028064       -27.9750
   7   2.0000      -0.829118       -22.5614
   8   2.0000      -0.762298       -20.7432
   9   2.0000      -0.677996       -18.4492
  10   2.0000      -0.574628       -15.6364
  11   2.0000      -0.548540       -14.9265
  12   2.0000      -0.519995       -14.1498
  13   2.0000      -0.470264       -12.7965
  14   2.0000      -0.428675       -11.6648
  15   2.0000      -0.423254       -11.5173
  16   2.0000      -0.422505       -11.4969
  17   2.0000      -0.398212       -10.8359
  18   2.0000      -0.357026        -9.7152
  19   2.0000      -0.316228        -8.6050
  20   2.0000      -0.251762        -6.8508
  21   2.0000      -0.235246        -6.4014
  22   0.0000      -0.087193        -2.3726
  23   0.0000       0.020036         0.5452
  24   0.0000       0.051849         1.4109
  25   0.0000       0.082009         2.2316
  26   0.0000       0.090150         2.4531

MULLIKEN ATOMIC CHARGES
-----------------------
   0 C :    0.028627
   1 C :    0.016917
   2 N :   -0.118186
   3 N :   -0.118194
   4 C :    0.028635
   5 C :    0.016911
   6 H :    0.000162
   7 H :    0.037433
   8 H :    0.035050
   9 H :    0.000162
  10 H :    0.037433
  11 H :    0.035051
Sum of atomic charges:   -0.0000000

LOEWDIN ATOMIC CHARGES
----------------------
   0 C :   -0.019695
   1 C :   -0.018911
   2 N :   -0.037794
   3 N :   -0.037796
   4 C :   -0.019695
   5 C :   -0.018912
   6 H :    0.011375
   7 H :    0.033016
   8 H :    0.032010
   9 H :    0.011375
  10 H :    0.033016
  11 H :    0.032010

  Mayer bond orders larger than 0.100000
B(  0-C ,  1-C ) :   1.8529 B(  0-C ,  2-N ) :   1.1608 B(  0-C ,  6-H ) :   0.9573
B(  1-C ,  3-N ) :   0.1124 B(  1-C ,  7-H ) :   0.9415 B(  1-C ,  8-H ) :   0.9553
B(  2-N ,  3-N ) :   1.5607 B(  2-N ,  5-C ) :   0.1124 B(  3-N ,  4-C ) :   1.1608
B(  4-C ,  5-C ) :   1.8529 B(  4-C ,  9-H ) :   0.9573 B(  5-C , 10-H ) :   0.9415
B(  5-C , 11-H ) :   0.9553

Dispersion correction           -0.014200180
FINAL SINGLE POINT ENERGY      -265.266255877445

DIPOLE MOMENT
-------------
                                X             Y             Z
Electronic contribution:      0.00001      -0.00000       0.00018
Nuclear contribution   :     -0.00001      -0.00000      -0.00022
                        -----------------------------------------
Total Dipole Moment    :     -0.00000      -0.00000      -0.00004
                        -----------------------------------------
Magnitude (a.u.)       :      0.00004
Magnitude (Debye)      :      0.00009

Rotational constants in cm-1:     1.010348     0.051273     0.048797
Rotational constants in MHz : 30289.472485  1537.138110  1462.901051

                             ****ORCA TERMINATED NORMALLY****
TOTAL RUN TIME: 0 days 0 hours 1 minutes 59 seconds 271 msec
