                         Program Version 4.2.0 -  RELEASE  -
|  1> # ORCA input file
|  2> # SCF done        -38.065850459801          0.000542970826
|  3> ! B3LYP/G D3BJ Opt RIJCOSX def2-SVP def2/J
|  4> * xyz 0 1
|  5>    C        1.36509        -1.32411         0.09863
|  6>    S        2.60480        -0.14401         0.14483
|  7>    C        1.43632         1.15028         0.10293
|  8>    C        0.15413         0.65089         0.07220
|  9>    C        0.12136        -0.76990         0.06874
| 10>    C       -1.14975        -1.56452         0.06275
| 11>    C       -2.34175        -0.70324        -0.33871
| 12>    S       -2.40134        -0.45357        -2.15182
| 13>    C       -2.33570         0.64122         0.40826
| 14>    O       -2.43946         0.43387         1.79644
| 15>    C       -1.09846         1.47227         0.04766
| 16>    C        1.95199         2.49586         0.11168
| 17>    C        1.30384         3.61829        -0.18905
| 18>    H        1.61926        -2.36545         0.09816
| 19>    H       -1.33214        -1.97346         1.06316
| 20>    H       -1.05895        -2.41499        -0.61712
| 21>    H       -3.27390        -1.22729        -0.11394
| 22>    H       -1.11073        -0.15982        -2.29546
| 23>    H       -3.23791         1.20009         0.13658
| 24>    H       -1.59316         0.10290         2.11948
| 25>    H       -1.01982         2.29714         0.76047
| 26>    H       -1.24137         1.90365        -0.94728
| 27>    H        3.00130         2.55426         0.37451
| 28>    H        0.27548         3.64458        -0.49744
| 29>    H        1.81051         4.56679        -0.14705
| 30> *
| 31>
| 32>                          ****END OF INPUT****
 Total Charge           Charge          ....    0
 Multiplicity           Mult            ....    1
 Number of Electrons    NEL             ....  112
Dispersion correction           -0.060532919
FINAL SINGLE POINT ENERGY     -1259.369044099933
Dispersion correction            ... done
Dispersion correction           -0.059867008
FINAL SINGLE POINT ENERGY     -1259.372070260862
Dispersion correction            ... done
Dispersion correction           -0.059774022
FINAL SINGLE POINT ENERGY     -1259.372197483697
Dispersion correction            ... done
FINAL SINGLE POINT ENERGY     -1259.372200780949
FINAL SINGLE POINT ENERGY     -1259.372245329470
FINAL SINGLE POINT ENERGY     -1259.372217289157
FINAL SINGLE POINT ENERGY     -1259.372210141647
FINAL SINGLE POINT ENERGY     -1259.372260045307
FINAL SINGLE POINT ENERGY     -1259.372273450884
Dispersion correction            ... done
Dispersion correction           -0.059814097
FINAL SINGLE POINT ENERGY     -1259.372266986437
Dispersion correction            ... done
Dispersion correction           -0.059813631
FINAL SINGLE POINT ENERGY     -1259.372271751346
Dispersion correction            ... done
                    ***********************HURRAY********************

CARTESIAN COORDINATES (ANGSTROEM)
---------------------------------
  C      1.385825   -1.345571    0.110540
  S      2.619026   -0.148603    0.201786
  C      1.453768    1.152609    0.133918
  C      0.160427    0.646855    0.056879
  C      0.127259   -0.791210    0.044499
  C     -1.162102   -1.578506    0.042947
  C     -2.365647   -0.715447   -0.353666
  S     -2.542119   -0.498361   -2.173791
  C     -2.324158    0.627739    0.402810
  O     -2.347875    0.375903    1.799845
  C     -1.104955    1.462688    0.001080
  C      1.961046    2.516358    0.165874
  C      1.319704    3.653869   -0.156328
  H      1.644011   -2.403619    0.118569
  H     -1.349032   -1.964146    1.059912
  H     -1.085906   -2.455496   -0.615645
  H     -3.291102   -1.235487   -0.066726
  H     -1.249174   -0.181976   -2.417766
  H     -3.239790    1.192934    0.171059
  H     -1.439316    0.233615    2.098325
  H     -1.034787    2.335827    0.668307
  H     -1.262053    1.861071   -1.015749
  H      3.004118    2.601230    0.492019
  H      0.295723    3.676731   -0.529113
  H      1.836749    4.612721   -0.070972

 Multiplicity           Mult            ....    1
 Number of Electrons    NEL             ....  112
 Basis Dimension        Dim             ....  250

ORBITAL ENERGIES
----------------

  NO   OCC          E(Eh)            E(eV)
   0   2.0000     -88.878493     -2418.5068
   1   2.0000     -88.838017     -2417.4053
   2   2.0000     -19.135092      -520.6923
   3   2.0000     -10.242901      -278.7235
   4   2.0000     -10.222560      -278.1700
   5   2.0000     -10.222472      -278.1676
   6   2.0000     -10.215998      -277.9915
   7   2.0000     -10.209862      -277.8245
   8   2.0000     -10.205396      -277.7029
   9   2.0000     -10.205050      -277.6935
  10   2.0000     -10.204426      -277.6766
  11   2.0000     -10.199047      -277.5302
  12   2.0000     -10.194872      -277.4166
  13   2.0000      -7.973617      -216.9731
  14   2.0000      -7.932445      -215.8528
  15   2.0000      -5.941555      -161.6779
  16   2.0000      -5.937650      -161.5717
  17   2.0000      -5.935149      -161.5036
  18   2.0000      -5.901615      -160.5911
  19   2.0000      -5.898114      -160.4958
  20   2.0000      -5.891201      -160.3077
  21   2.0000      -1.016895       -27.6711
  22   2.0000      -0.892223       -24.2786
  23   2.0000      -0.828488       -22.5443
  24   2.0000      -0.791624       -21.5412
  25   2.0000      -0.765921       -20.8418
  26   2.0000      -0.746194       -20.3050
  27   2.0000      -0.702667       -19.1205
  28   2.0000      -0.690131       -18.7794
  29   2.0000      -0.640628       -17.4324
  30   2.0000      -0.611483       -16.6393
  31   2.0000      -0.580773       -15.8036
  32   2.0000      -0.561213       -15.2714
  33   2.0000      -0.519214       -14.1285
  34   2.0000      -0.502090       -13.6626
  35   2.0000      -0.479932       -13.0596
  36   2.0000      -0.466681       -12.6990
  37   2.0000      -0.462260       -12.5787
  38   2.0000      -0.457612       -12.4523
  39   2.0000      -0.450626       -12.2621
  40   2.0000      -0.423632       -11.5276
  41   2.0000      -0.417275       -11.3546
  42   2.0000      -0.403020       -10.9667
  43   2.0000      -0.389492       -10.5986
  44   2.0000      -0.381593       -10.3837
  45   2.0000      -0.376808       -10.2535
  46   2.0000      -0.362910        -9.8753
  47   2.0000      -0.354322        -9.6416
  48   2.0000      -0.341067        -9.2809
  49   2.0000      -0.330016        -8.9802
  50   2.0000      -0.324010        -8.8168
  51   2.0000      -0.305358        -8.3092
  52   2.0000      -0.284259        -7.7351
  53   2.0000      -0.252745        -6.8775
  54   2.0000      -0.237818        -6.4714
  55   2.0000      -0.222339        -6.0502
  56   0.0000      -0.051840        -1.4106
  57   0.0000       0.012347         0.3360
  58   0.0000       0.027034         0.7356
  59   0.0000       0.028999         0.7891
  60   0.0000       0.055488         1.5099

MULLIKEN ATOMIC CHARGES
-----------------------
   0 C :   -0.121902
   1 S :    0.111815
   2 C :   -0.158435
   3 C :   -0.090626
   4 C :   -0.080338
   5 C :    0.181456
   6 C :   -0.161468
   7 S :   -0.060662
   8 C :    0.183660
   9 O :   -0.301591
  10 C :    0.122605
  11 C :    0.031593
  12 C :   -0.035692
  13 H :    0.015067
  14 H :    0.018166
  15 H :    0.011909
  16 H :    0.037160
  17 H :    0.059788
  18 H :   -0.007912
  19 H :    0.170778
  20 H :    0.021936
  21 H :    0.019903
  22 H :   -0.009169
  23 H :    0.017301
  24 H :    0.024656
Sum of atomic charges:   -0.0000000

LOEWDIN ATOMIC CHARGES
----------------------
   0 C :   -0.198476
   1 S :    0.437751
   2 C :   -0.183577
   3 C :   -0.073794
   4 C :   -0.077148
   5 C :   -0.034331
   6 C :   -0.137849
   7 S :    0.150367
   8 C :    0.058030
   9 O :   -0.127568
  10 C :   -0.042321
  11 C :   -0.042232
  12 C :   -0.052673
  13 H :    0.024149
  14 H :    0.034056
  15 H :    0.031404
  16 H :    0.029266
  17 H :   -0.029649
  18 H :    0.019261
  19 H :    0.072789
  20 H :    0.034751
  21 H :    0.030033
  22 H :    0.028766
  23 H :    0.021501
  24 H :    0.027495

  Mayer bond orders larger than 0.100000
B(  0-C ,  1-S ) :   1.1594 B(  0-C ,  4-C ) :   1.5330 B(  0-C , 13-H ) :   0.9669
B(  1-S ,  2-C ) :   1.1357 B(  2-C ,  3-C ) :   1.4932 B(  2-C , 11-C ) :   1.1119
B(  3-C ,  4-C ) :   1.2887 B(  3-C , 10-C ) :   1.0436 B(  4-C ,  5-C ) :   1.0302
B(  5-C ,  6-C ) :   1.0072 B(  5-C , 14-H ) :   0.9047 B(  5-C , 15-H ) :   0.9157
B(  6-C ,  7-S ) :   1.0342 B(  6-C ,  8-C ) :   0.9499 B(  6-C , 16-H ) :   0.9155
B(  7-S , 17-H ) :   0.9462 B(  8-C ,  9-O ) :   1.0429 B(  8-C , 10-C ) :   1.0456
B(  8-C , 18-H ) :   0.9140 B(  9-O , 19-H ) :   0.9734 B( 10-C , 20-H ) :   0.9042
B( 10-C , 21-H ) :   0.8943 B( 11-C , 12-C ) :   1.9149 B( 11-C , 22-H ) :   0.9406
B( 12-C , 23-H ) :   0.9499 B( 12-C , 24-H ) :   0.9415

Dispersion correction           -0.059814767
FINAL SINGLE POINT ENERGY     -1259.372272419261

DIPOLE MOMENT
-------------
                                X             Y             Z
Electronic contribution:      4.79701      -4.62786      -1.39252
Nuclear contribution   :     -4.18035       4.55222       1.52218
                        -----------------------------------------
Total Dipole Moment    :      0.61666      -0.07564       0.12966
                        -----------------------------------------
Magnitude (a.u.)       :      0.63467
Magnitude (Debye)      :      1.61320

Rotational constants in cm-1:     0.030529     0.015271     0.013244
Rotational constants in MHz :   915.231429   457.808428   397.040505

                             ****ORCA TERMINATED NORMALLY****
TOTAL RUN TIME: 0 days 0 hours 29 minutes 51 seconds 154 msec
