                         Program Version 4.2.0 -  RELEASE  -
|  1> # ORCA input file
|  2> # SCF done        -23.726150539453          0.000375980893
|  3> ! B3LYP/G D3BJ Opt RIJCOSX def2-SVP def2/J
|  4> * xyz 0 2
|  5>    C        1.33690         0.39266        -0.00428
|  6>    S        0.90797        -1.25329        -0.00599
|  7>    C       -0.77359        -0.98181        -0.00973
|  8>    C       -1.21511         0.30194        -0.00631
|  9>    S        0.05084         1.54976        -0.00139
| 10>    C       -2.55969         0.85219        -0.00725
| 11>    O       -2.70006         2.06575        -0.01572
| 12>    C       -3.73679        -0.09172         0.00145
| 13>    H        2.36002         0.69715         0.00290
| 14>    H       -1.40238        -1.85281        -0.01486
| 15>    H       -3.44375        -1.13475         0.02765
| 16>    H       -4.33923         0.09540        -0.88582
| 17>    H       -4.35626         0.13470         0.86755
| 18> *
| 19>
| 20>                          ****END OF INPUT****
 Total Charge           Charge          ....    0
 Multiplicity           Mult            ....    2
 Number of Electrons    NEL             ....   75
Dispersion correction           -0.028451477
FINAL SINGLE POINT ENERGY     -1064.693128417817
Dispersion correction            ... done
Dispersion correction           -0.028284040
FINAL SINGLE POINT ENERGY     -1064.695207338166
Dispersion correction            ... done
Dispersion correction           -0.028230031
FINAL SINGLE POINT ENERGY     -1064.695583856967
Dispersion correction            ... done
FINAL SINGLE POINT ENERGY     -1064.695709704315
FINAL SINGLE POINT ENERGY     -1064.695727766775
Dispersion correction            ... done
Dispersion correction           -0.028242415
FINAL SINGLE POINT ENERGY     -1064.695737077400
Dispersion correction            ... done
Dispersion correction           -0.028244071
FINAL SINGLE POINT ENERGY     -1064.695737544222
Dispersion correction            ... done
                    ***********************HURRAY********************

CARTESIAN COORDINATES (ANGSTROEM)
---------------------------------
  C      1.380455    0.395581   -0.015734
  S      0.915065   -1.282040   -0.016833
  C     -0.780302   -0.964286   -0.008579
  C     -1.192059    0.333304    0.000906
  S      0.086026    1.567358    0.004609
  C     -2.571088    0.858566    0.003030
  O     -2.751556    2.065100    0.002904
  C     -3.742622   -0.105370    0.000889
  H      2.427599    0.690030   -0.003441
  H     -1.452525   -1.822828   -0.013893
  H     -3.462696   -1.165411    0.052334
  H     -4.333717    0.066891   -0.912423
  H     -4.393707    0.138274    0.854430

 Multiplicity           Mult            ....    2
 Number of Electrons    NEL             ....   75
 Basis Dimension        Dim             ....  145

ORBITAL ENERGIES
----------------
                 SPIN UP ORBITALS
  NO   OCC          E(Eh)            E(eV)
   0   1.0000     -88.896577     -2418.9988
   1   1.0000     -88.879116     -2418.5237
   2   1.0000     -19.124922      -520.4156
   3   1.0000     -10.284193      -279.8471
   4   1.0000     -10.251437      -278.9558
   5   1.0000     -10.236170      -278.5403
   6   1.0000     -10.227391      -278.3015
   7   1.0000     -10.203243      -277.6443
   8   1.0000      -7.990944      -217.4446
   9   1.0000      -7.972642      -216.9466
  10   1.0000      -5.959261      -162.1597
  11   1.0000      -5.954960      -162.0427
  12   1.0000      -5.952567      -161.9776
  13   1.0000      -5.941154      -161.6670
  14   1.0000      -5.937005      -161.5541
  15   1.0000      -5.934315      -161.4809
  16   1.0000      -1.034142       -28.1404
  17   1.0000      -0.894402       -24.3379
  18   1.0000      -0.784320       -21.3424
  19   1.0000      -0.772008       -21.0074
  20   1.0000      -0.729776       -19.8582
  21   1.0000      -0.623746       -16.9730
  22   1.0000      -0.596150       -16.2221
  23   1.0000      -0.546533       -14.8719
  24   1.0000      -0.499660       -13.5965
  25   1.0000      -0.455613       -12.3978
  26   1.0000      -0.447308       -12.1719
  27   1.0000      -0.432830       -11.7779
  28   1.0000      -0.425133       -11.5685
  29   1.0000      -0.407265       -11.0822
  30   1.0000      -0.398870       -10.8538
  31   1.0000      -0.392320       -10.6756
  32   1.0000      -0.365411        -9.9433
  33   1.0000      -0.349984        -9.5236
  34   1.0000      -0.301300        -8.1988
  35   1.0000      -0.289681        -7.8826
  36   1.0000      -0.262319        -7.1381
  37   1.0000      -0.152376        -4.1464
  38   0.0000      -0.071694        -1.9509
  39   0.0000      -0.006265        -0.1705
  40   0.0000       0.042606         1.1594
  41   0.0000       0.043659         1.1880
  42   0.0000       0.072583         1.9751

                 SPIN DOWN ORBITALS
  NO   OCC          E(Eh)            E(eV)
   0   1.0000     -88.895999     -2418.9831
   1   1.0000     -88.877757     -2418.4867
   2   1.0000     -19.124201      -520.3960
   3   1.0000     -10.283896      -279.8390
   4   1.0000     -10.252449      -278.9833
   5   1.0000     -10.235325      -278.5174
   6   1.0000     -10.216281      -277.9991
   7   1.0000     -10.203286      -277.6455
   8   1.0000      -7.990382      -217.4294
   9   1.0000      -7.971332      -216.9110
  10   1.0000      -5.959072      -162.1546
  11   1.0000      -5.954801      -162.0384
  12   1.0000      -5.950381      -161.9181
  13   1.0000      -5.940521      -161.6498
  14   1.0000      -5.936402      -161.5377
  15   1.0000      -5.929642      -161.3538
  16   1.0000      -1.032815       -28.1043
  17   1.0000      -0.889489       -24.2042
  18   1.0000      -0.779919       -21.2227
  19   1.0000      -0.765989       -20.8436
  20   1.0000      -0.726085       -19.7578
  21   1.0000      -0.620717       -16.8906
  22   1.0000      -0.582614       -15.8537
  23   1.0000      -0.545015       -14.8306
  24   1.0000      -0.498563       -13.5666
  25   1.0000      -0.453216       -12.3326
  26   1.0000      -0.445194       -12.1144
  27   1.0000      -0.428725       -11.6662
  28   1.0000      -0.422075       -11.4852
  29   1.0000      -0.396814       -10.7979
  30   1.0000      -0.396164       -10.7802
  31   1.0000      -0.389860       -10.6086
  32   1.0000      -0.358100        -9.7444
  33   1.0000      -0.344074        -9.3627
  34   1.0000      -0.282457        -7.6860
  35   1.0000      -0.265857        -7.2343
  36   1.0000      -0.261403        -7.1131
  37   0.0000      -0.071973        -1.9585
  38   0.0000      -0.046908        -1.2764
  39   0.0000       0.000425         0.0116
  40   0.0000       0.043644         1.1876
  41   0.0000       0.046966         1.2780

MULLIKEN ATOMIC CHARGES AND SPIN POPULATIONS
--------------------------------------------
   0 C :   -0.220924    0.704551
   1 S :    0.134668    0.086200
   2 C :   -0.056168   -0.068813
   3 C :   -0.123754    0.051794
   4 S :    0.164548    0.211450
   5 C :    0.045867    0.016354
   6 O :   -0.210835    0.027317
   7 C :    0.044561   -0.002471
   8 H :    0.073644   -0.032856
   9 H :    0.046230    0.001991
  10 H :    0.007262    0.000016
  11 H :    0.047921    0.002330
  12 H :    0.046981    0.002136
Sum of atomic charges         :   -0.0000000

LOEWDIN ATOMIC CHARGES AND SPIN POPULATIONS
-------------------------------------------
   0 C :   -0.430585    0.617519
   1 S :    0.426617    0.108702
   2 C :   -0.170535   -0.050982
   3 C :   -0.225231    0.043716
   4 S :    0.411348    0.229894
   5 C :    0.052230    0.019253
   6 O :   -0.166168    0.027135
   7 C :   -0.073805   -0.000625
   8 H :    0.016666    0.002731
   9 H :    0.035100   -0.000806
  10 H :    0.023730   -0.000064
  11 H :    0.050621    0.001846
  12 H :    0.050012    0.001681

  Mayer bond orders larger than 0.100000
B(  0-C ,  1-S ) :   1.1288 B(  0-C ,  4-S ) :   1.1625 B(  0-C ,  8-H ) :   0.9697
B(  1-S ,  2-C ) :   1.1571 B(  2-C ,  3-C ) :   1.6358 B(  2-C ,  9-H ) :   0.9431
B(  3-C ,  4-S ) :   1.0526 B(  3-C ,  5-C ) :   1.0024 B(  5-C ,  6-O ) :   2.1109
B(  5-C ,  7-C ) :   1.0675 B(  7-C , 10-H ) :   0.9497 B(  7-C , 11-H ) :   0.9413
B(  7-C , 12-H ) :   0.9415

Dispersion correction           -0.028245372
FINAL SINGLE POINT ENERGY     -1064.695737162448

DIPOLE MOMENT
-------------
                                X             Y             Z
Electronic contribution:      7.26984       2.11526       0.00226
Nuclear contribution   :     -7.19308      -3.42314      -0.00188
                        -----------------------------------------
Total Dipole Moment    :      0.07676      -1.30788       0.00038
                        -----------------------------------------
Magnitude (a.u.)       :      1.31013
Magnitude (Debye)      :      3.33008

Rotational constants in cm-1:     0.093977     0.036541     0.026441
Rotational constants in MHz :  2817.351892  1095.468063   792.680506

                             ****ORCA TERMINATED NORMALLY****
TOTAL RUN TIME: 0 days 0 hours 8 minutes 3 seconds 434 msec
