                         Program Version 4.2.0 -  RELEASE  -
|  1> # ORCA input file
|  2> # SCF done        -46.053599241321          0.000990649581
|  3> ! B3LYP/G D3BJ Opt RIJCOSX def2-SVP def2/J
|  4> * xyz 0 1
|  5>    C       -2.59726        -1.40588        -0.02770
|  6>    C       -3.46292        -0.15966         0.12842
|  7>    O       -4.65200        -0.09295         0.18257
|  8>    O       -2.66162         0.93640         0.20445
|  9>    C       -1.34917         0.55115         0.12135
| 10>    C       -1.22088        -0.83406        -0.01691
| 11>    C        0.02233        -1.43068        -0.11466
| 12>    C        1.10702        -0.57314        -0.06595
| 13>    C        0.97768         0.81039         0.07412
| 14>    C       -0.26453         1.40891         0.16775
| 15>    C        2.35348         1.39779         0.06538
| 16>    C        3.22081         0.13565        -0.05606
| 17>    O        4.41013         0.06842        -0.08240
| 18>    O        2.42028        -0.95917        -0.14249
| 19>    C        2.60552         2.31352        -1.10046
| 20>    C        3.17456         3.49793        -0.99580
| 21>    H       -2.84775        -1.91725        -0.95902
| 22>    H       -2.78901        -2.10105         0.79146
| 23>    H        0.14805        -2.49466        -0.22245
| 24>    H       -0.38606         2.47384         0.27033
| 25>    H        2.60447         1.91426         0.99613
| 26>    H        2.28826         1.92872        -2.05941
| 27>    H        3.49778         3.89422        -0.04834
| 28>    H        3.34259         4.11917        -1.85801
| 29> *
| 30>
| 31>                          ****END OF INPUT****
 Total Charge           Charge          ....    0
 Multiplicity           Mult            ....    1
 Number of Electrons    NEL             ....  112
Dispersion correction           -0.050133942
FINAL SINGLE POINT ENERGY      -762.474384836599
Dispersion correction            ... done
Dispersion correction           -0.049915462
FINAL SINGLE POINT ENERGY      -762.477386887773
Dispersion correction            ... done
Dispersion correction           -0.049854457
FINAL SINGLE POINT ENERGY      -762.477706458743
Dispersion correction            ... done
FINAL SINGLE POINT ENERGY      -762.477830267239
FINAL SINGLE POINT ENERGY      -762.477917517516
FINAL SINGLE POINT ENERGY      -762.477946734526
FINAL SINGLE POINT ENERGY      -762.477980567356
FINAL SINGLE POINT ENERGY      -762.477992787481
Dispersion correction            ... done
Dispersion correction           -0.049854039
FINAL SINGLE POINT ENERGY      -762.477997709679
Dispersion correction            ... done
Dispersion correction           -0.049851723
FINAL SINGLE POINT ENERGY      -762.478002120350
Dispersion correction            ... done
                    ***********************HURRAY********************

CARTESIAN COORDINATES (ANGSTROEM)
---------------------------------
  C     -2.621416   -1.391186    0.022942
  C     -3.481229   -0.125898    0.099197
  O     -4.666891   -0.018193    0.125146
  O     -2.640105    0.974251    0.136443
  C     -1.330147    0.549636    0.084957
  C     -1.224878   -0.846652    0.014598
  C      0.024172   -1.466906   -0.052948
  C      1.126184   -0.616807   -0.043426
  C      1.017619    0.775782    0.033681
  C     -0.228056    1.398790    0.092159
  C      2.410173    1.347104    0.002320
  C      3.271466    0.070286   -0.121736
  O      4.454764   -0.026859   -0.201508
  O      2.437839   -1.035301   -0.119788
  C      2.656634    2.334109   -1.107042
  C      3.060560    3.590222   -0.915031
  H     -2.892737   -1.959993   -0.881461
  H     -2.850580   -2.036767    0.886540
  H      0.143254   -2.549410   -0.118401
  H     -0.337954    2.483310    0.135802
  H      2.681191    1.814052    0.965659
  H      2.453142    1.966420   -2.119370
  H      3.269747    3.977380    0.087244
  H      3.209007    4.274501   -1.753676

 Multiplicity           Mult            ....    1
 Number of Electrons    NEL             ....  112
 Basis Dimension        Dim             ....  264

ORBITAL ENERGIES
----------------

  NO   OCC          E(Eh)            E(eV)
   0   2.0000     -19.207153      -522.6532
   1   2.0000     -19.205945      -522.6203
   2   2.0000     -19.145100      -520.9647
   3   2.0000     -19.143585      -520.9234
   4   2.0000     -10.336552      -281.2719
   5   2.0000     -10.335503      -281.2433
   6   2.0000     -10.271744      -279.5084
   7   2.0000     -10.271485      -279.5013
   8   2.0000     -10.238089      -278.5926
   9   2.0000     -10.234856      -278.5046
  10   2.0000     -10.228129      -278.3216
  11   2.0000     -10.226351      -278.2732
  12   2.0000     -10.225601      -278.2528
  13   2.0000     -10.225001      -278.2364
  14   2.0000     -10.219062      -278.0748
  15   2.0000     -10.207150      -277.7507
  16   2.0000      -1.125879       -30.6367
  17   2.0000      -1.125039       -30.6139
  18   2.0000      -1.046467       -28.4758
  19   2.0000      -1.045296       -28.4439
  20   2.0000      -0.885884       -24.1061
  21   2.0000      -0.842666       -22.9301
  22   2.0000      -0.806968       -21.9587
  23   2.0000      -0.772567       -21.0226
  24   2.0000      -0.758815       -20.6484
  25   2.0000      -0.711138       -19.3510
  26   2.0000      -0.661733       -18.0067
  27   2.0000      -0.640736       -17.4353
  28   2.0000      -0.617987       -16.8163
  29   2.0000      -0.583753       -15.8847
  30   2.0000      -0.580526       -15.7969
  31   2.0000      -0.553758       -15.0685
  32   2.0000      -0.529469       -14.4076
  33   2.0000      -0.512801       -13.9540
  34   2.0000      -0.499575       -13.5941
  35   2.0000      -0.498203       -13.5568
  36   2.0000      -0.478611       -13.0237
  37   2.0000      -0.472414       -12.8550
  38   2.0000      -0.466389       -12.6911
  39   2.0000      -0.451288       -12.2802
  40   2.0000      -0.445468       -12.1218
  41   2.0000      -0.439933       -11.9712
  42   2.0000      -0.433182       -11.7875
  43   2.0000      -0.426596       -11.6083
  44   2.0000      -0.411327       -11.1928
  45   2.0000      -0.403454       -10.9786
  46   2.0000      -0.397362       -10.8128
  47   2.0000      -0.381250       -10.3743
  48   2.0000      -0.378220       -10.2919
  49   2.0000      -0.372210       -10.1283
  50   2.0000      -0.330076        -8.9818
  51   2.0000      -0.308983        -8.4079
  52   2.0000      -0.298657        -8.1269
  53   2.0000      -0.288156        -7.8411
  54   2.0000      -0.278205        -7.5703
  55   2.0000      -0.243835        -6.6351
  56   0.0000      -0.053705        -1.4614
  57   0.0000      -0.030631        -0.8335
  58   0.0000      -0.025691        -0.6991
  59   0.0000      -0.012804        -0.3484
  60   0.0000       0.014197         0.3863

MULLIKEN ATOMIC CHARGES
-----------------------
   0 C :    0.100935
   1 C :    0.156080
   2 O :   -0.144308
   3 O :   -0.242756
   4 C :    0.211540
   5 C :   -0.089410
   6 C :   -0.109777
   7 C :    0.208935
   8 C :   -0.018540
   9 C :   -0.102243
  10 C :   -0.017908
  11 C :    0.215961
  12 O :   -0.133979
  13 O :   -0.241350
  14 C :    0.007081
  15 C :   -0.015023
  16 H :    0.064838
  17 H :    0.066422
  18 H :   -0.015061
  19 H :   -0.013210
  20 H :    0.044670
  21 H :    0.008718
  22 H :    0.023425
  23 H :    0.034959
Sum of atomic charges:   -0.0000000

LOEWDIN ATOMIC CHARGES
----------------------
   0 C :   -0.045341
   1 C :    0.105250
   2 O :   -0.124305
   3 O :   -0.062099
   4 C :    0.044293
   5 C :   -0.048062
   6 C :   -0.033877
   7 C :    0.044799
   8 C :   -0.041857
   9 C :   -0.028129
  10 C :   -0.047934
  11 C :    0.109357
  12 O :   -0.117078
  13 O :   -0.060271
  14 C :   -0.011925
  15 C :   -0.037241
  16 H :    0.061407
  17 H :    0.061837
  18 H :    0.040867
  19 H :    0.042388
  20 H :    0.059274
  21 H :    0.031026
  22 H :    0.025730
  23 H :    0.031890

  Mayer bond orders larger than 0.100000
B(  0-C ,  1-C ) :   0.9790 B(  0-C ,  5-C ) :   1.0190 B(  0-C , 16-H ) :   0.8952
B(  0-C , 17-H ) :   0.8942 B(  1-C ,  2-O ) :   2.2314 B(  1-C ,  3-O ) :   1.0486
B(  3-O ,  4-C ) :   1.0391 B(  4-C ,  5-C ) :   1.3750 B(  4-C ,  9-C ) :   1.3447
B(  5-C ,  6-C ) :   1.3371 B(  6-C ,  7-C ) :   1.3545 B(  6-C ,  9-C ) :   0.1254
B(  6-C , 18-H ) :   1.0219 B(  7-C ,  8-C ) :   1.3704 B(  7-C , 13-O ) :   1.0398
B(  8-C ,  9-C ) :   1.3398 B(  8-C , 10-C ) :   0.9498 B(  9-C , 19-H ) :   1.0236
B( 10-C , 11-C ) :   0.8941 B( 10-C , 14-C ) :   1.0089 B( 10-C , 20-H ) :   0.8646
B( 11-C , 12-O ) :   2.2574 B( 11-C , 13-O ) :   1.0485 B( 14-C , 15-C ) :   2.0026
B( 14-C , 21-H ) :   0.9640 B( 15-C , 22-H ) :   0.9570 B( 15-C , 23-H ) :   0.9447

Dispersion correction           -0.049853049
FINAL SINGLE POINT ENERGY      -762.478001289654

DIPOLE MOMENT
-------------
                                X             Y             Z
Electronic contribution:     -3.35642      -4.86327       1.70405
Nuclear contribution   :      3.38261       4.89228      -1.69905
                        -----------------------------------------
Total Dipole Moment    :      0.02619       0.02900       0.00501
                        -----------------------------------------
Magnitude (a.u.)       :      0.03940
Magnitude (Debye)      :      0.10015

Rotational constants in cm-1:     0.043851     0.010047     0.008330
Rotational constants in MHz :  1314.610773   301.188417   249.720264

                             ****ORCA TERMINATED NORMALLY****
TOTAL RUN TIME: 0 days 0 hours 20 minutes 35 seconds 83 msec
