                         Program Version 4.2.0 -  RELEASE  -
|  1> # ORCA input file
|  2> # SCF done        -50.053317680811          0.000800942228
|  3> ! B3LYP/G D3BJ Opt RIJCOSX def2-SVP def2/J
|  4> * xyz 0 1
|  5>    C       -1.01544         1.43218         0.08053
|  6>    S       -2.32698         0.40073        -0.30349
|  7>    C       -1.31954        -1.00976        -0.38697
|  8>    C       -0.00734        -0.66054        -0.12030
|  9>    C        0.16369         0.73850         0.14651
| 10>    N        1.39271         1.25999         0.43123
| 11>    C        2.38386         0.42588         0.44674
| 12>    O        3.63073         0.82247         0.69155
| 13>    C        3.82784         2.20898         0.94905
| 14>    C        3.40658         2.59638         2.35997
| 15>    C        2.20694        -1.00147         0.18109
| 16>    O        3.30108        -1.75557         0.23916
| 17>    C        3.11835        -3.14357        -0.01999
| 18>    C        4.45009        -3.84189         0.18553
| 19>    N        1.05002        -1.51902        -0.09514
| 20>    C       -1.81212        -2.32053        -0.68708
| 21>    C       -3.08427        -2.62499        -0.93425
| 22>    H       -1.17787         2.47921         0.23451
| 23>    H        3.26262         2.79289         0.21533
| 24>    H        4.89980         2.36360         0.80615
| 25>    H        2.33465         2.46082         2.47514
| 26>    H        3.65281         3.63898         2.53895
| 27>    H        3.92464         1.97826         3.08913
| 28>    H        2.75488        -3.26855        -1.04710
| 29>    H        2.35074        -3.53481         0.65793
| 30>    H        5.19953        -3.41769        -0.47685
| 31>    H        4.34518        -4.90199        -0.02584
| 32>    H        4.78425        -3.71421         1.21140
| 33>    H       -1.04027        -3.07837        -0.70056
| 34>    H       -3.85362        -1.87087        -0.92315
| 35>    H       -3.39197        -3.63106        -1.15586
| 36> *
| 37>
| 38>                          ****END OF INPUT****
 Total Charge           Charge          ....    0
 Multiplicity           Mult            ....    1
 Number of Electrons    NEL             ....  132
Dispersion correction           -0.060976328
FINAL SINGLE POINT ENERGY     -1123.243680086031
Dispersion correction            ... done
Dispersion correction           -0.060256421
FINAL SINGLE POINT ENERGY     -1123.247082075260
Dispersion correction            ... done
Dispersion correction           -0.060267708
FINAL SINGLE POINT ENERGY     -1123.247273793105
Dispersion correction            ... done
FINAL SINGLE POINT ENERGY     -1123.247219503749
FINAL SINGLE POINT ENERGY     -1123.247140918528
FINAL SINGLE POINT ENERGY     -1123.247124631142
Dispersion correction            ... done
Dispersion correction           -0.060235883
FINAL SINGLE POINT ENERGY     -1123.247149867338
Dispersion correction            ... done
Dispersion correction           -0.060232834
FINAL SINGLE POINT ENERGY     -1123.247153876173
Dispersion correction            ... done
                    ***********************HURRAY********************

CARTESIAN COORDINATES (ANGSTROEM)
---------------------------------
  C     -1.091966    1.475608   -0.060184
  S     -2.404879    0.432071   -0.457440
  C     -1.407330   -0.996764   -0.463577
  C     -0.088700   -0.647676   -0.168911
  C      0.090203    0.768481    0.065211
  N      1.328427    1.281906    0.371076
  C      2.309517    0.441720    0.433071
  O      3.567434    0.813544    0.681135
  C      3.831557    2.196023    0.962603
  C      3.619760    2.502917    2.433227
  C      2.121191   -1.005463    0.213551
  O      3.221806   -1.744557    0.340379
  C      3.130348   -3.148323    0.072106
  C      4.525896   -3.718452    0.205920
  N      0.968849   -1.517689   -0.080612
  C     -1.903209   -2.330645   -0.725783
  C     -3.177321   -2.690932   -0.956874
  H     -1.240456    2.546520    0.060336
  H      3.191419    2.824573    0.327733
  H      4.881552    2.342796    0.670280
  H      2.562741    2.375013    2.709016
  H      3.913823    3.542407    2.649738
  H      4.231205    1.836689    3.059483
  H      2.713267   -3.295109   -0.938313
  H      2.419399   -3.606939    0.778997
  H      5.215368   -3.214741   -0.487414
  H      4.523528   -4.794526   -0.027430
  H      4.910079   -3.581700    1.228747
  H     -1.114319   -3.089858   -0.716521
  H     -3.992522   -1.960843   -0.968679
  H     -3.445099   -3.732071   -1.147552

 Multiplicity           Mult            ....    1
 Number of Electrons    NEL             ....  132
 Basis Dimension        Dim             ....  312

ORBITAL ENERGIES
----------------

  NO   OCC          E(Eh)            E(eV)
   0   2.0000     -88.878616     -2418.5101
   1   2.0000     -19.177887      -521.8568
   2   2.0000     -19.176013      -521.8058
   3   2.0000     -14.332384      -390.0040
   4   2.0000     -14.330422      -389.9506
   5   2.0000     -10.293942      -280.1124
   6   2.0000     -10.293680      -280.1053
   7   2.0000     -10.247166      -278.8396
   8   2.0000     -10.245015      -278.7810
   9   2.0000     -10.224693      -278.2280
  10   2.0000     -10.223678      -278.2004
  11   2.0000     -10.213822      -277.9322
  12   2.0000     -10.210513      -277.8422
  13   2.0000     -10.197125      -277.4779
  14   2.0000     -10.190060      -277.2856
  15   2.0000     -10.186893      -277.1994
  16   2.0000     -10.183794      -277.1151
  17   2.0000      -7.973215      -216.9622
  18   2.0000      -5.941070      -161.6647
  19   2.0000      -5.937267      -161.5613
  20   2.0000      -5.934866      -161.4959
  21   2.0000      -1.093116       -29.7452
  22   2.0000      -1.070104       -29.1190
  23   2.0000      -0.966206       -26.2918
  24   2.0000      -0.902152       -24.5488
  25   2.0000      -0.872140       -23.7321
  26   2.0000      -0.788722       -21.4622
  27   2.0000      -0.777803       -21.1651
  28   2.0000      -0.763093       -20.7648
  29   2.0000      -0.727979       -19.8093
  30   2.0000      -0.706898       -19.2357
  31   2.0000      -0.681339       -18.5402
  32   2.0000      -0.643481       -17.5100
  33   2.0000      -0.610820       -16.6212
  34   2.0000      -0.601516       -16.3681
  35   2.0000      -0.592067       -16.1110
  36   2.0000      -0.569058       -15.4849
  37   2.0000      -0.543342       -14.7851
  38   2.0000      -0.530958       -14.4481
  39   2.0000      -0.514241       -13.9932
  40   2.0000      -0.499441       -13.5905
  41   2.0000      -0.481237       -13.0951
  42   2.0000      -0.469058       -12.7637
  43   2.0000      -0.459122       -12.4934
  44   2.0000      -0.452244       -12.3062
  45   2.0000      -0.432719       -11.7749
  46   2.0000      -0.425765       -11.5857
  47   2.0000      -0.413871       -11.2620
  48   2.0000      -0.409981       -11.1562
  49   2.0000      -0.400373       -10.8947
  50   2.0000      -0.399429       -10.8690
  51   2.0000      -0.395510       -10.7624
  52   2.0000      -0.381351       -10.3771
  53   2.0000      -0.374902       -10.2016
  54   2.0000      -0.369132       -10.0446
  55   2.0000      -0.357334        -9.7236
  56   2.0000      -0.352826        -9.6009
  57   2.0000      -0.342353        -9.3159
  58   2.0000      -0.337116        -9.1734
  59   2.0000      -0.323018        -8.7898
  60   2.0000      -0.313173        -8.5219
  61   2.0000      -0.311585        -8.4787
  62   2.0000      -0.284208        -7.7337
  63   2.0000      -0.260824        -7.0974
  64   2.0000      -0.229265        -6.2386
  65   2.0000      -0.203606        -5.5404
  66   0.0000      -0.069485        -1.8908
  67   0.0000      -0.017099        -0.4653
  68   0.0000       0.022869         0.6223
  69   0.0000       0.042878         1.1668
  70   0.0000       0.060737         1.6527

MULLIKEN ATOMIC CHARGES
-----------------------
   0 C :   -0.165047
   1 S :    0.125178
   2 C :   -0.175412
   3 C :    0.048135
   4 C :    0.093139
   5 N :   -0.068628
   6 C :    0.091907
   7 O :   -0.286619
   8 C :    0.198872
   9 C :   -0.017459
  10 C :    0.101231
  11 O :   -0.284316
  12 C :    0.189201
  13 C :    0.003163
  14 N :   -0.077075
  15 C :    0.014525
  16 C :   -0.041639
  17 H :    0.012225
  18 H :    0.022768
  19 H :    0.013834
  20 H :    0.027686
  21 H :    0.015828
  22 H :    0.023267
  23 H :    0.011897
  24 H :    0.016547
  25 H :    0.026199
  26 H :    0.018448
  27 H :    0.025086
  28 H :   -0.000143
  29 H :    0.016323
  30 H :    0.020879
Sum of atomic charges:   -0.0000000

LOEWDIN ATOMIC CHARGES
----------------------
   0 C :   -0.205721
   1 S :    0.458640
   2 C :   -0.197737
   3 C :   -0.046195
   4 C :   -0.052113
   5 N :   -0.105963
   6 C :    0.040266
   7 O :   -0.074820
   8 C :    0.091999
   9 C :   -0.065140
  10 C :    0.039201
  11 O :   -0.073286
  12 C :    0.094191
  13 C :   -0.061822
  14 N :   -0.102724
  15 C :   -0.033863
  16 C :   -0.063472
  17 H :    0.027404
  18 H :    0.018034
  19 H :    0.021375
  20 H :    0.028906
  21 H :    0.031071
  22 H :    0.027200
  23 H :    0.016417
  24 H :    0.017757
  25 H :    0.030048
  26 H :    0.031715
  27 H :    0.029175
  28 H :    0.037058
  29 H :    0.017131
  30 H :    0.025269

  Mayer bond orders larger than 0.100000
B(  0-C ,  1-S ) :   1.1637 B(  0-C ,  2-C ) :   0.1110 B(  0-C ,  4-C ) :   1.4240
B(  0-C , 17-H ) :   0.9698 B(  1-S ,  2-C ) :   1.1339 B(  2-C ,  3-C ) :   1.3717
B(  2-C , 15-C ) :   1.1686 B(  3-C ,  4-C ) :   1.1913 B(  3-C , 14-N ) :   1.3344
B(  4-C ,  5-N ) :   1.2882 B(  5-N ,  6-C ) :   1.6636 B(  6-C ,  7-O ) :   1.2474
B(  6-C , 10-C ) :   1.0359 B(  7-O ,  8-C ) :   0.9054 B(  8-C ,  9-C ) :   1.1288
B(  8-C , 18-H ) :   0.9361 B(  8-C , 19-H ) :   0.9559 B(  9-C , 20-H ) :   0.9641
B(  9-C , 21-H ) :   0.9610 B(  9-C , 22-H ) :   0.9650 B( 10-C , 11-O ) :   1.2505
B( 10-C , 14-N ) :   1.6492 B( 11-O , 12-C ) :   0.9013 B( 12-C , 13-C ) :   1.1021
B( 12-C , 23-H ) :   0.9516 B( 12-C , 24-H ) :   0.9523 B( 13-C , 25-H ) :   0.9663
B( 13-C , 26-H ) :   0.9595 B( 13-C , 27-H ) :   0.9673 B( 15-C , 16-C ) :   1.8726
B( 15-C , 28-H ) :   0.9533 B( 16-C , 29-H ) :   0.9532 B( 16-C , 30-H ) :   0.9478

Dispersion correction           -0.060230380
FINAL SINGLE POINT ENERGY     -1123.247150565287

DIPOLE MOMENT
-------------
                                X             Y             Z
Electronic contribution:    -14.13639       5.74498      -4.67285
Nuclear contribution   :     14.76138      -5.73966       4.83236
                        -----------------------------------------
Total Dipole Moment    :      0.62499       0.00532       0.15951
                        -----------------------------------------
Magnitude (a.u.)       :      0.64505
Magnitude (Debye)      :      1.63958

Rotational constants in cm-1:     0.018513     0.009908     0.006604
Rotational constants in MHz :   554.992116   297.026818   197.990634

                             ****ORCA TERMINATED NORMALLY****
TOTAL RUN TIME: 0 days 0 hours 23 minutes 5 seconds 130 msec
