                         Program Version 4.2.0 -  RELEASE  -
|  1> # ORCA input file
|  2> # SCF done        -14.713662181681          0.000515872293
|  3> ! B3LYP/G D3BJ Opt RIJCOSX def2-SVP def2/J
|  4> * xyz 0 1
|  5>    C        1.23835        -0.06095         0.05155
|  6>    C        2.44400        -0.05157         0.05167
|  7>    C        3.79887        -0.03958         0.05385
|  8>    C        5.01113        -0.02814         0.05484
|  9>    C        6.41414        -0.02832         0.05478
| 10>    C        7.14817         1.07648         0.16067
| 11>    H        0.19018        -0.06946         0.05102
| 12>    H        6.87917        -1.00323        -0.03898
| 13>    H        6.69371         2.04888         0.25366
| 14>    H        8.22380         1.03928         0.15706
| 15> *
| 16>
| 17>                          ****END OF INPUT****
 Total Charge           Charge          ....    0
 Multiplicity           Mult            ....    1
 Number of Electrons    NEL             ....   40
Dispersion correction           -0.012385672
FINAL SINGLE POINT ENERGY      -230.737999232856
Dispersion correction            ... done
Dispersion correction           -0.012274730
FINAL SINGLE POINT ENERGY      -230.740268983974
Dispersion correction            ... done
Dispersion correction           -0.012258937
FINAL SINGLE POINT ENERGY      -230.740324535897
Dispersion correction            ... done
Dispersion correction           -0.012253885
FINAL SINGLE POINT ENERGY      -230.740340988231
Dispersion correction            ... done
Dispersion correction           -0.012253872
FINAL SINGLE POINT ENERGY      -230.740345581753
Dispersion correction            ... done
                    ***********************HURRAY********************

CARTESIAN COORDINATES (ANGSTROEM)
---------------------------------
  C      1.196076   -0.070834    0.050374
  C      2.414707   -0.058248    0.050562
  C      3.782732   -0.041693    0.052917
  C      5.006075   -0.023139    0.055656
  C      6.424885   -0.021712    0.057202
  C      7.181559    1.085794    0.160875
  H      0.122647   -0.082379    0.050109
  H      6.911380   -1.000605   -0.038843
  H      6.729178    2.075807    0.257167
  H      8.272281    1.020399    0.154099

 Multiplicity           Mult            ....    1
 Number of Electrons    NEL             ....   40
 Basis Dimension        Dim             ....  104

ORBITAL ENERGIES
----------------

  NO   OCC          E(Eh)            E(eV)
   0   2.0000     -10.226489      -278.2769
   1   2.0000     -10.216282      -277.9992
   2   2.0000     -10.214214      -277.9429
   3   2.0000     -10.212099      -277.8853
   4   2.0000     -10.211929      -277.8807
   5   2.0000     -10.208680      -277.7923
   6   2.0000      -0.813303       -22.1311
   7   2.0000      -0.780378       -21.2352
   8   2.0000      -0.728353       -19.8195
   9   2.0000      -0.641499       -17.4561
  10   2.0000      -0.594351       -16.1731
  11   2.0000      -0.523126       -14.2350
  12   2.0000      -0.507761       -13.8169
  13   2.0000      -0.460096       -12.5198
  14   2.0000      -0.393318       -10.7027
  15   2.0000      -0.369914       -10.0659
  16   2.0000      -0.351480        -9.5643
  17   2.0000      -0.317709        -8.6453
  18   2.0000      -0.258461        -7.0331
  19   2.0000      -0.241745        -6.5782
  20   0.0000      -0.063788        -1.7358
  21   0.0000      -0.029249        -0.7959
  22   0.0000       0.034738         0.9453
  23   0.0000       0.076340         2.0773
  24   0.0000       0.086356         2.3499

MULLIKEN ATOMIC CHARGES
-----------------------
   0 C :   -0.403842
   1 C :    0.336683
   2 C :    0.050226
   3 C :   -0.027150
   4 C :   -0.094240
   5 C :   -0.000155
   6 H :    0.024053
   7 H :    0.036887
   8 H :    0.037202
   9 H :    0.040336
Sum of atomic charges:    0.0000000

LOEWDIN ATOMIC CHARGES
----------------------
   0 C :   -0.028571
   1 C :   -0.028314
   2 C :   -0.049280
   3 C :    0.001349
   4 C :   -0.043129
   5 C :   -0.006095
   6 H :    0.043994
   7 H :    0.046270
   8 H :    0.032392
   9 H :    0.031385

  Mayer bond orders larger than 0.100000
B(  0-C ,  1-C ) :   2.2113 B(  0-C ,  3-C ) :   0.2318 B(  0-C ,  6-H ) :   1.0853
B(  1-C ,  2-C ) :   0.9097 B(  2-C ,  3-C ) :   2.2573 B(  2-C ,  5-C ) :   0.1054
B(  3-C ,  4-C ) :   1.0504 B(  4-C ,  5-C ) :   1.9085 B(  4-C ,  7-H ) :   0.9521
B(  5-C ,  8-H ) :   0.9588 B(  5-C ,  9-H ) :   0.9512

Dispersion correction           -0.012255042
FINAL SINGLE POINT ENERGY      -230.740345702235

DIPOLE MOMENT
-------------
                                X             Y             Z
Electronic contribution:     -3.89849      -1.20986      -0.11617
Nuclear contribution   :      4.17414       1.27327       0.12214
                        -----------------------------------------
Total Dipole Moment    :      0.27564       0.06341       0.00597
                        -----------------------------------------
Magnitude (a.u.)       :      0.28291
Magnitude (Debye)      :      0.71909

Rotational constants in cm-1:     1.336717     0.045147     0.043672
Rotational constants in MHz : 40073.752620  1353.464146  1309.245577

                             ****ORCA TERMINATED NORMALLY****
TOTAL RUN TIME: 0 days 0 hours 1 minutes 27 seconds 116 msec
