                         Program Version 4.2.0 -  RELEASE  -
|  1> # ORCA input file
|  2> # SCF done        -27.103793246305          0.000400237990
|  3> ! B3LYP/G D3BJ Opt RIJCOSX def2-SVP def2/J
|  4> * xyz 0 1
|  5>    C       -1.45310         1.03587        -0.16357
|  6>    S       -2.36793        -0.43142        -0.11896
|  7>    C       -0.96467        -1.45096         0.06963
|  8>    C        0.15888        -0.65429         0.09336
|  9>    C       -0.13112         0.74477        -0.03912
| 10>    N        1.09325         1.36591         0.00578
| 11>    C        2.01757         0.36243         0.15491
| 12>    N        1.51797        -0.82863         0.21110
| 13>    C       -1.09517        -2.87456         0.17518
| 14>    C       -0.05316        -3.68840         0.33518
| 15>    H       -1.95406         1.97515        -0.27528
| 16>    H        1.27763         2.35152        -0.05680
| 17>    H        3.06877         0.57144         0.21810
| 18>    H       -2.10562        -3.25830         0.11873
| 19>    H        0.94649        -3.29414         0.39156
| 20>    H       -0.17752        -4.75416         0.41140
| 21> *
| 22>
| 23>                          ****END OF INPUT****
 Total Charge           Charge          ....    0
 Multiplicity           Mult            ....    1
 Number of Electrons    NEL             ....   78
Dispersion correction           -0.032921408
FINAL SINGLE POINT ENERGY      -777.658289661643
Dispersion correction            ... done
Dispersion correction           -0.032792215
FINAL SINGLE POINT ENERGY      -777.660934975132
Dispersion correction            ... done
Dispersion correction           -0.032759927
FINAL SINGLE POINT ENERGY      -777.661050228688
Dispersion correction            ... done
FINAL SINGLE POINT ENERGY      -777.661051098013
Dispersion correction            ... done
Dispersion correction           -0.032739008
FINAL SINGLE POINT ENERGY      -777.661050513730
Dispersion correction            ... done
Dispersion correction           -0.032744962
FINAL SINGLE POINT ENERGY      -777.661060452838
Dispersion correction            ... done
                    ***********************HURRAY********************

CARTESIAN COORDINATES (ANGSTROEM)
---------------------------------
  C     -1.473257    1.052828   -0.173432
  S     -2.369369   -0.436765   -0.121817
  C     -0.959594   -1.446694    0.078052
  C      0.168447   -0.632490    0.101033
  C     -0.136270    0.762124   -0.039701
  N      1.097665    1.388205    0.009910
  C      2.039423    0.384486    0.163800
  N      1.538019   -0.818913    0.225012
  C     -1.090996   -2.884989    0.187708
  C     -0.061123   -3.738480    0.323039
  H     -1.984851    2.003445   -0.300198
  H      1.291611    2.377256   -0.068078
  H      3.102032    0.628860    0.226922
  H     -2.113112   -3.278192    0.152904
  H      0.968817   -3.374917    0.362464
  H     -0.239232   -4.813534    0.403585

 Multiplicity           Mult            ....    1
 Number of Electrons    NEL             ....   78
 Basis Dimension        Dim             ....  174

ORBITAL ENERGIES
----------------

  NO   OCC          E(Eh)            E(eV)
   0   2.0000     -88.874715     -2418.4039
   1   2.0000     -14.388648      -391.5350
   2   2.0000     -14.315632      -389.5481
   3   2.0000     -10.261554      -279.2311
   4   2.0000     -10.229877      -278.3691
   5   2.0000     -10.213493      -277.9233
   6   2.0000     -10.212878      -277.9065
   7   2.0000     -10.208773      -277.7948
   8   2.0000     -10.193772      -277.3866
   9   2.0000     -10.175897      -276.9002
  10   2.0000      -7.969020      -216.8481
  11   2.0000      -5.937193      -161.5592
  12   2.0000      -5.933196      -161.4505
  13   2.0000      -5.930303      -161.3718
  14   2.0000      -1.013386       -27.5756
  15   2.0000      -0.879271       -23.9262
  16   2.0000      -0.868598       -23.6358
  17   2.0000      -0.773917       -21.0594
  18   2.0000      -0.730623       -19.8813
  19   2.0000      -0.696201       -18.9446
  20   2.0000      -0.620361       -16.8809
  21   2.0000      -0.615194       -16.7403
  22   2.0000      -0.598135       -16.2761
  23   2.0000      -0.550405       -14.9773
  24   2.0000      -0.511414       -13.9163
  25   2.0000      -0.463929       -12.6241
  26   2.0000      -0.453711       -12.3461
  27   2.0000      -0.451694       -12.2912
  28   2.0000      -0.451496       -12.2858
  29   2.0000      -0.413274       -11.2457
  30   2.0000      -0.389698       -10.6042
  31   2.0000      -0.366282        -9.9670
  32   2.0000      -0.359238        -9.7754
  33   2.0000      -0.345498        -9.4015
  34   2.0000      -0.320279        -8.7152
  35   2.0000      -0.280282        -7.6268
  36   2.0000      -0.277332        -7.5466
  37   2.0000      -0.239467        -6.5162
  38   2.0000      -0.197797        -5.3823
  39   0.0000      -0.050421        -1.3720
  40   0.0000       0.027018         0.7352
  41   0.0000       0.029540         0.8038
  42   0.0000       0.043731         1.1900
  43   0.0000       0.049948         1.3591

MULLIKEN ATOMIC CHARGES
-----------------------
   0 C :   -0.233511
   1 S :    0.102159
   2 C :   -0.180544
   3 C :    0.046970
   4 C :    0.179893
   5 N :   -0.093643
   6 C :    0.126842
   7 N :   -0.125222
   8 C :    0.020264
   9 C :   -0.024312
  10 H :    0.010401
  11 H :    0.124734
  12 H :    0.015919
  13 H :   -0.025271
  14 H :    0.036720
  15 H :    0.018601
Sum of atomic charges:   -0.0000000

LOEWDIN ATOMIC CHARGES
----------------------
   0 C :   -0.244807
   1 S :    0.442905
   2 C :   -0.191167
   3 C :   -0.053974
   4 C :   -0.034193
   5 N :    0.035359
   6 C :    0.054986
   7 N :   -0.127090
   8 C :   -0.047212
   9 C :   -0.043756
  10 H :    0.022139
  11 H :    0.089101
  12 H :    0.020542
  13 H :    0.024340
  14 H :    0.029300
  15 H :    0.023528

  Mayer bond orders larger than 0.100000
B(  0-C ,  1-S ) :   1.1243 B(  0-C ,  2-C ) :   0.1245 B(  0-C ,  4-C ) :   1.4090
B(  0-C , 10-H ) :   0.9957 B(  1-S ,  2-C ) :   1.1439 B(  2-C ,  3-C ) :   1.3977
B(  2-C ,  8-C ) :   1.1364 B(  3-C ,  4-C ) :   1.2368 B(  3-C ,  7-N ) :   1.3065
B(  4-C ,  5-N ) :   1.1281 B(  5-N ,  6-C ) :   1.1556 B(  5-N , 11-H ) :   0.9338
B(  6-C ,  7-N ) :   1.6941 B(  6-C , 12-H ) :   0.9727 B(  8-C ,  9-C ) :   1.9046
B(  8-C , 13-H ) :   0.9470 B(  9-C , 14-H ) :   0.9384 B(  9-C , 15-H ) :   0.9413

Dispersion correction           -0.032746770
FINAL SINGLE POINT ENERGY      -777.661060083452

DIPOLE MOMENT
-------------
                                X             Y             Z
Electronic contribution:     -2.90330       4.10066      -0.54750
Nuclear contribution   :      3.14404      -2.65570       0.44064
                        -----------------------------------------
Total Dipole Moment    :      0.24074       1.44496      -0.10686
                        -----------------------------------------
Magnitude (a.u.)       :      1.46877
Magnitude (Debye)      :      3.73331

Rotational constants in cm-1:     0.057198     0.041689     0.024114
Rotational constants in MHz :  1714.752496  1249.795265   722.913252

                             ****ORCA TERMINATED NORMALLY****
TOTAL RUN TIME: 0 days 0 hours 5 minutes 36 seconds 250 msec
