                         Program Version 4.2.0 -  RELEASE  -
|  1> # ORCA input file
|  2> # SCF done        -33.355921758958          0.000915295594
|  3> ! B3LYP/G D3BJ Opt RIJCOSX def2-SVP def2/J
|  4> * xyz 0 1
|  5>    C       -1.46339        -1.23887         0.14426
|  6>    S       -2.64547        -0.00000         0.21898
|  7>    C       -1.46339         1.23887         0.14426
|  8>    C       -0.21083         0.71009         0.06751
|  9>    C       -0.21083        -0.71009         0.06751
| 10>    O        0.94694        -1.43092        -0.00360
| 11>    C        2.12418        -0.77121        -0.07731
| 12>    O        3.14941        -1.38165        -0.14160
| 13>    C        2.12418         0.77121        -0.07731
| 14>    O        3.14941         1.38165        -0.14160
| 15>    O        0.94694         1.43092        -0.00360
| 16>    H       -1.73909        -2.27278         0.16093
| 17>    H       -1.73909         2.27278         0.16093
| 18> *
| 19>
| 20>                          ****END OF INPUT****
 Total Charge           Charge          ....    0
 Multiplicity           Mult            ....    1
 Number of Electrons    NEL             ....   86
Dispersion correction           -0.027614466
FINAL SINGLE POINT ENERGY      -928.420217811670
Dispersion correction            ... done
Dispersion correction           -0.027591526
FINAL SINGLE POINT ENERGY      -928.421378895594
Dispersion correction            ... done
Dispersion correction           -0.027589991
FINAL SINGLE POINT ENERGY      -928.421501555737
Dispersion correction            ... done
Dispersion correction           -0.027591802
FINAL SINGLE POINT ENERGY      -928.421497863651
Dispersion correction            ... done
Dispersion correction           -0.027592845
FINAL SINGLE POINT ENERGY      -928.421524890314
Dispersion correction            ... done
                    ***********************HURRAY********************

CARTESIAN COORDINATES (ANGSTROEM)
---------------------------------
  C     -1.471067   -1.252032    0.145269
  S     -2.663914   -0.000006    0.216798
  C     -1.471071    1.252031    0.145267
  C     -0.215453    0.712253    0.073425
  C     -0.215455   -0.712247    0.073427
  O      0.947173   -1.431931    0.005644
  C      2.138525   -0.778676   -0.078456
  O      3.161164   -1.382790   -0.149315
  C      2.138527    0.778675   -0.078464
  O      3.161169    1.382786   -0.149306
  O      0.947176    1.431935    0.005642
  H     -1.743902   -2.304630    0.154714
  H     -1.743903    2.304630    0.154713

 Multiplicity           Mult            ....    1
 Number of Electrons    NEL             ....   86
 Basis Dimension        Dim             ....  168

ORBITAL ENERGIES
----------------

  NO   OCC          E(Eh)            E(eV)
   0   2.0000     -88.911140     -2419.3951
   1   2.0000     -19.235695      -523.4299
   2   2.0000     -19.235552      -523.4260
   3   2.0000     -19.164868      -521.5026
   4   2.0000     -19.164737      -521.4990
   5   2.0000     -10.362131      -281.9679
   6   2.0000     -10.362127      -281.9678
   7   2.0000     -10.292910      -280.0843
   8   2.0000     -10.292634      -280.0768
   9   2.0000     -10.246298      -278.8159
  10   2.0000     -10.246246      -278.8145
  11   2.0000      -8.005650      -217.8448
  12   2.0000      -5.973851      -162.5568
  13   2.0000      -5.969859      -162.4481
  14   2.0000      -5.966761      -162.3638
  15   2.0000      -1.165424       -31.7128
  16   2.0000      -1.134064       -30.8595
  17   2.0000      -1.078836       -29.3566
  18   2.0000      -1.053465       -28.6662
  19   2.0000      -0.918573       -24.9956
  20   2.0000      -0.782869       -21.3029
  21   2.0000      -0.774277       -21.0691
  22   2.0000      -0.714284       -19.4367
  23   2.0000      -0.672708       -18.3053
  24   2.0000      -0.643363       -17.5068
  25   2.0000      -0.616390       -16.7728
  26   2.0000      -0.535551       -14.5731
  27   2.0000      -0.522434       -14.2162
  28   2.0000      -0.519891       -14.1470
  29   2.0000      -0.480417       -13.0728
  30   2.0000      -0.475754       -12.9459
  31   2.0000      -0.475167       -12.9299
  32   2.0000      -0.467728       -12.7275
  33   2.0000      -0.444147       -12.0858
  34   2.0000      -0.440315       -11.9816
  35   2.0000      -0.396328       -10.7846
  36   2.0000      -0.393839       -10.7169
  37   2.0000      -0.377682       -10.2773
  38   2.0000      -0.373722       -10.1695
  39   2.0000      -0.335669        -9.1340
  40   2.0000      -0.306869        -8.3503
  41   2.0000      -0.268351        -7.3022
  42   2.0000      -0.267837        -7.2882
  43   0.0000      -0.092033        -2.5043
  44   0.0000      -0.047500        -1.2925
  45   0.0000       0.012032         0.3274
  46   0.0000       0.012841         0.3494
  47   0.0000       0.050223         1.3666

MULLIKEN ATOMIC CHARGES
-----------------------
   0 C :   -0.149247
   1 S :    0.135708
   2 C :   -0.149190
   3 C :    0.195141
   4 C :    0.195172
   5 O :   -0.206771
   6 C :    0.156844
   7 O :   -0.106650
   8 C :    0.156846
   9 O :   -0.106649
  10 O :   -0.206776
  11 H :    0.042792
  12 H :    0.042780
Sum of atomic charges:   -0.0000000

LOEWDIN ATOMIC CHARGES
----------------------
   0 C :   -0.201952
   1 S :    0.468236
   2 C :   -0.201949
   3 C :   -0.015687
   4 C :   -0.015689
   5 O :   -0.029638
   6 C :    0.052274
   7 O :   -0.078389
   8 C :    0.052275
   9 O :   -0.078388
  10 O :   -0.029639
  11 H :    0.039274
  12 H :    0.039273

  Mayer bond orders larger than 0.100000
B(  0-C ,  1-S ) :   1.1608 B(  0-C ,  4-C ) :   1.5257 B(  0-C , 11-H ) :   0.9699
B(  1-S ,  2-C ) :   1.1607 B(  2-C ,  3-C ) :   1.5258 B(  2-C , 12-H ) :   0.9699
B(  3-C ,  4-C ) :   1.2175 B(  3-C , 10-O ) :   1.0426 B(  4-C ,  5-O ) :   1.0426
B(  5-O ,  6-C ) :   1.0696 B(  6-C ,  7-O ) :   2.2231 B(  6-C ,  8-C ) :   0.8209
B(  8-C ,  9-O ) :   2.2231 B(  8-C , 10-O ) :   1.0696

Dispersion correction           -0.027593390
FINAL SINGLE POINT ENERGY      -928.421523892192

DIPOLE MOMENT
-------------
                                X             Y             Z
Electronic contribution:      1.71733       0.00000      -0.09081
Nuclear contribution   :     -3.67189       0.00000       0.21215
                        -----------------------------------------
Total Dipole Moment    :     -1.95456       0.00000       0.12135
                        -----------------------------------------
Magnitude (a.u.)       :      1.95833
Magnitude (Debye)      :      4.97767

Rotational constants in cm-1:     0.083489     0.023056     0.018067
Rotational constants in MHz :  2502.930864   691.215419   541.642965

                             ****ORCA TERMINATED NORMALLY****
TOTAL RUN TIME: 0 days 0 hours 3 minutes 58 seconds 581 msec
