                         Program Version 4.2.0 -  RELEASE  -
|  1> # ORCA input file
|  2> # SCF done        -29.005112395435          0.000955533939
|  3> ! B3LYP/G D3BJ Opt RIJCOSX def2-SVP def2/J
|  4> * xyz 0 1
|  5>    C       -1.22238        -0.07165        -0.08372
|  6>    O       -0.45762         1.04006         0.01611
|  7>    C        0.80977         0.66624         0.13101
|  8>    C        0.91243        -0.70631         0.10965
|  9>    C       -0.43503        -1.18767        -0.03321
| 10>    O       -0.80817        -2.46710        -0.09963
| 11>    C        2.04896        -1.61966         0.20077
| 12>    O        1.90086        -2.81890         0.14350
| 13>    O        3.27025        -1.08732         0.35725
| 14>    H       -2.27953         0.05356        -0.18327
| 15>    H        1.54112         1.44778         0.21691
| 16>    H        0.00293        -3.01348        -0.03971
| 17>    H        3.25740        -0.12360         0.39458
| 18> *
| 19>
| 20>                          ****END OF INPUT****
 Total Charge           Charge          ....    0
 Multiplicity           Mult            ....    1
 Number of Electrons    NEL             ....   66
Dispersion correction           -0.020834907
FINAL SINGLE POINT ENERGY      -493.471593627147
Dispersion correction            ... done
Dispersion correction           -0.020863112
FINAL SINGLE POINT ENERGY      -493.472718142705
Dispersion correction            ... done
Dispersion correction           -0.020883492
FINAL SINGLE POINT ENERGY      -493.472865689474
Dispersion correction            ... done
FINAL SINGLE POINT ENERGY      -493.472860044543
FINAL SINGLE POINT ENERGY      -493.472898932456
Dispersion correction            ... done
Dispersion correction           -0.020893043
FINAL SINGLE POINT ENERGY      -493.472907255283
Dispersion correction            ... done
Dispersion correction           -0.020895032
FINAL SINGLE POINT ENERGY      -493.472907862042
Dispersion correction            ... done
                    ***********************HURRAY********************

CARTESIAN COORDINATES (ANGSTROEM)
---------------------------------
  C     -1.245562   -0.082264   -0.080269
  O     -0.466237    1.046115    0.015829
  C      0.811634    0.676498    0.126013
  C      0.913113   -0.697850    0.109739
  C     -0.442589   -1.192479   -0.030884
  O     -0.790570   -2.480072   -0.093280
  C      2.049304   -1.620681    0.198799
  O      1.888585   -2.825161    0.136007
  O      3.285146   -1.120093    0.357490
  H     -2.314178    0.069678   -0.187019
  H      1.538792    1.482776    0.207313
  H      0.048630   -2.989867   -0.039024
  H      3.264922   -0.154651    0.409526

 Multiplicity           Mult            ....    1
 Number of Electrons    NEL             ....   66
 Basis Dimension        Dim             ....  146

ORBITAL ENERGIES
----------------

  NO   OCC          E(Eh)            E(eV)
   0   2.0000     -19.228699      -523.2395
   1   2.0000     -19.201671      -522.5040
   2   2.0000     -19.162692      -521.4434
   3   2.0000     -19.142069      -520.8822
   4   2.0000     -10.344227      -281.4807
   5   2.0000     -10.278715      -279.6980
   6   2.0000     -10.263016      -279.2709
   7   2.0000     -10.242892      -278.7233
   8   2.0000     -10.219240      -278.0797
   9   2.0000      -1.132345       -30.8127
  10   2.0000      -1.114391       -30.3241
  11   2.0000      -1.057439       -28.7744
  12   2.0000      -1.027242       -27.9527
  13   2.0000      -0.819538       -22.3008
  14   2.0000      -0.768251       -20.9052
  15   2.0000      -0.672701       -18.3051
  16   2.0000      -0.639956       -17.4141
  17   2.0000      -0.600203       -16.3324
  18   2.0000      -0.594237       -16.1700
  19   2.0000      -0.520827       -14.1724
  20   2.0000      -0.501919       -13.6579
  21   2.0000      -0.492435       -13.3998
  22   2.0000      -0.470856       -12.8126
  23   2.0000      -0.464007       -12.6263
  24   2.0000      -0.463613       -12.6156
  25   2.0000      -0.418687       -11.3931
  26   2.0000      -0.407090       -11.0775
  27   2.0000      -0.397335       -10.8120
  28   2.0000      -0.363368        -9.8877
  29   2.0000      -0.342051        -9.3077
  30   2.0000      -0.304445        -8.2844
  31   2.0000      -0.288168        -7.8414
  32   2.0000      -0.234577        -6.3832
  33   0.0000      -0.056567        -1.5393
  34   0.0000       0.013602         0.3701
  35   0.0000       0.018237         0.4963
  36   0.0000       0.079687         2.1684
  37   0.0000       0.099782         2.7152

MULLIKEN ATOMIC CHARGES
-----------------------
   0 C :    0.021344
   1 O :   -0.188878
   2 C :    0.075628
   3 C :   -0.105798
   4 C :    0.156197
   5 O :   -0.184515
   6 C :    0.211524
   7 O :   -0.243198
   8 O :   -0.139903
   9 H :    0.013807
  10 H :    0.014646
  11 H :    0.192834
  12 H :    0.176312
Sum of atomic charges:   -0.0000000

LOEWDIN ATOMIC CHARGES
----------------------
   0 C :   -0.016049
   1 O :    0.025890
   2 C :    0.042811
   3 C :   -0.167561
   4 C :    0.026164
   5 O :   -0.044587
   6 C :    0.096482
   7 O :   -0.172703
   8 O :   -0.015726
   9 H :    0.027493
  10 H :    0.023145
  11 H :    0.078603
  12 H :    0.096039

  Mayer bond orders larger than 0.100000
B(  0-C ,  1-O ) :   1.0622 B(  0-C ,  2-C ) :   0.1083 B(  0-C ,  4-C ) :   1.4988
B(  0-C ,  9-H ) :   1.0107 B(  1-O ,  2-C ) :   1.2281 B(  2-C ,  3-C ) :   1.4092
B(  2-C , 10-H ) :   1.0027 B(  3-C ,  4-C ) :   1.1740 B(  3-C ,  6-C ) :   0.9558
B(  4-C ,  5-O ) :   1.2821 B(  5-O , 11-H ) :   0.9036 B(  6-C ,  7-O ) :   1.9861
B(  6-C ,  8-O ) :   1.2672 B(  7-O , 11-H ) :   0.1195 B(  8-O , 12-H ) :   0.9552

Dispersion correction           -0.020895175
FINAL SINGLE POINT ENERGY      -493.472906294189

DIPOLE MOMENT
-------------
                                X             Y             Z
Electronic contribution:      0.53793      -0.63875       0.02890
Nuclear contribution   :     -0.24761       2.07847       0.04737
                        -----------------------------------------
Total Dipole Moment    :      0.29032       1.43972       0.07627
                        -----------------------------------------
Magnitude (a.u.)       :      1.47068
Magnitude (Debye)      :      3.73818

Rotational constants in cm-1:     0.094363     0.051242     0.033211
Rotational constants in MHz :  2828.935068  1536.187085   995.641997

                             ****ORCA TERMINATED NORMALLY****
TOTAL RUN TIME: 0 days 0 hours 4 minutes 7 seconds 165 msec
