                         Program Version 4.2.0 -  RELEASE  -
|  1> # ORCA input file
|  2> # SCF done        -23.113193928193          0.000298496231
|  3> ! B3LYP/G D3BJ Opt RIJCOSX def2-SVP def2/J
|  4> * xyz 0 1
|  5>    C        1.35927        -0.20637        -0.06750
|  6>    C        0.81880         1.06467        -0.26870
|  7>    O        1.72271         2.07189        -0.43607
|  8>    C        1.24366         3.37568        -0.65476
|  9>    C       -0.56205         1.22160        -0.28582
| 10>    C       -1.38202         0.11905        -0.10526
| 11>    C       -0.84505        -1.13861         0.09195
| 12>    C        0.53263        -1.29543         0.11035
| 13>    H        2.43293        -0.30945        -0.05602
| 14>    H        2.12879         4.00086        -0.76280
| 15>    H        0.64983         3.73452         0.19234
| 16>    H        0.64525         3.43633        -1.56981
| 17>    H       -1.01106         2.19081        -0.43754
| 18>    H       -2.45388         0.25328        -0.12088
| 19>    H       -1.49228        -1.99132         0.23016
| 20>    H        0.96409        -2.27344         0.26396
| 21> *
| 22>
| 23>                          ****END OF INPUT****
 Total Charge           Charge          ....    0
 Multiplicity           Mult            ....    1
 Number of Electrons    NEL             ....   58
Dispersion correction           -0.025744737
FINAL SINGLE POINT ENERGY      -346.546790316634
Dispersion correction            ... done
Dispersion correction           -0.025637765
FINAL SINGLE POINT ENERGY      -346.548489501944
Dispersion correction            ... done
Dispersion correction           -0.025620766
FINAL SINGLE POINT ENERGY      -346.548527686166
Dispersion correction            ... done
FINAL SINGLE POINT ENERGY      -346.548524114837
Dispersion correction            ... done
Dispersion correction           -0.025617898
FINAL SINGLE POINT ENERGY      -346.548515054876
Dispersion correction            ... done
Dispersion correction           -0.025618547
FINAL SINGLE POINT ENERGY      -346.548508262480
Dispersion correction            ... done
                    ***********************HURRAY********************

CARTESIAN COORDINATES (ANGSTROEM)
---------------------------------
  C      1.375459   -0.213108   -0.052946
  C      0.832475    1.070505   -0.236765
  O      1.724712    2.082395   -0.387588
  C      1.246234    3.377356   -0.667882
  C     -0.560188    1.236182   -0.255357
  C     -1.391856    0.121697   -0.097933
  C     -0.856704   -1.154196    0.075392
  C      0.535463   -1.311940    0.097428
  H      2.462400   -0.316986   -0.038428
  H      2.128546    4.017311   -0.799219
  H      0.632370    3.778667    0.158670
  H      0.645742    3.402969   -1.595792
  H     -1.007601    2.219215   -0.398633
  H     -2.475683    0.265511   -0.113001
  H     -1.513001   -2.017913    0.197791
  H      0.973252   -2.303594    0.237861

 Multiplicity           Mult            ....    1
 Number of Electrons    NEL             ....   58
 Basis Dimension        Dim             ....  152

ORBITAL ENERGIES
----------------

  NO   OCC          E(Eh)            E(eV)
   0   2.0000     -19.163182      -521.4567
   1   2.0000     -10.246749      -278.8282
   2   2.0000     -10.246326      -278.8167
   3   2.0000     -10.191064      -277.3129
   4   2.0000     -10.189699      -277.2758
   5   2.0000     -10.186859      -277.1985
   6   2.0000     -10.183364      -277.1034
   7   2.0000     -10.182269      -277.0736
   8   2.0000      -1.058922       -28.8147
   9   2.0000      -0.842234       -22.9183
  10   2.0000      -0.750613       -20.4252
  11   2.0000      -0.737034       -20.0557
  12   2.0000      -0.688119       -18.7247
  13   2.0000      -0.603976       -16.4350
  14   2.0000      -0.585097       -15.9213
  15   2.0000      -0.537209       -14.6182
  16   2.0000      -0.484825       -13.1928
  17   2.0000      -0.479314       -13.0428
  18   2.0000      -0.471578       -12.8323
  19   2.0000      -0.443677       -12.0731
  20   2.0000      -0.423666       -11.5285
  21   2.0000      -0.414716       -11.2850
  22   2.0000      -0.379478       -10.3261
  23   2.0000      -0.366903        -9.9839
  24   2.0000      -0.358783        -9.7630
  25   2.0000      -0.327163        -8.9026
  26   2.0000      -0.322243        -8.7687
  27   2.0000      -0.255114        -6.9420
  28   2.0000      -0.223445        -6.0802
  29   0.0000      -0.008145        -0.2216
  30   0.0000       0.006623         0.1802
  31   0.0000       0.058755         1.5988
  32   0.0000       0.073263         1.9936
  33   0.0000       0.101630         2.7655

MULLIKEN ATOMIC CHARGES
-----------------------
   0 C :   -0.018879
   1 C :    0.217001
   2 O :   -0.311953
   3 C :    0.181350
   4 C :   -0.078718
   5 C :    0.009727
   6 C :    0.022375
   7 C :    0.018404
   8 H :   -0.020355
   9 H :    0.032816
  10 H :    0.020356
  11 H :    0.017062
  12 H :   -0.034066
  13 H :   -0.014195
  14 H :   -0.021596
  15 H :   -0.019329
Sum of atomic charges:   -0.0000000

LOEWDIN ATOMIC CHARGES
----------------------
   0 C :   -0.049047
   1 C :    0.052184
   2 O :   -0.101579
   3 C :    0.078111
   4 C :   -0.079663
   5 C :   -0.017739
   6 C :   -0.050620
   7 C :   -0.016476
   8 H :    0.030491
   9 H :    0.026498
  10 H :    0.012356
  11 H :    0.012581
  12 H :    0.024343
  13 H :    0.027161
  14 H :    0.024661
  15 H :    0.026740

  Mayer bond orders larger than 0.100000
B(  0-C ,  1-C ) :   1.3550 B(  0-C ,  7-C ) :   1.4013 B(  0-C ,  8-H ) :   0.9899
B(  1-C ,  2-O ) :   1.1257 B(  1-C ,  4-C ) :   1.3236 B(  2-O ,  3-C ) :   0.9733
B(  3-C ,  9-H ) :   0.9765 B(  3-C , 10-H ) :   0.9652 B(  3-C , 11-H ) :   0.9640
B(  4-C ,  5-C ) :   1.3564 B(  4-C , 12-H ) :   0.9894 B(  5-C ,  6-C ) :   1.4006
B(  5-C , 13-H ) :   0.9821 B(  6-C ,  7-C ) :   1.3553 B(  6-C , 14-H ) :   0.9882
B(  7-C , 15-H ) :   0.9839

Dispersion correction           -0.025618773
FINAL SINGLE POINT ENERGY      -346.548504770598

DIPOLE MOMENT
-------------
                                X             Y             Z
Electronic contribution:      1.05189      -2.48476       0.55728
Nuclear contribution   :     -1.27724       2.95443      -0.66456
                        -----------------------------------------
Total Dipole Moment    :     -0.22535       0.46967      -0.10728
                        -----------------------------------------
Magnitude (a.u.)       :      0.53187
Magnitude (Debye)      :      1.35190

Rotational constants in cm-1:     0.167710     0.051987     0.040005
Rotational constants in MHz :  5027.830393  1558.516907  1199.319068

                             ****ORCA TERMINATED NORMALLY****
TOTAL RUN TIME: 0 days 0 hours 4 minutes 0 seconds 626 msec
