                         Program Version 4.2.0 -  RELEASE  -
|  1> # ORCA input file
|  2> # SCF done        -34.434224155475          0.000247753255
|  3> ! B3LYP/G D3BJ Opt RIJCOSX def2-SVP def2/J
|  4> * xyz 0 1
|  5>    C        0.70001        -0.96726         0.00548
|  6>    C        1.18678         0.29052         0.00107
|  7>    C        0.07008         1.22308        -0.00080
|  8>    C       -1.14373         0.38331         0.00423
|  9>    C       -0.74738        -0.91763         0.00784
| 10>    C       -2.47225         0.81937         0.00664
| 11>    N       -3.57625         1.13778         0.00940
| 12>    C        0.12633         2.57948        -0.00784
| 13>    C       -0.99076         3.51160        -0.01480
| 14>    C       -0.50452         4.76957        -0.02350
| 15>    C        0.94285         4.72054        -0.02159
| 16>    C        1.33977         3.41978        -0.01218
| 17>    C        2.66824         2.98374        -0.00609
| 18>    N        3.77119         2.66185        -0.00063
| 19>    H        1.26755        -1.87916         0.00713
| 20>    H        2.21647         0.58828        -0.00160
| 21>    H       -1.39233        -1.77741         0.01193
| 22>    H       -2.02035         3.21344        -0.01380
| 23>    H       -1.07260         5.68111        -0.03077
| 24>    H        1.58750         5.58053        -0.02667
| 25> *
| 26>
| 27>                          ****END OF INPUT****
 Total Charge           Charge          ....    0
 Multiplicity           Mult            ....    1
 Number of Electrons    NEL             ....   92
Dispersion correction           -0.045606271
FINAL SINGLE POINT ENERGY      -569.910667237019
Dispersion correction            ... done
Dispersion correction           -0.045327866
FINAL SINGLE POINT ENERGY      -569.914839273220
Dispersion correction            ... done
Dispersion correction           -0.045302982
FINAL SINGLE POINT ENERGY      -569.914940624010
Dispersion correction            ... done
FINAL SINGLE POINT ENERGY      -569.914976039156
FINAL SINGLE POINT ENERGY      -569.914999193401
Dispersion correction            ... done
Dispersion correction           -0.045323296
FINAL SINGLE POINT ENERGY      -569.915005020395
Dispersion correction            ... done
Dispersion correction           -0.045328868
FINAL SINGLE POINT ENERGY      -569.915005394129
Dispersion correction            ... done
                    ***********************HURRAY********************

CARTESIAN COORDINATES (ANGSTROEM)
---------------------------------
  C      0.712823   -0.987304    0.008906
  C      1.201004    0.280904    0.002350
  C      0.067672    1.217794   -0.001884
  C     -1.156198    0.368548    0.002730
  C     -0.750060   -0.938949    0.009224
  C     -2.505802    0.806843    0.001494
  N     -3.613142    1.161693    0.000988
  C      0.128014    2.584473   -0.008828
  C     -1.005331    3.521346   -0.013613
  C     -0.517168    4.789561   -0.020085
  C      0.945716    4.741227   -0.020006
  C      1.351872    3.433737   -0.013468
  C      2.701470    2.995429   -0.011464
  N      3.808761    2.640435   -0.009331
  H      1.301548   -1.903893    0.013519
  H      2.246121    0.576536    0.000620
  H     -1.413281   -1.803490    0.014144
  H     -2.050443    3.225696   -0.012163
  H     -1.105895    5.706148   -0.024928
  H      1.608920    5.605783   -0.024754

 Multiplicity           Mult            ....    1
 Number of Electrons    NEL             ....   92
 Basis Dimension        Dim             ....  226

ORBITAL ENERGIES
----------------

  NO   OCC          E(Eh)            E(eV)
   0   2.0000     -14.337759      -390.1503
   1   2.0000     -14.337740      -390.1497
   2   2.0000     -10.258831      -279.1570
   3   2.0000     -10.258286      -279.1422
   4   2.0000     -10.247153      -278.8392
   5   2.0000     -10.247133      -278.8387
   6   2.0000     -10.241992      -278.6988
   7   2.0000     -10.241983      -278.6985
   8   2.0000     -10.241050      -278.6731
   9   2.0000     -10.241047      -278.6731
  10   2.0000     -10.228041      -278.3191
  11   2.0000     -10.228036      -278.3190
  12   2.0000     -10.221255      -278.1345
  13   2.0000     -10.221239      -278.1340
  14   2.0000      -0.925026       -25.1712
  15   2.0000      -0.912220       -24.8228
  16   2.0000      -0.899622       -24.4800
  17   2.0000      -0.889840       -24.2138
  18   2.0000      -0.786501       -21.4018
  19   2.0000      -0.769443       -20.9376
  20   2.0000      -0.759057       -20.6550
  21   2.0000      -0.693222       -18.8635
  22   2.0000      -0.639965       -17.4143
  23   2.0000      -0.622290       -16.9334
  24   2.0000      -0.595116       -16.1939
  25   2.0000      -0.592483       -16.1223
  26   2.0000      -0.558741       -15.2041
  27   2.0000      -0.497136       -13.5278
  28   2.0000      -0.474675       -12.9166
  29   2.0000      -0.462235       -12.5780
  30   2.0000      -0.446484       -12.1494
  31   2.0000      -0.443926       -12.0798
  32   2.0000      -0.443206       -12.0602
  33   2.0000      -0.420369       -11.4388
  34   2.0000      -0.416231       -11.3262
  35   2.0000      -0.411308       -11.1923
  36   2.0000      -0.401190       -10.9169
  37   2.0000      -0.371087       -10.0978
  38   2.0000      -0.369950       -10.0669
  39   2.0000      -0.363863        -9.9012
  40   2.0000      -0.358397        -9.7525
  41   2.0000      -0.350781        -9.5452
  42   2.0000      -0.334849        -9.1117
  43   2.0000      -0.293022        -7.9735
  44   2.0000      -0.260151        -7.0791
  45   2.0000      -0.257387        -7.0038
  46   0.0000      -0.153486        -4.1766
  47   0.0000      -0.054148        -1.4735
  48   0.0000      -0.009572        -0.2605
  49   0.0000       0.008083         0.2200
  50   0.0000       0.013625         0.3708

MULLIKEN ATOMIC CHARGES
-----------------------
   0 C :    0.044821
   1 C :   -0.013748
   2 C :    0.068575
   3 C :   -0.094700
   4 C :    0.021315
   5 C :   -0.149289
   6 N :    0.090425
   7 C :    0.068537
   8 C :   -0.013743
   9 C :    0.044823
  10 C :    0.021332
  11 C :   -0.094682
  12 C :   -0.149446
  13 N :    0.090551
  14 H :    0.005691
  15 H :    0.021487
  16 H :    0.005436
  17 H :    0.021487
  18 H :    0.005692
  19 H :    0.005435
Sum of atomic charges:    0.0000000

LOEWDIN ATOMIC CHARGES
----------------------
   0 C :   -0.003769
   1 C :   -0.012198
   2 C :    0.044768
   3 C :   -0.089356
   4 C :    0.047772
   5 C :   -0.028694
   6 N :   -0.072373
   7 C :    0.044772
   8 C :   -0.012198
   9 C :   -0.003768
  10 C :    0.047775
  11 C :   -0.089357
  12 C :   -0.028688
  13 N :   -0.072376
  14 H :    0.034695
  15 H :    0.040402
  16 H :    0.038750
  17 H :    0.040402
  18 H :    0.034694
  19 H :    0.038749

  Mayer bond orders larger than 0.100000
B(  0-C ,  1-C ) :   1.6343 B(  0-C ,  4-C ) :   1.0554 B(  0-C , 14-H ) :   0.9980
B(  1-C ,  2-C ) :   1.0765 B(  1-C , 15-H ) :   0.9937 B(  2-C ,  3-C ) :   1.0935
B(  2-C ,  7-C ) :   1.5151 B(  3-C ,  4-C ) :   1.6274 B(  3-C ,  5-C ) :   1.1206
B(  4-C , 16-H ) :   1.0068 B(  5-C ,  6-N ) :   2.9319 B(  7-C ,  8-C ) :   1.0765
B(  7-C , 11-C ) :   1.0935 B(  8-C ,  9-C ) :   1.6343 B(  8-C , 17-H ) :   0.9937
B(  9-C , 10-C ) :   1.0554 B(  9-C , 18-H ) :   0.9980 B( 10-C , 11-C ) :   1.6274
B( 10-C , 19-H ) :   1.0068 B( 11-C , 12-C ) :   1.1207 B( 12-C , 13-N ) :   2.9321

Dispersion correction           -0.045331008
FINAL SINGLE POINT ENERGY      -569.915004791245

DIPOLE MOMENT
-------------
                                X             Y             Z
Electronic contribution:      0.00004       0.00007       0.00092
Nuclear contribution   :     -0.00001       0.00004      -0.00219
                        -----------------------------------------
Total Dipole Moment    :      0.00003       0.00011      -0.00127
                        -----------------------------------------
Magnitude (a.u.)       :      0.00128
Magnitude (Debye)      :      0.00324

Rotational constants in cm-1:     0.034909     0.020933     0.013086
Rotational constants in MHz :  1046.535375   627.558164   392.308941

                             ****ORCA TERMINATED NORMALLY****
TOTAL RUN TIME: 0 days 0 hours 11 minutes 4 seconds 853 msec
