                         Program Version 4.2.0 -  RELEASE  -
|  1> # ORCA input file
|  2> # SCF done        -34.572834463698          0.000540324994
|  3> ! B3LYP/G D3BJ Opt RIJCOSX def2-SVP def2/J
|  4> * xyz 0 1
|  5>    C       -1.17038         1.37305        -0.20257
|  6>    C       -0.01575         0.70705         0.03887
|  7>    C       -0.13883        -0.72415         0.00670
|  8>    C       -1.45869        -1.21257        -0.27544
|  9>    O       -1.90681        -2.31520        -0.37623
| 10>    S       -2.49882         0.30927        -0.49009
| 11>    C        1.10170        -1.25171         0.27007
| 12>    O        2.00193        -0.25646         0.46602
| 13>    C        1.38173         0.99319         0.33788
| 14>    O        1.98909         2.01313         0.47061
| 15>    C        1.50307        -2.62492         0.35323
| 16>    C        2.75310        -3.00089         0.62971
| 17>    H       -1.32577         2.43479        -0.23021
| 18>    H        0.71031        -3.33764         0.17566
| 19>    H        3.52549        -2.27050         0.80464
| 20>    H        3.02905        -4.03884         0.68753
| 21> *
| 22>
| 23>                          ****END OF INPUT****
 Total Charge           Charge          ....    0
 Multiplicity           Mult            ....    1
 Number of Electrons    NEL             ....   92
Dispersion correction           -0.034659464
FINAL SINGLE POINT ENERGY      -930.618787667819
Dispersion correction            ... done
Dispersion correction           -0.034610242
FINAL SINGLE POINT ENERGY      -930.621067715697
Dispersion correction            ... done
Dispersion correction           -0.034610364
FINAL SINGLE POINT ENERGY      -930.621365545321
Dispersion correction            ... done
FINAL SINGLE POINT ENERGY      -930.621427651792
FINAL SINGLE POINT ENERGY      -930.621451697436
FINAL SINGLE POINT ENERGY      -930.621486528865
Dispersion correction            ... done
Dispersion correction           -0.034630080
FINAL SINGLE POINT ENERGY      -930.621491083700
Dispersion correction            ... done
Dispersion correction           -0.034631297
FINAL SINGLE POINT ENERGY      -930.621498280999
Dispersion correction            ... done
                    ***********************HURRAY********************

CARTESIAN COORDINATES (ANGSTROEM)
---------------------------------
  C     -1.182093    1.387478   -0.211894
  C     -0.028159    0.709680    0.043812
  C     -0.143003   -0.719082    0.018735
  C     -1.467006   -1.230252   -0.286503
  O     -1.891390   -2.346857   -0.399440
  S     -2.533681    0.323762   -0.515612
  C      1.096885   -1.249600    0.288984
  O      2.008196   -0.258856    0.483538
  C      1.373058    1.025610    0.349192
  O      1.997800    2.029621    0.487832
  C      1.502712   -2.628349    0.381437
  C      2.769854   -3.014842    0.612945
  H     -1.315836    2.469947   -0.246108
  H      0.692951   -3.348519    0.237943
  H      3.565876   -2.279400    0.748963
  H      3.034256   -4.072740    0.672556

 Multiplicity           Mult            ....    1
 Number of Electrons    NEL             ....   92
 Basis Dimension        Dim             ....  192

ORBITAL ENERGIES
----------------

  NO   OCC          E(Eh)            E(eV)
   0   2.0000     -88.882921     -2418.6272
   1   2.0000     -19.214816      -522.8617
   2   2.0000     -19.158711      -521.3350
   3   2.0000     -19.154727      -521.2266
   4   2.0000     -10.344647      -281.4922
   5   2.0000     -10.321081      -280.8509
   6   2.0000     -10.304841      -280.4090
   7   2.0000     -10.262537      -279.2578
   8   2.0000     -10.232748      -278.4472
   9   2.0000     -10.232114      -278.4300
  10   2.0000     -10.228329      -278.3270
  11   2.0000     -10.222862      -278.1782
  12   2.0000      -7.978802      -217.1142
  13   2.0000      -5.946915      -161.8238
  14   2.0000      -5.943215      -161.7231
  15   2.0000      -5.939325      -161.6173
  16   2.0000      -1.129332       -30.7307
  17   2.0000      -1.067798       -29.0563
  18   2.0000      -1.055904       -28.7326
  19   2.0000      -0.892566       -24.2879
  20   2.0000      -0.829660       -22.5762
  21   2.0000      -0.791414       -21.5355
  22   2.0000      -0.745642       -20.2900
  23   2.0000      -0.698013       -18.9939
  24   2.0000      -0.646676       -17.5969
  25   2.0000      -0.623459       -16.9652
  26   2.0000      -0.596243       -16.2246
  27   2.0000      -0.546440       -14.8694
  28   2.0000      -0.515685       -14.0325
  29   2.0000      -0.502657       -13.6780
  30   2.0000      -0.493342       -13.4245
  31   2.0000      -0.481811       -13.1107
  32   2.0000      -0.464021       -12.6267
  33   2.0000      -0.452935       -12.3250
  34   2.0000      -0.441771       -12.0212
  35   2.0000      -0.429896       -11.6981
  36   2.0000      -0.425713       -11.5842
  37   2.0000      -0.403835       -10.9889
  38   2.0000      -0.403319       -10.9749
  39   2.0000      -0.380575       -10.3560
  40   2.0000      -0.367463        -9.9992
  41   2.0000      -0.325856        -8.8670
  42   2.0000      -0.309183        -8.4133
  43   2.0000      -0.290974        -7.9178
  44   2.0000      -0.286590        -7.7985
  45   2.0000      -0.238173        -6.4810
  46   0.0000      -0.121380        -3.3029
  47   0.0000      -0.063347        -1.7238
  48   0.0000      -0.007322        -0.1992
  49   0.0000      -0.001162        -0.0316
  50   0.0000       0.060431         1.6444

MULLIKEN ATOMIC CHARGES
-----------------------
   0 C :   -0.099007
   1 C :   -0.013147
   2 C :    0.033673
   3 C :    0.039603
   4 O :   -0.146214
   5 S :    0.022264
   6 C :    0.115895
   7 O :   -0.276572
   8 C :    0.258417
   9 O :   -0.115253
  10 C :   -0.035805
  11 C :    0.036967
  12 H :    0.054975
  13 H :    0.025369
  14 H :    0.055109
  15 H :    0.043726
Sum of atomic charges:   -0.0000000

LOEWDIN ATOMIC CHARGES
----------------------
   0 C :   -0.101911
   1 C :   -0.123361
   2 C :   -0.140470
   3 C :   -0.027327
   4 O :   -0.132495
   5 S :    0.315972
   6 C :    0.116541
   7 O :   -0.070223
   8 C :    0.120246
   9 O :   -0.106846
  10 C :   -0.043399
  11 C :    0.028353
  12 H :    0.041208
  13 H :    0.047759
  14 H :    0.038598
  15 H :    0.037356

  Mayer bond orders larger than 0.100000
B(  0-C ,  1-C ) :   1.5463 B(  0-C ,  5-S ) :   1.1417 B(  0-C , 12-H ) :   0.9579
B(  1-C ,  2-C ) :   1.1534 B(  1-C ,  8-C ) :   0.9555 B(  2-C ,  3-C ) :   0.9510
B(  2-C ,  6-C ) :   1.4097 B(  3-C ,  4-O ) :   2.1522 B(  3-C ,  5-S ) :   0.9434
B(  4-O ,  5-S ) :   0.1306 B(  6-C ,  7-O ) :   1.1549 B(  6-C , 10-C ) :   1.1861
B(  7-O ,  8-C ) :   0.9296 B(  8-C ,  9-O ) :   2.2627 B( 10-C , 11-C ) :   1.8396
B( 10-C , 13-H ) :   0.9463 B( 11-C , 14-H ) :   0.9514 B( 11-C , 15-H ) :   0.9427

Dispersion correction           -0.034631561
FINAL SINGLE POINT ENERGY      -930.621499572728

DIPOLE MOMENT
-------------
                                X             Y             Z
Electronic contribution:     -5.38173       4.81910      -1.12565
Nuclear contribution   :      5.59235      -5.23681       1.17331
                        -----------------------------------------
Total Dipole Moment    :      0.21062      -0.41772       0.04766
                        -----------------------------------------
Magnitude (a.u.)       :      0.47024
Magnitude (Debye)      :      1.19525

Rotational constants in cm-1:     0.039848     0.025337     0.015489
Rotational constants in MHz :  1194.619363   759.577970   464.359706

                             ****ORCA TERMINATED NORMALLY****
TOTAL RUN TIME: 0 days 0 hours 10 minutes 6 seconds 422 msec
