                         Program Version 4.2.0 -  RELEASE  -
|  1> # ORCA input file
|  2> # SCF done        -37.722909103653          0.000947656585
|  3> ! B3LYP/G D3BJ Opt RIJCOSX def2-SVP def2/J
|  4> * xyz 0 1
|  5>    C       -1.53769         1.17972        -0.10813
|  6>    S       -2.66720        -0.09261        -0.19231
|  7>    C       -1.44134        -1.30909        -0.09153
|  8>    C       -0.18084        -0.72842        -0.03699
|  9>    C       -0.24813         0.71098        -0.02762
| 10>    C        0.95055         1.47952         0.05134
| 11>    C        0.86821         2.88736         0.08496
| 12>    N        0.79520         4.03171         0.11443
| 13>    C        2.16650         0.83873         0.08350
| 14>    C        2.23995        -0.55909        -0.00273
| 15>    C        1.10600        -1.34113        -0.07519
| 16>    C        1.28841        -2.72726        -0.27641
| 17>    N        1.53300        -3.82839        -0.48522
| 18>    C       -1.84753        -2.69441        -0.01183
| 19>    C       -1.30438        -3.59218         0.80242
| 20>    H       -1.86402         2.20056        -0.11584
| 21>    H        3.07657         1.41575         0.14744
| 22>    H        3.20891        -1.03480        -0.03128
| 23>    H       -2.70197        -2.95965        -0.62198
| 24>    H       -0.49869        -3.34846         1.47336
| 25>    H       -1.65427        -4.60814         0.82668
| 26> *
| 27>
| 28>                          ****END OF INPUT****
 Total Charge           Charge          ....    0
 Multiplicity           Mult            ....    1
 Number of Electrons    NEL             ....  108
Dispersion correction           -0.055014922
FINAL SINGLE POINT ENERGY      -968.040593317809
Dispersion correction            ... done
Dispersion correction           -0.054031672
FINAL SINGLE POINT ENERGY      -968.044356739025
Dispersion correction            ... done
Dispersion correction           -0.054348746
FINAL SINGLE POINT ENERGY      -968.044785475640
Dispersion correction            ... done
FINAL SINGLE POINT ENERGY      -968.045212883592
FINAL SINGLE POINT ENERGY      -968.045231286925
FINAL SINGLE POINT ENERGY      -968.045256119605
Dispersion correction            ... done
Dispersion correction           -0.054285856
FINAL SINGLE POINT ENERGY      -968.045264323110
Dispersion correction            ... done
Dispersion correction           -0.054281484
FINAL SINGLE POINT ENERGY      -968.045264666759
Dispersion correction            ... done
                    ***********************HURRAY********************

CARTESIAN COORDINATES (ANGSTROEM)
---------------------------------
  C     -1.540414    1.190004   -0.113625
  S     -2.654950   -0.099274   -0.197628
  C     -1.434764   -1.327318   -0.105545
  C     -0.162427   -0.735478   -0.053939
  C     -0.238226    0.718041   -0.034002
  C      0.964173    1.502586    0.048380
  C      0.866098    2.929124    0.110167
  N      0.760864    4.084416    0.162775
  C      2.191611    0.869778    0.065442
  C      2.276261   -0.541406   -0.025239
  C      1.145338   -1.341061   -0.094677
  C      1.347758   -2.745716   -0.291243
  N      1.571833   -3.869336   -0.478187
  C     -1.878607   -2.716282   -0.003467
  C     -1.370076   -3.630463    0.834898
  H     -1.868389    2.227716   -0.122442
  H      3.105464    1.461560    0.127129
  H      3.258337   -1.014281   -0.064417
  H     -2.733699   -2.993004   -0.631068
  H     -0.554484   -3.399954    1.522754
  H     -1.764461   -4.648952    0.851004

 Multiplicity           Mult            ....    1
 Number of Electrons    NEL             ....  108
 Basis Dimension        Dim             ....  244

ORBITAL ENERGIES
----------------

  NO   OCC          E(Eh)            E(eV)
   0   2.0000     -88.913213     -2419.4515
   1   2.0000     -14.344997      -390.3472
   2   2.0000     -14.340563      -390.2266
   3   2.0000     -10.262459      -279.2557
   4   2.0000     -10.261249      -279.2228
   5   2.0000     -10.250852      -278.9399
   6   2.0000     -10.243803      -278.7481
   7   2.0000     -10.241748      -278.6921
   8   2.0000     -10.241637      -278.6891
   9   2.0000     -10.240850      -278.6677
  10   2.0000     -10.240152      -278.6487
  11   2.0000     -10.239243      -278.6240
  12   2.0000     -10.238673      -278.6085
  13   2.0000     -10.221807      -278.1495
  14   2.0000     -10.209666      -277.8191
  15   2.0000      -8.008049      -217.9101
  16   2.0000      -5.975683      -162.6066
  17   2.0000      -5.971501      -162.4928
  18   2.0000      -5.970470      -162.4647
  19   2.0000      -0.933603       -25.4046
  20   2.0000      -0.913596       -24.8602
  21   2.0000      -0.909005       -24.7353
  22   2.0000      -0.872721       -23.7479
  23   2.0000      -0.826335       -22.4857
  24   2.0000      -0.796118       -21.6635
  25   2.0000      -0.772339       -21.0164
  26   2.0000      -0.728020       -19.8104
  27   2.0000      -0.698470       -19.0063
  28   2.0000      -0.639420       -17.3995
  29   2.0000      -0.623320       -16.9614
  30   2.0000      -0.598964       -16.2986
  31   2.0000      -0.573451       -15.6044
  32   2.0000      -0.539874       -14.6907
  33   2.0000      -0.519314       -14.1312
  34   2.0000      -0.494799       -13.4642
  35   2.0000      -0.483162       -13.1475
  36   2.0000      -0.465001       -12.6533
  37   2.0000      -0.450114       -12.2482
  38   2.0000      -0.437432       -11.9031
  39   2.0000      -0.424140       -11.5414
  40   2.0000      -0.413409       -11.2494
  41   2.0000      -0.399289       -10.8652
  42   2.0000      -0.395801       -10.7703
  43   2.0000      -0.382469       -10.4075
  44   2.0000      -0.380645       -10.3579
  45   2.0000      -0.374868       -10.2007
  46   2.0000      -0.369461       -10.0535
  47   2.0000      -0.354637        -9.6502
  48   2.0000      -0.352241        -9.5850
  49   2.0000      -0.344790        -9.3822
  50   2.0000      -0.318659        -8.6711
  51   2.0000      -0.289923        -7.8892
  52   2.0000      -0.285561        -7.7705
  53   2.0000      -0.231881        -6.3098
  54   0.0000      -0.115903        -3.1539
  55   0.0000      -0.054518        -1.4835
  56   0.0000      -0.025888        -0.7044
  57   0.0000       0.000864         0.0235
  58   0.0000       0.009937         0.2704

MULLIKEN ATOMIC CHARGES
-----------------------
   0 C :   -0.126381
   1 S :    0.179773
   2 C :   -0.194596
   3 C :    0.173076
   4 C :    0.073713
   5 C :   -0.042008
   6 C :   -0.158972
   7 N :    0.082799
   8 C :    0.023021
   9 C :    0.016175
  10 C :   -0.089383
  11 C :   -0.166127
  12 N :    0.090063
  13 C :   -0.016836
  14 C :    0.016140
  15 H :    0.045333
  16 H :    0.000111
  17 H :    0.002659
  18 H :    0.014937
  19 H :    0.039485
  20 H :    0.037017
Sum of atomic charges:    0.0000000

LOEWDIN ATOMIC CHARGES
----------------------
   0 C :   -0.195013
   1 S :    0.518990
   2 C :   -0.176556
   3 C :   -0.037127
   4 C :   -0.036361
   5 C :   -0.046732
   6 C :   -0.022366
   7 N :   -0.054203
   8 C :    0.007524
   9 C :    0.008221
  10 C :   -0.045769
  11 C :   -0.022697
  12 N :   -0.055536
  13 C :   -0.059668
  14 C :   -0.004574
  15 H :    0.037447
  16 H :    0.043778
  17 H :    0.044102
  18 H :    0.034001
  19 H :    0.028716
  20 H :    0.033824

  Mayer bond orders larger than 0.100000
B(  0-C ,  1-S ) :   1.1967 B(  0-C ,  2-C ) :   0.1085 B(  0-C ,  4-C ) :   1.4351
B(  0-C , 15-H ) :   0.9486 B(  1-S ,  2-C ) :   1.1858 B(  2-C ,  3-C ) :   1.3857
B(  2-C , 13-C ) :   1.0573 B(  3-C ,  4-C ) :   1.1674 B(  3-C , 10-C ) :   1.2015
B(  4-C ,  5-C ) :   1.1946 B(  5-C ,  6-C ) :   1.0875 B(  5-C ,  8-C ) :   1.5002
B(  6-C ,  7-N ) :   2.9940 B(  8-C ,  9-C ) :   1.1898 B(  8-C , 16-H ) :   0.9911
B(  9-C , 10-C ) :   1.5105 B(  9-C , 17-H ) :   0.9875 B( 10-C , 11-C ) :   1.0993
B( 11-C , 12-N ) :   2.9834 B( 13-C , 14-C ) :   1.9441 B( 13-C , 18-H ) :   0.9456
B( 14-C , 19-H ) :   0.9565 B( 14-C , 20-H ) :   0.9436

Dispersion correction           -0.054278486
FINAL SINGLE POINT ENERGY      -968.045265727329

DIPOLE MOMENT
-------------
                                X             Y             Z
Electronic contribution:     -0.81481       5.48737      -1.53483
Nuclear contribution   :      0.28697      -5.74779       1.71655
                        -----------------------------------------
Total Dipole Moment    :     -0.52784      -0.26042       0.18172
                        -----------------------------------------
Magnitude (a.u.)       :      0.61600
Magnitude (Debye)      :      1.56574

Rotational constants in cm-1:     0.028183     0.016010     0.010439
Rotational constants in MHz :   844.915738   479.955336   312.967706

                             ****ORCA TERMINATED NORMALLY****
TOTAL RUN TIME: 0 days 0 hours 17 minutes 7 seconds 282 msec
