                         Program Version 4.2.0 -  RELEASE  -
|  1> # ORCA input file
|  2> # SCF done        -32.769775350740          0.000452243380
|  3> ! B3LYP/G D3BJ Opt RIJCOSX def2-SVP def2/J
|  4> * xyz 0 1
|  5>    C       -1.64471        -1.10781         0.34747
|  6>    S       -2.75514         0.18945         0.41063
|  7>    C       -1.52687         1.34445         0.17173
|  8>    C       -0.28677         0.75880         0.05406
|  9>    C       -0.35315        -0.68113         0.14244
| 10>    C        0.86262        -1.42753         0.05774
| 11>    C        0.94786        -2.90827         0.04489
| 12>    O        1.89847        -3.48521         0.52497
| 13>    C       -0.15422        -3.66295        -0.66154
| 14>    C        2.04486        -0.73825        -0.04915
| 15>    C        2.09850         0.66748        -0.14224
| 16>    C        0.95894         1.41110        -0.10795
| 17>    H       -2.01418        -2.10136         0.49132
| 18>    H       -1.76702         2.38821         0.14610
| 19>    H       -0.67967        -3.03837        -1.37710
| 20>    H       -0.85841        -4.04120         0.07792
| 21>    H        0.28217        -4.52447        -1.16298
| 22>    H        2.96304        -1.30572        -0.08996
| 23>    H        3.06068         1.14510        -0.24917
| 24>    H        0.98110         2.48724        -0.18947
| 25> *
| 26>
| 27>                          ****END OF INPUT****
 Total Charge           Charge          ....    0
 Multiplicity           Mult            ....    1
 Number of Electrons    NEL             ....   92
Dispersion correction           -0.045137083
FINAL SINGLE POINT ENERGY      -858.880246466672
Dispersion correction            ... done
Dispersion correction           -0.044871833
FINAL SINGLE POINT ENERGY      -858.883545573398
Dispersion correction            ... done
Dispersion correction           -0.044825227
FINAL SINGLE POINT ENERGY      -858.883948169217
Dispersion correction            ... done
FINAL SINGLE POINT ENERGY      -858.884086590657
FINAL SINGLE POINT ENERGY      -858.884288552584
FINAL SINGLE POINT ENERGY      -858.884569892531
FINAL SINGLE POINT ENERGY      -858.884709435351
FINAL SINGLE POINT ENERGY      -858.884822381438
FINAL SINGLE POINT ENERGY      -858.884862924936
Dispersion correction            ... done
Dispersion correction           -0.044879050
FINAL SINGLE POINT ENERGY      -858.884898870978
Dispersion correction            ... done
Dispersion correction           -0.044874368
FINAL SINGLE POINT ENERGY      -858.884903492374
Dispersion correction            ... done
                    ***********************HURRAY********************

CARTESIAN COORDINATES (ANGSTROEM)
---------------------------------
  C     -1.674115   -1.109397    0.160847
  S     -2.774289    0.200331    0.284261
  C     -1.540345    1.375046    0.192321
  C     -0.286574    0.782972    0.074766
  C     -0.353161   -0.676740    0.050736
  C      0.885650   -1.418669   -0.045085
  C      1.009381   -2.913886   -0.135228
  O      2.085508   -3.454572    0.042182
  C     -0.202711   -3.748963   -0.496898
  C      2.072324   -0.710404   -0.076969
  C      2.125025    0.710927   -0.063515
  C      0.971360    1.450365   -0.000134
  H     -2.067259   -2.119101    0.187747
  H     -1.773871    2.437064    0.234457
  H     -0.794879   -3.286659   -1.300209
  H     -0.856484   -3.866427    0.382933
  H      0.145148   -4.743429   -0.803705
  H      2.994225   -1.291672   -0.132970
  H      3.095132    1.209993   -0.115155
  H      0.998034    2.542781   -0.000671

 Multiplicity           Mult            ....    1
 Number of Electrons    NEL             ....   92
 Basis Dimension        Dim             ....  212

ORBITAL ENERGIES
----------------

  NO   OCC          E(Eh)            E(eV)
   0   2.0000     -88.895466     -2418.9686
   1   2.0000     -19.116721      -520.1924
   2   2.0000     -10.273022      -279.5431
   3   2.0000     -10.223035      -278.1829
   4   2.0000     -10.220553      -278.1154
   5   2.0000     -10.214728      -277.9569
   6   2.0000     -10.210854      -277.8515
   7   2.0000     -10.209093      -277.8036
   8   2.0000     -10.203192      -277.6430
   9   2.0000     -10.201052      -277.5847
  10   2.0000     -10.200573      -277.5717
  11   2.0000     -10.192759      -277.3591
  12   2.0000      -7.990258      -217.4260
  13   2.0000      -5.957905      -162.1228
  14   2.0000      -5.953729      -162.0092
  15   2.0000      -5.952762      -161.9829
  16   2.0000      -1.025164       -27.8961
  17   2.0000      -0.901032       -24.5183
  18   2.0000      -0.838010       -22.8034
  19   2.0000      -0.780940       -21.2505
  20   2.0000      -0.743536       -20.2327
  21   2.0000      -0.730673       -19.8826
  22   2.0000      -0.710164       -19.3245
  23   2.0000      -0.634126       -17.2555
  24   2.0000      -0.590980       -16.0814
  25   2.0000      -0.588194       -16.0056
  26   2.0000      -0.550088       -14.9687
  27   2.0000      -0.508901       -13.8479
  28   2.0000      -0.478328       -13.0160
  29   2.0000      -0.474053       -12.8996
  30   2.0000      -0.461100       -12.5472
  31   2.0000      -0.447579       -12.1792
  32   2.0000      -0.434622       -11.8267
  33   2.0000      -0.420500       -11.4424
  34   2.0000      -0.414404       -11.2765
  35   2.0000      -0.411271       -11.1913
  36   2.0000      -0.396927       -10.8009
  37   2.0000      -0.370661       -10.0862
  38   2.0000      -0.367032        -9.9874
  39   2.0000      -0.365731        -9.9520
  40   2.0000      -0.354228        -9.6390
  41   2.0000      -0.341582        -9.2949
  42   2.0000      -0.294573        -8.0157
  43   2.0000      -0.261407        -7.1133
  44   2.0000      -0.251706        -6.8493
  45   2.0000      -0.217464        -5.9175
  46   0.0000      -0.082558        -2.2465
  47   0.0000      -0.023611        -0.6425
  48   0.0000       0.010639         0.2895
  49   0.0000       0.040443         1.1005
  50   0.0000       0.040836         1.1112

MULLIKEN ATOMIC CHARGES
-----------------------
   0 C :   -0.185546
   1 S :    0.149685
   2 C :   -0.140556
   3 C :    0.080731
   4 C :    0.105503
   5 C :    0.011581
   6 C :   -0.005330
   7 O :   -0.202227
   8 C :    0.045050
   9 C :   -0.005876
  10 C :    0.029252
  11 C :    0.008233
  12 H :    0.016954
  13 H :    0.023137
  14 H :    0.034892
  15 H :    0.043325
  16 H :    0.025141
  17 H :   -0.000822
  18 H :   -0.013740
  19 H :   -0.019387
Sum of atomic charges:   -0.0000000

LOEWDIN ATOMIC CHARGES
----------------------
   0 C :   -0.221053
   1 S :    0.494493
   2 C :   -0.206818
   3 C :   -0.050970
   4 C :   -0.042169
   5 C :   -0.071124
   6 C :    0.083879
   7 O :   -0.157436
   8 C :   -0.075696
   9 C :    0.021514
  10 C :   -0.033924
  11 C :    0.000347
  12 H :    0.020087
  13 H :    0.026961
  14 H :    0.035148
  15 H :    0.042732
  16 H :    0.038693
  17 H :    0.034358
  18 H :    0.029953
  19 H :    0.031025

  Mayer bond orders larger than 0.100000
B(  0-C ,  1-S ) :   1.1930 B(  0-C ,  2-C ) :   0.1140 B(  0-C ,  4-C ) :   1.4224
B(  0-C , 12-H ) :   0.9571 B(  1-S ,  2-C ) :   1.2196 B(  2-C ,  3-C ) :   1.3897
B(  2-C , 13-H ) :   0.9659 B(  3-C ,  4-C ) :   1.2008 B(  3-C , 11-C ) :   1.1963
B(  4-C ,  5-C ) :   1.1483 B(  5-C ,  6-C ) :   0.9256 B(  5-C ,  9-C ) :   1.5444
B(  6-C ,  7-O ) :   2.1408 B(  6-C ,  8-C ) :   1.0637 B(  8-C , 14-H ) :   0.9491
B(  8-C , 15-H ) :   0.9295 B(  8-C , 16-H ) :   0.9396 B(  9-C , 10-C ) :   1.1870
B(  9-C , 17-H ) :   0.9739 B( 10-C , 11-C ) :   1.5072 B( 10-C , 18-H ) :   0.9862
B( 11-C , 19-H ) :   0.9940

Dispersion correction           -0.044875000
FINAL SINGLE POINT ENERGY      -858.884904003051

DIPOLE MOMENT
-------------
                                X             Y             Z
Electronic contribution:     -3.43193       3.79008       1.51441
Nuclear contribution   :      2.49638      -2.94817      -1.63611
                        -----------------------------------------
Total Dipole Moment    :     -0.93556       0.84191      -0.12169
                        -----------------------------------------
Magnitude (a.u.)       :      1.26447
Magnitude (Debye)      :      3.21404

Rotational constants in cm-1:     0.043803     0.023414     0.015407
Rotational constants in MHz :  1313.171821   701.944946   461.889862

                             ****ORCA TERMINATED NORMALLY****
TOTAL RUN TIME: 0 days 0 hours 18 minutes 24 seconds 21 msec
