                         Program Version 4.2.0 -  RELEASE  -
|  1> # ORCA input file
|  2> # SCF done        -42.586779852766          0.000314959952
|  3> ! B3LYP/G D3BJ Opt RIJCOSX def2-SVP def2/J
|  4> * xyz 0 1
|  5>    C       -1.48123         1.21957        -0.02029
|  6>    S       -2.63508        -0.01902         0.00838
|  7>    C       -1.43923        -1.27834        -0.03757
|  8>    C       -0.15743        -0.72648        -0.04167
|  9>    C       -0.19213         0.71601        -0.04263
| 10>    C        1.00569         1.43840        -0.05101
| 11>    C        2.21744         0.78294        -0.03521
| 12>    N        3.38432         1.59900        -0.03402
| 13>    O        3.23906         2.80270        -0.12555
| 14>    O        4.48622         1.07354         0.06383
| 15>    C        2.27761        -0.65592         0.00955
| 16>    N        3.45975        -1.31426         0.02789
| 17>    C        1.08965        -1.36637         0.00712
| 18>    C       -1.91295        -2.63342        -0.07906
| 19>    C       -1.25177        -3.70751        -0.50817
| 20>    H       -1.78223         2.24779        -0.02331
| 21>    H        0.99075         2.51763        -0.05896
| 22>    H        4.31678        -0.78780         0.10466
| 23>    H        3.46168        -2.31195         0.13263
| 24>    H        1.13919        -2.44065         0.07069
| 25>    H       -2.94045        -2.74990         0.24568
| 26>    H       -0.25391        -3.65887        -0.90364
| 27>    H       -1.71484        -4.67845        -0.49722
| 28> *
| 29>
| 30>                          ****END OF INPUT****
 Total Charge           Charge          ....    0
 Multiplicity           Mult            ....    1
 Number of Electrons    NEL             ....  114
Dispersion correction           -0.053571434
FINAL SINGLE POINT ENERGY     -1043.370791986769
Dispersion correction            ... done
Dispersion correction           -0.053217216
FINAL SINGLE POINT ENERGY     -1043.374449433514
Dispersion correction            ... done
Dispersion correction           -0.053128235
FINAL SINGLE POINT ENERGY     -1043.374015203776
Dispersion correction            ... done
FINAL SINGLE POINT ENERGY     -1043.374511507964
FINAL SINGLE POINT ENERGY     -1043.374627277542
FINAL SINGLE POINT ENERGY     -1043.374781216227
FINAL SINGLE POINT ENERGY     -1043.374759057701
FINAL SINGLE POINT ENERGY     -1043.374682973709
FINAL SINGLE POINT ENERGY     -1043.374566070509
FINAL SINGLE POINT ENERGY     -1043.374710706855
FINAL SINGLE POINT ENERGY     -1043.374780005276
FINAL SINGLE POINT ENERGY     -1043.374766832654
FINAL SINGLE POINT ENERGY     -1043.374794319837
FINAL SINGLE POINT ENERGY     -1043.374775089791
FINAL SINGLE POINT ENERGY     -1043.374783486993
FINAL SINGLE POINT ENERGY     -1043.374792364289
FINAL SINGLE POINT ENERGY     -1043.374797186938
Dispersion correction            ... done
Dispersion correction           -0.053090723
FINAL SINGLE POINT ENERGY     -1043.374802520369
Dispersion correction            ... done
Dispersion correction           -0.053089836
FINAL SINGLE POINT ENERGY     -1043.374805950338
Dispersion correction            ... done
                    ***********************HURRAY********************

CARTESIAN COORDINATES (ANGSTROEM)
---------------------------------
  C     -1.496673    1.242368   -0.024646
  S     -2.644853   -0.003203   -0.121023
  C     -1.455177   -1.278219   -0.154382
  C     -0.158708   -0.723277   -0.106472
  C     -0.198175    0.727419   -0.023127
  C      1.009890    1.454747    0.043192
  C      2.218060    0.795748    0.003400
  N      3.411852    1.641094    0.115375
  O      3.265740    2.852007    0.119608
  O      4.512239    1.098021    0.213301
  C      2.302208   -0.651971   -0.129445
  N      3.499315   -1.288942   -0.265253
  C      1.103261   -1.364691   -0.158981
  C     -1.951304   -2.636766   -0.236166
  C     -1.281579   -3.799649   -0.122557
  H     -1.795514    2.287276    0.031013
  H      1.015192    2.540174    0.132044
  H      4.340895   -0.768415   -0.050512
  H      3.511863   -2.298682   -0.239245
  H      1.161335   -2.446866   -0.265848
  H     -3.031490   -2.703666   -0.414708
  H     -0.214133   -3.859853    0.089871
  H     -1.817355   -4.746016   -0.223317

 Multiplicity           Mult            ....    1
 Number of Electrons    NEL             ....  114
 Basis Dimension        Dim             ....  254

ORBITAL ENERGIES
----------------

  NO   OCC          E(Eh)            E(eV)
   0   2.0000     -88.897642     -2419.0278
   1   2.0000     -19.167200      -521.5660
   2   2.0000     -19.164600      -521.4953
   3   2.0000     -14.565126      -396.3372
   4   2.0000     -14.348235      -390.4353
   5   2.0000     -10.261713      -279.2354
   6   2.0000     -10.253228      -279.0045
   7   2.0000     -10.232315      -278.4354
   8   2.0000     -10.226265      -278.2708
   9   2.0000     -10.224749      -278.2296
  10   2.0000     -10.216528      -278.0059
  11   2.0000     -10.216161      -277.9959
  12   2.0000     -10.209342      -277.8103
  13   2.0000     -10.196603      -277.4637
  14   2.0000     -10.191134      -277.3148
  15   2.0000      -7.992312      -217.4819
  16   2.0000      -5.959832      -162.1753
  17   2.0000      -5.955902      -162.0683
  18   2.0000      -5.954805      -162.0385
  19   2.0000      -1.225954       -33.3599
  20   2.0000      -1.050103       -28.5747
  21   2.0000      -0.934961       -25.4416
  22   2.0000      -0.904129       -24.6026
  23   2.0000      -0.852253       -23.1910
  24   2.0000      -0.794135       -21.6095
  25   2.0000      -0.790875       -21.5208
  26   2.0000      -0.749831       -20.4040
  27   2.0000      -0.710027       -19.3208
  28   2.0000      -0.687523       -18.7084
  29   2.0000      -0.633879       -17.2487
  30   2.0000      -0.616052       -16.7636
  31   2.0000      -0.588822       -16.0227
  32   2.0000      -0.567935       -15.4543
  33   2.0000      -0.549177       -14.9439
  34   2.0000      -0.545415       -14.8415
  35   2.0000      -0.538374       -14.6499
  36   2.0000      -0.516451       -14.0534
  37   2.0000      -0.508840       -13.8463
  38   2.0000      -0.486041       -13.2259
  39   2.0000      -0.469568       -12.7776
  40   2.0000      -0.455334       -12.3903
  41   2.0000      -0.445998       -12.1362
  42   2.0000      -0.434791       -11.8313
  43   2.0000      -0.425847       -11.5879
  44   2.0000      -0.402683       -10.9576
  45   2.0000      -0.391186       -10.6447
  46   2.0000      -0.385847       -10.4994
  47   2.0000      -0.363038        -9.8788
  48   2.0000      -0.354076        -9.6349
  49   2.0000      -0.336482        -9.1561
  50   2.0000      -0.317537        -8.6406
  51   2.0000      -0.316387        -8.6093
  52   2.0000      -0.306111        -8.3297
  53   2.0000      -0.298899        -8.1335
  54   2.0000      -0.280080        -7.6214
  55   2.0000      -0.244153        -6.6437
  56   2.0000      -0.195530        -5.3206
  57   0.0000      -0.101933        -2.7738
  58   0.0000      -0.062874        -1.7109
  59   0.0000      -0.009548        -0.2598
  60   0.0000       0.017590         0.4787
  61   0.0000       0.022653         0.6164

MULLIKEN ATOMIC CHARGES
-----------------------
   0 C :   -0.104385
   1 S :    0.159279
   2 C :   -0.193298
   3 C :    0.200238
   4 C :    0.084566
   5 C :   -0.080917
   6 C :    0.143585
   7 N :    0.244202
   8 O :   -0.237334
   9 O :   -0.275909
  10 C :   -0.005529
  11 N :   -0.011751
  12 C :   -0.137825
  13 C :    0.047168
  14 C :   -0.052783
  15 H :    0.027703
  16 H :    0.000119
  17 H :    0.128490
  18 H :    0.109513
  19 H :   -0.069391
  20 H :   -0.011491
  21 H :    0.014821
  22 H :    0.020931
Sum of atomic charges:   -0.0000000

LOEWDIN ATOMIC CHARGES
----------------------
   0 C :   -0.190401
   1 S :    0.503276
   2 C :   -0.205323
   3 C :   -0.025486
   4 C :   -0.063663
   5 C :    0.026674
   6 C :   -0.050423
   7 N :    0.283340
   8 O :   -0.202499
   9 O :   -0.220451
  10 C :    0.036062
  11 N :    0.004471
  12 C :   -0.084808
  13 C :   -0.045552
  14 C :   -0.067741
  15 H :    0.030329
  16 H :    0.042615
  17 H :    0.059922
  18 H :    0.075474
  19 H :    0.022951
  20 H :    0.027979
  21 H :    0.017114
  22 H :    0.026139

  Mayer bond orders larger than 0.100000
B(  0-C ,  1-S ) :   1.2375 B(  0-C ,  2-C ) :   0.1111 B(  0-C ,  4-C ) :   1.3459
B(  0-C , 15-H ) :   0.9668 B(  1-S ,  2-C ) :   1.1430 B(  2-C ,  3-C ) :   1.3321
B(  2-C , 13-C ) :   1.1452 B(  3-C ,  4-C ) :   1.1723 B(  3-C , 12-C ) :   1.2081
B(  4-C ,  5-C ) :   1.1511 B(  5-C ,  6-C ) :   1.4745 B(  5-C , 12-C ) :   0.1004
B(  5-C , 16-H ) :   0.9978 B(  6-C ,  7-N ) :   0.8904 B(  6-C , 10-C ) :   1.1473
B(  7-N ,  8-O ) :   1.5607 B(  7-N ,  9-O ) :   1.4589 B(  8-O ,  9-O ) :   0.2575
B( 10-C , 11-N ) :   1.3606 B( 10-C , 12-C ) :   1.3925 B( 11-N , 17-H ) :   0.9026
B( 11-N , 18-H ) :   0.9265 B( 12-C , 19-H ) :   0.9905 B( 13-C , 14-C ) :   1.8933
B( 13-C , 20-H ) :   0.9388 B( 14-C , 21-H ) :   0.9550 B( 14-C , 22-H ) :   0.9406

Dispersion correction           -0.053089508
FINAL SINGLE POINT ENERGY     -1043.374807948212

DIPOLE MOMENT
-------------
                                X             Y             Z
Electronic contribution:      0.79892       9.63877       0.43192
Nuclear contribution   :     -1.59940     -10.54734      -0.44758
                        -----------------------------------------
Total Dipole Moment    :     -0.80048      -0.90857      -0.01566
                        -----------------------------------------
Magnitude (a.u.)       :      1.21100
Magnitude (Debye)      :      3.07811

Rotational constants in cm-1:     0.035832     0.011514     0.008727
Rotational constants in MHz :  1074.210130   345.185400   261.635040

                             ****ORCA TERMINATED NORMALLY****
TOTAL RUN TIME: 0 days 0 hours 44 minutes 26 seconds 729 msec
