                         Program Version 4.2.0 -  RELEASE  -
|  1> # ORCA input file
|  2> # SCF done        -19.098388097082          0.000214805940
|  3> ! B3LYP/G D3BJ Opt RIJCOSX def2-SVP def2/J
|  4> * xyz 0 1
|  5>    C        2.70200        -0.24767         1.17074
|  6>    C        2.34008         0.03143        -0.07594
|  7>    C        3.08393        -0.31973        -1.26946
|  8>    C        2.68573         0.05140        -2.52473
|  9>    S        3.75174        -0.49312        -3.75144
| 10>    C        4.76095        -1.24279        -2.57411
| 11>    C        4.29347        -1.07332        -1.31660
| 12>    H        2.09638         0.04808         2.00985
| 13>    H        3.61060        -0.77575         1.40383
| 14>    H        1.41840         0.56920        -0.25979
| 15>    H        1.81950         0.62225        -2.79600
| 16>    H        5.64097        -1.76443        -2.89421
| 17>    H        4.78403        -1.47123        -0.44759
| 18> *
| 19>
| 20>                          ****END OF INPUT****
 Total Charge           Charge          ....    0
 Multiplicity           Mult            ....    1
 Number of Electrons    NEL             ....   58
Dispersion correction           -0.023927527
FINAL SINGLE POINT ENERGY      -630.153205677471
Dispersion correction            ... done
Dispersion correction           -0.023810202
FINAL SINGLE POINT ENERGY      -630.155484620047
Dispersion correction            ... done
Dispersion correction           -0.023794069
FINAL SINGLE POINT ENERGY      -630.155559192638
Dispersion correction            ... done
FINAL SINGLE POINT ENERGY      -630.155576078398
Dispersion correction            ... done
Dispersion correction           -0.023790300
FINAL SINGLE POINT ENERGY      -630.155580991022
Dispersion correction            ... done
Dispersion correction           -0.023792953
FINAL SINGLE POINT ENERGY      -630.155587042664
Dispersion correction            ... done
                    ***********************HURRAY********************

CARTESIAN COORDINATES (ANGSTROEM)
---------------------------------
  C      2.674175   -0.269793    1.195372
  C      2.358764    0.062509   -0.065131
  C      3.098010   -0.300969   -1.274051
  C      2.670238    0.043601   -2.541702
  S      3.727294   -0.533475   -3.777366
  C      4.777631   -1.253464   -2.600816
  C      4.326224   -1.050420   -1.325611
  H      2.049202    0.050674    2.031629
  H      3.557766   -0.865895    1.439902
  H      1.455761    0.658313   -0.239368
  H      1.771063    0.599093   -2.803564
  H      5.672608   -1.784995   -2.920701
  H      4.849045   -1.420859   -0.444043

 Multiplicity           Mult            ....    1
 Number of Electrons    NEL             ....   58
 Basis Dimension        Dim             ....  132

ORBITAL ENERGIES
----------------

  NO   OCC          E(Eh)            E(eV)
   0   2.0000     -88.874981     -2418.4112
   1   2.0000     -10.214120      -277.9403
   2   2.0000     -10.211841      -277.8783
   3   2.0000     -10.199557      -277.5441
   4   2.0000     -10.197680      -277.4930
   5   2.0000     -10.194417      -277.4042
   6   2.0000     -10.186464      -277.1878
   7   2.0000      -7.970300      -216.8829
   8   2.0000      -5.938358      -161.5909
   9   2.0000      -5.934212      -161.4781
  10   2.0000      -5.931787      -161.4121
  11   2.0000      -0.880131       -23.9496
  12   2.0000      -0.783703       -21.3256
  13   2.0000      -0.724862       -19.7245
  14   2.0000      -0.709443       -19.3049
  15   2.0000      -0.593915       -16.1612
  16   2.0000      -0.566648       -15.4193
  17   2.0000      -0.533401       -14.5146
  18   2.0000      -0.503350       -13.6968
  19   2.0000      -0.445786       -12.1305
  20   2.0000      -0.422700       -11.5023
  21   2.0000      -0.406534       -11.0624
  22   2.0000      -0.390053       -10.6139
  23   2.0000      -0.385820       -10.4987
  24   2.0000      -0.362030        -9.8513
  25   2.0000      -0.343781        -9.3548
  26   2.0000      -0.306325        -8.3355
  27   2.0000      -0.249689        -6.7944
  28   2.0000      -0.224971        -6.1218
  29   0.0000      -0.031183        -0.8485
  30   0.0000      -0.001534        -0.0417
  31   0.0000       0.045802         1.2463
  32   0.0000       0.070625         1.9218
  33   0.0000       0.077729         2.1151

MULLIKEN ATOMIC CHARGES
-----------------------
   0 C :   -0.030980
   1 C :    0.012521
   2 C :    0.064145
   3 C :   -0.134443
   4 S :    0.101812
   5 C :   -0.094270
   6 C :    0.029276
   7 H :    0.021830
   8 H :    0.011664
   9 H :   -0.019539
  10 H :    0.022061
  11 H :    0.028569
  12 H :   -0.012647
Sum of atomic charges:   -0.0000000

LOEWDIN ATOMIC CHARGES
----------------------
   0 C :   -0.055964
   1 C :   -0.020563
   2 C :   -0.068521
   3 C :   -0.191593
   4 S :    0.426656
   5 C :   -0.186520
   6 C :   -0.055772
   7 H :    0.025739
   8 H :    0.019726
   9 H :    0.028315
  10 H :    0.023981
  11 H :    0.025454
  12 H :    0.029062

  Mayer bond orders larger than 0.100000
B(  0-C ,  1-C ) :   1.9263 B(  0-C ,  7-H ) :   0.9447 B(  0-C ,  8-H ) :   0.9479
B(  1-C ,  2-C ) :   1.1056 B(  1-C ,  9-H ) :   0.9600 B(  2-C ,  3-C ) :   1.5075
B(  2-C ,  6-C ) :   1.2343 B(  3-C ,  4-S ) :   1.1645 B(  3-C , 10-H ) :   0.9655
B(  4-S ,  5-C ) :   1.1646 B(  5-C ,  6-C ) :   1.5858 B(  5-C , 11-H ) :   0.9643
B(  6-C , 12-H ) :   0.9892

Dispersion correction           -0.023793892
FINAL SINGLE POINT ENERGY      -630.155587388149

DIPOLE MOMENT
-------------
                                X             Y             Z
Electronic contribution:      1.20684      -0.15737      -7.65905
Nuclear contribution   :     -1.16711       0.12382       7.69745
                        -----------------------------------------
Total Dipole Moment    :      0.03973      -0.03355       0.03840
                        -----------------------------------------
Magnitude (a.u.)       :      0.06464
Magnitude (Debye)      :      0.16431

Rotational constants in cm-1:     0.221156     0.048369     0.039694
Rotational constants in MHz :  6630.102364  1450.068094  1189.983642

                             ****ORCA TERMINATED NORMALLY****
TOTAL RUN TIME: 0 days 0 hours 3 minutes 43 seconds 333 msec
