                         Program Version 4.2.0 -  RELEASE  -
|  1> # ORCA input file
|  2> # SCF done        -22.289252303601          0.000313143784
|  3> ! B3LYP/G D3BJ Opt RIJCOSX def2-SVP def2/J
|  4> * xyz 0 1
|  5>    C       -1.96832        -0.49507        -0.00523
|  6>    N       -1.50506         0.80964        -0.00120
|  7>    C       -0.15494         0.68248        -0.00172
|  8>    N        1.03260         1.33729        -0.00026
|  9>    C        1.97755         0.32537        -0.00316
| 10>    N        1.47930        -0.87350        -0.00620
| 11>    C        0.12967        -0.68631        -0.00555
| 12>    N       -1.03348        -1.39597        -0.00725
| 13>    H       -3.01689        -0.71394        -0.00610
| 14>    H       -2.06366         1.64631         0.00112
| 15>    H        1.21141         2.32727         0.00246
| 16>    H        3.02645         0.54261        -0.00273
| 17> *
| 18>
| 19>                          ****END OF INPUT****
 Total Charge           Charge          ....    0
 Multiplicity           Mult            ....    1
 Number of Electrons    NEL             ....   56
Dispersion correction           -0.018965042
FINAL SINGLE POINT ENERGY      -373.550579365539
Dispersion correction            ... done
Dispersion correction           -0.019065233
FINAL SINGLE POINT ENERGY      -373.552641581116
Dispersion correction            ... done
Dispersion correction           -0.019077971
FINAL SINGLE POINT ENERGY      -373.552819330553
Dispersion correction            ... done
FINAL SINGLE POINT ENERGY      -373.552862637645
Dispersion correction            ... done
Dispersion correction           -0.019070869
FINAL SINGLE POINT ENERGY      -373.552867030337
Dispersion correction            ... done
Dispersion correction           -0.019069776
FINAL SINGLE POINT ENERGY      -373.552867279667
Dispersion correction            ... done
                    ***********************HURRAY********************

CARTESIAN COORDINATES (ANGSTROEM)
---------------------------------
  C     -1.987418   -0.511408   -0.005182
  N     -1.518359    0.810588   -0.001614
  C     -0.156464    0.687320   -0.002012
  N      1.043873    1.341906   -0.000314
  C      2.000263    0.317462   -0.003174
  N      1.483970   -0.886158   -0.006326
  C      0.126268   -0.671397   -0.005637
  N     -1.032832   -1.408464   -0.007324
  H     -3.058111   -0.716916   -0.005628
  H     -2.086728    1.647112    0.001061
  H      1.237370    2.334460    0.002824
  H      3.062799    0.561675   -0.002495

 Multiplicity           Mult            ....    1
 Number of Electrons    NEL             ....   56
 Basis Dimension        Dim             ....  132

ORBITAL ENERGIES
----------------

  NO   OCC          E(Eh)            E(eV)
   0   2.0000     -14.396071      -391.7370
   1   2.0000     -14.395999      -391.7350
   2   2.0000     -14.305176      -389.2636
   3   2.0000     -14.304826      -389.2541
   4   2.0000     -10.245977      -278.8072
   5   2.0000     -10.243286      -278.7340
   6   2.0000     -10.243229      -278.7324
   7   2.0000     -10.206371      -277.7295
   8   2.0000      -1.031072       -28.0569
   9   2.0000      -0.980964       -26.6934
  10   2.0000      -0.889076       -24.1930
  11   2.0000      -0.848711       -23.0946
  12   2.0000      -0.729628       -19.8542
  13   2.0000      -0.635620       -17.2961
  14   2.0000      -0.625539       -17.0218
  15   2.0000      -0.594496       -16.1771
  16   2.0000      -0.583016       -15.8647
  17   2.0000      -0.489633       -13.3236
  18   2.0000      -0.473862       -12.8944
  19   2.0000      -0.468459       -12.7474
  20   2.0000      -0.447601       -12.1798
  21   2.0000      -0.412658       -11.2290
  22   2.0000      -0.390087       -10.6148
  23   2.0000      -0.324136        -8.8202
  24   2.0000      -0.287322        -7.8184
  25   2.0000      -0.254628        -6.9288
  26   2.0000      -0.253300        -6.8926
  27   2.0000      -0.210195        -5.7197
  28   0.0000       0.012480         0.3396
  29   0.0000       0.031859         0.8669
  30   0.0000       0.040733         1.1084
  31   0.0000       0.047549         1.2939
  32   0.0000       0.088829         2.4172

MULLIKEN ATOMIC CHARGES
-----------------------
   0 C :    0.093889
   1 N :   -0.100035
   2 C :    0.048550
   3 N :   -0.098649
   4 C :    0.092543
   5 N :   -0.108914
   6 C :   -0.086493
   7 N :   -0.111406
   8 H :    0.010460
   9 H :    0.126465
  10 H :    0.125523
  11 H :    0.008068
Sum of atomic charges:   -0.0000000

LOEWDIN ATOMIC CHARGES
----------------------
   0 C :    0.017617
   1 N :    0.039720
   2 C :   -0.028836
   3 N :    0.040188
   4 C :    0.017205
   5 N :   -0.111393
   6 C :   -0.070448
   7 N :   -0.111397
   8 H :    0.016402
   9 H :    0.087756
  10 H :    0.087375
  11 H :    0.015812

  Mayer bond orders larger than 0.100000
B(  0-C ,  1-N ) :   1.1251 B(  0-C ,  7-N ) :   1.6885 B(  0-C ,  8-H ) :   0.9763
B(  1-N ,  2-C ) :   1.2076 B(  1-N ,  9-H ) :   0.9368 B(  2-C ,  3-N ) :   1.2085
B(  2-C ,  6-C ) :   1.3246 B(  3-N ,  4-C ) :   1.1254 B(  3-N , 10-H ) :   0.9371
B(  4-C ,  5-N ) :   1.6938 B(  4-C , 11-H ) :   0.9766 B(  5-N ,  6-C ) :   1.3574
B(  6-C ,  7-N ) :   1.3606

Dispersion correction           -0.019070702
FINAL SINGLE POINT ENERGY      -373.552867099329

DIPOLE MOMENT
-------------
                                X             Y             Z
Electronic contribution:      0.17380      -0.86490      -0.00257
Nuclear contribution   :     -0.74415       3.59849       0.01042
                        -----------------------------------------
Total Dipole Moment    :     -0.57036       2.73359       0.00785
                        -----------------------------------------
Magnitude (a.u.)       :      2.79247
Magnitude (Debye)      :      7.09789

Rotational constants in cm-1:     0.182294     0.076848     0.054059
Rotational constants in MHz :  5465.041007  2303.831671  1620.638563

                             ****ORCA TERMINATED NORMALLY****
TOTAL RUN TIME: 0 days 0 hours 3 minutes 3 seconds 680 msec
