                         Program Version 4.2.0 -  RELEASE  -
|  1> # ORCA input file
|  2> # SCF done        -43.006719452084          0.000542943733
|  3> ! B3LYP/G D3BJ Opt RIJCOSX def2-SVP def2/J
|  4> * xyz 0 1
|  5>    C        1.36465         0.34198        -0.15270
|  6>    C        0.53238         1.30258         0.40131
|  7>    O        0.88565         2.59408         0.66629
|  8>    C        2.16863         3.03721         0.28141
|  9>    C        2.26005         4.52928         0.58459
| 10>    C        3.60862         5.10080         0.16899
| 11>    C       -0.78014         0.94911         0.72474
| 12>    C       -1.24190        -0.32320         0.48717
| 13>    C       -0.40835        -1.28911        -0.08269
| 14>    C        0.89799        -0.94374        -0.39291
| 15>    O       -0.97091        -2.51551        -0.28808
| 16>    C       -0.19925        -3.51969        -0.91112
| 17>    C       -1.08702        -4.74712        -1.08902
| 18>    C       -0.33631        -5.88648        -1.76413
| 19>    H        2.38771         0.57084        -0.40690
| 20>    H        2.32426         2.86420        -0.79342
| 21>    H        2.94518         2.49217         0.83801
| 22>    H        2.10022         4.67828         1.65336
| 23>    H        1.45555         5.03980         0.05315
| 24>    H        4.41609         4.60477         0.70304
| 25>    H        3.65249         6.16389         0.39001
| 26>    H        3.76935         4.96471        -0.89831
| 27>    H       -1.42025         1.69918         1.16111
| 28>    H       -2.25494        -0.60041         0.73135
| 29>    H        1.57694        -1.66226        -0.82471
| 30>    H        0.67256        -3.77228        -0.28996
| 31>    H        0.15954        -3.17171        -1.89057
| 32>    H       -1.95482        -4.46268        -1.68604
| 33>    H       -1.44648        -5.06119        -0.10808
| 34>    H        0.02526        -5.57996        -2.74332
| 35>    H       -0.99033        -6.74484        -1.89301
| 36>    H        0.51781        -6.19202        -1.16372
| 37> *
| 38>
| 39>                          ****END OF INPUT****
 Total Charge           Charge          ....    0
 Multiplicity           Mult            ....    1
 Number of Electrons    NEL             ....  106
Dispersion correction           -0.050681765
FINAL SINGLE POINT ENERGY      -618.158151919475
Dispersion correction            ... done
Dispersion correction           -0.050412349
FINAL SINGLE POINT ENERGY      -618.160881659883
Dispersion correction            ... done
Dispersion correction           -0.050377579
FINAL SINGLE POINT ENERGY      -618.160805546279
Dispersion correction            ... done
FINAL SINGLE POINT ENERGY      -618.160285869616
FINAL SINGLE POINT ENERGY      -618.160052655787
FINAL SINGLE POINT ENERGY      -618.160073328156
FINAL SINGLE POINT ENERGY      -618.160122952714
Dispersion correction            ... done
Dispersion correction           -0.050407933
FINAL SINGLE POINT ENERGY      -618.160133837739
Dispersion correction            ... done
Dispersion correction           -0.050406398
FINAL SINGLE POINT ENERGY      -618.160132091726
Dispersion correction            ... done
                    ***********************HURRAY********************

CARTESIAN COORDINATES (ANGSTROEM)
---------------------------------
  C      1.198060    0.503548   -0.573479
  C      0.459007    1.368444    0.239279
  O      0.832585    2.638730    0.556274
  C      2.131335    3.078139    0.216456
  C      2.294968    4.515365    0.681761
  C      3.716370    5.021618    0.448299
  C     -0.759465    0.920633    0.781724
  C     -1.227123   -0.355934    0.505970
  C     -0.490959   -1.225128   -0.319998
  C      0.723761   -0.787228   -0.853730
  O     -1.034207   -2.452789   -0.540997
  C     -0.229233   -3.487674   -1.069409
  C     -1.047943   -4.768622   -1.034879
  C     -0.249294   -6.007273   -1.431613
  H      2.148574    0.816226   -1.003718
  H      2.295437    3.015761   -0.877232
  H      2.887361    2.424237    0.693353
  H      2.031184    4.573492    1.751240
  H      1.562696    5.144131    0.148804
  H      4.449139    4.427186    1.016837
  H      3.825577    6.070704    0.762979
  H      3.995069    4.958462   -0.617173
  H     -1.322895    1.600130    1.424691
  H     -2.166878   -0.715589    0.928961
  H      1.319403   -1.438138   -1.494157
  H      0.692126   -3.593216   -0.464318
  H      0.087617   -3.254224   -2.105182
  H     -1.923653   -4.640652   -1.692532
  H     -1.446259   -4.883812   -0.013229
  H      0.138844   -5.936095   -2.461739
  H     -0.874972   -6.911402   -1.373628
  H      0.613999   -6.158349   -0.763776

 Multiplicity           Mult            ....    1
 Number of Electrons    NEL             ....  106
 Basis Dimension        Dim             ....  286

ORBITAL ENERGIES
----------------

  NO   OCC          E(Eh)            E(eV)
   0   2.0000     -19.154434      -521.2186
   1   2.0000     -19.153101      -521.1824
   2   2.0000     -10.239475      -278.6303
   3   2.0000     -10.239242      -278.6239
   4   2.0000     -10.237430      -278.5746
   5   2.0000     -10.236909      -278.5604
   6   2.0000     -10.188022      -277.2302
   7   2.0000     -10.187298      -277.2105
   8   2.0000     -10.186560      -277.1904
   9   2.0000     -10.186408      -277.1863
  10   2.0000     -10.185750      -277.1683
  11   2.0000     -10.185228      -277.1541
  12   2.0000     -10.182875      -277.0901
  13   2.0000     -10.182240      -277.0728
  14   2.0000      -1.050714       -28.5914
  15   2.0000      -1.049534       -28.5593
  16   2.0000      -0.840864       -22.8811
  17   2.0000      -0.791575       -21.5398
  18   2.0000      -0.780916       -21.2498
  19   2.0000      -0.739483       -20.1224
  20   2.0000      -0.729162       -19.8415
  21   2.0000      -0.688180       -18.7263
  22   2.0000      -0.663644       -18.0587
  23   2.0000      -0.618560       -16.8319
  24   2.0000      -0.597098       -16.2479
  25   2.0000      -0.577300       -15.7091
  26   2.0000      -0.575515       -15.6606
  27   2.0000      -0.539572       -14.6825
  28   2.0000      -0.520534       -14.1644
  29   2.0000      -0.491101       -13.3635
  30   2.0000      -0.488366       -13.2891
  31   2.0000      -0.484910       -13.1951
  32   2.0000      -0.443835       -12.0774
  33   2.0000      -0.437056       -11.8929
  34   2.0000      -0.430809       -11.7229
  35   2.0000      -0.426919       -11.6171
  36   2.0000      -0.422739       -11.5033
  37   2.0000      -0.415536       -11.3073
  38   2.0000      -0.407117       -11.0782
  39   2.0000      -0.388588       -10.5740
  40   2.0000      -0.379375       -10.3233
  41   2.0000      -0.370927       -10.0934
  42   2.0000      -0.369534       -10.0555
  43   2.0000      -0.359076        -9.7709
  44   2.0000      -0.355363        -9.6699
  45   2.0000      -0.347397        -9.4532
  46   2.0000      -0.338992        -9.2244
  47   2.0000      -0.329087        -8.9549
  48   2.0000      -0.328075        -8.9274
  49   2.0000      -0.313582        -8.5330
  50   2.0000      -0.287295        -7.8177
  51   2.0000      -0.252984        -6.8841
  52   2.0000      -0.200812        -5.4644
  53   0.0000      -0.007232        -0.1968
  54   0.0000       0.021251         0.5783
  55   0.0000       0.052252         1.4218
  56   0.0000       0.053672         1.4605
  57   0.0000       0.072013         1.9596

MULLIKEN ATOMIC CHARGES
-----------------------
   0 C :   -0.077340
   1 C :    0.237368
   2 O :   -0.315074
   3 C :    0.176531
   4 C :    0.012130
   5 C :   -0.018527
   6 C :   -0.026251
   7 C :   -0.012859
   8 C :    0.235373
   9 C :   -0.088512
  10 O :   -0.320232
  11 C :    0.187741
  12 C :    0.007637
  13 C :   -0.015700
  14 H :   -0.033183
  15 H :    0.003785
  16 H :   -0.005011
  17 H :    0.012698
  18 H :    0.012914
  19 H :    0.012733
  20 H :    0.017754
  21 H :    0.011691
  22 H :   -0.021328
  23 H :   -0.025495
  24 H :   -0.027536
  25 H :   -0.005166
  26 H :    0.001218
  27 H :    0.014098
  28 H :    0.007615
  29 H :    0.009100
  30 H :    0.018747
  31 H :    0.013078
Sum of atomic charges:   -0.0000000

LOEWDIN ATOMIC CHARGES
----------------------
   0 C :   -0.069057
   1 C :    0.036500
   2 O :   -0.106239
   3 C :    0.083943
   4 C :   -0.042512
   5 C :   -0.055137
   6 C :   -0.038913
   7 C :   -0.035999
   8 C :    0.035266
   9 C :   -0.069758
  10 O :   -0.107450
  11 C :    0.085674
  12 C :   -0.042653
  13 C :   -0.055493
  14 H :    0.024771
  15 H :    0.006723
  16 H :    0.006771
  17 H :    0.025304
  18 H :    0.025505
  19 H :    0.022300
  20 H :    0.027206
  21 H :    0.021438
  22 H :    0.031333
  23 H :    0.030648
  24 H :    0.025734
  25 H :    0.006674
  26 H :    0.006218
  27 H :    0.025516
  28 H :    0.025040
  29 H :    0.021211
  30 H :    0.027518
  31 H :    0.021918

  Mayer bond orders larger than 0.100000
B(  0-C ,  1-C ) :   1.3337 B(  0-C ,  9-C ) :   1.2965 B(  0-C , 14-H ) :   0.9881
B(  1-C ,  2-O ) :   1.1056 B(  1-C ,  6-C ) :   1.3370 B(  2-O ,  3-C ) :   0.9720
B(  3-C ,  4-C ) :   1.0719 B(  3-C , 15-H ) :   0.9391 B(  3-C , 16-H ) :   0.9422
B(  4-C ,  5-C ) :   1.0884 B(  4-C , 17-H ) :   0.9420 B(  4-C , 18-H ) :   0.9405
B(  5-C , 19-H ) :   0.9701 B(  5-C , 20-H ) :   0.9657 B(  5-C , 21-H ) :   0.9725
B(  6-C ,  7-C ) :   1.3937 B(  6-C , 22-H ) :   0.9899 B(  7-C ,  8-C ) :   1.3323
B(  7-C , 23-H ) :   0.9901 B(  8-C ,  9-C ) :   1.3440 B(  8-C , 10-O ) :   1.1018
B(  9-C , 24-H ) :   0.9876 B( 10-O , 11-C ) :   0.9685 B( 11-C , 12-C ) :   1.0740
B( 11-C , 25-H ) :   0.9410 B( 11-C , 26-H ) :   0.9383 B( 12-C , 13-C ) :   1.0903
B( 12-C , 27-H ) :   0.9438 B( 12-C , 28-H ) :   0.9403 B( 13-C , 29-H ) :   0.9702
B( 13-C , 30-H ) :   0.9673 B( 13-C , 31-H ) :   0.9711

Dispersion correction           -0.050406017
FINAL SINGLE POINT ENERGY      -618.160129816955

DIPOLE MOMENT
-------------
                                X             Y             Z
Electronic contribution:     -8.30140       2.59765       2.45725
Nuclear contribution   :      9.03221      -2.80381      -2.72221
                        -----------------------------------------
Total Dipole Moment    :      0.73081      -0.20616      -0.26496
                        -----------------------------------------
Magnitude (a.u.)       :      0.80423
Magnitude (Debye)      :      2.04419

Rotational constants in cm-1:     0.080225     0.006813     0.006354
Rotational constants in MHz :  2405.082149   204.234370   190.490673

                             ****ORCA TERMINATED NORMALLY****
TOTAL RUN TIME: 0 days 0 hours 19 minutes 55 seconds 667 msec
