                         Program Version 4.2.0 -  RELEASE  -
|  1> # ORCA input file
|  2> # SCF done        -48.907606930870          0.000430579215
|  3> ! B3LYP/G D3BJ Opt RIJCOSX def2-SVP def2/J
|  4> * xyz 0 1
|  5>    C       -3.21752        -0.93599         0.10976
|  6>    S       -1.84686        -1.98882         0.14566
|  7>    C       -2.89105         0.37171         0.03700
|  8>    C       -1.48189         0.59889         0.00569
|  9>    C       -0.78546         1.83177        -0.06283
| 10>    C       -1.61955         3.08548        -0.09142
| 11>    C       -2.05330         3.49504         1.31737
| 12>    C        0.59596         1.83351        -0.07172
| 13>    C        1.42797         3.08837        -0.08905
| 14>    C        1.94747         3.42427         1.31079
| 15>    C       -0.78414        -0.61778         0.05954
| 16>    C        0.60139        -0.61792         0.04037
| 17>    S        1.66433        -1.98489         0.09312
| 18>    C        1.29760         0.60106        -0.02742
| 19>    C        2.70115         0.38249        -0.04083
| 20>    C        3.06127        -0.93124         0.01729
| 21>    C        4.37286        -1.52670         0.02593
| 22>    C        5.52204        -0.86109        -0.05450
| 23>    H       -4.19788        -1.36950         0.14688
| 24>    H       -3.63097         1.15059         0.00926
| 25>    H       -2.50579         2.90961        -0.70379
| 26>    H       -1.07271         3.90872        -0.54961
| 27>    H       -2.60452         2.68956         1.79713
| 28>    H       -2.68923         4.37673         1.27664
| 29>    H       -1.18586         3.72407         1.93128
| 30>    H        0.85490         3.93469        -0.46450
| 31>    H        2.27479         2.94667        -0.76364
| 32>    H        1.11868         3.60662         1.99040
| 33>    H        2.57002         4.31586         1.27921
| 34>    H        2.53591         2.60206         1.71091
| 35>    H        3.42807         1.17129        -0.09378
| 36>    H        4.38155        -2.60648         0.10366
| 37>    H        5.56135         0.21167        -0.13614
| 38>    H        6.46681        -1.37496        -0.04193
| 39> *
| 40>
| 41>                          ****END OF INPUT****
 Total Charge           Charge          ....    0
 Multiplicity           Mult            ....    1
 Number of Electrons    NEL             ....  144
Dispersion correction           -0.084189265
FINAL SINGLE POINT ENERGY     -1415.134746918423
Dispersion correction            ... done
Dispersion correction           -0.083429502
FINAL SINGLE POINT ENERGY     -1415.139832322652
Dispersion correction            ... done
Dispersion correction           -0.083267365
FINAL SINGLE POINT ENERGY     -1415.139992417989
Dispersion correction            ... done
FINAL SINGLE POINT ENERGY     -1415.139995298612
Dispersion correction            ... done
Dispersion correction           -0.083193776
FINAL SINGLE POINT ENERGY     -1415.140008234974
Dispersion correction            ... done
Dispersion correction           -0.083200372
FINAL SINGLE POINT ENERGY     -1415.140016469905
Dispersion correction            ... done
                    ***********************HURRAY********************

CARTESIAN COORDINATES (ANGSTROEM)
---------------------------------
  C     -3.248006   -0.978691    0.084065
  S     -1.854315   -2.027453    0.109535
  C     -2.917772    0.343698    0.028252
  C     -1.493187    0.577048    0.004196
  C     -0.794229    1.825779   -0.051758
  C     -1.623503    3.093885   -0.049676
  C     -2.067357    3.530558    1.355625
  C      0.602725    1.830441   -0.069180
  C      1.421329    3.104497   -0.086809
  C      1.892583    3.544729    1.308295
  C     -0.787376   -0.646596    0.045681
  C      0.612096   -0.643342    0.027844
  S      1.685300   -2.013115    0.063698
  C      1.312572    0.585375   -0.031093
  C      2.732686    0.364224   -0.044903
  C      3.096676   -0.961370   -0.001390
  C      4.413646   -1.583729   -0.002847
  C      5.596800   -0.951385   -0.059645
  H     -4.245006   -1.416107    0.111649
  H     -3.667311    1.133842    0.003927
  H     -2.516064    2.936549   -0.676063
  H     -1.071024    3.914867   -0.527700
  H     -2.631315    2.731001    1.861009
  H     -2.709798    4.424432    1.310013
  H     -1.199632    3.770948    1.987924
  H      0.851200    3.920940   -0.551779
  H      2.300803    2.954316   -0.733124
  H      1.036995    3.774876    1.960767
  H      2.523902    4.445620    1.248633
  H      2.476607    2.750838    1.799520
  H      3.468998    1.166234   -0.088763
  H      4.410673   -2.678407    0.049615
  H      5.676928    0.138102   -0.115408
  H      6.530764   -1.517242   -0.053381

 Multiplicity           Mult            ....    1
 Number of Electrons    NEL             ....  144
 Basis Dimension        Dim             ....  340

ORBITAL ENERGIES
----------------

  NO   OCC          E(Eh)            E(eV)
   0   2.0000     -88.872258     -2418.3371
   1   2.0000     -88.871036     -2418.3038
   2   2.0000     -10.221868      -278.1512
   3   2.0000     -10.219952      -278.0990
   4   2.0000     -10.219073      -278.0751
   5   2.0000     -10.216910      -278.0163
   6   2.0000     -10.207034      -277.7475
   7   2.0000     -10.198709      -277.5210
   8   2.0000     -10.197649      -277.4921
   9   2.0000     -10.196365      -277.4572
  10   2.0000     -10.196232      -277.4536
  11   2.0000     -10.195836      -277.4428
  12   2.0000     -10.194875      -277.4166
  13   2.0000     -10.194001      -277.3929
  14   2.0000     -10.191878      -277.3351
  15   2.0000     -10.191657      -277.3291
  16   2.0000     -10.184397      -277.1315
  17   2.0000     -10.184169      -277.1253
  18   2.0000      -7.967082      -216.7953
  19   2.0000      -7.965990      -216.7656
  20   2.0000      -5.935484      -161.5127
  21   2.0000      -5.934235      -161.4788
  22   2.0000      -5.931442      -161.4027
  23   2.0000      -5.930495      -161.3770
  24   2.0000      -5.927819      -161.3042
  25   2.0000      -5.926687      -161.2733
  26   2.0000      -0.899956       -24.4891
  27   2.0000      -0.869911       -23.6715
  28   2.0000      -0.828883       -22.5551
  29   2.0000      -0.791403       -21.5352
  30   2.0000      -0.774161       -21.0660
  31   2.0000      -0.754691       -20.5362
  32   2.0000      -0.743778       -20.2392
  33   2.0000      -0.728630       -19.8270
  34   2.0000      -0.694823       -18.9071
  35   2.0000      -0.690024       -18.7765
  36   2.0000      -0.636867       -17.3300
  37   2.0000      -0.620970       -16.8974
  38   2.0000      -0.610350       -16.6085
  39   2.0000      -0.583145       -15.8682
  40   2.0000      -0.557582       -15.1726
  41   2.0000      -0.547088       -14.8870
  42   2.0000      -0.533862       -14.5271
  43   2.0000      -0.513435       -13.9713
  44   2.0000      -0.485126       -13.2009
  45   2.0000      -0.461540       -12.5591
  46   2.0000      -0.459448       -12.5022
  47   2.0000      -0.450363       -12.2550
  48   2.0000      -0.444206       -12.0875
  49   2.0000      -0.426646       -11.6096
  50   2.0000      -0.425588       -11.5808
  51   2.0000      -0.420400       -11.4397
  52   2.0000      -0.415059       -11.2943
  53   2.0000      -0.409019       -11.1300
  54   2.0000      -0.396811       -10.7978
  55   2.0000      -0.386208       -10.5093
  56   2.0000      -0.382340       -10.4040
  57   2.0000      -0.375759       -10.2249
  58   2.0000      -0.369888       -10.0652
  59   2.0000      -0.367705       -10.0058
  60   2.0000      -0.363846        -9.9008
  61   2.0000      -0.354213        -9.6386
  62   2.0000      -0.349962        -9.5229
  63   2.0000      -0.341708        -9.2984
  64   2.0000      -0.338236        -9.2039
  65   2.0000      -0.321200        -8.7403
  66   2.0000      -0.318475        -8.6662
  67   2.0000      -0.294288        -8.0080
  68   2.0000      -0.264987        -7.2107
  69   2.0000      -0.259460        -7.0603
  70   2.0000      -0.214675        -5.8416
  71   2.0000      -0.204996        -5.5782
  72   0.0000      -0.058602        -1.5946
  73   0.0000      -0.019832        -0.5396
  74   0.0000       0.000598         0.0163
  75   0.0000       0.009471         0.2577
  76   0.0000       0.038796         1.0557

MULLIKEN ATOMIC CHARGES
-----------------------
   0 C :   -0.060328
   1 S :    0.109515
   2 C :   -0.001756
   3 C :    0.066034
   4 C :   -0.090136
   5 C :    0.056570
   6 C :    0.017497
   7 C :   -0.098085
   8 C :    0.061269
   9 C :    0.017528
  10 C :   -0.132887
  11 C :   -0.121292
  12 S :    0.115787
  13 C :    0.080869
  14 C :   -0.051270
  15 C :   -0.065271
  16 C :    0.042475
  17 C :   -0.029003
  18 H :    0.024649
  19 H :   -0.012292
  20 H :    0.001164
  21 H :   -0.007984
  22 H :    0.015226
  23 H :    0.014082
  24 H :    0.005434
  25 H :   -0.008326
  26 H :    0.001108
  27 H :    0.005220
  28 H :    0.013539
  29 H :    0.016017
  30 H :   -0.023276
  31 H :   -0.006606
  32 H :    0.019541
  33 H :    0.024989
Sum of atomic charges:    0.0000000

LOEWDIN ATOMIC CHARGES
----------------------
   0 C :   -0.172217
   1 S :    0.397681
   2 C :   -0.064092
   3 C :   -0.046886
   4 C :   -0.023226
   5 C :   -0.027328
   6 C :   -0.051025
   7 C :   -0.024824
   8 C :   -0.027580
   9 C :   -0.051099
  10 C :   -0.181322
  11 C :   -0.178938
  12 S :    0.402301
  13 C :   -0.042646
  14 C :   -0.055970
  15 C :   -0.161289
  16 C :   -0.042705
  17 C :   -0.044010
  18 H :    0.025689
  19 H :    0.029473
  20 H :    0.025069
  21 H :    0.023790
  22 H :    0.023398
  23 H :    0.023416
  24 H :    0.020935
  25 H :    0.023798
  26 H :    0.025039
  27 H :    0.020957
  28 H :    0.023249
  29 H :    0.023568
  30 H :    0.027230
  31 H :    0.029044
  32 H :    0.022701
  33 H :    0.027819

  Mayer bond orders larger than 0.100000
B(  0-C ,  1-S ) :   1.1114 B(  0-C ,  2-C ) :   1.6032 B(  0-C , 18-H ) :   0.9635
B(  1-S , 10-C ) :   1.0756 B(  2-C ,  3-C ) :   1.1988 B(  2-C , 19-H ) :   0.9794
B(  3-C ,  4-C ) :   1.2332 B(  3-C , 10-C ) :   1.3553 B(  4-C ,  5-C ) :   1.0889
B(  4-C ,  7-C ) :   1.5078 B(  5-C ,  6-C ) :   1.1122 B(  5-C , 20-H ) :   0.9096
B(  5-C , 21-H ) :   0.9149 B(  6-C , 22-H ) :   0.9649 B(  6-C , 23-H ) :   0.9609
B(  6-C , 24-H ) :   0.9609 B(  7-C ,  8-C ) :   1.0909 B(  7-C , 13-C ) :   1.2221
B(  8-C ,  9-C ) :   1.1132 B(  8-C , 25-H ) :   0.9139 B(  8-C , 26-H ) :   0.9074
B(  9-C , 27-H ) :   0.9605 B(  9-C , 28-H ) :   0.9607 B(  9-C , 29-H ) :   0.9647
B( 10-C , 11-C ) :   1.3848 B( 11-C , 12-S ) :   1.0719 B( 11-C , 13-C ) :   1.3474
B( 12-S , 15-C ) :   1.0719 B( 13-C , 14-C ) :   1.2036 B( 14-C , 15-C ) :   1.5547
B( 14-C , 30-H ) :   0.9777 B( 15-C , 16-C ) :   1.0948 B( 16-C , 17-C ) :   1.9286
B( 16-C , 31-H ) :   0.9494 B( 17-C , 32-H ) :   0.9515 B( 17-C , 33-H ) :   0.9449

Dispersion correction           -0.083203797
FINAL SINGLE POINT ENERGY     -1415.140016479703

DIPOLE MOMENT
-------------
                                X             Y             Z
Electronic contribution:     -4.52311     -26.72256      -4.75080
Nuclear contribution   :      4.45428      27.28282       4.76859
                        -----------------------------------------
Total Dipole Moment    :     -0.06883       0.56026       0.01779
                        -----------------------------------------
Magnitude (a.u.)       :      0.56475
Magnitude (Debye)      :      1.43548

Rotational constants in cm-1:     0.015628     0.009818     0.006227
Rotational constants in MHz :   468.508960   294.333915   186.687611

                             ****ORCA TERMINATED NORMALLY****
TOTAL RUN TIME: 0 days 0 hours 23 minutes 56 seconds 636 msec
