                         Program Version 4.2.0 -  RELEASE  -
|  1> # ORCA input file
|  2> # SCF done        -32.461650830635          0.000693008193
|  3> ! B3LYP/G D3BJ Opt RIJCOSX def2-SVP def2/J
|  4> * xyz 0 1
|  5>    C        0.88462         1.54170         0.16250
|  6>    S        2.33506         0.60243         0.12368
|  7>    C        1.50074        -0.92451        -0.06810
|  8>    C        0.16110        -0.65872        -0.09397
|  9>    C       -0.17696         0.71083         0.03440
| 10>    O       -1.53618         0.80852        -0.00896
| 11>    C       -2.02033        -0.45656        -0.15831
| 12>    O       -3.16925        -0.73244        -0.23170
| 13>    O       -1.00437        -1.36088        -0.21215
| 14>    C        2.21678        -2.16786        -0.16968
| 15>    C        1.61721        -3.34509        -0.32589
| 16>    H        0.92152         2.60441         0.27355
| 17>    H        3.29246        -2.08609        -0.10898
| 18>    H        0.54514        -3.42672        -0.38532
| 19>    H        2.18367        -4.25612        -0.39945
| 20> *
| 21>
| 22>                          ****END OF INPUT****
 Total Charge           Charge          ....    0
 Multiplicity           Mult            ....    1
 Number of Electrons    NEL             ....   86
Dispersion correction           -0.030333512
FINAL SINGLE POINT ENERGY      -892.528361232705
Dispersion correction            ... done
Dispersion correction           -0.030248881
FINAL SINGLE POINT ENERGY      -892.530679634194
Dispersion correction            ... done
Dispersion correction           -0.030224608
FINAL SINGLE POINT ENERGY      -892.530889650639
Dispersion correction            ... done
FINAL SINGLE POINT ENERGY      -892.530880737015
FINAL SINGLE POINT ENERGY      -892.530954569543
Dispersion correction            ... done
Dispersion correction           -0.030222453
FINAL SINGLE POINT ENERGY      -892.530968429846
Dispersion correction            ... done
Dispersion correction           -0.030219636
FINAL SINGLE POINT ENERGY      -892.530969830298
Dispersion correction            ... done
                    ***********************HURRAY********************

CARTESIAN COORDINATES (ANGSTROEM)
---------------------------------
  C      0.883658    1.566766    0.178297
  S      2.344747    0.612340    0.118258
  C      1.494892   -0.921757   -0.092690
  C      0.153987   -0.633252   -0.112246
  C     -0.179865    0.724789    0.039711
  O     -1.546587    0.830428    0.007269
  C     -2.055241   -0.442685   -0.168496
  O     -3.201873   -0.718791   -0.245813
  O     -1.010576   -1.345924   -0.240202
  C      2.214581   -2.179060   -0.190086
  C      1.635747   -3.385607   -0.307664
  H      0.920168    2.644000    0.317619
  H      3.306442   -2.103979   -0.154602
  H      0.549220   -3.503019   -0.345297
  H      2.241911   -4.291348   -0.372438

 Multiplicity           Mult            ....    1
 Number of Electrons    NEL             ....   86
 Basis Dimension        Dim             ....  178

ORBITAL ENERGIES
----------------

  NO   OCC          E(Eh)            E(eV)
   0   2.0000     -88.900417     -2419.1033
   1   2.0000     -19.232812      -523.3514
   2   2.0000     -19.231461      -523.3147
   3   2.0000     -19.153348      -521.1891
   4   2.0000     -10.389278      -282.7066
   5   2.0000     -10.278690      -279.6974
   6   2.0000     -10.274537      -279.5844
   7   2.0000     -10.248287      -278.8701
   8   2.0000     -10.243103      -278.7290
   9   2.0000     -10.222794      -278.1764
  10   2.0000     -10.205765      -277.7130
  11   2.0000      -7.994685      -217.5464
  12   2.0000      -5.963110      -162.2645
  13   2.0000      -5.959203      -162.1582
  14   2.0000      -5.955232      -162.0501
  15   2.0000      -1.189695       -32.3733
  16   2.0000      -1.079481       -29.3742
  17   2.0000      -1.067326       -29.0434
  18   2.0000      -0.909947       -24.7609
  19   2.0000      -0.806655       -21.9502
  20   2.0000      -0.762878       -20.7590
  21   2.0000      -0.737927       -20.0800
  22   2.0000      -0.660115       -17.9626
  23   2.0000      -0.656109       -17.8536
  24   2.0000      -0.626277       -17.0419
  25   2.0000      -0.593739       -16.1565
  26   2.0000      -0.538919       -14.6647
  27   2.0000      -0.532153       -14.4806
  28   2.0000      -0.498507       -13.5651
  29   2.0000      -0.480436       -13.0733
  30   2.0000      -0.472130       -12.8473
  31   2.0000      -0.427897       -11.6437
  32   2.0000      -0.426858       -11.6154
  33   2.0000      -0.421899       -11.4805
  34   2.0000      -0.421554       -11.4711
  35   2.0000      -0.411872       -11.2076
  36   2.0000      -0.380265       -10.3475
  37   2.0000      -0.376851       -10.2546
  38   2.0000      -0.364258        -9.9120
  39   2.0000      -0.332062        -9.0359
  40   2.0000      -0.321286        -8.7426
  41   2.0000      -0.258714        -7.0400
  42   2.0000      -0.238770        -6.4973
  43   0.0000      -0.066197        -1.8013
  44   0.0000       0.000007         0.0002
  45   0.0000       0.003532         0.0961
  46   0.0000       0.018696         0.5087
  47   0.0000       0.053884         1.4663

MULLIKEN ATOMIC CHARGES
-----------------------
   0 C :   -0.185301
   1 S :    0.114461
   2 C :   -0.181030
   3 C :    0.165040
   4 C :    0.234540
   5 O :   -0.232827
   6 C :    0.324398
   7 O :   -0.132578
   8 O :   -0.239277
   9 C :    0.044206
  10 C :   -0.024668
  11 H :    0.046076
  12 H :   -0.005726
  13 H :    0.041595
  14 H :    0.031091
Sum of atomic charges:    0.0000000

LOEWDIN ATOMIC CHARGES
----------------------
   0 C :   -0.206936
   1 S :    0.442508
   2 C :   -0.191404
   3 C :   -0.009983
   4 C :   -0.008997
   5 O :   -0.045056
   6 C :    0.121077
   7 O :   -0.112810
   8 O :   -0.044746
   9 C :   -0.044242
  10 C :   -0.030988
  11 H :    0.037875
  12 H :    0.032431
  13 H :    0.030386
  14 H :    0.030886

  Mayer bond orders larger than 0.100000
B(  0-C ,  1-S ) :   1.1163 B(  0-C ,  2-C ) :   0.1004 B(  0-C ,  4-C ) :   1.5108
B(  0-C , 11-H ) :   0.9852 B(  1-S ,  2-C ) :   1.1024 B(  2-C ,  3-C ) :   1.5057
B(  2-C ,  9-C ) :   1.1175 B(  3-C ,  4-C ) :   1.2482 B(  3-C ,  8-O ) :   1.0570
B(  4-C ,  5-O ) :   1.0533 B(  5-O ,  6-C ) :   1.0505 B(  6-C ,  7-O ) :   2.2358
B(  6-C ,  8-O ) :   1.0452 B(  9-C , 10-C ) :   1.9192 B(  9-C , 12-H ) :   0.9474
B( 10-C , 13-H ) :   0.9505 B( 10-C , 14-H ) :   0.9433

Dispersion correction           -0.030218854
FINAL SINGLE POINT ENERGY      -892.530969942574

DIPOLE MOMENT
-------------
                                X             Y             Z
Electronic contribution:     -4.12463       5.49860       0.35329
Nuclear contribution   :      5.53619      -5.25685      -0.25593
                        -----------------------------------------
Total Dipole Moment    :      1.41156       0.24175       0.09736
                        -----------------------------------------
Magnitude (a.u.)       :      1.43542
Magnitude (Debye)      :      3.64854

Rotational constants in cm-1:     0.052506     0.028789     0.018595
Rotational constants in MHz :  1574.075385   863.076122   557.472522

                             ****ORCA TERMINATED NORMALLY****
TOTAL RUN TIME: 0 days 0 hours 6 minutes 26 seconds 693 msec
