                         Program Version 4.2.0 -  RELEASE  -
|  1> # ORCA input file
|  2> # SCF done        -42.590671125962          0.000677728841
|  3> ! B3LYP/G D3BJ Opt RIJCOSX def2-SVP def2/J
|  4> * xyz 0 1
|  5>    C       -1.43519         1.11268        -0.40558
|  6>    S       -2.49313        -0.21681        -0.51253
|  7>    C       -1.24485        -1.35165        -0.14111
|  8>    C       -0.02374        -0.69870         0.02521
|  9>    C       -0.14931         0.73264        -0.10442
| 10>    C        1.00196         1.55183         0.10485
| 11>    N        0.95221         2.96014        -0.00406
| 12>    O       -0.10570         3.49124        -0.30843
| 13>    O        1.97861         3.58674         0.21117
| 14>    C        2.20314         0.95285         0.42504
| 15>    C        2.33638        -0.42681         0.48221
| 16>    C        1.26342        -1.27485         0.24685
| 17>    N        1.44673        -2.62502         0.25633
| 18>    C       -1.58326        -2.74056         0.04339
| 19>    C       -2.64089        -3.33522        -0.50442
| 20>    H       -1.80631         2.10505        -0.55677
| 21>    H        3.06004         1.58643         0.59669
| 22>    H        3.30562        -0.85681         0.68525
| 23>    H        2.39970        -2.95038         0.27986
| 24>    H        0.79688        -3.19936        -0.25226
| 25>    H       -0.94767        -3.29604         0.72156
| 26>    H       -3.30200        -2.80760        -1.17132
| 27>    H       -2.87516        -4.36529        -0.30296
| 28> *
| 29>
| 30>                          ****END OF INPUT****
 Total Charge           Charge          ....    0
 Multiplicity           Mult            ....    1
 Number of Electrons    NEL             ....  114
Dispersion correction           -0.054707302
FINAL SINGLE POINT ENERGY     -1043.374956915339
Dispersion correction            ... done
Dispersion correction           -0.054361922
FINAL SINGLE POINT ENERGY     -1043.378793793190
Dispersion correction            ... done
Dispersion correction           -0.054219252
FINAL SINGLE POINT ENERGY     -1043.378656757332
Dispersion correction            ... done
FINAL SINGLE POINT ENERGY     -1043.378825265580
FINAL SINGLE POINT ENERGY     -1043.378561938202
FINAL SINGLE POINT ENERGY     -1043.379172001332
FINAL SINGLE POINT ENERGY     -1043.379169052964
FINAL SINGLE POINT ENERGY     -1043.379148967433
Dispersion correction            ... done
Dispersion correction           -0.054319674
FINAL SINGLE POINT ENERGY     -1043.379138646801
Dispersion correction            ... done
Dispersion correction           -0.054322282
FINAL SINGLE POINT ENERGY     -1043.379133738677
Dispersion correction            ... done
                    ***********************HURRAY********************

CARTESIAN COORDINATES (ANGSTROEM)
---------------------------------
  C     -1.472717    1.143232   -0.332018
  S     -2.526289   -0.203045   -0.386570
  C     -1.270582   -1.346404   -0.068310
  C     -0.039698   -0.682579    0.071979
  C     -0.162088    0.762384   -0.070105
  C      1.019828    1.566992    0.084181
  N      0.977865    3.014217   -0.008766
  O     -0.106942    3.545643   -0.236080
  O      2.020798    3.640195    0.146411
  C      2.236654    0.962980    0.327825
  C      2.361897   -0.433629    0.414982
  C      1.259721   -1.276698    0.280082
  N      1.398764   -2.636546    0.365697
  C     -1.611954   -2.760712    0.059425
  C     -2.580531   -3.389228   -0.628985
  H     -1.839617    2.152675   -0.478743
  H      3.110749    1.603739    0.438386
  H      3.347481   -0.873587    0.582816
  H      2.342561   -3.003970    0.361232
  H      0.713442   -3.221204   -0.094666
  H     -1.050418   -3.324004    0.812556
  H     -3.157962   -2.874079   -1.402318
  H     -2.833480   -4.431872   -0.424459

 Multiplicity           Mult            ....    1
 Number of Electrons    NEL             ....  114
 Basis Dimension        Dim             ....  254

ORBITAL ENERGIES
----------------

  NO   OCC          E(Eh)            E(eV)
   0   2.0000     -88.895197     -2418.9613
   1   2.0000     -19.139674      -520.8170
   2   2.0000     -19.138047      -520.7727
   3   2.0000     -14.539400      -395.6372
   4   2.0000     -14.371348      -391.0643
   5   2.0000     -10.266229      -279.3583
   6   2.0000     -10.238424      -278.6017
   7   2.0000     -10.231815      -278.4218
   8   2.0000     -10.225402      -278.2473
   9   2.0000     -10.221258      -278.1346
  10   2.0000     -10.219724      -278.0928
  11   2.0000     -10.218912      -278.0707
  12   2.0000     -10.214466      -277.9497
  13   2.0000     -10.211631      -277.8726
  14   2.0000     -10.202034      -277.6115
  15   2.0000      -7.990206      -217.4245
  16   2.0000      -5.957881      -162.1222
  17   2.0000      -5.953759      -162.0100
  18   2.0000      -5.952426      -161.9738
  19   2.0000      -1.198501       -32.6129
  20   2.0000      -1.022601       -27.8264
  21   2.0000      -0.950504       -25.8645
  22   2.0000      -0.902734       -24.5646
  23   2.0000      -0.852676       -23.2025
  24   2.0000      -0.800549       -21.7840
  25   2.0000      -0.784321       -21.3425
  26   2.0000      -0.752748       -20.4833
  27   2.0000      -0.720093       -19.5947
  28   2.0000      -0.679733       -18.4965
  29   2.0000      -0.628159       -17.0931
  30   2.0000      -0.612152       -16.6575
  31   2.0000      -0.605257       -16.4699
  32   2.0000      -0.568819       -15.4783
  33   2.0000      -0.539646       -14.6845
  34   2.0000      -0.533553       -14.5187
  35   2.0000      -0.520772       -14.1709
  36   2.0000      -0.520222       -14.1559
  37   2.0000      -0.496262       -13.5040
  38   2.0000      -0.491105       -13.3636
  39   2.0000      -0.472666       -12.8619
  40   2.0000      -0.455844       -12.4041
  41   2.0000      -0.446066       -12.1381
  42   2.0000      -0.431196       -11.7334
  43   2.0000      -0.425585       -11.5807
  44   2.0000      -0.406218       -11.0538
  45   2.0000      -0.390789       -10.6339
  46   2.0000      -0.382116       -10.3979
  47   2.0000      -0.380602       -10.3567
  48   2.0000      -0.361463        -9.8359
  49   2.0000      -0.339218        -9.2306
  50   2.0000      -0.311454        -8.4751
  51   2.0000      -0.292560        -7.9610
  52   2.0000      -0.291917        -7.9435
  53   2.0000      -0.272800        -7.4233
  54   2.0000      -0.269168        -7.3244
  55   2.0000      -0.258859        -7.0439
  56   2.0000      -0.206872        -5.6293
  57   0.0000      -0.091944        -2.5019
  58   0.0000      -0.053923        -1.4673
  59   0.0000      -0.013486        -0.3670
  60   0.0000       0.010703         0.2913
  61   0.0000       0.031343         0.8529

MULLIKEN ATOMIC CHARGES
-----------------------
   0 C :   -0.154179
   1 S :    0.162219
   2 C :   -0.195215
   3 C :    0.119693
   4 C :    0.053899
   5 C :    0.167964
   6 N :    0.235903
   7 O :   -0.273213
   8 O :   -0.265937
   9 C :   -0.028606
  10 C :   -0.057333
  11 C :    0.034512
  12 N :   -0.041703
  13 C :   -0.059895
  14 C :   -0.027578
  15 H :    0.048735
  16 H :    0.002820
  17 H :   -0.041924
  18 H :    0.114341
  19 H :    0.119401
  20 H :    0.022517
  21 H :    0.031341
  22 H :    0.032239
Sum of atomic charges:    0.0000000

LOEWDIN ATOMIC CHARGES
----------------------
   0 C :   -0.192029
   1 S :    0.500978
   2 C :   -0.188669
   3 C :   -0.060465
   4 C :   -0.045159
   5 C :   -0.060646
   6 N :    0.278087
   7 O :   -0.228692
   8 O :   -0.231802
   9 C :    0.019223
  10 C :   -0.091019
  11 C :    0.057316
  12 N :    0.006660
  13 C :   -0.060883
  14 C :   -0.042705
  15 H :    0.031494
  16 H :    0.041735
  17 H :    0.025485
  18 H :    0.080532
  19 H :    0.074278
  20 H :    0.033217
  21 H :    0.023641
  22 H :    0.029423

  Mayer bond orders larger than 0.100000
B(  0-C ,  1-S ) :   1.1715 B(  0-C ,  2-C ) :   0.1024 B(  0-C ,  4-C ) :   1.4515
B(  0-C , 15-H ) :   0.9482 B(  1-S ,  2-C ) :   1.1883 B(  2-C ,  3-C ) :   1.3567
B(  2-C , 13-C ) :   1.0890 B(  3-C ,  4-C ) :   1.2063 B(  3-C , 11-C ) :   1.1452
B(  4-C ,  5-C ) :   1.1387 B(  5-C ,  6-N ) :   0.9218 B(  5-C ,  9-C ) :   1.4499
B(  6-N ,  7-O ) :   1.4807 B(  6-N ,  8-O ) :   1.5195 B(  7-O ,  8-O ) :   0.2528
B(  9-C , 10-C ) :   1.2269 B(  9-C , 16-H ) :   0.9739 B( 10-C , 11-C ) :   1.3688
B( 10-C , 17-H ) :   0.9862 B( 11-C , 12-N ) :   1.3118 B( 12-N , 18-H ) :   0.9354
B( 12-N , 19-H ) :   0.9312 B( 13-C , 14-C ) :   1.9068 B( 13-C , 20-H ) :   0.9463
B( 14-C , 21-H ) :   0.9596 B( 14-C , 22-H ) :   0.9458

Dispersion correction           -0.054322798
FINAL SINGLE POINT ENERGY     -1043.379135127982

DIPOLE MOMENT
-------------
                                X             Y             Z
Electronic contribution:     -1.34905      11.18325      -0.17433
Nuclear contribution   :      1.37583     -14.16010       0.07069
                        -----------------------------------------
Total Dipole Moment    :      0.02677      -2.97684      -0.10363
                        -----------------------------------------
Magnitude (a.u.)       :      2.97877
Magnitude (Debye)      :      7.57143

Rotational constants in cm-1:     0.032345     0.013795     0.009714
Rotational constants in MHz :   969.678319   413.551653   291.222385

                             ****ORCA TERMINATED NORMALLY****
TOTAL RUN TIME: 0 days 0 hours 22 minutes 0 seconds 582 msec
