                         Program Version 4.2.0 -  RELEASE  -
|  1> # ORCA input file
|  2> # SCF done       -171.825305209153          0.000382278367
|  3> ! CAM-B3LYP def2-SVP def2/J RIJCOSX Grid4 TightSCF
|  4> %maxcore 5000
|  5> %tddft
|  6>     Mode sTDDFT
|  7>     Ethresh 5.0
|  8>     maxcore 5000
|  9> end
| 10>
| 11> %pal
| 12>   nprocs 6
| 13>   end
| 14> * xyz 0 1
| 15>    C        3.92117        -1.87166         0.37522
| 16>    C        3.63751        -0.53979         0.65960
| 17>    O        4.09283         0.11992         1.75943
| 18>    C        4.91693        -0.56343         2.67192
| 19>    C        2.86436         0.20194        -0.25881
| 20>    C        2.41428        -0.41113        -1.42965
| 21>    C        2.71015        -1.73485        -1.70835
| 22>    C        3.46489        -2.46177        -0.78537
| 23>    O        2.31640        -2.40313        -2.82385
| 24>    C        1.60871        -1.68817        -3.81118
| 25>    C        2.52860         1.58451        -0.01846
| 26>    C        2.28450         2.18607         1.29587
| 27>    N        1.97582         3.45042         1.26297
| 28>    C        1.99854         3.79285        -0.05543
| 29>    C        2.30830         2.62140        -0.89629
| 30>    C        2.38176         3.03179        -2.27965
| 31>    S        2.80214         2.10548        -3.57729
| 32>    C        2.08885         4.44465        -2.26461
| 33>    C        1.87386         4.88179        -0.87328
| 34>    N        1.66169         6.22674        -0.81300
| 35>    C        1.76430         6.64495        -2.04097
| 36>    C        2.03823         5.59553        -3.02487
| 37>    C        2.15564         5.83684        -4.43733
| 38>    C        2.56252         7.07537        -4.89246
| 39>    C        2.66512         7.31769        -6.27250
| 40>    C        3.03984         8.46374        -6.97051
| 41>    C        3.43418         9.76209        -6.35064
| 42>    C        4.94286        10.06406        -6.49434
| 43>    N        5.37711        10.10765        -7.88146
| 44>    C        2.57282        10.93100        -6.85760
| 45>    N        1.18693        10.68463        -6.49909
| 46>    C        2.92597         8.14343        -8.37578
| 47>    C        3.16214         8.87204        -9.48471
| 48>    C        2.97725         8.30329       -10.85065
| 49>    C        2.47656         6.89829       -10.88287
| 50>    C        2.24584         6.18221        -9.76714
| 51>    C        2.46324         6.75275        -8.48974
| 52>    C        2.31930         6.25821        -7.20781
| 53>    C        1.91159         4.99889        -6.71190
| 54>    C        1.83614         4.79991        -5.37141
| 55>    C        4.28235         8.50523       -11.58496
| 56>    C        5.02728         7.52213       -12.09502
| 57>    C        6.26606         7.72635       -12.78606
| 58>    C        7.08076         8.94020       -12.84359
| 59>    N        8.16813         8.82871       -13.55453
| 60>    C        8.16321         7.54803       -14.02635
| 61>    C        6.98075         6.82480       -13.53755
| 62>    C        6.95503         5.48792       -14.07597
| 63>    S        5.77023         4.37511       -13.81381
| 64>    C        8.13975         5.40574       -14.89668
| 65>    C        8.86255         6.69664       -14.83762
| 66>    N        9.96787         6.66737       -15.63223
| 67>    C        9.95308         5.49711       -16.20193
| 68>    C        8.82566         4.64244       -15.81524
| 69>    C        8.58472         3.30433       -16.29575
| 70>    C        8.99266         2.89433       -17.58447
| 71>    O        9.57705         3.83088       -18.37946
| 72>    C        9.93330         3.48413       -19.69586
| 73>    C        8.74256         1.58474       -17.98244
| 74>    C        8.09506         0.69977       -17.14607
| 75>    C        7.66654         1.09828       -15.87752
| 76>    C        7.92389         2.39496       -15.46595
| 77>    O        7.02511         0.15780       -15.13799
| 78>    C        6.51615         0.53377       -13.87793
| 79>    H        4.50665        -2.46432         1.05964
| 80>    H        5.16615         0.16603         3.44122
| 81>    H        5.83773        -0.91579         2.19682
| 82>    H        4.39587        -1.40964         3.13132
| 83>    H        1.81691         0.17716        -2.10465
| 84>    H        3.68919        -3.49433        -1.00019
| 85>    H        1.46521        -2.38690        -4.63362
| 86>    H        2.17519        -0.82104        -4.16303
| 87>    H        0.63208        -1.35845        -3.44230
| 88>    H        2.31346         1.65483         2.22919
| 89>    H        1.60435         7.68406        -2.27145
| 90>    H        2.82813         7.85222        -4.19155
| 91>    H        3.23745         9.68635        -5.27675
| 92>    H        5.49305         9.31619        -5.90126
| 93>    H        5.12824        11.04643        -6.05242
| 94>    H        5.48907         9.16450        -8.23935
| 95>    H        6.27734        10.56867        -7.94990
| 96>    H        2.73382        11.07460        -7.93451
| 97>    H        2.88622        11.84590        -6.34662
| 98>    H        0.85232         9.83949        -6.95089
| 99>    H        0.59771        11.45573        -6.79120
|100>    H        3.54933         9.87880        -9.43056
|101>    H        2.23865         8.93914       -11.36965
|102>    H        2.29981         6.47908       -11.86160
|103>    H        1.88587         5.16574        -9.82938
|104>    H        1.65842         4.20879        -7.40288
|105>    H        1.51834         3.84749        -4.97989
|106>    H        4.60143         9.53554       -11.66311
|107>    H        4.70024         6.49331       -12.02859
|108>    H        6.86046         9.86600       -12.34122
|109>    H       10.74365         5.20644       -16.86865
|110>    H       10.34132         4.39326       -20.13524
|111>    H        9.06348         3.16156       -20.27618
|112>    H       10.69669         2.69970       -19.71416
|113>    H        9.05075         1.24189       -18.95700
|114>    H        7.90369        -0.31341       -17.46143
|115>    H        7.62981         2.73241       -14.48728
|116>    H        5.98530        -0.33967       -13.50326
|117>    H        5.82274         1.37557       -13.95924
|118>    H        7.32088         0.79333       -13.18290
|119> *
|120>
|121>                          ****END OF INPUT****

CARTESIAN COORDINATES (ANGSTROEM)
---------------------------------
  C      3.921170   -1.871660    0.375220
  C      3.637510   -0.539790    0.659600
  O      4.092830    0.119920    1.759430
  C      4.916930   -0.563430    2.671920
  C      2.864360    0.201940   -0.258810
  C      2.414280   -0.411130   -1.429650
  C      2.710150   -1.734850   -1.708350
  C      3.464890   -2.461770   -0.785370
  O      2.316400   -2.403130   -2.823850
  C      1.608710   -1.688170   -3.811180
  C      2.528600    1.584510   -0.018460
  C      2.284500    2.186070    1.295870
  N      1.975820    3.450420    1.262970
  C      1.998540    3.792850   -0.055430
  C      2.308300    2.621400   -0.896290
  C      2.381760    3.031790   -2.279650
  S      2.802140    2.105480   -3.577290
  C      2.088850    4.444650   -2.264610
  C      1.873860    4.881790   -0.873280
  N      1.661690    6.226740   -0.813000
  C      1.764300    6.644950   -2.040970
  C      2.038230    5.595530   -3.024870
  C      2.155640    5.836840   -4.437330
  C      2.562520    7.075370   -4.892460
  C      2.665120    7.317690   -6.272500
  C      3.039840    8.463740   -6.970510
  C      3.434180    9.762090   -6.350640
  C      4.942860   10.064060   -6.494340
  N      5.377110   10.107650   -7.881460
  C      2.572820   10.931000   -6.857600
  N      1.186930   10.684630   -6.499090
  C      2.925970    8.143430   -8.375780
  C      3.162140    8.872040   -9.484710
  C      2.977250    8.303290  -10.850650
  C      2.476560    6.898290  -10.882870
  C      2.245840    6.182210   -9.767140
  C      2.463240    6.752750   -8.489740
  C      2.319300    6.258210   -7.207810
  C      1.911590    4.998890   -6.711900
  C      1.836140    4.799910   -5.371410
  C      4.282350    8.505230  -11.584960
  C      5.027280    7.522130  -12.095020
  C      6.266060    7.726350  -12.786060
  C      7.080760    8.940200  -12.843590
  N      8.168130    8.828710  -13.554530
  C      8.163210    7.548030  -14.026350
  C      6.980750    6.824800  -13.537550
  C      6.955030    5.487920  -14.075970
  S      5.770230    4.375110  -13.813810
  C      8.139750    5.405740  -14.896680
  C      8.862550    6.696640  -14.837620
  N      9.967870    6.667370  -15.632230
  C      9.953080    5.497110  -16.201930
  C      8.825660    4.642440  -15.815240
  C      8.584720    3.304330  -16.295750
  C      8.992660    2.894330  -17.584470
  O      9.577050    3.830880  -18.379460
  C      9.933300    3.484130  -19.695860
  C      8.742560    1.584740  -17.982440
  C      8.095060    0.699770  -17.146070
  C      7.666540    1.098280  -15.877520
  C      7.923890    2.394960  -15.465950
  O      7.025110    0.157800  -15.137990
  C      6.516150    0.533770  -13.877930
  H      4.506650   -2.464320    1.059640
  H      5.166150    0.166030    3.441220
  H      5.837730   -0.915790    2.196820
  H      4.395870   -1.409640    3.131320
  H      1.816910    0.177160   -2.104650
  H      3.689190   -3.494330   -1.000190
  H      1.465210   -2.386900   -4.633620
  H      2.175190   -0.821040   -4.163030
  H      0.632080   -1.358450   -3.442300
  H      2.313460    1.654830    2.229190
  H      1.604350    7.684060   -2.271450
  H      2.828130    7.852220   -4.191550
  H      3.237450    9.686350   -5.276750
  H      5.493050    9.316190   -5.901260
  H      5.128240   11.046430   -6.052420
  H      5.489070    9.164500   -8.239350
  H      6.277340   10.568670   -7.949900
  H      2.733820   11.074600   -7.934510
  H      2.886220   11.845900   -6.346620
  H      0.852320    9.839490   -6.950890
  H      0.597710   11.455730   -6.791200
  H      3.549330    9.878800   -9.430560
  H      2.238650    8.939140  -11.369650
  H      2.299810    6.479080  -11.861600
  H      1.885870    5.165740   -9.829380
  H      1.658420    4.208790   -7.402880
  H      1.518340    3.847490   -4.979890
  H      4.601430    9.535540  -11.663110
  H      4.700240    6.493310  -12.028590
  H      6.860460    9.866000  -12.341220
  H     10.743650    5.206440  -16.868650
  H     10.341320    4.393260  -20.135240
  H      9.063480    3.161560  -20.276180
  H     10.696690    2.699700  -19.714160
  H      9.050750    1.241890  -18.957000
  H      7.903690   -0.313410  -17.461430
  H      7.629810    2.732410  -14.487280
  H      5.985300   -0.339670  -13.503260
  H      5.822740    1.375570  -13.959240
  H      7.320880    0.793330  -13.182900

 Total Charge           Charge          ....    0
 Multiplicity           Mult            ....    1
 Number of Electrons    NEL             ....  458
 Basis Dimension        Dim             .... 1104

ORBITAL ENERGIES
----------------

  NO   OCC          E(Eh)            E(eV)
   0   2.0000     -88.895316     -2418.9645
   1   2.0000     -88.884280     -2418.6642
   2   2.0000     -19.252516      -523.8876
   3   2.0000     -19.245895      -523.7074
   4   2.0000     -19.232927      -523.3545
   5   2.0000     -19.228084      -523.2228
   6   2.0000     -14.410430      -392.1277
   7   2.0000     -14.407115      -392.0375
   8   2.0000     -14.401214      -391.8770
   9   2.0000     -14.398017      -391.7899
  10   2.0000     -14.386130      -391.4665
  11   2.0000     -14.368487      -390.9864
  12   2.0000     -10.339479      -281.3515
  13   2.0000     -10.334473      -281.2153
  14   2.0000     -10.331631      -281.1380
  15   2.0000     -10.328997      -281.0663
  16   2.0000     -10.328123      -281.0425
  17   2.0000     -10.327358      -281.0217
  18   2.0000     -10.325045      -280.9588
  19   2.0000     -10.324832      -280.9530
  20   2.0000     -10.323357      -280.9128
  21   2.0000     -10.321750      -280.8691
  22   2.0000     -10.320560      -280.8367
  23   2.0000     -10.318136      -280.7707
  24   2.0000     -10.315710      -280.7047
  25   2.0000     -10.315308      -280.6938
  26   2.0000     -10.313541      -280.6457
  27   2.0000     -10.312763      -280.6245
  28   2.0000     -10.309610      -280.5387
  29   2.0000     -10.306444      -280.4526
  30   2.0000     -10.301858      -280.3278
  31   2.0000     -10.297747      -280.2159
  32   2.0000     -10.297663      -280.2137
  33   2.0000     -10.295430      -280.1529
  34   2.0000     -10.292982      -280.0863
  35   2.0000     -10.292032      -280.0604
  36   2.0000     -10.291155      -280.0366
  37   2.0000     -10.288414      -279.9620
  38   2.0000     -10.286590      -279.9123
  39   2.0000     -10.284373      -279.8520
  40   2.0000     -10.283701      -279.8337
  41   2.0000     -10.279925      -279.7310
  42   2.0000     -10.279441      -279.7178
  43   2.0000     -10.278692      -279.6974
  44   2.0000     -10.277959      -279.6775
  45   2.0000     -10.276288      -279.6320
  46   2.0000     -10.274313      -279.5783
  47   2.0000     -10.273006      -279.5427
  48   2.0000     -10.271225      -279.4942
  49   2.0000     -10.270738      -279.4810
  50   2.0000     -10.270712      -279.4803
  51   2.0000     -10.269180      -279.4386
  52   2.0000     -10.266926      -279.3773
  53   2.0000     -10.266143      -279.3559
  54   2.0000     -10.265647      -279.3425
  55   2.0000     -10.264441      -279.3096
  56   2.0000     -10.261285      -279.2238
  57   2.0000     -10.261001      -279.2160
  58   2.0000     -10.260343      -279.1981
  59   2.0000     -10.260152      -279.1929
  60   2.0000     -10.259537      -279.1762
  61   2.0000     -10.257997      -279.1343
  62   2.0000     -10.257095      -279.1097
  63   2.0000     -10.254998      -279.0527
  64   2.0000      -7.990849      -217.4421
  65   2.0000      -7.980072      -217.1488
  66   2.0000      -5.959726      -162.1724
  67   2.0000      -5.959164      -162.1571
  68   2.0000      -5.950334      -161.9168
  69   2.0000      -5.949029      -161.8813
  70   2.0000      -5.948397      -161.8641
  71   2.0000      -5.939367      -161.6184
  72   2.0000      -1.156611       -31.4730
  73   2.0000      -1.149968       -31.2922
  74   2.0000      -1.138135       -30.9702
  75   2.0000      -1.133117       -30.8337
  76   2.0000      -1.076596       -29.2957
  77   2.0000      -1.067897       -29.0590
  78   2.0000      -1.057341       -28.7717
  79   2.0000      -1.048614       -28.5342
  80   2.0000      -0.982361       -26.7314
  81   2.0000      -0.964398       -26.2426
  82   2.0000      -0.957437       -26.0532
  83   2.0000      -0.949577       -25.8393
  84   2.0000      -0.948967       -25.8227
  85   2.0000      -0.948188       -25.8015
  86   2.0000      -0.944036       -25.6885
  87   2.0000      -0.942317       -25.6418
  88   2.0000      -0.916668       -24.9438
  89   2.0000      -0.894019       -24.3275
  90   2.0000      -0.887687       -24.1552
  91   2.0000      -0.879867       -23.9424
  92   2.0000      -0.869087       -23.6491
  93   2.0000      -0.859086       -23.3769
  94   2.0000      -0.849336       -23.1116
  95   2.0000      -0.842921       -22.9371
  96   2.0000      -0.841185       -22.8898
  97   2.0000      -0.836538       -22.7634
  98   2.0000      -0.834434       -22.7061
  99   2.0000      -0.827810       -22.5259
 100   2.0000      -0.824119       -22.4254
 101   2.0000      -0.821154       -22.3447
 102   2.0000      -0.814760       -22.1708
 103   2.0000      -0.802948       -21.8493
 104   2.0000      -0.797616       -21.7042
 105   2.0000      -0.790435       -21.5088
 106   2.0000      -0.769270       -20.9329
 107   2.0000      -0.764145       -20.7934
 108   2.0000      -0.753585       -20.5061
 109   2.0000      -0.752310       -20.4714
 110   2.0000      -0.747078       -20.3290
 111   2.0000      -0.739177       -20.1140
 112   2.0000      -0.730126       -19.8677
 113   2.0000      -0.718411       -19.5490
 114   2.0000      -0.714739       -19.4490
 115   2.0000      -0.709661       -19.3109
 116   2.0000      -0.701133       -19.0788
 117   2.0000      -0.694676       -18.9031
 118   2.0000      -0.690772       -18.7969
 119   2.0000      -0.686043       -18.6682
 120   2.0000      -0.671681       -18.2774
 121   2.0000      -0.668230       -18.1835
 122   2.0000      -0.664736       -18.0884
 123   2.0000      -0.658496       -17.9186
 124   2.0000      -0.655725       -17.8432
 125   2.0000      -0.642181       -17.4746
 126   2.0000      -0.634296       -17.2601
 127   2.0000      -0.633253       -17.2317
 128   2.0000      -0.628381       -17.0991
 129   2.0000      -0.621320       -16.9070
 130   2.0000      -0.608518       -16.5586
 131   2.0000      -0.604234       -16.4420
 132   2.0000      -0.600039       -16.3279
 133   2.0000      -0.595913       -16.2156
 134   2.0000      -0.590016       -16.0552
 135   2.0000      -0.588393       -16.0110
 136   2.0000      -0.582994       -15.8641
 137   2.0000      -0.578328       -15.7371
 138   2.0000      -0.575654       -15.6644
 139   2.0000      -0.572204       -15.5705
 140   2.0000      -0.566654       -15.4194
 141   2.0000      -0.565283       -15.3821
 142   2.0000      -0.559872       -15.2349
 143   2.0000      -0.556637       -15.1469
 144   2.0000      -0.556133       -15.1332
 145   2.0000      -0.552061       -15.0224
 146   2.0000      -0.546970       -14.8838
 147   2.0000      -0.544123       -14.8063
 148   2.0000      -0.542978       -14.7752
 149   2.0000      -0.540909       -14.7189
 150   2.0000      -0.538415       -14.6510
 151   2.0000      -0.537165       -14.6170
 152   2.0000      -0.535871       -14.5818
 153   2.0000      -0.534241       -14.5374
 154   2.0000      -0.528571       -14.3831
 155   2.0000      -0.526902       -14.3377
 156   2.0000      -0.526373       -14.3233
 157   2.0000      -0.521563       -14.1925
 158   2.0000      -0.517119       -14.0715
 159   2.0000      -0.515912       -14.0387
 160   2.0000      -0.514079       -13.9888
 161   2.0000      -0.508197       -13.8287
 162   2.0000      -0.504910       -13.7393
 163   2.0000      -0.503643       -13.7048
 164   2.0000      -0.500887       -13.6298
 165   2.0000      -0.498090       -13.5537
 166   2.0000      -0.495106       -13.4725
 167   2.0000      -0.492285       -13.3958
 168   2.0000      -0.489311       -13.3148
 169   2.0000      -0.486429       -13.2364
 170   2.0000      -0.485133       -13.2011
 171   2.0000      -0.484966       -13.1966
 172   2.0000      -0.481871       -13.1124
 173   2.0000      -0.479056       -13.0358
 174   2.0000      -0.476812       -12.9747
 175   2.0000      -0.474153       -12.9023
 176   2.0000      -0.473403       -12.8819
 177   2.0000      -0.470862       -12.8128
 178   2.0000      -0.467627       -12.7248
 179   2.0000      -0.464816       -12.6483
 180   2.0000      -0.464046       -12.6273
 181   2.0000      -0.458251       -12.4696
 182   2.0000      -0.453562       -12.3421
 183   2.0000      -0.446390       -12.1469
 184   2.0000      -0.444723       -12.1015
 185   2.0000      -0.442679       -12.0459
 186   2.0000      -0.439132       -11.9494
 187   2.0000      -0.436045       -11.8654
 188   2.0000      -0.432426       -11.7669
 189   2.0000      -0.429473       -11.6865
 190   2.0000      -0.426603       -11.6085
 191   2.0000      -0.424576       -11.5533
 192   2.0000      -0.423766       -11.5313
 193   2.0000      -0.421021       -11.4566
 194   2.0000      -0.418206       -11.3800
 195   2.0000      -0.412583       -11.2270
 196   2.0000      -0.412015       -11.2115
 197   2.0000      -0.408238       -11.1087
 198   2.0000      -0.406046       -11.0491
 199   2.0000      -0.404709       -11.0127
 200   2.0000      -0.394859       -10.7447
 201   2.0000      -0.389471       -10.5981
 202   2.0000      -0.388876       -10.5819
 203   2.0000      -0.386615       -10.5203
 204   2.0000      -0.382971       -10.4212
 205   2.0000      -0.376468       -10.2442
 206   2.0000      -0.369923       -10.0661
 207   2.0000      -0.362684        -9.8691
 208   2.0000      -0.353037        -9.6066
 209   2.0000      -0.349128        -9.5003
 210   2.0000      -0.346298        -9.4232
 211   2.0000      -0.345461        -9.4005
 212   2.0000      -0.342963        -9.3325
 213   2.0000      -0.339620        -9.2415
 214   2.0000      -0.335320        -9.1245
 215   2.0000      -0.323747        -8.8096
 216   2.0000      -0.312713        -8.5093
 217   2.0000      -0.311848        -8.4858
 218   2.0000      -0.303745        -8.2653
 219   2.0000      -0.301977        -8.2172
 220   2.0000      -0.293855        -7.9962
 221   2.0000      -0.290099        -7.8940
 222   2.0000      -0.288978        -7.8635
 223   2.0000      -0.280169        -7.6238
 224   2.0000      -0.277391        -7.5482
 225   2.0000      -0.269006        -7.3200
 226   2.0000      -0.260545        -7.0898
 227   2.0000      -0.254135        -6.9154
 228   2.0000      -0.218867        -5.9557
 229   0.0000      -0.102104        -2.7784
 230   0.0000      -0.095249        -2.5919
 231   0.0000      -0.076051        -2.0695
 232   0.0000      -0.071388        -1.9426
 233   0.0000      -0.052596        -1.4312

MULLIKEN ATOMIC CHARGES
-----------------------
   0 C :   -0.096790
   1 C :    0.201650
   2 O :   -0.322367
   3 C :    0.180067
   4 C :    0.026785
   5 C :   -0.111462
   6 C :    0.242297
   7 C :   -0.009887
   8 O :   -0.316104
   9 C :    0.178355
  10 C :   -0.001375
  11 C :    0.075987
  12 N :   -0.032381
  13 C :    0.006685
  14 C :   -0.017055
  15 C :   -0.006361
  16 S :   -0.149498
  17 C :   -0.019899
  18 C :   -0.003495
  19 N :   -0.025343
  20 C :    0.044363
  21 C :   -0.002552
  22 C :    0.080134
  23 C :   -0.102525
  24 C :    0.063572
  25 C :   -0.092424
  26 C :    0.007356
  27 C :    0.136164
  28 N :   -0.234814
  29 C :    0.136536
  30 N :   -0.224491
  31 C :    0.061252
  32 C :   -0.146155
  33 C :    0.196757
  34 C :   -0.057528
  35 C :    0.021445
  36 C :    0.009912
  37 C :    0.041733
  38 C :   -0.013012
  39 C :    0.025061
  40 C :   -0.112603
  41 C :    0.020575
  42 C :    0.006632
  43 C :    0.045095
  44 N :   -0.031307
  45 C :    0.024446
  46 C :   -0.005580
  47 C :    0.000279
  48 S :   -0.146256
  49 C :   -0.011858
  50 C :   -0.011775
  51 N :   -0.032532
  52 C :    0.082580
  53 C :   -0.006615
  54 C :    0.032907
  55 C :    0.196140
  56 O :   -0.323611
  57 C :    0.176905
  58 C :   -0.089867
  59 C :   -0.008198
  60 C :    0.239891
  61 C :   -0.116296
  62 O :   -0.313882
  63 C :    0.176583
  64 H :   -0.028500
  65 H :    0.039078
  66 H :    0.025768
  67 H :    0.024042
  68 H :   -0.035288
  69 H :   -0.017576
  70 H :    0.029786
  71 H :    0.027681
  72 H :    0.017604
  73 H :    0.003511
  74 H :    0.010921
  75 H :   -0.035473
  76 H :   -0.019043
  77 H :   -0.006200
  78 H :   -0.006975
  79 H :    0.107280
  80 H :    0.097188
  81 H :   -0.015860
  82 H :   -0.015812
  83 H :    0.097939
  84 H :    0.088817
  85 H :    0.020797
  86 H :    0.041026
  87 H :   -0.002131
  88 H :   -0.035402
  89 H :   -0.039354
  90 H :   -0.034327
  91 H :    0.001354
  92 H :    0.009108
  93 H :    0.002193
  94 H :    0.008000
  95 H :    0.040867
  96 H :    0.027636
  97 H :    0.026695
  98 H :   -0.028134
  99 H :   -0.015366
 100 H :   -0.033435
 101 H :    0.031181
 102 H :    0.028241
 103 H :    0.019914
Sum of atomic charges:   -0.0000000

LOEWDIN ATOMIC CHARGES
----------------------
   0 C :   -0.068168
   1 C :    0.049315
   2 O :   -0.101459
   3 C :    0.077293
   4 C :   -0.050204
   5 C :   -0.038393
   6 C :    0.037974
   7 C :   -0.022160
   8 O :   -0.110549
   9 C :    0.074523
  10 C :   -0.014151
  11 C :    0.091795
  12 N :   -0.087611
  13 C :    0.036705
  14 C :   -0.046709
  15 C :   -0.129950
  16 S :    0.053121
  17 C :   -0.049227
  18 C :    0.030684
  19 N :   -0.080253
  20 C :    0.080241
  21 C :   -0.022260
  22 C :   -0.028113
  23 C :    0.000550
  24 C :   -0.020757
  25 C :   -0.038784
  26 C :   -0.039901
  27 C :    0.028883
  28 N :   -0.113591
  29 C :    0.027774
  30 N :   -0.121119
  31 C :   -0.029864
  32 C :    0.072945
  33 C :   -0.031325
  34 C :   -0.036315
  35 C :   -0.012156
  36 C :   -0.039346
  37 C :   -0.029894
  38 C :   -0.011912
  39 C :   -0.017229
  40 C :    0.006747
  41 C :   -0.026865
  42 C :   -0.035860
  43 C :    0.078450
  44 N :   -0.081393
  45 C :    0.026544
  46 C :   -0.037993
  47 C :   -0.132247
  48 S :    0.045841
  49 C :   -0.047454
  50 C :    0.043839
  51 N :   -0.085737
  52 C :    0.097042
  53 C :   -0.010763
  54 C :   -0.051690
  55 C :    0.050186
  56 O :   -0.101050
  57 C :    0.077508
  58 C :   -0.066816
  59 C :   -0.018880
  60 C :    0.038543
  61 C :   -0.038803
  62 O :   -0.108848
  63 C :    0.074602
  64 H :    0.029225
  65 H :    0.029784
  66 H :    0.016792
  67 H :    0.014999
  68 H :    0.020072
  69 H :    0.033562
  70 H :    0.025774
  71 H :    0.012836
  72 H :    0.013327
  73 H :    0.021921
  74 H :    0.024863
  75 H :    0.024400
  76 H :    0.029387
  77 H :    0.004592
  78 H :    0.016893
  79 H :    0.054945
  80 H :    0.057456
  81 H :   -0.002374
  82 H :    0.014867
  83 H :    0.052008
  84 H :    0.052831
  85 H :    0.026409
  86 H :    0.063570
  87 H :    0.026595
  88 H :    0.030801
  89 H :    0.026915
  90 H :    0.013172
  91 H :    0.023424
  92 H :    0.030800
  93 H :    0.021487
  94 H :    0.023289
  95 H :    0.030288
  96 H :    0.017601
  97 H :    0.015901
  98 H :    0.029885
  99 H :    0.034549
 100 H :    0.019007
 101 H :    0.026525
 102 H :    0.012024
 103 H :    0.014289

  Mayer bond orders larger than 0.100000
B(  0-C ,  1-C ) :   1.3013 B(  0-C ,  7-C ) :   1.3560 B(  0-C , 64-H ) :   0.9959
B(  1-C ,  2-O ) :   1.1470 B(  1-C ,  4-C ) :   1.3499 B(  2-O ,  3-C ) :   0.9615
B(  3-C , 65-H ) :   0.9787 B(  3-C , 66-H ) :   0.9687 B(  3-C , 67-H ) :   0.9690
B(  4-C ,  5-C ) :   1.3446 B(  4-C , 10-C ) :   0.9967 B(  5-C ,  6-C ) :   1.3075
B(  5-C , 68-H ) :   0.9836 B(  6-C ,  7-C ) :   1.3595 B(  6-C ,  8-O ) :   1.1349
B(  7-C , 69-H ) :   0.9980 B(  8-O ,  9-C ) :   0.9653 B(  9-C , 70-H ) :   0.9777
B(  9-C , 71-H ) :   0.9667 B(  9-C , 72-H ) :   0.9679 B( 10-C , 11-C ) :   1.0398
B( 10-C , 14-C ) :   1.5639 B( 11-C , 12-N ) :   1.7052 B( 11-C , 73-H ) :   0.9880
B( 12-N , 13-C ) :   1.2751 B( 13-C , 14-C ) :   1.0560 B( 13-C , 18-C ) :   1.5190
B( 14-C , 15-C ) :   1.0315 B( 15-C , 16-S ) :   1.6699 B( 15-C , 17-C ) :   1.0421
B( 17-C , 18-C ) :   1.0648 B( 17-C , 21-C ) :   1.5220 B( 18-C , 19-N ) :   1.2702
B( 19-N , 20-C ) :   1.7187 B( 20-C , 21-C ) :   1.0500 B( 20-C , 74-H ) :   0.9860
B( 21-C , 22-C ) :   1.0155 B( 22-C , 23-C ) :   1.4919 B( 22-C , 39-C ) :   1.1482
B( 23-C , 24-C ) :   1.1493 B( 23-C , 75-H ) :   0.9918 B( 24-C , 25-C ) :   1.4726
B( 24-C , 37-C ) :   1.1218 B( 25-C , 26-C ) :   1.0466 B( 25-C , 31-C ) :   1.0855
B( 26-C , 27-C ) :   1.0357 B( 26-C , 29-C ) :   1.0327 B( 26-C , 76-H ) :   0.8741
B( 27-C , 28-N ) :   1.1023 B( 27-C , 77-H ) :   0.9448 B( 27-C , 78-H ) :   0.9401
B( 28-N , 79-H ) :   0.9553 B( 28-N , 80-H ) :   0.9692 B( 29-C , 30-N ) :   1.0896
B( 29-C , 81-H ) :   0.9406 B( 29-C , 82-H ) :   0.9352 B( 30-N , 83-H ) :   0.9706
B( 30-N , 84-H ) :   0.9682 B( 31-C , 32-C ) :   1.6867 B( 31-C , 36-C ) :   1.0543
B( 32-C , 33-C ) :   0.9438 B( 32-C , 85-H ) :   0.9411 B( 33-C , 34-C ) :   1.0167
B( 33-C , 40-C ) :   0.9342 B( 33-C , 86-H ) :   0.8420 B( 34-C , 35-C ) :   1.7239
B( 34-C , 87-H ) :   0.9621 B( 35-C , 36-C ) :   1.1263 B( 35-C , 88-H ) :   0.9909
B( 36-C , 37-C ) :   1.4325 B( 37-C , 38-C ) :   1.1349 B( 38-C , 39-C ) :   1.6101
B( 38-C , 89-H ) :   0.9933 B( 39-C , 90-H ) :   0.9663 B( 40-C , 41-C ) :   1.8269
B( 40-C , 91-H ) :   0.9716 B( 41-C , 42-C ) :   1.0633 B( 41-C , 92-H ) :   0.9468
B( 42-C , 43-C ) :   1.0278 B( 42-C , 46-C ) :   1.5320 B( 43-C , 44-N ) :   1.7230
B( 43-C , 93-H ) :   0.9903 B( 44-N , 45-C ) :   1.2671 B( 45-C , 46-C ) :   1.0609
B( 45-C , 50-C ) :   1.5226 B( 46-C , 47-C ) :   1.0368 B( 47-C , 48-S ) :   1.6790
B( 47-C , 49-C ) :   1.0296 B( 49-C , 50-C ) :   1.0599 B( 49-C , 53-C ) :   1.5585
B( 50-C , 51-N ) :   1.2741 B( 51-N , 52-C ) :   1.7044 B( 52-C , 53-C ) :   1.0362
B( 52-C , 94-H ) :   0.9864 B( 53-C , 54-C ) :   1.0068 B( 54-C , 55-C ) :   1.3460
B( 54-C , 61-C ) :   1.3371 B( 55-C , 56-O ) :   1.1466 B( 55-C , 58-C ) :   1.3010
B( 56-O , 57-C ) :   0.9582 B( 57-C , 95-H ) :   0.9786 B( 57-C , 96-H ) :   0.9690
B( 57-C , 97-H ) :   0.9693 B( 58-C , 59-C ) :   1.3598 B( 58-C , 98-H ) :   0.9953
B( 59-C , 60-C ) :   1.3572 B( 59-C , 99-H ) :   0.9977 B( 60-C , 61-C ) :   1.3085
B( 60-C , 62-O ) :   1.1405 B( 61-C ,100-H ) :   0.9825 B( 62-O , 63-C ) :   0.9622
B( 63-C ,101-H ) :   0.9775 B( 63-C ,102-H ) :   0.9669 B( 63-C ,103-H ) :   0.9681

-----------------------------------------------------------------------------
         ABSORPTION SPECTRUM VIA TRANSITION ELECTRIC DIPOLE MOMENTS
-----------------------------------------------------------------------------
State   Energy  Wavelength   fosc         T2         TX        TY        TZ
        (cm-1)    (nm)                  (au**2)     (au)      (au)      (au)
-----------------------------------------------------------------------------
   0   11726.7    852.8   0.096241116   2.70184  -0.29703  -1.26689   1.00429
   1   13237.7    755.4   0.012999536   0.32329  -0.16323   0.33106  -0.43249
   2   15048.5    664.5   0.044608685   0.97589  -0.08456  -0.39401  -0.90194
   3   16072.3    622.2   0.065237771   1.33628   0.07114  -0.75315   0.87406
   4   16269.5    614.6   0.075198689   1.52164  -0.36927   0.88035   0.78120
   5   17505.3    571.3   0.049765457   0.93591  -0.12704   0.35575  -0.89063
   6   17612.8    567.8   0.047060872   0.87965   0.30027  -0.79695  -0.39289
   7   17751.7    563.3   0.033581366   0.62278   0.16084  -0.77001  -0.06322
   8   18483.1    541.0   0.009399803   0.16742  -0.06851   0.40316   0.01374
   9   18680.8    535.3   0.000302833   0.00534  -0.01447   0.06661   0.02628
  10   19354.7    516.7   0.133661989   2.27351  -0.07584  -0.28809   1.47809
  11   20269.1    493.4   0.007219512   0.11726   0.29566   0.00070  -0.17275
  12   20866.9    479.2   0.017599713   0.27767   0.22798   0.18336  -0.43826
  13   21945.1    455.7   0.090180577   1.35286   0.41883  -0.61362  -0.89494
  14   22293.4    448.6   0.156438926   2.31017  -0.19957   1.27655  -0.80048
  15   23410.9    427.2   0.010825198   0.15223  -0.04035   0.32337   0.21456
  16   23739.8    421.2   0.011453338   0.15883   0.20715   0.00895  -0.34035
  17   25461.7    392.7   0.299342169   3.87040   0.20627   1.15232  -1.58114
  18   25558.0    391.3   0.049296925   0.63499  -0.22490   0.72488   0.24283
  19   25776.5    387.9   0.136046663   1.73756  -0.33501  -0.79796   0.99428
  20   26126.0    382.8   0.016982183   0.21399   0.08786   0.35568  -0.28242
  21   26432.5    378.3   0.004366841   0.05439  -0.14379  -0.04092   0.17899
  22   26654.5    375.2   0.005472410   0.06759   0.15306  -0.20913  -0.02066
  23   26931.9    371.3   0.265315275   3.24318   0.54507   0.51307  -1.63794
  24   27417.3    364.7   0.006962564   0.08360  -0.03628   0.07818  -0.27600
  25   27921.7    358.1   0.070910664   0.83607  -0.21391  -0.34400   0.81974
  26   28067.1    356.3   0.134725637   1.58026   0.08116   0.77912  -0.98318
  27   28514.9    350.7   0.048933388   0.56495   0.23204   0.24079  -0.67315
  28   28862.2    346.5   0.047053058   0.53670   0.43570  -0.49488  -0.31932
  29   29110.5    343.5   0.067115642   0.75901   0.57993  -0.03664  -0.64911
  30   29451.2    339.5   0.174888008   1.95494  -0.18636  -0.76603   1.15473
  31   29832.5    335.2   0.057407141   0.63351  -0.13615   0.74482  -0.24539
  32   29886.5    334.6   0.260643864   2.87109   0.55647  -1.54008  -0.43544
  33   30131.7    331.9   0.491807350   5.37337  -1.00030   1.86479   0.94622
  34   30744.4    325.3   0.009075828   0.09718  -0.11864   0.28106  -0.06413
  35   30931.5    323.3   0.198650685   2.11429  -0.80734   1.10994   0.48013
  36   31223.8    320.3   0.036919889   0.38927   0.02202   0.08928   0.61710
  37   31468.0    317.8   0.026384884   0.27603  -0.01232   0.33680  -0.40305
  38   31580.6    316.7   0.012477128   0.13007  -0.08319   0.16351  -0.31050
  39   31668.8    315.8   0.003550669   0.03691   0.07919  -0.13276  -0.11408
  40   32446.4    308.2   0.000678542   0.00688  -0.01904   0.07210  -0.03639
  41   32743.0    305.4   0.005001372   0.05029  -0.02983  -0.07880   0.20781
  42   33323.3    300.1   0.005332225   0.05268  -0.01639   0.14565  -0.17663
  43   33468.2    298.8   0.003020099   0.02971   0.15270   0.02010  -0.07737
  44   33757.6    296.2   0.006383977   0.06226  -0.08020  -0.09027   0.21835
  45   34042.7    293.7   0.002854045   0.02760   0.05686  -0.15270  -0.03241
  46   34279.9    291.7   0.005034806   0.04835  -0.02098   0.18609  -0.11525
  47   34545.6    289.5   0.001753358   0.01671  -0.10483   0.07352   0.01771
  48   34916.8    286.4   0.004225484   0.03984  -0.13827  -0.11793   0.08255
  49   35184.5    284.2   0.043912445   0.41088  -0.10790   0.58504  -0.23868
  50   35353.3    282.9   0.087424097   0.81410   0.05832  -0.75221   0.49485
  51   35546.2    281.3   0.009027581   0.08361  -0.11164   0.24846  -0.09702
  52   35733.1    279.9   0.055192306   0.50849  -0.05762  -0.55528  -0.44366
  53   35908.1    278.5   0.052199381   0.47857   0.14358  -0.49827  -0.45792
  54   35990.2    277.9   0.005411286   0.04950  -0.03904   0.18230   0.12142
  55   36029.5    277.6   0.005829582   0.05327   0.00122  -0.22391  -0.05596
  56   36228.3    276.0   0.003885416   0.03531  -0.13352  -0.05968  -0.11797
  57   36389.6    274.8   0.103793561   0.93901   0.16907   0.88089   0.36667
  58   36631.3    273.0   0.069930170   0.62848   0.08456   0.77988   0.11450
  59   36744.2    272.2   0.042762000   0.38313   0.25932   0.54764  -0.12637
  60   36810.0    271.7   0.059064306   0.52824  -0.22039  -0.69111  -0.04523
  61   36904.6    271.0   0.169581370   1.51277   0.10022  -0.15154  -1.21645
  62   37347.8    267.8   0.046167568   0.40696  -0.50439  -0.03286   0.38919
  63   37406.5    267.3   0.056633942   0.49843   0.05372  -0.28155   0.64519
  64   37452.6    267.0   0.751524198   6.60597  -0.79843  -0.68674   2.34454
  65   37909.3    263.8   0.124317975   1.07960  -1.02407  -0.07325  -0.15975
  66   38305.3    261.1   0.080095689   0.68838  -0.27201   0.26200   0.73874
  67   38634.2    258.8   0.156906796   1.33704   0.23206  -1.11721   0.18715
  68   38948.4    256.8   0.042571521   0.35984  -0.26206   0.51525  -0.16025
  69   39094.6    255.8   0.022043170   0.18562  -0.33492   0.25674   0.08679
  70   39184.3    255.2   0.034204608   0.28737  -0.45539  -0.24248   0.14558
  71   39368.2    254.0   0.005344424   0.04469  -0.03175   0.20555  -0.03786
  72   39809.8    251.2   0.023916074   0.19778   0.03421  -0.37034   0.24384
  73   39940.2    250.4   0.052930905   0.43629  -0.10519   0.50200   0.41620
  74   40160.1    249.0   0.065052911   0.53327   0.03842   0.24227   0.68782
  75   40222.2    248.6   0.132010878   1.08049  -0.08598   0.76247   0.70124

FINAL SINGLE POINT ENERGY     -3427.577097871997

DIPOLE MOMENT
-------------
                                X             Y             Z
Electronic contribution:      2.33388      -5.82849       4.55430
Nuclear contribution   :     -1.63783       5.17699      -6.43819
                        -----------------------------------------
Total Dipole Moment    :      0.69605      -0.65150      -1.88389
                        -----------------------------------------
Magnitude (a.u.)       :      2.11140
Magnitude (Debye)      :      5.36675

Rotational constants in cm-1:     0.001385     0.000399     0.000327
Rotational constants in MHz :    41.521157    11.959840     9.810133

                             ****ORCA TERMINATED NORMALLY****
TOTAL RUN TIME: 0 days 0 hours 9 minutes 1 seconds 635 msec
