                         Program Version 4.2.0 -  RELEASE  -
|  1> # ORCA input file
|  2> # SCF done       -189.521990155501          0.000660082772
|  3> ! CAM-B3LYP def2-SVP def2/J RIJCOSX Grid4 TightSCF
|  4> %maxcore 5000
|  5> %tddft
|  6>     Mode sTDDFT
|  7>     Ethresh 5.0
|  8>     maxcore 5000
|  9> end
| 10>
| 11> %pal
| 12>   nprocs 6
| 13>   end
| 14> * xyz 0 1
| 15>    C        4.58352        -4.15778        -2.11478
| 16>    C        4.57465        -3.24302        -1.06541
| 17>    C        3.40390        -3.03573        -0.24885
| 18>    N        3.40711        -2.09698         0.71741
| 19>    C        4.50150        -1.42848         0.93608
| 20>    C        5.70281        -1.68972         0.17154
| 21>    N        5.70743        -2.55312        -0.80071
| 22>    C        6.89243        -0.97761         0.47692
| 23>    N        7.84012        -0.40195         0.75998
| 24>    C        4.51414        -0.41447         1.92895
| 25>    N        4.56731         0.40055         2.73055
| 26>    C        2.22513        -3.76167        -0.48418
| 27>    C        2.23647        -4.66875        -1.54931
| 28>    C        3.41962        -4.87381        -2.35920
| 29>    N        3.21227        -5.81581        -3.29440
| 30>    S        1.72477        -6.37426        -3.14474
| 31>    N        1.23198        -5.47359        -1.92521
| 32>    C        1.03869        -3.58348         0.32321
| 33>    N        1.03855        -3.65852         1.62818
| 34>    C       -0.24766        -3.43897         2.01119
| 35>    C       -1.10688        -3.17928         0.84758
| 36>    C       -2.49205        -2.91828         1.27158
| 37>    O       -3.45270        -2.66248         0.57973
| 38>    C       -2.40506        -3.04189         2.73945
| 39>    C       -1.01201        -3.36375         3.14392
| 40>    N       -0.92153        -3.46444         4.49395
| 41>    C       -2.12667        -3.22706         4.93900
| 42>    C       -3.10409        -2.94946         3.89519
| 43>    C       -0.29250        -3.26779        -0.25447
| 44>    C       -0.51478        -2.96556        -1.62244
| 45>    C       -1.68608        -2.47596        -2.10460
| 46>    C       -1.88607        -1.98810        -3.42301
| 47>    C       -3.08827        -1.97028        -4.07150
| 48>    C       -2.87800        -1.52288        -5.42696
| 49>    C       -3.87628        -1.39263        -6.40444
| 50>    N       -4.66846        -1.29492        -7.22770
| 51>    C       -1.54481        -1.25648        -5.61487
| 52>    C       -0.85639        -1.48121        -4.38082
| 53>    C        0.44668        -1.12939        -4.12915
| 54>    C        1.48080        -0.83522        -5.13928
| 55>    C        2.60009        -0.41101        -4.49196
| 56>    C        2.33201        -0.40530        -3.06761
| 57>    C        1.04804        -0.82722        -2.85233
| 58>    C        3.26878        -0.05741        -2.08784
| 59>    N        4.05427         0.17636        -1.28370
| 60>    C        1.36584        -1.05539        -6.55262
| 61>    N        1.72070        -0.15916        -7.44577
| 62>    C        1.37666        -0.67649        -8.64903
| 63>    C        0.75261        -2.00630        -8.49091
| 64>    C        0.39556        -2.57746        -9.80517
| 65>    O       -0.12534        -3.64066       -10.04496
| 66>    C        0.83591        -1.51866       -10.73440
| 67>    C        1.42489        -0.38063        -9.98320
| 68>    N        1.85224         0.58254       -10.83793
| 69>    C        1.58093         0.12704       -12.03264
| 70>    C        0.95386        -1.18502       -12.04224
| 71>    C        0.78229        -2.27967        -7.15739
| 72>    C        0.46928        -3.49207        -6.45364
| 73>    C       -0.64617        -4.20762        -6.65469
| 74>    C       -0.87990        -5.49747        -6.05627
| 75>    C       -2.16391        -5.89412        -5.63726
| 76>    C       -2.41989        -7.22836        -5.14975
| 77>    N       -3.67241        -7.58118        -4.78381
| 78>    C       -4.61735        -6.68661        -4.83893
| 79>    C       -4.34204        -5.33107        -5.25194
| 80>    N       -3.14907        -4.97496        -5.64700
| 81>    C       -5.37341        -4.36017        -5.18507
| 82>    N       -6.21992        -3.59596        -5.08207
| 83>    C       -5.94253        -7.04727        -4.47726
| 84>    N       -7.02311        -7.29985        -4.19669
| 85>    C       -1.40577        -8.17690        -5.05949
| 86>    C       -0.12995        -7.79398        -5.45011
| 87>    C        0.14014        -6.45263        -5.93119
| 88>    N        1.42570        -6.30669        -6.28103
| 89>    S        2.19233        -7.68717        -6.04132
| 90>    N        0.97817        -8.55191        -5.47004
| 91>    H        5.47909        -4.31277        -2.69283
| 92>    H       -2.33063        -3.24643         5.99545
| 93>    H       -4.14035        -2.72785         4.05683
| 94>    H        0.32252        -3.10426        -2.29209
| 95>    H       -2.55722        -2.47148        -1.45868
| 96>    H       -4.03959        -2.26759        -3.67239
| 97>    H       -1.11918        -0.81601        -6.49497
| 98>    H        3.53694        -0.14406        -4.94247
| 99>    H        0.53288        -0.81069        -1.91160
|100>    H        1.81959         0.71135       -12.90432
|101>    H        0.66261        -1.72902       -12.91867
|102>    H        1.20752        -3.82557        -5.73392
|103>    H       -1.43944        -3.81956        -7.27821
|104>    H       -1.62078        -9.17377        -4.71447
|105> *
|106>
|107>                          ****END OF INPUT****

CARTESIAN COORDINATES (ANGSTROEM)
---------------------------------
  C      4.583520   -4.157780   -2.114780
  C      4.574650   -3.243020   -1.065410
  C      3.403900   -3.035730   -0.248850
  N      3.407110   -2.096980    0.717410
  C      4.501500   -1.428480    0.936080
  C      5.702810   -1.689720    0.171540
  N      5.707430   -2.553120   -0.800710
  C      6.892430   -0.977610    0.476920
  N      7.840120   -0.401950    0.759980
  C      4.514140   -0.414470    1.928950
  N      4.567310    0.400550    2.730550
  C      2.225130   -3.761670   -0.484180
  C      2.236470   -4.668750   -1.549310
  C      3.419620   -4.873810   -2.359200
  N      3.212270   -5.815810   -3.294400
  S      1.724770   -6.374260   -3.144740
  N      1.231980   -5.473590   -1.925210
  C      1.038690   -3.583480    0.323210
  N      1.038550   -3.658520    1.628180
  C     -0.247660   -3.438970    2.011190
  C     -1.106880   -3.179280    0.847580
  C     -2.492050   -2.918280    1.271580
  O     -3.452700   -2.662480    0.579730
  C     -2.405060   -3.041890    2.739450
  C     -1.012010   -3.363750    3.143920
  N     -0.921530   -3.464440    4.493950
  C     -2.126670   -3.227060    4.939000
  C     -3.104090   -2.949460    3.895190
  C     -0.292500   -3.267790   -0.254470
  C     -0.514780   -2.965560   -1.622440
  C     -1.686080   -2.475960   -2.104600
  C     -1.886070   -1.988100   -3.423010
  C     -3.088270   -1.970280   -4.071500
  C     -2.878000   -1.522880   -5.426960
  C     -3.876280   -1.392630   -6.404440
  N     -4.668460   -1.294920   -7.227700
  C     -1.544810   -1.256480   -5.614870
  C     -0.856390   -1.481210   -4.380820
  C      0.446680   -1.129390   -4.129150
  C      1.480800   -0.835220   -5.139280
  C      2.600090   -0.411010   -4.491960
  C      2.332010   -0.405300   -3.067610
  C      1.048040   -0.827220   -2.852330
  C      3.268780   -0.057410   -2.087840
  N      4.054270    0.176360   -1.283700
  C      1.365840   -1.055390   -6.552620
  N      1.720700   -0.159160   -7.445770
  C      1.376660   -0.676490   -8.649030
  C      0.752610   -2.006300   -8.490910
  C      0.395560   -2.577460   -9.805170
  O     -0.125340   -3.640660  -10.044960
  C      0.835910   -1.518660  -10.734400
  C      1.424890   -0.380630   -9.983200
  N      1.852240    0.582540  -10.837930
  C      1.580930    0.127040  -12.032640
  C      0.953860   -1.185020  -12.042240
  C      0.782290   -2.279670   -7.157390
  C      0.469280   -3.492070   -6.453640
  C     -0.646170   -4.207620   -6.654690
  C     -0.879900   -5.497470   -6.056270
  C     -2.163910   -5.894120   -5.637260
  C     -2.419890   -7.228360   -5.149750
  N     -3.672410   -7.581180   -4.783810
  C     -4.617350   -6.686610   -4.838930
  C     -4.342040   -5.331070   -5.251940
  N     -3.149070   -4.974960   -5.647000
  C     -5.373410   -4.360170   -5.185070
  N     -6.219920   -3.595960   -5.082070
  C     -5.942530   -7.047270   -4.477260
  N     -7.023110   -7.299850   -4.196690
  C     -1.405770   -8.176900   -5.059490
  C     -0.129950   -7.793980   -5.450110
  C      0.140140   -6.452630   -5.931190
  N      1.425700   -6.306690   -6.281030
  S      2.192330   -7.687170   -6.041320
  N      0.978170   -8.551910   -5.470040
  H      5.479090   -4.312770   -2.692830
  H     -2.330630   -3.246430    5.995450
  H     -4.140350   -2.727850    4.056830
  H      0.322520   -3.104260   -2.292090
  H     -2.557220   -2.471480   -1.458680
  H     -4.039590   -2.267590   -3.672390
  H     -1.119180   -0.816010   -6.494970
  H      3.536940   -0.144060   -4.942470
  H      0.532880   -0.810690   -1.911600
  H      1.819590    0.711350  -12.904320
  H      0.662610   -1.729020  -12.918670
  H      1.207520   -3.825570   -5.733920
  H     -1.439440   -3.819560   -7.278210
  H     -1.620780   -9.173770   -4.714470

 Total Charge           Charge          ....    0
 Multiplicity           Mult            ....    1
 Number of Electrons    NEL             ....  512
 Basis Dimension        Dim             .... 1142

ORBITAL ENERGIES
----------------

  NO   OCC          E(Eh)            E(eV)
   0   2.0000     -89.072379     -2423.7827
   1   2.0000     -89.071297     -2423.7532
   2   2.0000     -19.228149      -523.2245
   3   2.0000     -19.226170      -523.1707
   4   2.0000     -14.482105      -394.0781
   5   2.0000     -14.477518      -393.9533
   6   2.0000     -14.475304      -393.8931
   7   2.0000     -14.474791      -393.8791
   8   2.0000     -14.474695      -393.8765
   9   2.0000     -14.473011      -393.8307
  10   2.0000     -14.467116      -393.6702
  11   2.0000     -14.464644      -393.6030
  12   2.0000     -14.445263      -393.0756
  13   2.0000     -14.441764      -392.9804
  14   2.0000     -14.438952      -392.9039
  15   2.0000     -14.431484      -392.7006
  16   2.0000     -14.430779      -392.6815
  17   2.0000     -14.430158      -392.6646
  18   2.0000     -14.429024      -392.6337
  19   2.0000     -14.424026      -392.4977
  20   2.0000     -14.421499      -392.4289
  21   2.0000     -14.420353      -392.3977
  22   2.0000     -10.399387      -282.9817
  23   2.0000     -10.398928      -282.9692
  24   2.0000     -10.389886      -282.7232
  25   2.0000     -10.389050      -282.7004
  26   2.0000     -10.387160      -282.6490
  27   2.0000     -10.387059      -282.6462
  28   2.0000     -10.365679      -282.0645
  29   2.0000     -10.365477      -282.0590
  30   2.0000     -10.365334      -282.0551
  31   2.0000     -10.365121      -282.0493
  32   2.0000     -10.364218      -282.0247
  33   2.0000     -10.364104      -282.0216
  34   2.0000     -10.363242      -281.9982
  35   2.0000     -10.363220      -281.9976
  36   2.0000     -10.361409      -281.9483
  37   2.0000     -10.361342      -281.9464
  38   2.0000     -10.352068      -281.6941
  39   2.0000     -10.349015      -281.6110
  40   2.0000     -10.347436      -281.5680
  41   2.0000     -10.346295      -281.5370
  42   2.0000     -10.343613      -281.4640
  43   2.0000     -10.343182      -281.4523
  44   2.0000     -10.342760      -281.4408
  45   2.0000     -10.342075      -281.4222
  46   2.0000     -10.341602      -281.4093
  47   2.0000     -10.341100      -281.3956
  48   2.0000     -10.340353      -281.3753
  49   2.0000     -10.339086      -281.3408
  50   2.0000     -10.337446      -281.2962
  51   2.0000     -10.335548      -281.2446
  52   2.0000     -10.334163      -281.2069
  53   2.0000     -10.329228      -281.0726
  54   2.0000     -10.328981      -281.0659
  55   2.0000     -10.328424      -281.0507
  56   2.0000     -10.325425      -280.9691
  57   2.0000     -10.323926      -280.9283
  58   2.0000     -10.322850      -280.8990
  59   2.0000     -10.322410      -280.8870
  60   2.0000     -10.320711      -280.8408
  61   2.0000     -10.320559      -280.8367
  62   2.0000     -10.320180      -280.8264
  63   2.0000     -10.317874      -280.7636
  64   2.0000     -10.314512      -280.6721
  65   2.0000     -10.314061      -280.6599
  66   2.0000     -10.311210      -280.5823
  67   2.0000     -10.310462      -280.5619
  68   2.0000     -10.310216      -280.5553
  69   2.0000     -10.308251      -280.5018
  70   2.0000     -10.307607      -280.4842
  71   2.0000     -10.306241      -280.4471
  72   2.0000     -10.306229      -280.4467
  73   2.0000     -10.304975      -280.4126
  74   2.0000     -10.304003      -280.3862
  75   2.0000     -10.303787      -280.3803
  76   2.0000      -8.162698      -222.1183
  77   2.0000      -8.162188      -222.1044
  78   2.0000      -6.133523      -166.9016
  79   2.0000      -6.132953      -166.8861
  80   2.0000      -6.126256      -166.7039
  81   2.0000      -6.125644      -166.6873
  82   2.0000      -6.125604      -166.6862
  83   2.0000      -6.125141      -166.6736
  84   2.0000      -1.167549       -31.7706
  85   2.0000      -1.163965       -31.6731
  86   2.0000      -1.142592       -31.0915
  87   2.0000      -1.141421       -31.0596
  88   2.0000      -1.137117       -30.9425
  89   2.0000      -1.127927       -30.6925
  90   2.0000      -1.097718       -29.8704
  91   2.0000      -1.095088       -29.7989
  92   2.0000      -1.077437       -29.3186
  93   2.0000      -1.075988       -29.2791
  94   2.0000      -1.064179       -28.9578
  95   2.0000      -1.053434       -28.6654
  96   2.0000      -1.036895       -28.2153
  97   2.0000      -1.028693       -27.9922
  98   2.0000      -1.023936       -27.8627
  99   2.0000      -1.017962       -27.7001
 100   2.0000      -1.017237       -27.6804
 101   2.0000      -1.015998       -27.6467
 102   2.0000      -1.015439       -27.6315
 103   2.0000      -1.010506       -27.4973
 104   2.0000      -1.004540       -27.3349
 105   2.0000      -0.996691       -27.1213
 106   2.0000      -0.996264       -27.1097
 107   2.0000      -0.991790       -26.9880
 108   2.0000      -0.953150       -25.9365
 109   2.0000      -0.951435       -25.8899
 110   2.0000      -0.941256       -25.6129
 111   2.0000      -0.937021       -25.4976
 112   2.0000      -0.923712       -25.1355
 113   2.0000      -0.918092       -24.9825
 114   2.0000      -0.908064       -24.7097
 115   2.0000      -0.904155       -24.6033
 116   2.0000      -0.898923       -24.4609
 117   2.0000      -0.887183       -24.1415
 118   2.0000      -0.880364       -23.9559
 119   2.0000      -0.872844       -23.7513
 120   2.0000      -0.866588       -23.5810
 121   2.0000      -0.856413       -23.3042
 122   2.0000      -0.848309       -23.0837
 123   2.0000      -0.847866       -23.0716
 124   2.0000      -0.830441       -22.5975
 125   2.0000      -0.820971       -22.3398
 126   2.0000      -0.814728       -22.1699
 127   2.0000      -0.811448       -22.0806
 128   2.0000      -0.793963       -21.6048
 129   2.0000      -0.793291       -21.5865
 130   2.0000      -0.779588       -21.2137
 131   2.0000      -0.776404       -21.1270
 132   2.0000      -0.761853       -20.7311
 133   2.0000      -0.756819       -20.5941
 134   2.0000      -0.747488       -20.3402
 135   2.0000      -0.743871       -20.2418
 136   2.0000      -0.739033       -20.1101
 137   2.0000      -0.735351       -20.0099
 138   2.0000      -0.730998       -19.8915
 139   2.0000      -0.720841       -19.6151
 140   2.0000      -0.717169       -19.5151
 141   2.0000      -0.705157       -19.1883
 142   2.0000      -0.703103       -19.1324
 143   2.0000      -0.697626       -18.9834
 144   2.0000      -0.687969       -18.7206
 145   2.0000      -0.680039       -18.5048
 146   2.0000      -0.670765       -18.2524
 147   2.0000      -0.670166       -18.2361
 148   2.0000      -0.665389       -18.1062
 149   2.0000      -0.662014       -18.0143
 150   2.0000      -0.659012       -17.9326
 151   2.0000      -0.647787       -17.6272
 152   2.0000      -0.647174       -17.6105
 153   2.0000      -0.644415       -17.5354
 154   2.0000      -0.640247       -17.4220
 155   2.0000      -0.635421       -17.2907
 156   2.0000      -0.628745       -17.1090
 157   2.0000      -0.625727       -17.0269
 158   2.0000      -0.624669       -16.9981
 159   2.0000      -0.618231       -16.8229
 160   2.0000      -0.618063       -16.8183
 161   2.0000      -0.611201       -16.6316
 162   2.0000      -0.598156       -16.2767
 163   2.0000      -0.597514       -16.2592
 164   2.0000      -0.594899       -16.1880
 165   2.0000      -0.586812       -15.9680
 166   2.0000      -0.582144       -15.8410
 167   2.0000      -0.578291       -15.7361
 168   2.0000      -0.575962       -15.6727
 169   2.0000      -0.572825       -15.5873
 170   2.0000      -0.569990       -15.5102
 171   2.0000      -0.564283       -15.3549
 172   2.0000      -0.560351       -15.2479
 173   2.0000      -0.560035       -15.2393
 174   2.0000      -0.556675       -15.1479
 175   2.0000      -0.554427       -15.0867
 176   2.0000      -0.549346       -14.9485
 177   2.0000      -0.545612       -14.8468
 178   2.0000      -0.544662       -14.8210
 179   2.0000      -0.543369       -14.7858
 180   2.0000      -0.541711       -14.7407
 181   2.0000      -0.537139       -14.6163
 182   2.0000      -0.534852       -14.5541
 183   2.0000      -0.534180       -14.5358
 184   2.0000      -0.529538       -14.4095
 185   2.0000      -0.523203       -14.2371
 186   2.0000      -0.518406       -14.1066
 187   2.0000      -0.516816       -14.0633
 188   2.0000      -0.514917       -14.0116
 189   2.0000      -0.512836       -13.9550
 190   2.0000      -0.511771       -13.9260
 191   2.0000      -0.505743       -13.7620
 192   2.0000      -0.504344       -13.7239
 193   2.0000      -0.501298       -13.6410
 194   2.0000      -0.497838       -13.5469
 195   2.0000      -0.495283       -13.4773
 196   2.0000      -0.493523       -13.4294
 197   2.0000      -0.492320       -13.3967
 198   2.0000      -0.489871       -13.3301
 199   2.0000      -0.489203       -13.3119
 200   2.0000      -0.488440       -13.2911
 201   2.0000      -0.486694       -13.2436
 202   2.0000      -0.482451       -13.1281
 203   2.0000      -0.479131       -13.0378
 204   2.0000      -0.477974       -13.0063
 205   2.0000      -0.476713       -12.9720
 206   2.0000      -0.469062       -12.7638
 207   2.0000      -0.467051       -12.7091
 208   2.0000      -0.465211       -12.6590
 209   2.0000      -0.464251       -12.6329
 210   2.0000      -0.461022       -12.5451
 211   2.0000      -0.458204       -12.4684
 212   2.0000      -0.456604       -12.4248
 213   2.0000      -0.456494       -12.4218
 214   2.0000      -0.454042       -12.3551
 215   2.0000      -0.451769       -12.2933
 216   2.0000      -0.449925       -12.2431
 217   2.0000      -0.448926       -12.2159
 218   2.0000      -0.446323       -12.1451
 219   2.0000      -0.442321       -12.0362
 220   2.0000      -0.441851       -12.0234
 221   2.0000      -0.439824       -11.9682
 222   2.0000      -0.438374       -11.9288
 223   2.0000      -0.435731       -11.8568
 224   2.0000      -0.434991       -11.8367
 225   2.0000      -0.431994       -11.7552
 226   2.0000      -0.428505       -11.6602
 227   2.0000      -0.423425       -11.5220
 228   2.0000      -0.421018       -11.4565
 229   2.0000      -0.418835       -11.3971
 230   2.0000      -0.418553       -11.3894
 231   2.0000      -0.414879       -11.2894
 232   2.0000      -0.409893       -11.1538
 233   2.0000      -0.403037       -10.9672
 234   2.0000      -0.398727       -10.8499
 235   2.0000      -0.380309       -10.3487
 236   2.0000      -0.379563       -10.3284
 237   2.0000      -0.373087       -10.1522
 238   2.0000      -0.369092       -10.0435
 239   2.0000      -0.367972       -10.0130
 240   2.0000      -0.367083        -9.9888
 241   2.0000      -0.366361        -9.9692
 242   2.0000      -0.362409        -9.8617
 243   2.0000      -0.357975        -9.7410
 244   2.0000      -0.357416        -9.7258
 245   2.0000      -0.354112        -9.6359
 246   2.0000      -0.352139        -9.5822
 247   2.0000      -0.349619        -9.5136
 248   2.0000      -0.346061        -9.4168
 249   2.0000      -0.344813        -9.3828
 250   2.0000      -0.344477        -9.3737
 251   2.0000      -0.342301        -9.3145
 252   2.0000      -0.322079        -8.7642
 253   2.0000      -0.317241        -8.6326
 254   2.0000      -0.302856        -8.2411
 255   2.0000      -0.285538        -7.7699
 256   0.0000      -0.147335        -4.0092
 257   0.0000      -0.137238        -3.7344
 258   0.0000      -0.136122        -3.7041
 259   0.0000      -0.118863        -3.2344
 260   0.0000      -0.112192        -3.0529

MULLIKEN ATOMIC CHARGES
-----------------------
   0 C :   -0.075460
   1 C :    0.006778
   2 C :   -0.026302
   3 N :    0.093149
   4 C :   -0.127472
   5 C :   -0.130011
   6 N :    0.054972
   7 C :   -0.193331
   8 N :    0.239819
   9 C :   -0.189718
  10 N :    0.247450
  11 C :    0.062045
  12 C :   -0.034897
  13 C :    0.112333
  14 N :   -0.259718
  15 S :    0.519633
  16 N :   -0.247667
  17 C :   -0.075834
  18 N :    0.003027
  19 C :    0.105140
  20 C :   -0.179708
  21 C :    0.224929
  22 O :   -0.135595
  23 C :   -0.011887
  24 C :   -0.041973
  25 N :   -0.045286
  26 C :    0.096877
  27 C :   -0.090962
  28 C :    0.081898
  29 C :   -0.073538
  30 C :   -0.010527
  31 C :    0.089971
  32 C :   -0.002391
  33 C :   -0.082755
  34 C :   -0.125537
  35 N :    0.175491
  36 C :   -0.035492
  37 C :    0.066632
  38 C :    0.033720
  39 C :    0.050967
  40 C :    0.034562
  41 C :   -0.132657
  42 C :   -0.035252
  43 C :   -0.076222
  44 N :    0.121084
  45 C :   -0.057523
  46 N :   -0.006679
  47 C :    0.093803
  48 C :   -0.117369
  49 C :    0.210468
  50 O :   -0.114733
  51 C :   -0.041259
  52 C :   -0.030635
  53 N :   -0.053006
  54 C :    0.097330
  55 C :   -0.084131
  56 C :   -0.031669
  57 C :   -0.010401
  58 C :   -0.007824
  59 C :    0.083190
  60 C :   -0.045692
  61 C :    0.017656
  62 N :    0.062395
  63 C :   -0.147832
  64 C :   -0.130062
  65 N :    0.061373
  66 C :   -0.197177
  67 N :    0.237100
  68 C :   -0.192882
  69 N :    0.242449
  70 C :   -0.069555
  71 C :    0.102745
  72 C :   -0.045671
  73 N :   -0.264511
  74 S :    0.554440
  75 N :   -0.260573
  76 H :   -0.010950
  77 H :    0.019548
  78 H :    0.003676
  79 H :    0.005523
  80 H :    0.018928
  81 H :    0.007845
  82 H :    0.017821
  83 H :    0.010304
  84 H :    0.033169
  85 H :    0.017688
  86 H :    0.001678
  87 H :    0.018687
  88 H :    0.032026
  89 H :   -0.009993
Sum of atomic charges:   -0.0000000

LOEWDIN ATOMIC CHARGES
----------------------
   0 C :    0.015989
   1 C :   -0.010653
   2 C :    0.009220
   3 N :    0.006006
   4 C :   -0.005121
   5 C :   -0.010114
   6 N :   -0.000141
   7 C :   -0.030488
   8 N :    0.003528
   9 C :   -0.029034
  10 N :    0.005725
  11 C :   -0.035173
  12 C :   -0.043924
  13 C :   -0.050687
  14 N :   -0.290629
  15 S :    0.706241
  16 N :   -0.289007
  17 C :    0.073353
  18 N :   -0.066581
  19 C :    0.047985
  20 C :   -0.048538
  21 C :    0.070633
  22 O :   -0.135998
  23 C :   -0.037531
  24 C :    0.037736
  25 N :   -0.087541
  26 C :    0.086528
  27 C :   -0.023320
  28 C :   -0.022378
  29 C :   -0.029626
  30 C :    0.013117
  31 C :   -0.026780
  32 C :    0.020644
  33 C :   -0.027480
  34 C :   -0.030887
  35 N :   -0.020384
  36 C :   -0.002844
  37 C :    0.063770
  38 C :    0.018380
  39 C :   -0.052186
  40 C :    0.058627
  41 C :   -0.079150
  42 C :    0.028195
  43 C :   -0.009664
  44 N :   -0.052681
  45 C :    0.059033
  46 N :   -0.087317
  47 C :    0.039615
  48 C :   -0.035483
  49 C :    0.065926
  50 O :   -0.128797
  51 C :   -0.039412
  52 C :    0.034239
  53 N :   -0.091289
  54 C :    0.085694
  55 C :   -0.026840
  56 C :   -0.039692
  57 C :    0.000866
  58 C :    0.010565
  59 C :   -0.006228
  60 C :   -0.011716
  61 C :   -0.008495
  62 N :    0.005257
  63 C :   -0.021392
  64 C :   -0.025073
  65 N :    0.004749
  66 C :   -0.037291
  67 N :    0.006878
  68 C :   -0.036272
  69 N :    0.006805
  70 C :    0.000415
  71 C :   -0.059237
  72 C :   -0.057972
  73 N :   -0.283223
  74 S :    0.703814
  75 N :   -0.287843
  76 H :    0.051714
  77 H :    0.027713
  78 H :    0.037933
  79 H :    0.024324
  80 H :    0.042096
  81 H :    0.039503
  82 H :    0.038955
  83 H :    0.044639
  84 H :    0.043591
  85 H :    0.027305
  86 H :    0.037433
  87 H :    0.031966
  88 H :    0.043959
  89 H :    0.051447

  Mayer bond orders larger than 0.100000
B(  0-C ,  1-C ) :   1.2984 B(  0-C , 11-C ) :   0.1530 B(  0-C , 13-C ) :   1.1734
B(  0-C , 76-H ) :   1.0633 B(  1-C ,  2-C ) :   1.1289 B(  1-C ,  6-N ) :   1.3198
B(  2-C ,  3-N ) :   1.4331 B(  2-C , 11-C ) :   1.3735 B(  3-N ,  4-C ) :   1.7844
B(  4-C ,  5-C ) :   1.1440 B(  4-C ,  9-C ) :   1.1591 B(  5-C ,  6-N ) :   1.8153
B(  5-C ,  7-C ) :   1.1549 B(  7-C ,  8-N ) :   3.0553 B(  9-C , 10-N ) :   3.0547
B( 11-C , 12-C ) :   1.3123 B( 11-C , 17-C ) :   0.9078 B( 12-C , 13-C ) :   1.1147
B( 12-C , 16-N ) :   1.4913 B( 13-C , 14-N ) :   1.4455 B( 14-N , 15-S ) :   1.3125
B( 14-N , 16-N ) :   0.1618 B( 15-S , 16-N ) :   1.3153 B( 17-C , 18-N ) :   1.7233
B( 17-C , 19-C ) :   0.1414 B( 17-C , 28-C ) :   1.0509 B( 18-N , 19-C ) :   1.2844
B( 19-C , 20-C ) :   1.0558 B( 19-C , 24-C ) :   1.4535 B( 20-C , 21-C ) :   0.8954
B( 20-C , 28-C ) :   1.5349 B( 21-C , 22-O ) :   2.1964 B( 21-C , 23-C ) :   0.9202
B( 23-C , 24-C ) :   1.0561 B( 23-C , 27-C ) :   1.6317 B( 24-C , 25-N ) :   1.2977
B( 25-N , 26-C ) :   1.6775 B( 26-C , 27-C ) :   1.0456 B( 26-C , 77-H ) :   0.9888
B( 27-C , 78-H ) :   1.0103 B( 28-C , 29-C ) :   1.1451 B( 29-C , 30-C ) :   1.6309
B( 29-C , 79-H ) :   0.9438 B( 30-C , 31-C ) :   1.1059 B( 30-C , 80-H ) :   0.9487
B( 31-C , 32-C ) :   1.5701 B( 31-C , 37-C ) :   1.0164 B( 32-C , 33-C ) :   1.0890
B( 32-C , 81-H ) :   1.0215 B( 33-C , 34-C ) :   1.0719 B( 33-C , 36-C ) :   1.6115
B( 34-C , 35-N ) :   3.0319 B( 36-C , 37-C ) :   1.1107 B( 36-C , 82-H ) :   1.0088
B( 37-C , 38-C ) :   1.4689 B( 38-C , 39-C ) :   1.1200 B( 38-C , 42-C ) :   1.0835
B( 39-C , 40-C ) :   1.6343 B( 39-C , 45-C ) :   0.9358 B( 40-C , 41-C ) :   1.0809
B( 40-C , 83-H ) :   1.0289 B( 41-C , 42-C ) :   1.6067 B( 41-C , 43-C ) :   1.0706
B( 42-C , 84-H ) :   1.0130 B( 43-C , 44-N ) :   2.9519 B( 45-C , 46-N ) :   1.7023
B( 45-C , 47-C ) :   0.1369 B( 45-C , 56-C ) :   1.0334 B( 46-N , 47-C ) :   1.2990
B( 47-C , 48-C ) :   1.0529 B( 47-C , 52-C ) :   1.4456 B( 48-C , 49-C ) :   0.8765
B( 48-C , 56-C ) :   1.6159 B( 49-C , 50-O ) :   2.3104 B( 49-C , 51-C ) :   0.8893
B( 51-C , 52-C ) :   1.0471 B( 51-C , 55-C ) :   1.6300 B( 52-C , 53-N ) :   1.2996
B( 53-N , 54-C ) :   1.6718 B( 54-C , 55-C ) :   1.0575 B( 54-C , 85-H ) :   0.9887
B( 55-C , 86-H ) :   1.0092 B( 56-C , 57-C ) :   1.0538 B( 57-C , 58-C ) :   1.7416
B( 57-C , 87-H ) :   0.9486 B( 58-C , 59-C ) :   1.0976 B( 58-C , 88-H ) :   0.9579
B( 59-C , 60-C ) :   1.2854 B( 59-C , 70-C ) :   0.1448 B( 59-C , 72-C ) :   1.2624
B( 60-C , 61-C ) :   1.1240 B( 60-C , 65-N ) :   1.4340 B( 61-C , 62-N ) :   1.3349
B( 61-C , 70-C ) :   1.3098 B( 62-N , 63-C ) :   1.8000 B( 63-C , 64-C ) :   1.1671
B( 63-C , 68-C ) :   1.1464 B( 64-C , 65-N ) :   1.7621 B( 64-C , 66-C ) :   1.1641
B( 66-C , 67-N ) :   2.9702 B( 68-C , 69-N ) :   3.0527 B( 70-C , 71-C ) :   1.1884
B( 70-C , 89-H ) :   1.0571 B( 71-C , 72-C ) :   1.1179 B( 71-C , 75-N ) :   1.4434
B( 72-C , 73-N ) :   1.4715 B( 73-N , 74-S ) :   1.2962 B( 73-N , 75-N ) :   0.1591
B( 74-S , 75-N ) :   1.3124

-----------------------------------------------------------------------------
         ABSORPTION SPECTRUM VIA TRANSITION ELECTRIC DIPOLE MOMENTS
-----------------------------------------------------------------------------
State   Energy  Wavelength   fosc         T2         TX        TY        TZ
        (cm-1)    (nm)                  (au**2)     (au)      (au)      (au)
-----------------------------------------------------------------------------
   0   10838.1    922.7   0.072547419   2.20365  -0.40889  -0.42275   1.36299
   1   15481.7    645.9   0.029923091   0.63630  -0.16988  -0.06089   0.77701
   2   16436.4    608.4   0.047864786   0.95870   0.31390   0.67453  -0.63653
   3   16565.0    603.7   0.001697728   0.03374  -0.05632  -0.10076  -0.14288
   4   18859.9    530.2   0.108616510   1.89597  -0.42180  -1.27688   0.29603
   5   19186.7    521.2   0.139883324   2.40017   0.60594   1.09217  -0.91660
   6   20150.0    496.3   0.046106993   0.75330   0.12706  -0.29528   0.80620
   7   21105.8    473.8   0.056756949   0.88530  -0.32915  -0.15311   0.86806
   8   21230.7    471.0   0.008397649   0.13022   0.14441  -0.04074  -0.32818
   9   21556.6    463.9   0.004600327   0.07026   0.25496  -0.02528   0.06791
  10   21805.0    458.6   0.006559921   0.09904   0.27579   0.05329  -0.14192
  11   21951.3    455.6   0.003455166   0.05182   0.19167  -0.06922   0.10144
  12   22572.8    443.0   0.073604441   1.07348   0.42346   0.07405  -0.94270
  13   22877.4    437.1   0.299024704   4.30304  -1.63100   0.15313   1.27257
  14   24557.8    407.2   0.006158114   0.08255  -0.11109  -0.26292  -0.03291
  15   24677.7    405.2   0.011444488   0.15267   0.31779   0.10373  -0.20230
  16   24731.0    404.4   0.077180171   1.02740  -0.32383   0.24180  -0.92956
  17   24915.4    401.4   0.064477412   0.85195   0.42440   0.17224  -0.80136
  18   25155.3    397.5   0.145000188   1.89764  -0.55830  -0.30048   1.22297
  19   25750.0    388.3   0.024129294   0.30849  -0.38538  -0.00508   0.39993
  20   25876.9    386.4   0.021348948   0.27161   0.01215  -0.03340   0.51994
  21   25977.0    385.0   0.067064389   0.84992   0.04462   0.02415   0.92052
  22   26204.3    381.6   0.032735270   0.41126   0.25778   0.19103  -0.55526
  23   26385.0    379.0   0.024727189   0.30853  -0.39298  -0.17625   0.35075
  24   26494.8    377.4   0.010156043   0.12619   0.14005  -0.05223  -0.32226
  25   26516.4    377.1   0.083006665   1.03056  -0.29657  -0.23860   0.94111
  26   26778.0    373.4   0.086079317   1.05827   0.42414   0.20808  -0.91382
  27   27142.1    368.4   0.007363948   0.08932   0.29832   0.01639   0.00746
  28   27222.0    367.4   0.067891582   0.82105   0.21846   0.24802  -0.84369
  29   27761.8    360.2   0.088508158   1.04957   0.39268   0.37344  -0.86944
  30   27905.7    358.3   0.003172057   0.03742  -0.06643  -0.17441   0.05091
  31   28159.4    355.1   0.014341375   0.16767  -0.08006   0.10538  -0.38749
  32   28359.6    352.6   0.002763630   0.03208   0.01293  -0.10427  -0.14506
  33   28764.0    347.7   0.011849077   0.13562   0.28364  -0.20617  -0.11252
  34   28969.9    345.2   0.059102901   0.67164  -0.07546  -0.01084  -0.81598
  35   29185.0    342.6   0.018025566   0.20333   0.18841  -0.39060  -0.12354
  36   29241.5    342.0   0.109474966   1.23251  -0.68442  -0.65503   0.57880
  37   29288.1    341.4   0.137637669   1.54711   0.80869   0.30800   0.89346
  38   29609.2    337.7   0.214623982   2.38631  -1.12606  -0.42635  -0.96774
  39   29862.9    334.9   0.132973863   1.46592  -0.07374   0.81589   0.89152
  40   30025.3    333.1   0.088832041   0.97400   0.69909  -0.42960   0.54838
  41   30086.0    332.4   0.087899815   0.96183   0.21487  -0.27862   0.91544
  42   30312.4    329.9   0.157702787   1.71275   0.73928   0.20173   1.06091
  43   30655.1    326.2   0.044444598   0.47730  -0.61183  -0.31789  -0.04372
  44   30731.9    325.4   0.051481005   0.55148  -0.47743  -0.27629  -0.49720
  45   31051.6    322.0   0.005833545   0.06185  -0.14900  -0.17109   0.10186
  46   31151.8    321.0   0.062733401   0.66297  -0.00203   0.13974   0.80214
  47   31172.5    320.8   0.059804342   0.63159  -0.49135  -0.27632  -0.56019
  48   31376.8    318.7   0.039201913   0.41131   0.41117   0.11733  -0.47800
  49   31464.1    317.8   0.005843829   0.06114  -0.11807   0.09206   0.19680
  50   31512.9    317.3   0.055483453   0.57963   0.30392   0.34807   0.60507
  51   31615.5    316.3   0.005814787   0.06055   0.06720   0.03505   0.23410
  52   31646.9    316.0   0.028005910   0.29134  -0.03179  -0.17970   0.50797
  53   31877.4    313.7   0.061167942   0.63171  -0.48075  -0.34170   0.53275
  54   32138.7    311.2   0.000111997   0.00115  -0.00307   0.00711  -0.03297
  55   32203.8    310.5   0.003512050   0.03590   0.18752  -0.00851  -0.02586
  56   32306.5    309.5   0.000352009   0.00359   0.01128  -0.02572   0.05290
  57   32374.1    308.9   0.008725975   0.08873  -0.07917  -0.00366  -0.28715
  58   32498.0    307.7   0.006593546   0.06679  -0.18201  -0.10889  -0.14768
  59   32769.1    305.2   0.109727961   1.10237  -0.69562  -0.34584  -0.70631
  60   32867.4    304.3   0.015193186   0.15218   0.27394   0.13406   0.24324
  61   33018.8    302.9   0.009923642   0.09894  -0.07904  -0.02282  -0.30360
  62   33220.0    301.0   0.023705335   0.23492  -0.32712  -0.03651   0.35579
  63   33355.3    299.8   0.022974345   0.22675  -0.32106   0.27735  -0.21622
  64   33660.1    297.1   0.010790404   0.10554  -0.19220   0.14899   0.21540
  65   33839.8    295.5   0.107939579   1.05009   0.35928   0.52923  -0.80058
  66   33908.3    294.9   0.043367610   0.42105  -0.46533  -0.35935  -0.27456
  67   34124.3    293.0   0.017144032   0.16540   0.40375  -0.03017  -0.03834
  68   34361.3    291.0   0.002479637   0.02376   0.03806   0.00720  -0.14919
  69   34525.2    289.6   0.173945266   1.65864   0.68604   0.47414  -0.98142
  70   34552.5    289.4   0.019022589   0.18125   0.41076  -0.09454   0.05986
  71   34898.7    286.5   0.005944976   0.05608  -0.05920  -0.05024   0.22372
  72   34986.1    285.8   0.003491836   0.03286  -0.17990  -0.02159  -0.00532
  73   35040.6    285.4   0.026920212   0.25292  -0.36170  -0.26158   0.23167
  74   35119.9    284.7   0.008031105   0.07528   0.09680   0.05468   0.25084
  75   35152.7    284.5   0.003097463   0.02901  -0.00789  -0.03876   0.16566
  76   35200.0    284.1   0.004142236   0.03874  -0.13789  -0.01118   0.14001
  77   35294.0    283.3   0.000065959   0.00062  -0.01071   0.00099  -0.02235
  78   35450.8    282.1   0.001051414   0.00976   0.01824  -0.05860  -0.07744
  79   35634.7    280.6   0.012528985   0.11575   0.11192  -0.01459   0.32095
  80   35749.1    279.7   0.034631656   0.31892   0.00707   0.14755   0.54507
  81   35815.3    279.2   0.020622656   0.18956   0.42481   0.08945   0.03314
  82   35881.8    278.7   0.077110354   0.70748  -0.80883  -0.12003  -0.19716
  83   36040.5    277.5   0.027326435   0.24961  -0.10117  -0.07443  -0.48357
  84   36064.9    277.3   0.030990235   0.28289  -0.14520  -0.19351   0.47367
  85   36139.2    276.7   0.008056954   0.07340   0.06991   0.03810  -0.25895
  86   36311.5    275.4   0.011466320   0.10396  -0.31926  -0.03724   0.02541
  87   36359.6    275.0   0.011772820   0.10660  -0.32172  -0.04773  -0.02847
  88   36556.7    273.5   0.022305686   0.20087   0.01130   0.17117   0.41406
  89   36675.9    272.7   0.018270949   0.16400  -0.27560   0.04744  -0.29291
  90   36774.3    271.9   0.143084308   1.28092  -1.12670  -0.06209   0.08727
  91   36990.2    270.3   0.865792688   7.70553   2.72032  -0.42783  -0.34979
  92   37104.1    269.5   0.126538434   1.12273   1.02881  -0.23813  -0.08708
  93   37191.6    268.9   0.003347952   0.02964  -0.14144  -0.00800  -0.09781
  94   37387.6    267.5   0.034800117   0.30643  -0.01095   0.25290  -0.49229
  95   37700.9    265.2   0.140878130   1.23018   0.32101   0.36862  -0.99561
  96   37829.1    264.3   0.053037839   0.46157  -0.34528   0.35913  -0.46192
  97   38064.1    262.7   0.028072716   0.24280   0.45953   0.14334   0.10527
  98   38317.2    261.0   0.004941690   0.04246  -0.14007   0.13692  -0.06396
  99   38387.1    260.5   0.017041592   0.14615   0.25959   0.09856  -0.26277
 100   38410.4    260.3   0.031902283   0.27343   0.43479   0.00481  -0.29046
 101   38499.8    259.7   0.004157558   0.03555   0.18211   0.00924  -0.04799
 102   38693.6    258.4   0.000922317   0.00785  -0.02845  -0.07191  -0.04321
 103   38847.9    257.4   0.024118869   0.20439  -0.34656  -0.07977  -0.27915
 104   38872.8    257.2   0.019129027   0.16200   0.33354  -0.17681  -0.13961
 105   38920.3    256.9   0.004041126   0.03418   0.09474  -0.02302   0.15709
 106   39198.9    255.1   0.181607634   1.52523   0.28301  -0.14876  -1.19290
 107   39401.9    253.8   0.033796593   0.28238  -0.41482   0.05310   0.32785
 108   39508.5    253.1   0.060748598   0.50620   0.07737  -0.09419   0.70096
 109   39862.4    250.9   0.006786904   0.05605  -0.19550   0.05952  -0.11954
 110   39975.0    250.2   0.099437559   0.81891   0.82113  -0.08670   0.37032
 111   40043.8    249.7   0.561225602   4.61400  -1.73677  -0.17526  -1.25176
 112   40104.8    249.3   0.000943107   0.00774   0.03539  -0.08035   0.00579
 113   40297.1    248.2   0.017793936   0.14537  -0.23185  -0.12062  -0.27761

FINAL SINGLE POINT ENERGY     -3993.851556357563

DIPOLE MOMENT
-------------
                                X             Y             Z
Electronic contribution:      8.33266     -11.24735       5.24710
Nuclear contribution   :     -7.63493       8.67578      -7.07490
                        -----------------------------------------
Total Dipole Moment    :      0.69773      -2.57157      -1.82780
                        -----------------------------------------
Magnitude (a.u.)       :      3.23120
Magnitude (Debye)      :      8.21305

Rotational constants in cm-1:     0.001119     0.000794     0.000629
Rotational constants in MHz :    33.548849    23.816399    18.861892

                             ****ORCA TERMINATED NORMALLY****
TOTAL RUN TIME: 0 days 0 hours 11 minutes 47 seconds 669 msec
