                         Program Version 4.2.0 -  RELEASE  -
|  1> # ORCA input file
|  2> # SCF done       -144.612608728232          0.000655191477
|  3> ! CAM-B3LYP def2-SVP def2/J RIJCOSX Grid4 TightSCF
|  4> %maxcore 5000
|  5> %tddft
|  6>     Mode sTDDFT
|  7>     Ethresh 5.0
|  8>     maxcore 5000
|  9> end
| 10>
| 11> %pal
| 12>   nprocs 6
| 13>   end
| 14> * xyz 0 1
| 15>    C        2.70135         5.89265         3.52320
| 16>    C        3.64686         5.93494         2.57235
| 17>    C        3.03205         6.00847         1.25523
| 18>    C        1.67888         6.00340         1.37571
| 19>    C        1.37192         5.93466         2.86251
| 20>    O        0.29042         5.91325         3.39159
| 21>    C        0.68520         6.05579         0.36669
| 22>    C       -0.75346         6.21380         0.62340
| 23>    N       -1.48974         6.23425        -0.44836
| 24>    C       -0.62437         6.08733        -1.48977
| 25>    C        0.76292         5.98864        -1.01419
| 26>    C        1.64070         5.78006        -2.13731
| 27>    S        3.27190         5.53668        -2.08598
| 28>    C        0.77674         5.76684        -3.29264
| 29>    C       -0.61418         5.95880        -2.85497
| 30>    N       -1.47024         5.90840        -3.91347
| 31>    C       -0.72232         5.65961        -4.94863
| 32>    C        0.70816         5.54160        -4.65570
| 33>    C        1.72290         5.26919        -5.63431
| 34>    C        3.03613         5.63161        -5.39606
| 35>    C        4.03220         5.34387        -6.34040
| 36>    C        5.41005         5.56564        -6.32334
| 37>    C        6.25816         6.16246        -5.25967
| 38>    C        5.67674         7.45497        -4.65521
| 39>    N        6.77033         8.34948        -4.31969
| 40>    C        6.52579         5.11729        -4.15255
| 41>    N        7.26917         3.99821        -4.70297
| 42>    C        5.93165         5.00573        -7.54704
| 43>    C        7.19888         4.88806        -7.98884
| 44>    C        7.50607         4.24526        -9.29499
| 45>    C        6.31554         3.71164       -10.02507
| 46>    C        5.05543         3.82866        -9.56200
| 47>    C        4.81054         4.45868        -8.31970
| 48>    C        3.66235         4.66774        -7.57564
| 49>    C        2.31054         4.32981        -7.80487
| 50>    C        1.37528         4.62246        -6.86370
| 51>    C        8.19808         5.26533       -10.16770
| 52>    C        9.48215         5.17636       -10.52639
| 53>    C       10.17249         6.11734       -11.35379
| 54>    C        9.63151         7.28781       -12.05283
| 55>    N       10.51096         7.95901       -12.73914
| 56>    C       11.69545         7.30454       -12.55501
| 57>    C       11.50557         6.13548       -11.68469
| 58>    C       12.76074         5.45322       -11.48850
| 59>    S       12.99233         4.09589       -10.58559
| 60>    C       13.71063         6.22111       -12.24945
| 61>    C       13.02031         7.35522       -12.89759
| 62>    N       13.89561         8.10307       -13.62790
| 63>    C       15.05256         7.53021       -13.48269
| 64>    C       15.03600         6.33273       -12.62697
| 65>    C       16.17315         5.54630       -12.31786
| 66>    C       16.26324         4.44294       -11.52901
| 67>    C       17.63800         3.96722       -11.50013
| 68>    C       18.41648         4.75441       -12.25871
| 69>    C       17.56948         5.82340       -12.84690
| 70>    O       17.91620         6.71226       -13.58173
| 71>    H        2.82267         5.83461         4.58771
| 72>    H        4.71253         5.92144         2.71967
| 73>    H        3.59212         6.06076         0.33979
| 74>    H       -1.19210         6.31449         1.59963
| 75>    H       -1.16531         5.59898        -5.92736
| 76>    H        3.28967         6.14004        -4.48257
| 77>    H        7.22545         6.42578        -5.69653
| 78>    H        5.04188         7.20686        -3.79028
| 79>    H        5.05895         7.96039        -5.40249
| 80>    H        7.33250         7.95909        -3.57108
| 81>    H        6.41730         9.24695        -4.00831
| 82>    H        5.56437         4.83038        -3.70058
| 83>    H        7.14490         5.57699        -3.37836
| 84>    H        6.67664         3.45135        -5.31916
| 85>    H        7.59591         3.38928        -3.96180
| 86>    H        8.03951         5.26006        -7.42138
| 87>    H        8.21833         3.42729        -9.11562
| 88>    H        6.52106         3.23444       -10.97118
| 89>    H        4.22295         3.42942       -10.12296
| 90>    H        2.03382         3.83039        -8.72165
| 91>    H        0.34627         4.34086        -7.02449
| 92>    H        7.57596         6.08803       -10.48799
| 93>    H       10.08650         4.34753       -10.17820
| 94>    H        8.60366         7.60491       -12.03779
| 95>    H       15.93104         7.92389       -13.96184
| 96>    H       15.45760         3.97253       -10.99488
| 97>    H       17.94516         3.10336       -10.93754
| 98>    H       19.46997         4.67511       -12.44618
| 99> *
|100>
|101>                          ****END OF INPUT****

CARTESIAN COORDINATES (ANGSTROEM)
---------------------------------
  C      2.701350    5.892650    3.523200
  C      3.646860    5.934940    2.572350
  C      3.032050    6.008470    1.255230
  C      1.678880    6.003400    1.375710
  C      1.371920    5.934660    2.862510
  O      0.290420    5.913250    3.391590
  C      0.685200    6.055790    0.366690
  C     -0.753460    6.213800    0.623400
  N     -1.489740    6.234250   -0.448360
  C     -0.624370    6.087330   -1.489770
  C      0.762920    5.988640   -1.014190
  C      1.640700    5.780060   -2.137310
  S      3.271900    5.536680   -2.085980
  C      0.776740    5.766840   -3.292640
  C     -0.614180    5.958800   -2.854970
  N     -1.470240    5.908400   -3.913470
  C     -0.722320    5.659610   -4.948630
  C      0.708160    5.541600   -4.655700
  C      1.722900    5.269190   -5.634310
  C      3.036130    5.631610   -5.396060
  C      4.032200    5.343870   -6.340400
  C      5.410050    5.565640   -6.323340
  C      6.258160    6.162460   -5.259670
  C      5.676740    7.454970   -4.655210
  N      6.770330    8.349480   -4.319690
  C      6.525790    5.117290   -4.152550
  N      7.269170    3.998210   -4.702970
  C      5.931650    5.005730   -7.547040
  C      7.198880    4.888060   -7.988840
  C      7.506070    4.245260   -9.294990
  C      6.315540    3.711640  -10.025070
  C      5.055430    3.828660   -9.562000
  C      4.810540    4.458680   -8.319700
  C      3.662350    4.667740   -7.575640
  C      2.310540    4.329810   -7.804870
  C      1.375280    4.622460   -6.863700
  C      8.198080    5.265330  -10.167700
  C      9.482150    5.176360  -10.526390
  C     10.172490    6.117340  -11.353790
  C      9.631510    7.287810  -12.052830
  N     10.510960    7.959010  -12.739140
  C     11.695450    7.304540  -12.555010
  C     11.505570    6.135480  -11.684690
  C     12.760740    5.453220  -11.488500
  S     12.992330    4.095890  -10.585590
  C     13.710630    6.221110  -12.249450
  C     13.020310    7.355220  -12.897590
  N     13.895610    8.103070  -13.627900
  C     15.052560    7.530210  -13.482690
  C     15.036000    6.332730  -12.626970
  C     16.173150    5.546300  -12.317860
  C     16.263240    4.442940  -11.529010
  C     17.638000    3.967220  -11.500130
  C     18.416480    4.754410  -12.258710
  C     17.569480    5.823400  -12.846900
  O     17.916200    6.712260  -13.581730
  H      2.822670    5.834610    4.587710
  H      4.712530    5.921440    2.719670
  H      3.592120    6.060760    0.339790
  H     -1.192100    6.314490    1.599630
  H     -1.165310    5.598980   -5.927360
  H      3.289670    6.140040   -4.482570
  H      7.225450    6.425780   -5.696530
  H      5.041880    7.206860   -3.790280
  H      5.058950    7.960390   -5.402490
  H      7.332500    7.959090   -3.571080
  H      6.417300    9.246950   -4.008310
  H      5.564370    4.830380   -3.700580
  H      7.144900    5.576990   -3.378360
  H      6.676640    3.451350   -5.319160
  H      7.595910    3.389280   -3.961800
  H      8.039510    5.260060   -7.421380
  H      8.218330    3.427290   -9.115620
  H      6.521060    3.234440  -10.971180
  H      4.222950    3.429420  -10.122960
  H      2.033820    3.830390   -8.721650
  H      0.346270    4.340860   -7.024490
  H      7.575960    6.088030  -10.487990
  H     10.086500    4.347530  -10.178200
  H      8.603660    7.604910  -12.037790
  H     15.931040    7.923890  -13.961840
  H     15.457600    3.972530  -10.994880
  H     17.945160    3.103360  -10.937540
  H     19.469970    4.675110  -12.446180

 Total Charge           Charge          ....    0
 Multiplicity           Mult            ....    1
 Number of Electrons    NEL             ....  394
 Basis Dimension        Dim             ....  932

ORBITAL ENERGIES
----------------

  NO   OCC          E(Eh)            E(eV)
   0   2.0000     -88.903169     -2419.1782
   1   2.0000     -88.898383     -2419.0480
   2   2.0000     -19.240526      -523.5613
   3   2.0000     -19.237726      -523.4851
   4   2.0000     -14.415123      -392.2555
   5   2.0000     -14.412396      -392.1812
   6   2.0000     -14.410991      -392.1430
   7   2.0000     -14.407266      -392.0416
   8   2.0000     -14.377733      -391.2380
   9   2.0000     -14.374540      -391.1511
  10   2.0000     -10.377342      -282.3818
  11   2.0000     -10.374628      -282.3080
  12   2.0000     -10.344870      -281.4982
  13   2.0000     -10.342081      -281.4223
  14   2.0000     -10.333423      -281.1867
  15   2.0000     -10.329313      -281.0749
  16   2.0000     -10.328188      -281.0443
  17   2.0000     -10.328037      -281.0402
  18   2.0000     -10.327013      -281.0123
  19   2.0000     -10.322954      -280.9019
  20   2.0000     -10.322110      -280.8789
  21   2.0000     -10.321440      -280.8607
  22   2.0000     -10.310011      -280.5497
  23   2.0000     -10.305556      -280.4284
  24   2.0000     -10.305401      -280.4242
  25   2.0000     -10.303976      -280.3854
  26   2.0000     -10.303933      -280.3843
  27   2.0000     -10.301883      -280.3285
  28   2.0000     -10.301697      -280.3234
  29   2.0000     -10.299343      -280.2594
  30   2.0000     -10.298106      -280.2257
  31   2.0000     -10.297508      -280.2094
  32   2.0000     -10.296376      -280.1786
  33   2.0000     -10.296193      -280.1737
  34   2.0000     -10.294434      -280.1258
  35   2.0000     -10.291533      -280.0468
  36   2.0000     -10.291352      -280.0419
  37   2.0000     -10.290813      -280.0273
  38   2.0000     -10.286416      -279.9076
  39   2.0000     -10.286250      -279.9031
  40   2.0000     -10.286242      -279.9029
  41   2.0000     -10.283702      -279.8338
  42   2.0000     -10.282810      -279.8095
  43   2.0000     -10.280353      -279.7426
  44   2.0000     -10.276743      -279.6444
  45   2.0000     -10.275519      -279.6111
  46   2.0000     -10.274808      -279.5917
  47   2.0000     -10.272439      -279.5273
  48   2.0000     -10.272362      -279.5252
  49   2.0000     -10.271927      -279.5133
  50   2.0000     -10.271319      -279.4968
  51   2.0000     -10.266729      -279.3719
  52   2.0000     -10.265950      -279.3507
  53   2.0000     -10.264536      -279.3122
  54   2.0000     -10.263644      -279.2880
  55   2.0000     -10.258817      -279.1566
  56   2.0000      -7.998807      -217.6586
  57   2.0000      -7.993715      -217.5200
  58   2.0000      -5.967626      -162.3874
  59   2.0000      -5.967012      -162.3707
  60   2.0000      -5.962596      -162.2505
  61   2.0000      -5.961795      -162.2287
  62   2.0000      -5.958426      -162.1370
  63   2.0000      -5.953420      -162.0008
  64   2.0000      -1.151139       -31.3241
  65   2.0000      -1.148475       -31.2516
  66   2.0000      -1.081675       -29.4339
  67   2.0000      -1.077450       -29.3189
  68   2.0000      -1.062373       -28.9086
  69   2.0000      -1.058104       -28.7925
  70   2.0000      -0.986556       -26.8456
  71   2.0000      -0.976092       -26.5608
  72   2.0000      -0.973222       -26.4827
  73   2.0000      -0.963960       -26.2307
  74   2.0000      -0.962379       -26.1877
  75   2.0000      -0.957688       -26.0600
  76   2.0000      -0.950099       -25.8535
  77   2.0000      -0.949123       -25.8269
  78   2.0000      -0.923531       -25.1306
  79   2.0000      -0.900749       -24.5106
  80   2.0000      -0.889898       -24.2154
  81   2.0000      -0.885539       -24.0967
  82   2.0000      -0.877118       -23.8676
  83   2.0000      -0.865658       -23.5558
  84   2.0000      -0.853626       -23.2283
  85   2.0000      -0.848029       -23.0761
  86   2.0000      -0.839209       -22.8360
  87   2.0000      -0.833414       -22.6784
  88   2.0000      -0.825830       -22.4720
  89   2.0000      -0.812255       -22.1026
  90   2.0000      -0.809238       -22.0205
  91   2.0000      -0.796587       -21.6762
  92   2.0000      -0.779169       -21.2023
  93   2.0000      -0.774369       -21.0717
  94   2.0000      -0.762353       -20.7447
  95   2.0000      -0.760557       -20.6958
  96   2.0000      -0.757203       -20.6045
  97   2.0000      -0.743190       -20.2232
  98   2.0000      -0.735205       -20.0059
  99   2.0000      -0.723844       -19.6968
 100   2.0000      -0.717980       -19.5372
 101   2.0000      -0.703498       -19.1432
 102   2.0000      -0.698031       -18.9944
 103   2.0000      -0.685491       -18.6531
 104   2.0000      -0.681514       -18.5449
 105   2.0000      -0.672482       -18.2992
 106   2.0000      -0.670911       -18.2564
 107   2.0000      -0.667702       -18.1691
 108   2.0000      -0.660313       -17.9680
 109   2.0000      -0.653257       -17.7760
 110   2.0000      -0.648785       -17.6543
 111   2.0000      -0.639763       -17.4088
 112   2.0000      -0.639043       -17.3892
 113   2.0000      -0.631573       -17.1860
 114   2.0000      -0.614997       -16.7349
 115   2.0000      -0.599247       -16.3063
 116   2.0000      -0.595908       -16.2155
 117   2.0000      -0.594299       -16.1717
 118   2.0000      -0.592979       -16.1358
 119   2.0000      -0.583627       -15.8813
 120   2.0000      -0.578825       -15.7506
 121   2.0000      -0.575630       -15.6637
 122   2.0000      -0.570484       -15.5236
 123   2.0000      -0.567481       -15.4419
 124   2.0000      -0.564106       -15.3501
 125   2.0000      -0.560825       -15.2608
 126   2.0000      -0.557098       -15.1594
 127   2.0000      -0.548799       -14.9336
 128   2.0000      -0.546986       -14.8842
 129   2.0000      -0.543783       -14.7971
 130   2.0000      -0.539192       -14.6722
 131   2.0000      -0.533747       -14.5240
 132   2.0000      -0.531263       -14.4564
 133   2.0000      -0.523858       -14.2549
 134   2.0000      -0.523534       -14.2461
 135   2.0000      -0.521949       -14.2029
 136   2.0000      -0.519458       -14.1352
 137   2.0000      -0.519145       -14.1267
 138   2.0000      -0.515446       -14.0260
 139   2.0000      -0.513920       -13.9845
 140   2.0000      -0.511987       -13.9319
 141   2.0000      -0.511587       -13.9210
 142   2.0000      -0.508377       -13.8336
 143   2.0000      -0.505063       -13.7435
 144   2.0000      -0.502082       -13.6623
 145   2.0000      -0.498243       -13.5579
 146   2.0000      -0.492866       -13.4116
 147   2.0000      -0.490841       -13.3565
 148   2.0000      -0.488861       -13.3026
 149   2.0000      -0.486690       -13.2435
 150   2.0000      -0.485653       -13.2153
 151   2.0000      -0.484941       -13.1959
 152   2.0000      -0.483956       -13.1691
 153   2.0000      -0.477952       -13.0057
 154   2.0000      -0.477296       -12.9879
 155   2.0000      -0.475938       -12.9509
 156   2.0000      -0.473956       -12.8970
 157   2.0000      -0.467600       -12.7240
 158   2.0000      -0.463616       -12.6156
 159   2.0000      -0.456471       -12.4212
 160   2.0000      -0.450186       -12.2502
 161   2.0000      -0.445391       -12.1197
 162   2.0000      -0.439658       -11.9637
 163   2.0000      -0.431955       -11.7541
 164   2.0000      -0.430226       -11.7071
 165   2.0000      -0.430052       -11.7023
 166   2.0000      -0.425860       -11.5882
 167   2.0000      -0.419722       -11.4212
 168   2.0000      -0.419166       -11.4061
 169   2.0000      -0.416837       -11.3427
 170   2.0000      -0.412404       -11.2221
 171   2.0000      -0.407520       -11.0892
 172   2.0000      -0.400429       -10.8962
 173   2.0000      -0.390463       -10.6250
 174   2.0000      -0.387708       -10.5501
 175   2.0000      -0.368523       -10.0280
 176   2.0000      -0.367258        -9.9936
 177   2.0000      -0.364308        -9.9133
 178   2.0000      -0.359722        -9.7885
 179   2.0000      -0.355710        -9.6794
 180   2.0000      -0.352947        -9.6042
 181   2.0000      -0.352675        -9.5968
 182   2.0000      -0.347314        -9.4509
 183   2.0000      -0.340754        -9.2724
 184   2.0000      -0.337186        -9.1753
 185   2.0000      -0.330248        -8.9865
 186   2.0000      -0.317911        -8.6508
 187   2.0000      -0.313698        -8.5362
 188   2.0000      -0.305870        -8.3231
 189   2.0000      -0.297102        -8.0845
 190   2.0000      -0.295985        -8.0542
 191   2.0000      -0.291915        -7.9434
 192   2.0000      -0.288679        -7.8553
 193   2.0000      -0.282666        -7.6917
 194   2.0000      -0.281996        -7.6735
 195   2.0000      -0.278403        -7.5757
 196   2.0000      -0.222502        -6.0546
 197   0.0000      -0.113151        -3.0790
 198   0.0000      -0.111096        -3.0231
 199   0.0000      -0.090447        -2.4612
 200   0.0000      -0.087030        -2.3682
 201   0.0000      -0.066476        -1.8089

MULLIKEN ATOMIC CHARGES
-----------------------
   0 C :   -0.018460
   1 C :    0.059912
   2 C :   -0.001360
   3 C :   -0.047929
   4 C :    0.128662
   5 O :   -0.120110
   6 C :    0.027395
   7 C :    0.050443
   8 N :   -0.016379
   9 C :    0.003821
  10 C :   -0.030381
  11 C :    0.003360
  12 S :   -0.156923
  13 C :   -0.014781
  14 C :   -0.010133
  15 N :   -0.019559
  16 C :    0.047791
  17 C :    0.001836
  18 C :    0.089498
  19 C :   -0.040690
  20 C :    0.032433
  21 C :   -0.061077
  22 C :   -0.005526
  23 C :    0.107961
  24 N :   -0.207797
  25 C :    0.136254
  26 N :   -0.230629
  27 C :    0.078694
  28 C :   -0.100003
  29 C :    0.130528
  30 C :   -0.051594
  31 C :    0.021965
  32 C :    0.015380
  33 C :    0.038340
  34 C :   -0.005538
  35 C :   -0.030182
  36 C :   -0.038676
  37 C :   -0.000454
  38 C :   -0.002404
  39 C :    0.055050
  40 N :   -0.028265
  41 C :    0.017327
  42 C :   -0.006434
  43 C :    0.000106
  44 S :   -0.133311
  45 C :   -0.023733
  46 C :   -0.004006
  47 N :   -0.014863
  48 C :    0.056851
  49 C :    0.023134
  50 C :   -0.049460
  51 C :   -0.003133
  52 C :    0.063684
  53 C :   -0.017392
  54 C :    0.131402
  55 O :   -0.121038
  56 H :    0.000596
  57 H :    0.006917
  58 H :   -0.008856
  59 H :    0.023340
  60 H :    0.009273
  61 H :   -0.047006
  62 H :   -0.017594
  63 H :   -0.000324
  64 H :    0.001233
  65 H :    0.084434
  66 H :    0.090178
  67 H :   -0.001440
  68 H :   -0.019779
  69 H :    0.100856
  70 H :    0.092720
  71 H :    0.008808
  72 H :    0.037129
  73 H :   -0.009560
  74 H :   -0.034850
  75 H :   -0.037539
  76 H :   -0.031250
  77 H :    0.011405
  78 H :   -0.005290
  79 H :    0.009516
  80 H :    0.025480
  81 H :   -0.007572
  82 H :    0.007707
  83 H :    0.001861
Sum of atomic charges:   -0.0000000

LOEWDIN ATOMIC CHARGES
----------------------
   0 C :   -0.047942
   1 C :    0.019075
   2 C :    0.037006
   3 C :   -0.075307
   4 C :    0.098706
   5 O :   -0.092792
   6 C :   -0.026564
   7 C :    0.087619
   8 N :   -0.078181
   9 C :    0.031928
  10 C :   -0.038990
  11 C :   -0.127038
  12 S :    0.063953
  13 C :   -0.055555
  14 C :    0.036112
  15 N :   -0.075364
  16 C :    0.081566
  17 C :   -0.015633
  18 C :   -0.043506
  19 C :    0.024510
  20 C :   -0.028855
  21 C :   -0.015145
  22 C :   -0.040083
  23 C :    0.024730
  24 N :   -0.116881
  25 C :    0.027112
  26 N :   -0.120209
  27 C :   -0.025236
  28 C :    0.087402
  29 C :   -0.028695
  30 C :   -0.037502
  31 C :   -0.013998
  32 C :   -0.042789
  33 C :   -0.029603
  34 C :   -0.010349
  35 C :   -0.030902
  36 C :    0.018958
  37 C :   -0.033416
  38 C :   -0.032198
  39 C :    0.086591
  40 N :   -0.077572
  41 C :    0.033548
  42 C :   -0.040763
  43 C :   -0.133785
  44 S :    0.051444
  45 C :   -0.037191
  46 C :    0.039430
  47 N :   -0.077611
  48 C :    0.092940
  49 C :   -0.025989
  50 C :   -0.076821
  51 C :    0.041485
  52 C :    0.020426
  53 C :   -0.046043
  54 C :    0.099010
  55 O :   -0.092744
  56 H :    0.033009
  57 H :    0.033214
  58 H :    0.007993
  59 H :    0.026362
  60 H :    0.024645
  61 H :    0.011473
  62 H :    0.027698
  63 H :   -0.003795
  64 H :    0.019780
  65 H :    0.048104
  66 H :    0.054206
  67 H :   -0.002454
  68 H :    0.010252
  69 H :    0.052999
  70 H :    0.055190
  71 H :    0.036611
  72 H :    0.059574
  73 H :    0.025477
  74 H :    0.030222
  75 H :    0.027405
  76 H :    0.024006
  77 H :    0.028236
  78 H :    0.028657
  79 H :    0.024622
  80 H :    0.027391
  81 H :    0.009095
  82 H :    0.034108
  83 H :    0.033618

  Mayer bond orders larger than 0.100000
B(  0-C ,  1-C ) :   1.7124 B(  0-C ,  4-C ) :   0.9837 B(  0-C , 56-H ) :   1.0137
B(  1-C ,  2-C ) :   1.0123 B(  1-C , 57-H ) :   1.0020 B(  2-C ,  3-C ) :   1.6723
B(  2-C , 58-H ) :   0.9767 B(  3-C ,  4-C ) :   0.9001 B(  3-C ,  6-C ) :   1.0984
B(  4-C ,  5-O ) :   2.1836 B(  6-C ,  7-C ) :   1.0398 B(  6-C , 10-C ) :   1.4980
B(  7-C ,  8-N ) :   1.7059 B(  7-C , 59-H ) :   0.9826 B(  8-N ,  9-C ) :   1.2770
B(  9-C , 10-C ) :   1.0667 B(  9-C , 14-C ) :   1.5099 B( 10-C , 11-C ) :   1.0636
B( 11-C , 12-S ) :   1.6385 B( 11-C , 13-C ) :   1.0456 B( 12-S , 58-H ) :   0.1085
B( 13-C , 14-C ) :   1.0722 B( 13-C , 17-C ) :   1.5082 B( 14-C , 15-N ) :   1.2700
B( 15-N , 16-C ) :   1.7209 B( 16-C , 17-C ) :   1.0355 B( 16-C , 60-H ) :   0.9878
B( 17-C , 18-C ) :   1.0354 B( 18-C , 19-C ) :   1.4899 B( 18-C , 35-C ) :   1.1132
B( 19-C , 20-C ) :   1.1685 B( 19-C , 61-H ) :   0.9757 B( 20-C , 21-C ) :   1.4250
B( 20-C , 33-C ) :   1.1210 B( 21-C , 22-C ) :   1.0501 B( 21-C , 27-C ) :   1.1265
B( 22-C , 23-C ) :   1.0260 B( 22-C , 25-C ) :   1.0239 B( 22-C , 62-H ) :   0.8702
B( 23-C , 24-N ) :   1.1040 B( 23-C , 63-H ) :   0.9237 B( 23-C , 64-H ) :   0.9490
B( 24-N , 65-H ) :   0.9709 B( 24-N , 66-H ) :   0.9682 B( 25-C , 26-N ) :   1.0981
B( 25-C , 67-H ) :   0.9351 B( 25-C , 68-H ) :   0.9367 B( 26-N , 69-H ) :   0.9658
B( 26-N , 70-H ) :   0.9676 B( 27-C , 28-C ) :   1.6360 B( 27-C , 32-C ) :   1.0436
B( 28-C , 29-C ) :   0.9696 B( 28-C , 71-H ) :   0.9721 B( 29-C , 30-C ) :   0.9810
B( 29-C , 36-C ) :   0.9548 B( 29-C , 72-H ) :   0.8718 B( 30-C , 31-C ) :   1.7071
B( 30-C , 73-H ) :   0.9765 B( 31-C , 32-C ) :   1.1303 B( 31-C , 74-H ) :   0.9906
B( 32-C , 33-C ) :   1.4272 B( 33-C , 34-C ) :   1.1457 B( 34-C , 35-C ) :   1.6083
B( 34-C , 75-H ) :   0.9909 B( 35-C , 76-H ) :   0.9851 B( 36-C , 37-C ) :   1.7640
B( 36-C , 77-H ) :   0.9653 B( 37-C , 38-C ) :   1.0831 B( 37-C , 78-H ) :   0.9677
B( 38-C , 39-C ) :   1.0134 B( 38-C , 42-C ) :   1.5393 B( 39-C , 40-N ) :   1.7325
B( 39-C , 79-H ) :   0.9898 B( 40-N , 41-C ) :   1.2584 B( 41-C , 42-C ) :   1.0669
B( 41-C , 46-C ) :   1.5214 B( 42-C , 43-C ) :   1.0285 B( 43-C , 44-S ) :   1.6724
B( 43-C , 45-C ) :   1.0552 B( 44-S , 81-H ) :   0.1151 B( 45-C , 46-C ) :   1.0690
B( 45-C , 49-C ) :   1.4992 B( 46-C , 47-N ) :   1.2707 B( 47-N , 48-C ) :   1.7060
B( 48-C , 49-C ) :   1.0365 B( 48-C , 80-H ) :   0.9810 B( 49-C , 50-C ) :   1.1043
B( 50-C , 51-C ) :   1.6678 B( 50-C , 54-C ) :   0.8973 B( 51-C , 52-C ) :   1.0138
B( 51-C , 81-H ) :   0.9754 B( 52-C , 53-C ) :   1.7139 B( 52-C , 82-H ) :   1.0024
B( 53-C , 54-C ) :   0.9848 B( 53-C , 83-H ) :   1.0130 B( 54-C , 55-O ) :   2.1810

-----------------------------------------------------------------------------
         ABSORPTION SPECTRUM VIA TRANSITION ELECTRIC DIPOLE MOMENTS
-----------------------------------------------------------------------------
State   Energy  Wavelength   fosc         T2         TX        TY        TZ
        (cm-1)    (nm)                  (au**2)     (au)      (au)      (au)
-----------------------------------------------------------------------------
   0    9300.3   1075.2   0.075296613   2.66535   1.16373  -0.00797  -1.14500
   1   12292.9    813.5   0.045624418   1.22185   1.02762   0.26547  -0.30884
   2   13233.9    755.6   0.004262255   0.10603  -0.19130   0.05934   0.25673
   3   15929.6    627.8   0.001775961   0.03670   0.05376   0.01367   0.18337
   4   16767.5    596.4   0.145702450   2.86071  -0.54382   0.50901   1.51851
   5   16929.5    590.7   0.001982804   0.03856   0.04340  -0.05493  -0.18346
   6   17987.1    556.0   0.210628444   3.85507  -0.79808   0.20546   1.78211
   7   18124.5    551.7   0.035945613   0.65291  -0.16453   0.00184  -0.79110
   8   18403.7    543.4   0.179496459   3.21089  -1.74813   0.20878   0.33367
   9   18646.2    536.3   0.049928375   0.88152  -0.30050   0.16383   0.87429
  10   19579.1    510.7   0.000242301   0.00407  -0.03711   0.01751   0.04889
  11   20233.6    494.2   0.005155264   0.08388   0.00859  -0.21743   0.19113
  12   20341.2    491.6   0.017104700   0.27683   0.51110  -0.04447  -0.11674
  13   21902.6    456.6   0.108135263   1.62535  -0.14992   0.11233   1.26105
  14   22559.0    443.3   0.061556105   0.89831   0.05303  -0.06018  -0.94439
  15   22571.1    443.0   0.196454574   2.86540   1.65461  -0.31789   0.16309
  16   24023.5    416.3   0.039026960   0.53482   0.08194  -0.00822  -0.72666
  17   24158.4    413.9   0.000875343   0.01193   0.05078  -0.06081  -0.07518
  18   24399.6    409.8   0.055485393   0.74864   0.09609  -0.16008  -0.84485
  19   24878.0    402.0   0.011583038   0.15328   0.01796   0.10214  -0.37752
  20   24933.3    401.1   0.168384958   2.22330   1.19444  -0.16349  -0.87742
  21   25201.6    396.8   0.063257187   0.82634  -0.64483   0.06747   0.63717
  22   25700.4    389.1   0.021092879   0.27019   0.06436  -0.13697  -0.49728
  23   25891.8    386.2   0.000405668   0.00516  -0.06745  -0.02185   0.01147
  24   25914.3    385.9   0.001673032   0.02125  -0.05315  -0.09012  -0.10153
  25   26105.6    383.1   0.230164805   2.90256   1.09283  -0.21256  -1.28961
  26   26144.1    382.5   0.002631988   0.03314   0.10151  -0.00679  -0.15097
  27   26653.6    375.2   0.049815592   0.61530   0.32907   0.07713   0.70786
  28   26938.8    371.2   0.104537265   1.27752  -1.10087   0.23135   0.10997
  29   27209.2    367.5   0.276253523   3.34247   0.74695   0.07186  -1.66715
  30   27717.5    360.8   0.015254502   0.18118   0.18212  -0.00372  -0.38471
  31   28341.6    352.8   0.310260264   3.60393  -1.78873   0.01472   0.63575
  32   28461.3    351.4   0.002586158   0.02991  -0.15501   0.01525  -0.07519
  33   28606.6    349.6   0.066565133   0.76605  -0.87298  -0.06186   0.01149
  34   28836.8    346.8   0.168769935   1.92674   1.36055   0.02397   0.27396
  35   29252.1    341.9   0.000149547   0.00168   0.03113  -0.01042  -0.02461
  36   29421.7    339.9   0.121605745   1.36070  -1.16477  -0.03916   0.04981
  37   29775.1    335.9   0.004548193   0.05029  -0.22131   0.00097  -0.03619
  38   29833.4    335.2   0.034655625   0.38243   0.51773  -0.04369  -0.33537
  39   30263.2    330.4   0.009848417   0.10713  -0.10848   0.06231   0.30246
  40   30403.9    328.9   0.052930931   0.57313   0.16344   0.18799   0.71490
  41   31237.7    320.1   0.008831000   0.09307   0.25714   0.04345  -0.15831
  42   31451.8    317.9   0.008986372   0.09406   0.14437   0.06957   0.26150
  43   31806.5    314.4   0.003814505   0.03948  -0.17073   0.00876  -0.10128
  44   31885.9    313.6   0.007803461   0.08057   0.20531  -0.03554   0.19275
  45   32184.6    310.7   0.000204340   0.00209  -0.02805   0.01481   0.03292
  46   32608.9    306.7   0.094175282   0.95077  -0.78583   0.07651   0.57217
  47   32777.8    305.1   0.014367597   0.14430  -0.07393   0.06330   0.36719
  48   33174.0    301.4   0.183230326   1.81834  -1.11163  -0.50798   0.56971
  49   33208.4    301.1   0.095346044   0.94521   0.65112   0.17369  -0.70078
  50   33605.5    297.6   0.096803476   0.94832  -0.63023   0.14519   0.72805
  51   33714.2    296.6   0.000450399   0.00440   0.02254  -0.00385   0.06225
  52   33733.7    296.4   0.097463864   0.95116  -0.36600   0.27391   0.86150
  53   33804.6    295.8   0.006764175   0.06587   0.16742  -0.05704  -0.18598
  54   33962.1    294.4   0.000814710   0.00790  -0.03299   0.03590   0.07430
  55   33990.6    294.2   0.003542773   0.03431  -0.02549  -0.04605   0.17760
  56   34192.2    292.5   0.029917955   0.28806  -0.35323   0.35791  -0.18757
  57   34448.2    290.3   0.007497745   0.07165   0.25275   0.04067  -0.07820
  58   34779.8    287.5   0.000084053   0.00080  -0.00103   0.02796  -0.00359
  59   34793.7    287.4   0.001784065   0.01688   0.08062  -0.02369  -0.09910
  60   34817.9    287.2   0.074342037   0.70292   0.62254  -0.22684  -0.51372
  61   35039.6    285.4   0.014916602   0.14015  -0.23158   0.15806   0.24807
  62   35152.0    284.5   0.161123496   1.50898   0.93160   0.00137  -0.80069
  63   35188.7    284.2   0.000609140   0.00570  -0.05140  -0.02686   0.04833
  64   35282.7    283.4   0.058215511   0.54319   0.61048  -0.04929  -0.40997
  65   35368.4    282.7   0.004067702   0.03786  -0.02035   0.08232   0.17513
  66   35459.5    282.0   0.007353499   0.06827   0.26041  -0.01804   0.01156
  67   35557.0    281.2   0.012103962   0.11207   0.24935   0.07942   0.20877
  68   35647.3    280.5   0.078823969   0.72796  -0.67118   0.09062   0.51891
  69   36040.5    277.5   0.069227504   0.63236  -0.34071   0.14274   0.70420
  70   36480.6    274.1   0.005270858   0.04757  -0.20825  -0.04095  -0.05021
  71   36817.8    271.6   0.035314487   0.31577   0.16482   0.08042   0.53116
  72   37084.7    269.7   0.261386176   2.32040   1.42786  -0.08292  -0.52415
  73   37139.2    269.3   0.074771002   0.66279   0.78731  -0.09032  -0.18647
  74   37317.5    268.0   0.050728818   0.44753   0.15081  -0.11368  -0.64176
  75   37586.9    266.1   0.047314452   0.41441  -0.48409   0.26669  -0.33007
  76   37926.7    263.7   0.029924364   0.25975  -0.35729   0.00614   0.36339
  77   38003.1    263.1   0.125122954   1.08391  -0.80004  -0.08129  -0.66124
  78   38695.9    258.4   0.147099759   1.25148  -0.98365   0.07340  -0.52775
  79   39040.3    256.1   0.279557629   2.35740  -0.47143   1.18461  -0.85548
  80   39130.2    255.6   0.008341895   0.07018  -0.14390  -0.06177  -0.21368
  81   39368.5    254.0   0.017621495   0.14736   0.30833   0.17113   0.15168
  82   39383.0    253.9   0.029581533   0.24728  -0.40688  -0.27157  -0.08931
  83   39407.3    253.8   0.004240643   0.03543  -0.13210   0.10223  -0.08675
  84   39715.6    251.8   0.001027180   0.00851  -0.00193  -0.01048  -0.09166
  85   39761.5    251.5   0.005203221   0.04308   0.14310  -0.14224  -0.04870
  86   40108.8    249.3   0.008528569   0.07000  -0.26230  -0.03193  -0.01350
  87   40315.9    248.0   0.001993143   0.01628  -0.11560   0.05396  -0.00070

FINAL SINGLE POINT ENERGY     -3041.684091734761

DIPOLE MOMENT
-------------
                                X             Y             Z
Electronic contribution:     -0.94339       4.02584      -9.96195
Nuclear contribution   :      3.02513      -5.70370      10.76035
                        -----------------------------------------
Total Dipole Moment    :      2.08174      -1.67786       0.79840
                        -----------------------------------------
Magnitude (a.u.)       :      2.79039
Magnitude (Debye)      :      7.09261

Rotational constants in cm-1:     0.003509     0.000396     0.000370
Rotational constants in MHz :   105.204823    11.867871    11.106796

                             ****ORCA TERMINATED NORMALLY****
TOTAL RUN TIME: 0 days 0 hours 6 minutes 16 seconds 286 msec
