                         Program Version 4.2.0 -  RELEASE  -
|  1> # ORCA input file
|  2> # SCF done       -166.528766317110          0.000482658234
|  3> ! CAM-B3LYP def2-SVP def2/J RIJCOSX Grid4 TightSCF
|  4> %maxcore 5000
|  5> %tddft
|  6>     Mode sTDDFT
|  7>     Ethresh 5.0
|  8>     maxcore 5000
|  9> end
| 10>
| 11> %pal
| 12>   nprocs 6
| 13>   end
| 14> * xyz 0 1
| 15>    C       -1.68345        -1.94510         0.87746
| 16>    S       -2.66942        -1.13290         2.03794
| 17>    C       -1.65411        -1.57777         3.39204
| 18>    C       -0.58506        -2.33032         2.92628
| 19>    C       -0.62192        -2.52872         1.50588
| 20>    N        0.47030        -3.28054         1.20254
| 21>    N        1.18236        -3.56882         2.31011
| 22>    C        0.58631        -3.02317         3.33588
| 23>    C       -1.98264        -1.17637         4.71519
| 24>    C       -3.12576        -0.48070         5.01815
| 25>    C       -3.51399        -0.08967         6.30039
| 26>    C       -2.72778        -0.49603         7.47835
| 27>    C       -1.55414        -1.15725         7.41346
| 28>    S       -0.80758        -1.64647         5.94468
| 29>    C       -3.48053        -0.05679         8.60098
| 30>    C       -4.64745         0.57043         8.16467
| 31>    C       -5.43814         1.03291         9.24021
| 32>    C       -4.86560         0.74871        10.43860
| 33>    S       -3.35062        -0.08412        10.31618
| 34>    C       -4.66871         0.58051         6.72609
| 35>    C       -5.70746         1.17543         5.95318
| 36>    C       -5.57766         1.67918         4.70654
| 37>    C       -6.64587         2.24421         3.92099
| 38>    C       -7.96601         1.92915         4.14454
| 39>    C       -8.98379         2.48405         3.33876
| 40>    C      -10.36304         2.32021         3.33258
| 41>    C      -11.26418         1.53082         4.23173
| 42>    C      -11.27804         0.03217         3.86963
| 43>    N       -9.98059        -0.58201         4.08473
| 44>    C      -10.94207         1.72353         5.72031
| 45>    N      -10.88814         3.14353         6.05129
| 46>    C      -10.87304         3.14461         2.26436
| 47>    C      -12.12076         3.30127         1.78446
| 48>    C      -12.42807         4.29154         0.71490
| 49>    C      -11.23089         4.97900         0.13898
| 50>    C       -9.97913         4.75264         0.57686
| 51>    C       -9.74390         3.84521         1.63834
| 52>    C       -8.60234         3.41911         2.28099
| 53>    C       -7.23484         3.71965         2.06976
| 54>    C       -6.29545         3.14008         2.85430
| 55>    C      -13.35723         5.28584         1.36975
| 56>    C      -14.61362         5.48982         0.97066
| 57>    C      -15.57723         6.35415         1.60876
| 58>    C      -15.54617         6.72292         2.92369
| 59>    C      -16.50177         7.52928         3.55759
| 60>    C      -17.60823         8.11056         2.77524
| 61>    C      -17.84276         7.86841         1.46900
| 62>    S      -16.86357         6.84089         0.50729
| 63>    C      -18.34316         8.91290         3.68803
| 64>    C      -17.76126         8.82911         4.94839
| 65>    C      -18.45909         9.59513         5.90855
| 66>    C      -19.52898        10.22805         5.36069
| 67>    S      -19.73805         9.92037         3.66842
| 68>    C      -16.61382         7.95233         4.89034
| 69>    C      -15.88299         7.66894         6.07201
| 70>    C      -14.89949         6.77034         6.33087
| 71>    C      -14.34305         6.62531         7.62760
| 72>    S      -14.89927         7.60564         8.97873
| 73>    C      -13.83855         6.87458        10.11122
| 74>    C      -13.07516         5.91267         9.50364
| 75>    C      -13.36023         5.77191         8.10270
| 76>    N      -12.53235         4.79493         7.65046
| 77>    N      -11.75314         4.32547         8.64374
| 78>    C      -12.04998         4.95738         9.74664
| 79>    H       -1.95667        -1.93232        -0.15680
| 80>    H        0.77577        -3.62161         0.30814
| 81>    H        0.99390        -3.13298         4.31985
| 82>    H       -3.78853        -0.26100         4.19190
| 83>    H       -0.98954        -1.42990         8.29117
| 84>    H       -6.37665         1.54739         9.13891
| 85>    H       -5.23900         0.97898        11.41736
| 86>    H       -6.65898         1.26886         6.46154
| 87>    H       -4.59293         1.72951         4.26094
| 88>    H       -8.22325         1.21818         4.91266
| 89>    H      -12.28250         1.90206         4.07316
| 90>    H      -11.63497        -0.06411         2.82877
| 91>    H      -11.99666        -0.47501         4.52058
| 92>    H       -9.30652        -0.20213         3.42804
| 93>    H      -10.03575        -1.58220         3.92815
| 94>    H      -10.01801         1.18425         5.95968
| 95>    H      -11.74601         1.27896         6.31496
| 96>    H      -10.17800         3.59127         5.47753
| 97>    H      -10.60549         3.24636         7.02333
| 98>    H      -12.96858         2.76657         2.19173
| 99>    H      -12.98191         3.79645        -0.09446
|100>    H      -11.43128         5.68048        -0.65673
|101>    H       -9.13835         5.26191         0.12740
|102>    H       -6.95865         4.39963         1.27663
|103>    H       -5.24692         3.35265         2.69944
|104>    H      -12.94070         5.80721         2.21905
|105>    H      -14.97075         4.99525         0.07499
|106>    H      -14.72332         6.34581         3.51208
|107>    H      -18.67719         8.30054         0.93953
|108>    H      -18.19215         9.67957         6.94664
|109>    H      -20.23290        10.87344         5.84907
|110>    H      -16.20806         8.25985         6.92190
|111>    H      -14.50854         6.10504         5.57484
|112>    H      -13.84665         7.19545        11.13256
|113>    H      -12.37593         4.39627         6.73009
|114>    H      -11.54645         4.73297        10.66504
|115> *
|116>
|117>                          ****END OF INPUT****

CARTESIAN COORDINATES (ANGSTROEM)
---------------------------------
  C     -1.683450   -1.945100    0.877460
  S     -2.669420   -1.132900    2.037940
  C     -1.654110   -1.577770    3.392040
  C     -0.585060   -2.330320    2.926280
  C     -0.621920   -2.528720    1.505880
  N      0.470300   -3.280540    1.202540
  N      1.182360   -3.568820    2.310110
  C      0.586310   -3.023170    3.335880
  C     -1.982640   -1.176370    4.715190
  C     -3.125760   -0.480700    5.018150
  C     -3.513990   -0.089670    6.300390
  C     -2.727780   -0.496030    7.478350
  C     -1.554140   -1.157250    7.413460
  S     -0.807580   -1.646470    5.944680
  C     -3.480530   -0.056790    8.600980
  C     -4.647450    0.570430    8.164670
  C     -5.438140    1.032910    9.240210
  C     -4.865600    0.748710   10.438600
  S     -3.350620   -0.084120   10.316180
  C     -4.668710    0.580510    6.726090
  C     -5.707460    1.175430    5.953180
  C     -5.577660    1.679180    4.706540
  C     -6.645870    2.244210    3.920990
  C     -7.966010    1.929150    4.144540
  C     -8.983790    2.484050    3.338760
  C    -10.363040    2.320210    3.332580
  C    -11.264180    1.530820    4.231730
  C    -11.278040    0.032170    3.869630
  N     -9.980590   -0.582010    4.084730
  C    -10.942070    1.723530    5.720310
  N    -10.888140    3.143530    6.051290
  C    -10.873040    3.144610    2.264360
  C    -12.120760    3.301270    1.784460
  C    -12.428070    4.291540    0.714900
  C    -11.230890    4.979000    0.138980
  C     -9.979130    4.752640    0.576860
  C     -9.743900    3.845210    1.638340
  C     -8.602340    3.419110    2.280990
  C     -7.234840    3.719650    2.069760
  C     -6.295450    3.140080    2.854300
  C    -13.357230    5.285840    1.369750
  C    -14.613620    5.489820    0.970660
  C    -15.577230    6.354150    1.608760
  C    -15.546170    6.722920    2.923690
  C    -16.501770    7.529280    3.557590
  C    -17.608230    8.110560    2.775240
  C    -17.842760    7.868410    1.469000
  S    -16.863570    6.840890    0.507290
  C    -18.343160    8.912900    3.688030
  C    -17.761260    8.829110    4.948390
  C    -18.459090    9.595130    5.908550
  C    -19.528980   10.228050    5.360690
  S    -19.738050    9.920370    3.668420
  C    -16.613820    7.952330    4.890340
  C    -15.882990    7.668940    6.072010
  C    -14.899490    6.770340    6.330870
  C    -14.343050    6.625310    7.627600
  S    -14.899270    7.605640    8.978730
  C    -13.838550    6.874580   10.111220
  C    -13.075160    5.912670    9.503640
  C    -13.360230    5.771910    8.102700
  N    -12.532350    4.794930    7.650460
  N    -11.753140    4.325470    8.643740
  C    -12.049980    4.957380    9.746640
  H     -1.956670   -1.932320   -0.156800
  H      0.775770   -3.621610    0.308140
  H      0.993900   -3.132980    4.319850
  H     -3.788530   -0.261000    4.191900
  H     -0.989540   -1.429900    8.291170
  H     -6.376650    1.547390    9.138910
  H     -5.239000    0.978980   11.417360
  H     -6.658980    1.268860    6.461540
  H     -4.592930    1.729510    4.260940
  H     -8.223250    1.218180    4.912660
  H    -12.282500    1.902060    4.073160
  H    -11.634970   -0.064110    2.828770
  H    -11.996660   -0.475010    4.520580
  H     -9.306520   -0.202130    3.428040
  H    -10.035750   -1.582200    3.928150
  H    -10.018010    1.184250    5.959680
  H    -11.746010    1.278960    6.314960
  H    -10.178000    3.591270    5.477530
  H    -10.605490    3.246360    7.023330
  H    -12.968580    2.766570    2.191730
  H    -12.981910    3.796450   -0.094460
  H    -11.431280    5.680480   -0.656730
  H     -9.138350    5.261910    0.127400
  H     -6.958650    4.399630    1.276630
  H     -5.246920    3.352650    2.699440
  H    -12.940700    5.807210    2.219050
  H    -14.970750    4.995250    0.074990
  H    -14.723320    6.345810    3.512080
  H    -18.677190    8.300540    0.939530
  H    -18.192150    9.679570    6.946640
  H    -20.232900   10.873440    5.849070
  H    -16.208060    8.259850    6.921900
  H    -14.508540    6.105040    5.574840
  H    -13.846650    7.195450   11.132560
  H    -12.375930    4.396270    6.730090
  H    -11.546450    4.732970   10.665040

 Total Charge           Charge          ....    0
 Multiplicity           Mult            ....    1
 Number of Electrons    NEL             ....  486
 Basis Dimension        Dim             .... 1100

ORBITAL ENERGIES
----------------

  NO   OCC          E(Eh)            E(eV)
   0   2.0000     -88.964791     -2420.8550
   1   2.0000     -88.961360     -2420.7617
   2   2.0000     -88.959337     -2420.7066
   3   2.0000     -88.946033     -2420.3446
   4   2.0000     -88.944581     -2420.3051
   5   2.0000     -88.944119     -2420.2925
   6   2.0000     -14.470814      -393.7709
   7   2.0000     -14.447067      -393.1247
   8   2.0000     -14.432352      -392.7243
   9   2.0000     -14.421498      -392.4289
  10   2.0000     -14.372263      -391.0892
  11   2.0000     -14.371455      -391.0672
  12   2.0000     -10.316869      -280.7363
  13   2.0000     -10.316062      -280.7143
  14   2.0000     -10.312180      -280.6087
  15   2.0000     -10.310787      -280.5708
  16   2.0000     -10.310033      -280.5503
  17   2.0000     -10.305759      -280.4340
  18   2.0000     -10.293698      -280.1058
  19   2.0000     -10.293121      -280.0901
  20   2.0000     -10.292119      -280.0628
  21   2.0000     -10.290296      -280.0132
  22   2.0000     -10.289347      -279.9874
  23   2.0000     -10.286948      -279.9221
  24   2.0000     -10.286393      -279.9070
  25   2.0000     -10.285000      -279.8691
  26   2.0000     -10.284695      -279.8608
  27   2.0000     -10.283848      -279.8377
  28   2.0000     -10.283591      -279.8307
  29   2.0000     -10.283027      -279.8154
  30   2.0000     -10.282926      -279.8126
  31   2.0000     -10.282001      -279.7875
  32   2.0000     -10.280977      -279.7596
  33   2.0000     -10.277239      -279.6579
  34   2.0000     -10.276756      -279.6448
  35   2.0000     -10.275175      -279.6017
  36   2.0000     -10.274908      -279.5945
  37   2.0000     -10.272928      -279.5406
  38   2.0000     -10.271541      -279.5028
  39   2.0000     -10.268712      -279.4259
  40   2.0000     -10.268257      -279.4135
  41   2.0000     -10.267931      -279.4046
  42   2.0000     -10.267331      -279.3883
  43   2.0000     -10.266787      -279.3735
  44   2.0000     -10.266643      -279.3696
  45   2.0000     -10.266118      -279.3553
  46   2.0000     -10.264340      -279.3069
  47   2.0000     -10.264089      -279.3001
  48   2.0000     -10.262739      -279.2633
  49   2.0000     -10.262391      -279.2539
  50   2.0000     -10.261673      -279.2343
  51   2.0000     -10.261249      -279.2228
  52   2.0000     -10.260702      -279.2079
  53   2.0000     -10.260091      -279.1913
  54   2.0000     -10.259829      -279.1841
  55   2.0000     -10.258918      -279.1594
  56   2.0000     -10.258498      -279.1479
  57   2.0000     -10.258227      -279.1405
  58   2.0000     -10.258095      -279.1370
  59   2.0000     -10.257912      -279.1320
  60   2.0000     -10.257886      -279.1313
  61   2.0000     -10.256260      -279.0870
  62   2.0000     -10.251853      -278.9671
  63   2.0000     -10.250715      -278.9361
  64   2.0000      -8.059903      -219.3211
  65   2.0000      -8.055871      -219.2114
  66   2.0000      -8.054971      -219.1869
  67   2.0000      -8.041433      -218.8185
  68   2.0000      -8.039451      -218.7646
  69   2.0000      -8.039412      -218.7635
  70   2.0000      -6.029621      -164.0743
  71   2.0000      -6.025344      -163.9579
  72   2.0000      -6.024991      -163.9483
  73   2.0000      -6.024487      -163.9346
  74   2.0000      -6.021625      -163.8568
  75   2.0000      -6.020903      -163.8371
  76   2.0000      -6.020082      -163.8148
  77   2.0000      -6.018178      -163.7629
  78   2.0000      -6.016849      -163.7268
  79   2.0000      -6.010905      -163.5650
  80   2.0000      -6.008933      -163.5114
  81   2.0000      -6.008716      -163.5055
  82   2.0000      -6.006661      -163.4496
  83   2.0000      -6.004715      -163.3966
  84   2.0000      -6.004386      -163.3877
  85   2.0000      -6.003421      -163.3614
  86   2.0000      -6.001917      -163.3205
  87   2.0000      -6.001415      -163.3068
  88   2.0000      -1.133008       -30.8307
  89   2.0000      -1.117387       -30.4057
  90   2.0000      -0.995714       -27.0947
  91   2.0000      -0.990871       -26.9630
  92   2.0000      -0.981974       -26.7209
  93   2.0000      -0.978426       -26.6243
  94   2.0000      -0.962418       -26.1887
  95   2.0000      -0.960047       -26.1242
  96   2.0000      -0.957251       -26.0481
  97   2.0000      -0.954235       -25.9661
  98   2.0000      -0.943727       -25.6801
  99   2.0000      -0.938376       -25.5345
 100   2.0000      -0.918841       -25.0029
 101   2.0000      -0.914720       -24.8908
 102   2.0000      -0.909715       -24.7546
 103   2.0000      -0.904732       -24.6190
 104   2.0000      -0.893876       -24.3236
 105   2.0000      -0.887994       -24.1635
 106   2.0000      -0.882391       -24.0111
 107   2.0000      -0.868404       -23.6305
 108   2.0000      -0.866472       -23.5779
 109   2.0000      -0.857443       -23.3322
 110   2.0000      -0.843745       -22.9595
 111   2.0000      -0.836728       -22.7685
 112   2.0000      -0.831762       -22.6334
 113   2.0000      -0.829444       -22.5703
 114   2.0000      -0.827545       -22.5186
 115   2.0000      -0.823146       -22.3989
 116   2.0000      -0.821106       -22.3434
 117   2.0000      -0.816702       -22.2236
 118   2.0000      -0.800749       -21.7895
 119   2.0000      -0.792677       -21.5698
 120   2.0000      -0.785354       -21.3706
 121   2.0000      -0.778321       -21.1792
 122   2.0000      -0.758512       -20.6401
 123   2.0000      -0.751350       -20.4453
 124   2.0000      -0.746786       -20.3211
 125   2.0000      -0.732945       -19.9444
 126   2.0000      -0.718592       -19.5539
 127   2.0000      -0.715231       -19.4624
 128   2.0000      -0.711544       -19.3621
 129   2.0000      -0.705914       -19.2089
 130   2.0000      -0.696572       -18.9547
 131   2.0000      -0.695090       -18.9144
 132   2.0000      -0.688692       -18.7403
 133   2.0000      -0.682032       -18.5590
 134   2.0000      -0.671895       -18.2832
 135   2.0000      -0.667432       -18.1618
 136   2.0000      -0.663211       -18.0469
 137   2.0000      -0.660704       -17.9787
 138   2.0000      -0.652271       -17.7492
 139   2.0000      -0.647183       -17.6107
 140   2.0000      -0.645509       -17.5652
 141   2.0000      -0.638602       -17.3773
 142   2.0000      -0.635299       -17.2874
 143   2.0000      -0.626437       -17.0462
 144   2.0000      -0.624583       -16.9958
 145   2.0000      -0.623883       -16.9767
 146   2.0000      -0.614211       -16.7135
 147   2.0000      -0.605235       -16.4693
 148   2.0000      -0.599273       -16.3071
 149   2.0000      -0.590833       -16.0774
 150   2.0000      -0.583873       -15.8880
 151   2.0000      -0.580163       -15.7870
 152   2.0000      -0.572793       -15.5865
 153   2.0000      -0.570926       -15.5357
 154   2.0000      -0.565802       -15.3962
 155   2.0000      -0.563366       -15.3300
 156   2.0000      -0.561027       -15.2663
 157   2.0000      -0.555761       -15.1230
 158   2.0000      -0.551892       -15.0177
 159   2.0000      -0.549801       -14.9609
 160   2.0000      -0.546115       -14.8606
 161   2.0000      -0.540271       -14.7015
 162   2.0000      -0.537805       -14.6344
 163   2.0000      -0.536423       -14.5968
 164   2.0000      -0.527880       -14.3644
 165   2.0000      -0.527663       -14.3584
 166   2.0000      -0.527082       -14.3426
 167   2.0000      -0.522337       -14.2135
 168   2.0000      -0.519843       -14.1457
 169   2.0000      -0.515618       -14.0307
 170   2.0000      -0.513160       -13.9638
 171   2.0000      -0.510301       -13.8860
 172   2.0000      -0.509585       -13.8665
 173   2.0000      -0.506172       -13.7736
 174   2.0000      -0.504886       -13.7386
 175   2.0000      -0.502956       -13.6861
 176   2.0000      -0.498726       -13.5710
 177   2.0000      -0.498384       -13.5617
 178   2.0000      -0.496664       -13.5149
 179   2.0000      -0.494936       -13.4679
 180   2.0000      -0.489091       -13.3088
 181   2.0000      -0.484554       -13.1854
 182   2.0000      -0.482338       -13.1251
 183   2.0000      -0.477838       -13.0026
 184   2.0000      -0.476568       -12.9681
 185   2.0000      -0.471697       -12.8355
 186   2.0000      -0.466960       -12.7066
 187   2.0000      -0.464308       -12.6345
 188   2.0000      -0.457447       -12.4478
 189   2.0000      -0.454310       -12.3624
 190   2.0000      -0.454009       -12.3542
 191   2.0000      -0.450292       -12.2531
 192   2.0000      -0.447136       -12.1672
 193   2.0000      -0.444083       -12.0841
 194   2.0000      -0.442408       -12.0385
 195   2.0000      -0.438964       -11.9448
 196   2.0000      -0.438741       -11.9388
 197   2.0000      -0.437573       -11.9070
 198   2.0000      -0.436894       -11.8885
 199   2.0000      -0.434790       -11.8312
 200   2.0000      -0.433039       -11.7836
 201   2.0000      -0.430584       -11.7168
 202   2.0000      -0.426773       -11.6131
 203   2.0000      -0.424145       -11.5416
 204   2.0000      -0.421578       -11.4717
 205   2.0000      -0.420602       -11.4452
 206   2.0000      -0.419967       -11.4279
 207   2.0000      -0.413282       -11.2460
 208   2.0000      -0.411387       -11.1944
 209   2.0000      -0.407588       -11.0910
 210   2.0000      -0.404612       -11.0100
 211   2.0000      -0.403432       -10.9779
 212   2.0000      -0.402262       -10.9461
 213   2.0000      -0.399109       -10.8603
 214   2.0000      -0.395207       -10.7541
 215   2.0000      -0.393969       -10.7204
 216   2.0000      -0.391674       -10.6580
 217   2.0000      -0.387681       -10.5493
 218   2.0000      -0.382151       -10.3989
 219   2.0000      -0.379948       -10.3389
 220   2.0000      -0.370110       -10.0712
 221   2.0000      -0.362444        -9.8626
 222   2.0000      -0.358213        -9.7475
 223   2.0000      -0.353674        -9.6239
 224   2.0000      -0.350994        -9.5510
 225   2.0000      -0.348054        -9.4710
 226   2.0000      -0.338633        -9.2147
 227   2.0000      -0.330922        -9.0048
 228   2.0000      -0.324841        -8.8394
 229   2.0000      -0.316979        -8.6254
 230   2.0000      -0.314151        -8.5485
 231   2.0000      -0.310666        -8.4536
 232   2.0000      -0.310225        -8.4416
 233   2.0000      -0.295679        -8.0458
 234   2.0000      -0.291586        -7.9345
 235   2.0000      -0.287095        -7.8123
 236   2.0000      -0.283180        -7.7057
 237   2.0000      -0.270886        -7.3712
 238   2.0000      -0.259343        -7.0571
 239   2.0000      -0.255175        -6.9437
 240   2.0000      -0.225747        -6.1429
 241   2.0000      -0.208986        -5.6868
 242   2.0000      -0.203500        -5.5375
 243   0.0000      -0.069208        -1.8832
 244   0.0000      -0.048026        -1.3069
 245   0.0000      -0.043652        -1.1878
 246   0.0000      -0.022464        -0.6113
 247   0.0000      -0.014050        -0.3823

MULLIKEN ATOMIC CHARGES
-----------------------
   0 C :   -0.218127
   1 S :    0.120162
   2 C :   -0.097866
   3 C :   -0.024276
   4 C :    0.209666
   5 N :   -0.058954
   6 N :   -0.053317
   7 C :   -0.009755
   8 C :   -0.027489
   9 C :   -0.103007
  10 C :    0.051761
  11 C :    0.060626
  12 C :   -0.123529
  13 S :    0.110925
  14 C :   -0.112112
  15 C :    0.053028
  16 C :    0.009363
  17 C :   -0.071238
  18 S :    0.119911
  19 C :    0.073306
  20 C :   -0.011248
  21 C :   -0.036596
  22 C :    0.119338
  23 C :   -0.128911
  24 C :    0.032319
  25 C :   -0.103267
  26 C :    0.000972
  27 C :    0.154079
  28 N :   -0.230939
  29 C :    0.129188
  30 N :   -0.240923
  31 C :    0.118836
  32 C :   -0.147397
  33 C :    0.120024
  34 C :   -0.036277
  35 C :    0.023219
  36 C :    0.011846
  37 C :    0.031868
  38 C :   -0.004951
  39 C :   -0.013640
  40 C :   -0.037402
  41 C :    0.048450
  42 C :   -0.095799
  43 C :   -0.019176
  44 C :    0.031204
  45 C :    0.059483
  46 C :   -0.139877
  47 S :    0.115879
  48 C :   -0.109330
  49 C :    0.040895
  50 C :    0.004833
  51 C :   -0.071712
  52 S :    0.116726
  53 C :    0.112821
  54 C :   -0.057187
  55 C :    0.005742
  56 C :   -0.194785
  57 S :    0.097499
  58 C :   -0.125907
  59 C :    0.028629
  60 C :    0.166164
  61 N :   -0.056624
  62 N :   -0.076064
  63 C :    0.013411
  64 H :    0.011477
  65 H :    0.132719
  66 H :    0.001528
  67 H :   -0.003783
  68 H :    0.032101
  69 H :   -0.016736
  70 H :    0.023360
  71 H :   -0.016587
  72 H :   -0.018856
  73 H :   -0.027039
  74 H :   -0.030132
  75 H :   -0.022457
  76 H :   -0.009417
  77 H :    0.102874
  78 H :    0.094111
  79 H :    0.009015
  80 H :   -0.009567
  81 H :    0.109221
  82 H :    0.112248
  83 H :   -0.004840
  84 H :    0.022308
  85 H :   -0.011215
  86 H :   -0.036076
  87 H :   -0.039208
  88 H :   -0.031451
  89 H :    0.017181
  90 H :   -0.008616
  91 H :   -0.038822
  92 H :    0.029741
  93 H :   -0.014396
  94 H :    0.022499
  95 H :   -0.025783
  96 H :   -0.028772
  97 H :    0.018020
  98 H :    0.114563
  99 H :   -0.013703
Sum of atomic charges:   -0.0000000

LOEWDIN ATOMIC CHARGES
----------------------
   0 C :   -0.239753
   1 S :    0.460448
   2 C :   -0.190830
   3 C :   -0.102375
   4 C :   -0.023558
   5 N :    0.072800
   6 N :   -0.049710
   7 C :   -0.050715
   8 C :   -0.179283
   9 C :   -0.031517
  10 C :   -0.022758
  11 C :   -0.047545
  12 C :   -0.143416
  13 S :    0.448606
  14 C :   -0.206050
  15 C :   -0.039472
  16 C :   -0.063267
  17 C :   -0.167241
  18 S :    0.413784
  19 C :   -0.052122
  20 C :   -0.008448
  21 C :   -0.033707
  22 C :   -0.023625
  23 C :   -0.035836
  24 C :   -0.024335
  25 C :   -0.058289
  26 C :   -0.039630
  27 C :    0.028477
  28 N :   -0.116847
  29 C :    0.029019
  30 N :   -0.103479
  31 C :   -0.017575
  32 C :    0.056519
  33 C :   -0.027521
  34 C :   -0.031369
  35 C :   -0.016837
  36 C :   -0.033706
  37 C :   -0.031618
  38 C :   -0.011893
  39 C :   -0.027558
  40 C :    0.003309
  41 C :   -0.058046
  42 C :   -0.174357
  43 C :   -0.019249
  44 C :   -0.033831
  45 C :   -0.044458
  46 C :   -0.150037
  47 S :    0.432987
  48 C :   -0.205929
  49 C :   -0.039137
  50 C :   -0.065035
  51 C :   -0.168887
  52 S :    0.411375
  53 C :   -0.048661
  54 C :   -0.043048
  55 C :   -0.044448
  56 C :   -0.212489
  57 S :    0.448796
  58 C :   -0.192431
  59 C :   -0.099574
  60 C :   -0.022560
  61 N :    0.077458
  62 N :   -0.051226
  63 C :   -0.044990
  64 H :    0.023099
  65 H :    0.084412
  66 H :    0.015778
  67 H :    0.028707
  68 H :    0.034849
  69 H :    0.030771
  70 H :    0.021882
  71 H :    0.028589
  72 H :    0.023743
  73 H :    0.023399
  74 H :    0.024063
  75 H :   -0.002196
  76 H :    0.014873
  77 H :    0.055126
  78 H :    0.056641
  79 H :    0.003821
  80 H :    0.017663
  81 H :    0.055743
  82 H :    0.051001
  83 H :    0.029262
  84 H :    0.051358
  85 H :    0.025001
  86 H :    0.029382
  87 H :    0.026063
  88 H :    0.024612
  89 H :    0.029490
  90 H :    0.023997
  91 H :    0.032827
  92 H :    0.033177
  93 H :    0.029795
  94 H :    0.021392
  95 H :    0.017229
  96 H :    0.025626
  97 H :    0.023359
  98 H :    0.053288
  99 H :    0.018883

  Mayer bond orders larger than 0.100000
B(  0-C ,  1-S ) :   1.1236 B(  0-C ,  2-C ) :   0.1177 B(  0-C ,  4-C ) :   1.4414
B(  0-C , 64-H ) :   0.9954 B(  1-S ,  2-C ) :   1.1666 B(  2-C ,  3-C ) :   1.3603
B(  2-C ,  8-C ) :   1.1810 B(  3-C ,  4-C ) :   1.2318 B(  3-C ,  7-C ) :   1.1416
B(  4-C ,  5-N ) :   1.1096 B(  5-N ,  6-N ) :   1.1282 B(  5-N , 65-H ) :   0.9547
B(  6-N ,  7-C ) :   1.7536 B(  7-C , 66-H ) :   0.9969 B(  8-C ,  9-C ) :   1.5234
B(  8-C , 13-S ) :   1.0469 B(  9-C , 10-C ) :   1.2299 B(  9-C , 67-H ) :   0.9634
B( 10-C , 11-C ) :   1.0449 B( 10-C , 19-C ) :   1.4158 B( 11-C , 12-C ) :   1.6235
B( 11-C , 14-C ) :   1.1743 B( 12-C , 13-S ) :   1.1266 B( 12-C , 68-H ) :   0.9402
B( 14-C , 15-C ) :   1.4429 B( 14-C , 18-S ) :   1.0708 B( 15-C , 16-C ) :   1.2188
B( 15-C , 19-C ) :   1.1014 B( 16-C , 17-C ) :   1.5848 B( 16-C , 69-H ) :   0.9980
B( 17-C , 18-S ) :   1.1525 B( 17-C , 70-H ) :   0.9667 B( 19-C , 20-C ) :   1.1218
B( 20-C , 21-C ) :   1.6788 B( 20-C , 71-H ) :   0.9580 B( 21-C , 22-C ) :   1.0612
B( 21-C , 72-H ) :   0.9762 B( 22-C , 23-C ) :   1.5200 B( 22-C , 39-C ) :   1.1116
B( 23-C , 24-C ) :   1.1190 B( 23-C , 73-H ) :   0.9891 B( 24-C , 25-C ) :   1.4534
B( 24-C , 37-C ) :   1.1240 B( 25-C , 26-C ) :   1.0350 B( 25-C , 31-C ) :   1.1241
B( 26-C , 27-C ) :   1.0520 B( 26-C , 29-C ) :   1.0363 B( 26-C , 74-H ) :   0.8770
B( 27-C , 28-N ) :   1.0915 B( 27-C , 75-H ) :   0.9372 B( 27-C , 76-H ) :   0.9368
B( 28-N , 77-H ) :   0.9567 B( 28-N , 78-H ) :   0.9679 B( 29-C , 30-N ) :   1.0718
B( 29-C , 79-H ) :   0.9382 B( 29-C , 80-H ) :   0.9372 B( 30-N , 81-H ) :   0.9615
B( 30-N , 82-H ) :   0.9230 B( 30-N , 98-H ) :   0.1634 B( 31-C , 32-C ) :   1.6373
B( 31-C , 36-C ) :   1.0485 B( 32-C , 33-C ) :   0.9721 B( 32-C , 83-H ) :   0.9712
B( 33-C , 34-C ) :   0.9870 B( 33-C , 40-C ) :   0.9564 B( 33-C , 84-H ) :   0.8790
B( 34-C , 35-C ) :   1.7123 B( 34-C , 85-H ) :   0.9763 B( 35-C , 36-C ) :   1.1260
B( 35-C , 86-H ) :   0.9896 B( 36-C , 37-C ) :   1.4387 B( 37-C , 38-C ) :   1.1396
B( 38-C , 39-C ) :   1.6041 B( 38-C , 87-H ) :   0.9911 B( 39-C , 88-H ) :   0.9910
B( 40-C , 41-C ) :   1.8356 B( 40-C , 89-H ) :   0.9600 B( 41-C , 42-C ) :   1.0352
B( 41-C , 90-H ) :   0.9560 B( 42-C , 43-C ) :   1.6025 B( 42-C , 47-S ) :   1.0434
B( 43-C , 44-C ) :   1.2094 B( 43-C , 91-H ) :   0.9684 B( 44-C , 45-C ) :   1.0419
B( 44-C , 53-C ) :   1.4063 B( 45-C , 46-C ) :   1.6219 B( 45-C , 48-C ) :   1.1800
B( 46-C , 47-S ) :   1.1236 B( 46-C , 92-H ) :   0.9419 B( 48-C , 49-C ) :   1.4508
B( 48-C , 52-S ) :   1.0677 B( 49-C , 50-C ) :   1.2158 B( 49-C , 53-C ) :   1.1034
B( 50-C , 51-C ) :   1.5885 B( 50-C , 93-H ) :   0.9953 B( 51-C , 52-S ) :   1.1520
B( 51-C , 94-H ) :   0.9660 B( 53-C , 54-C ) :   1.1434 B( 54-C , 55-C ) :   1.6141
B( 54-C , 95-H ) :   0.9571 B( 55-C , 56-C ) :   1.1890 B( 55-C , 96-H ) :   0.9801
B( 56-C , 57-S ) :   1.0985 B( 56-C , 58-C ) :   0.1205 B( 56-C , 60-C ) :   1.3823
B( 57-S , 58-C ) :   1.1870 B( 58-C , 59-C ) :   1.4168 B( 58-C , 97-H ) :   0.9775
B( 59-C , 60-C ) :   1.2355 B( 59-C , 63-C ) :   1.1191 B( 60-C , 61-N ) :   1.1535
B( 61-N , 62-N ) :   1.1518 B( 61-N , 98-H ) :   0.8911 B( 62-N , 63-C ) :   1.7331
B( 63-C , 99-H ) :   1.0009

-----------------------------------------------------------------------------
         ABSORPTION SPECTRUM VIA TRANSITION ELECTRIC DIPOLE MOMENTS
-----------------------------------------------------------------------------
State   Energy  Wavelength   fosc         T2         TX        TY        TZ
        (cm-1)    (nm)                  (au**2)     (au)      (au)      (au)
-----------------------------------------------------------------------------
   0   14327.9    697.9   0.170512728   3.91787  -1.81645   0.24133   0.74844
   1   16636.0    601.1   0.072824938   1.44114   0.33257  -0.55363  -1.01195
   2   17818.0    561.2   0.611933949  11.30633  -2.68861   1.94181   0.55418
   3   19394.4    515.6   0.301240552   5.11342  -0.46817  -0.05087  -2.21171
   4   20606.1    485.3   0.089099390   1.42349  -0.35203   0.48823   1.03015
   5   21869.2    457.3   0.091209204   1.37304   0.96742  -0.65307  -0.10308
   6   22330.1    447.8   0.148761127   2.19318   0.24011   0.06058   1.46009
   7   23793.0    420.3   0.103721352   1.43514   0.74398  -0.68922   0.63766
   8   25164.2    397.4   0.522048684   6.82974   0.79943  -0.20601   2.47956
   9   25947.8    385.4   0.124382234   1.57810  -0.66467   0.28928  -1.02598
  10   26863.6    372.3   0.156213575   1.91439  -1.10114   0.30025  -0.78213
  11   27354.3    365.6   0.036930873   0.44447   0.18583  -0.21177  -0.60422
  12   28197.2    354.6   0.003798653   0.04435   0.15195   0.10235  -0.10385
  13   28457.0    351.4   0.393004601   4.54658   1.58850  -0.92325   1.08205
  14   29255.5    341.8   0.231354993   2.60344  -0.97932   0.64070  -1.11080
  15   29506.3    338.9   0.140776052   1.57069  -0.91183   0.41377  -0.75369
  16   30067.8    332.6   0.078522976   0.85975   0.21665  -0.44231   0.78560
  17   30429.6    328.6   0.178242233   1.92837  -1.16956   0.74154  -0.10302
  18   31132.2    321.2   0.164158831   1.73592   1.08069  -0.64756  -0.38561
  19   31436.8    318.1   0.045444043   0.47590  -0.64262   0.24204   0.06595
  20   31745.2    315.0   0.018633571   0.19324  -0.28130   0.28409   0.18276
  21   32288.1    309.7   0.049809356   0.50786   0.34214  -0.13426   0.61055
  22   32412.4    308.5   0.014111975   0.14334  -0.07065   0.00417  -0.37192
  23   33213.3    301.1   0.005184327   0.05139   0.15427  -0.16117   0.04016
  24   33514.9    298.4   0.124843862   1.22632  -0.89075   0.48396  -0.44572
  25   33829.6    295.6   0.551294581   5.36491  -1.16474   0.21019  -1.99101
  26   34203.8    292.4   0.125344817   1.20644   0.83534  -0.48262   0.52510
  27   34769.4    287.6   0.374269553   3.54375  -1.50445   0.85903   0.73652
  28   35768.2    279.6   0.195521498   1.79959   0.69094  -0.69084  -0.91921
  29   36297.8    275.5   0.005520383   0.05007   0.00204   0.21719   0.05380
  30   36526.4    273.8   0.174600953   1.57367   0.16654  -0.07133  -1.24131
  31   36718.5    272.3   0.027150661   0.24343   0.37998  -0.23046   0.21432
  32   37032.5    270.0   0.009127928   0.08115  -0.02121  -0.22606   0.17203
  33   37147.6    269.2   0.056378684   0.49964   0.24228   0.02645   0.66351
  34   37473.1    266.9   0.004198559   0.03689   0.17232  -0.01976  -0.08247
  35   37497.0    266.7   0.028009986   0.24592  -0.23304   0.15849  -0.40803
  36   37868.4    264.1   0.071583666   0.62232  -0.20680  -0.09637   0.75516
  37   38210.2    261.7   0.016786338   0.14463   0.28107  -0.25576   0.01474
  38   38767.9    257.9   0.039457695   0.33507  -0.39550   0.07755  -0.41550
  39   38854.9    257.4   0.003097535   0.02624  -0.07227   0.07669  -0.12305
  40   38884.6    257.2   0.274064649   2.32034  -1.28512   0.81089   0.10614
  41   39299.7    254.5   0.446263425   3.73833   1.45083  -1.02141  -0.76820
  42   39427.4    253.6   0.020682140   0.17269  -0.38610   0.13969   0.06410
  43   39517.6    253.1   0.009886330   0.08236   0.22170  -0.17824  -0.03796
  44   39647.4    252.2   0.048034690   0.39886  -0.51159   0.30603   0.20852
  45   39703.7    251.9   0.011061100   0.09172  -0.02321  -0.04175  -0.29906
  46   39978.4    250.1   0.014733347   0.12133  -0.08945  -0.33530  -0.02994
  47   40216.0    248.7   0.097287366   0.79640  -0.21589   0.22570   0.83598

FINAL SINGLE POINT ENERGY     -4716.954319795233

DIPOLE MOMENT
-------------
                                X             Y             Z
Electronic contribution:     16.80341       5.99618       5.63576
Nuclear contribution   :    -16.76311      -6.60700      -7.12291
                        -----------------------------------------
Total Dipole Moment    :      0.04030      -0.61083      -1.48715
                        -----------------------------------------
Magnitude (a.u.)       :      1.60821
Magnitude (Debye)      :      4.08775

Rotational constants in cm-1:     0.001868     0.000344     0.000298
Rotational constants in MHz :    55.993108    10.298620     8.940685

                             ****ORCA TERMINATED NORMALLY****
TOTAL RUN TIME: 0 days 0 hours 9 minutes 38 seconds 487 msec
