                         Program Version 4.2.0 -  RELEASE  -
|  1> # ORCA input file
|  2> # SCF done       -165.131957755896          0.000835612701
|  3> ! CAM-B3LYP def2-SVP def2/J RIJCOSX Grid4 TightSCF
|  4> %maxcore 5000
|  5> %tddft
|  6>     Mode sTDDFT
|  7>     Ethresh 5.0
|  8>     maxcore 5000
|  9> end
| 10>
| 11> %pal
| 12>   nprocs 6
| 13>   end
| 14> * xyz 0 1
| 15>    N        0.17233        -1.51536         6.31291
| 16>    C       -1.18013        -1.71633         6.02594
| 17>    O       -2.07769        -1.05593         6.47086
| 18>    C       -1.21060        -2.85988         5.09383
| 19>    C        0.04738        -3.28094         4.85723
| 20>    C        0.98724        -2.40320         5.66396
| 21>    O        2.18458        -2.46690         5.75826
| 22>    C        0.56447        -4.36989         4.08496
| 23>    C        0.15211        -5.69045         4.03467
| 24>    N       -0.99998        -6.27757         4.59813
| 25>    O       -1.01322        -7.49118         4.69083
| 26>    O       -1.91394        -5.55307         4.94978
| 27>    C        1.15526        -6.47880         3.36377
| 28>    C        2.19173        -5.67201         3.03012
| 29>    C        1.87540        -4.32799         3.42976
| 30>    C        2.56725        -3.17398         3.12604
| 31>    C        1.98818        -1.89096         2.88833
| 32>    C        2.94403        -1.07610         2.36711
| 33>    C        4.19402        -1.77871         2.30737
| 34>    N        5.33585        -1.11997         1.82559
| 35>    O        5.25527         0.08567         1.66421
| 36>    O        6.34355        -1.76440         1.56541
| 37>    C        4.01104        -3.07575         2.80924
| 38>    C        4.87825        -4.09198         3.23965
| 39>    C        6.23366        -4.19723         3.04029
| 40>    C        6.97695        -5.26393         3.56778
| 41>    N        8.33104        -5.41226         3.38171
| 42>    C        9.19126        -4.53854         2.61584
| 43>    C        9.06820        -4.79070         1.11628
| 44>    C        8.82847        -6.56721         3.99650
| 45>    O        9.99396        -6.90540         3.96973
| 46>    C        7.66384        -7.17155         4.62031
| 47>    C        6.55207        -6.35679         4.34924
| 48>    C        5.39131        -6.96681         4.97370
| 49>    O        4.22226        -6.64382         5.00612
| 50>    N        5.89433        -8.12856         5.58568
| 51>    C        5.03729        -8.99451         6.36268
| 52>    C        5.16043        -8.71659         7.85761
| 53>    C        7.24283        -8.26725         5.39308
| 54>    C        7.99402        -9.35468         5.88995
| 55>    C        9.32672        -9.49410         5.64748
| 56>    C       10.10910       -10.58327         6.10146
| 57>    S       11.80376       -10.61423         5.64231
| 58>    C       12.06571       -12.11722         6.46477
| 59>    C       10.91077       -12.57322         7.04698
| 60>    C        9.80324       -11.70628         6.85953
| 61>    C        8.62102       -12.27925         7.51143
| 62>    O        7.49123       -11.85019         7.53227
| 63>    C        9.07835       -13.56729         8.17693
| 64>    C       10.51107       -13.80987         7.72952
| 65>    O       11.14121       -14.82777         7.84606
| 66>    N       13.30934       -12.70745         6.51805
| 67>    C       14.21713       -12.72290         5.45128
| 68>    O       14.03902       -12.17644         4.39995
| 69>    C       15.37273       -13.52127         5.93791
| 70>    C       15.15782       -13.88067         7.20132
| 71>    C       13.84857       -13.33863         7.65667
| 72>    O       13.35193       -13.33960         8.74271
| 73>    H        0.50864        -0.81625         6.95838
| 74>    H       -2.12534        -3.25134         4.69281
| 75>    H        1.05023        -7.53051         3.17867
| 76>    H        3.05113        -5.95084         2.45384
| 77>    H        0.94648        -1.65820         2.99982
| 78>    H        2.82643        -0.06247         2.03147
| 79>    H        4.40210        -4.86541         3.82681
| 80>    H        6.75194        -3.45588         2.45213
| 81>    H       10.21129        -4.75551         2.94425
| 82>    H        8.95432        -3.49833         2.84983
| 83>    H        9.30957        -5.82616         0.88861
| 84>    H        9.76113        -4.14667         0.58350
| 85>    H        8.06145        -4.57729         0.76645
| 86>    H        5.27859       -10.03736         6.14629
| 87>    H        4.01603        -8.78663         6.03267
| 88>    H        6.17315        -8.90451         8.20503
| 89>    H        4.48197        -9.36525         8.40320
| 90>    H        4.90062        -7.68241         8.06992
| 91>    H        7.47636       -10.10397         6.47064
| 92>    H        9.84922        -8.74469         5.06557
| 93>    H        8.42240       -14.40546         7.93594
| 94>    H        9.05013       -13.44892         9.26342
| 95>    H       16.21718       -13.73230         5.30869
| 96>    H       15.78706       -14.45180         7.85806
| 97> *
| 98>
| 99>                          ****END OF INPUT****

CARTESIAN COORDINATES (ANGSTROEM)
---------------------------------
  N      0.172330   -1.515360    6.312910
  C     -1.180130   -1.716330    6.025940
  O     -2.077690   -1.055930    6.470860
  C     -1.210600   -2.859880    5.093830
  C      0.047380   -3.280940    4.857230
  C      0.987240   -2.403200    5.663960
  O      2.184580   -2.466900    5.758260
  C      0.564470   -4.369890    4.084960
  C      0.152110   -5.690450    4.034670
  N     -0.999980   -6.277570    4.598130
  O     -1.013220   -7.491180    4.690830
  O     -1.913940   -5.553070    4.949780
  C      1.155260   -6.478800    3.363770
  C      2.191730   -5.672010    3.030120
  C      1.875400   -4.327990    3.429760
  C      2.567250   -3.173980    3.126040
  C      1.988180   -1.890960    2.888330
  C      2.944030   -1.076100    2.367110
  C      4.194020   -1.778710    2.307370
  N      5.335850   -1.119970    1.825590
  O      5.255270    0.085670    1.664210
  O      6.343550   -1.764400    1.565410
  C      4.011040   -3.075750    2.809240
  C      4.878250   -4.091980    3.239650
  C      6.233660   -4.197230    3.040290
  C      6.976950   -5.263930    3.567780
  N      8.331040   -5.412260    3.381710
  C      9.191260   -4.538540    2.615840
  C      9.068200   -4.790700    1.116280
  C      8.828470   -6.567210    3.996500
  O      9.993960   -6.905400    3.969730
  C      7.663840   -7.171550    4.620310
  C      6.552070   -6.356790    4.349240
  C      5.391310   -6.966810    4.973700
  O      4.222260   -6.643820    5.006120
  N      5.894330   -8.128560    5.585680
  C      5.037290   -8.994510    6.362680
  C      5.160430   -8.716590    7.857610
  C      7.242830   -8.267250    5.393080
  C      7.994020   -9.354680    5.889950
  C      9.326720   -9.494100    5.647480
  C     10.109100  -10.583270    6.101460
  S     11.803760  -10.614230    5.642310
  C     12.065710  -12.117220    6.464770
  C     10.910770  -12.573220    7.046980
  C      9.803240  -11.706280    6.859530
  C      8.621020  -12.279250    7.511430
  O      7.491230  -11.850190    7.532270
  C      9.078350  -13.567290    8.176930
  C     10.511070  -13.809870    7.729520
  O     11.141210  -14.827770    7.846060
  N     13.309340  -12.707450    6.518050
  C     14.217130  -12.722900    5.451280
  O     14.039020  -12.176440    4.399950
  C     15.372730  -13.521270    5.937910
  C     15.157820  -13.880670    7.201320
  C     13.848570  -13.338630    7.656670
  O     13.351930  -13.339600    8.742710
  H      0.508640   -0.816250    6.958380
  H     -2.125340   -3.251340    4.692810
  H      1.050230   -7.530510    3.178670
  H      3.051130   -5.950840    2.453840
  H      0.946480   -1.658200    2.999820
  H      2.826430   -0.062470    2.031470
  H      4.402100   -4.865410    3.826810
  H      6.751940   -3.455880    2.452130
  H     10.211290   -4.755510    2.944250
  H      8.954320   -3.498330    2.849830
  H      9.309570   -5.826160    0.888610
  H      9.761130   -4.146670    0.583500
  H      8.061450   -4.577290    0.766450
  H      5.278590  -10.037360    6.146290
  H      4.016030   -8.786630    6.032670
  H      6.173150   -8.904510    8.205030
  H      4.481970   -9.365250    8.403200
  H      4.900620   -7.682410    8.069920
  H      7.476360  -10.103970    6.470640
  H      9.849220   -8.744690    5.065570
  H      8.422400  -14.405460    7.935940
  H      9.050130  -13.448920    9.263420
  H     16.217180  -13.732300    5.308690
  H     15.787060  -14.451800    7.858060

 Total Charge           Charge          ....    0
 Multiplicity           Mult            ....    1
 Number of Electrons    NEL             ....  412
 Basis Dimension        Dim             ....  936

ORBITAL ENERGIES
----------------

  NO   OCC          E(Eh)            E(eV)
   0   2.0000     -88.993757     -2421.6433
   1   2.0000     -19.246183      -523.7153
   2   2.0000     -19.241952      -523.6001
   3   2.0000     -19.238024      -523.4933
   4   2.0000     -19.237506      -523.4791
   5   2.0000     -19.235193      -523.4162
   6   2.0000     -19.233303      -523.3648
   7   2.0000     -19.231412      -523.3133
   8   2.0000     -19.221319      -523.0387
   9   2.0000     -19.217946      -522.9469
  10   2.0000     -19.214199      -522.8449
  11   2.0000     -19.210396      -522.7414
  12   2.0000     -19.198776      -522.4252
  13   2.0000     -14.646188      -398.5430
  14   2.0000     -14.643803      -398.4781
  15   2.0000     -14.493295      -394.3826
  16   2.0000     -14.466429      -393.6516
  17   2.0000     -14.460413      -393.4878
  18   2.0000     -14.453737      -393.3062
  19   2.0000     -10.423622      -283.6412
  20   2.0000     -10.420179      -283.5475
  21   2.0000     -10.399748      -282.9915
  22   2.0000     -10.394198      -282.8405
  23   2.0000     -10.389992      -282.7261
  24   2.0000     -10.384941      -282.5886
  25   2.0000     -10.382436      -282.5204
  26   2.0000     -10.376523      -282.3595
  27   2.0000     -10.375890      -282.3423
  28   2.0000     -10.353422      -281.7309
  29   2.0000     -10.345008      -281.5020
  30   2.0000     -10.340220      -281.3717
  31   2.0000     -10.332336      -281.1572
  32   2.0000     -10.329638      -281.0837
  33   2.0000     -10.328745      -281.0594
  34   2.0000     -10.326255      -280.9917
  35   2.0000     -10.326036      -280.9857
  36   2.0000     -10.321208      -280.8544
  37   2.0000     -10.316328      -280.7216
  38   2.0000     -10.315735      -280.7054
  39   2.0000     -10.315087      -280.6878
  40   2.0000     -10.311860      -280.6000
  41   2.0000     -10.309787      -280.5436
  42   2.0000     -10.309174      -280.5269
  43   2.0000     -10.305580      -280.4291
  44   2.0000     -10.301532      -280.3189
  45   2.0000     -10.298929      -280.2481
  46   2.0000     -10.298822      -280.2452
  47   2.0000     -10.298062      -280.2245
  48   2.0000     -10.297684      -280.2142
  49   2.0000     -10.296682      -280.1870
  50   2.0000     -10.291035      -280.0333
  51   2.0000     -10.285126      -279.8725
  52   2.0000     -10.282762      -279.8082
  53   2.0000     -10.282225      -279.7936
  54   2.0000     -10.280976      -279.7596
  55   2.0000     -10.274860      -279.5932
  56   2.0000     -10.263767      -279.2913
  57   2.0000     -10.262207      -279.2488
  58   2.0000      -8.088876      -220.1095
  59   2.0000      -6.058092      -164.8491
  60   2.0000      -6.053699      -164.7295
  61   2.0000      -6.051216      -164.6620
  62   2.0000      -1.317773       -35.8584
  63   2.0000      -1.313256       -35.7355
  64   2.0000      -1.192894       -32.4603
  65   2.0000      -1.168325       -31.7917
  66   2.0000      -1.161429       -31.6041
  67   2.0000      -1.148691       -31.2575
  68   2.0000      -1.147966       -31.2378
  69   2.0000      -1.139923       -31.0189
  70   2.0000      -1.137954       -30.9653
  71   2.0000      -1.137790       -30.9608
  72   2.0000      -1.135072       -30.8869
  73   2.0000      -1.129394       -30.7324
  74   2.0000      -1.088567       -29.6214
  75   2.0000      -1.077166       -29.3112
  76   2.0000      -1.065838       -29.0029
  77   2.0000      -1.046662       -28.4811
  78   2.0000      -1.019686       -27.7471
  79   2.0000      -1.013296       -27.5732
  80   2.0000      -0.992973       -27.0202
  81   2.0000      -0.954013       -25.9600
  82   2.0000      -0.939787       -25.5729
  83   2.0000      -0.935532       -25.4571
  84   2.0000      -0.916320       -24.9343
  85   2.0000      -0.913771       -24.8650
  86   2.0000      -0.909286       -24.7429
  87   2.0000      -0.906813       -24.6756
  88   2.0000      -0.878352       -23.9012
  89   2.0000      -0.876808       -23.8592
  90   2.0000      -0.854617       -23.2553
  91   2.0000      -0.845775       -23.0147
  92   2.0000      -0.836531       -22.7632
  93   2.0000      -0.833034       -22.6680
  94   2.0000      -0.825397       -22.4602
  95   2.0000      -0.803419       -21.8621
  96   2.0000      -0.796573       -21.6758
  97   2.0000      -0.788218       -21.4485
  98   2.0000      -0.765645       -20.8343
  99   2.0000      -0.764282       -20.7972
 100   2.0000      -0.755042       -20.5457
 101   2.0000      -0.754541       -20.5321
 102   2.0000      -0.736554       -20.0426
 103   2.0000      -0.725684       -19.7469
 104   2.0000      -0.722165       -19.6511
 105   2.0000      -0.714140       -19.4327
 106   2.0000      -0.709949       -19.3187
 107   2.0000      -0.706135       -19.2149
 108   2.0000      -0.704571       -19.1723
 109   2.0000      -0.694682       -18.9032
 110   2.0000      -0.687473       -18.7071
 111   2.0000      -0.669262       -18.2116
 112   2.0000      -0.667985       -18.1768
 113   2.0000      -0.656939       -17.8762
 114   2.0000      -0.650935       -17.7128
 115   2.0000      -0.636090       -17.3089
 116   2.0000      -0.629738       -17.1360
 117   2.0000      -0.627934       -17.0869
 118   2.0000      -0.624176       -16.9847
 119   2.0000      -0.619911       -16.8686
 120   2.0000      -0.617289       -16.7973
 121   2.0000      -0.612943       -16.6790
 122   2.0000      -0.610832       -16.6216
 123   2.0000      -0.601885       -16.3781
 124   2.0000      -0.597139       -16.2490
 125   2.0000      -0.593417       -16.1477
 126   2.0000      -0.588955       -16.0263
 127   2.0000      -0.587894       -15.9974
 128   2.0000      -0.585676       -15.9371
 129   2.0000      -0.579754       -15.7759
 130   2.0000      -0.579598       -15.7717
 131   2.0000      -0.575899       -15.6710
 132   2.0000      -0.574570       -15.6349
 133   2.0000      -0.573063       -15.5938
 134   2.0000      -0.569149       -15.4873
 135   2.0000      -0.565768       -15.3953
 136   2.0000      -0.559413       -15.2224
 137   2.0000      -0.557936       -15.1822
 138   2.0000      -0.549212       -14.9448
 139   2.0000      -0.547214       -14.8905
 140   2.0000      -0.541571       -14.7369
 141   2.0000      -0.538921       -14.6648
 142   2.0000      -0.536241       -14.5919
 143   2.0000      -0.535239       -14.5646
 144   2.0000      -0.534479       -14.5439
 145   2.0000      -0.531127       -14.4527
 146   2.0000      -0.530656       -14.4399
 147   2.0000      -0.529673       -14.4131
 148   2.0000      -0.523405       -14.2426
 149   2.0000      -0.520424       -14.1615
 150   2.0000      -0.518834       -14.1182
 151   2.0000      -0.517377       -14.0785
 152   2.0000      -0.512567       -13.9477
 153   2.0000      -0.510157       -13.8821
 154   2.0000      -0.506045       -13.7702
 155   2.0000      -0.504408       -13.7256
 156   2.0000      -0.504053       -13.7160
 157   2.0000      -0.499546       -13.5933
 158   2.0000      -0.495999       -13.4968
 159   2.0000      -0.493772       -13.4362
 160   2.0000      -0.487947       -13.2777
 161   2.0000      -0.487514       -13.2659
 162   2.0000      -0.484215       -13.1762
 163   2.0000      -0.480774       -13.0825
 164   2.0000      -0.477211       -12.9856
 165   2.0000      -0.475394       -12.9361
 166   2.0000      -0.472550       -12.8587
 167   2.0000      -0.468810       -12.7570
 168   2.0000      -0.463720       -12.6185
 169   2.0000      -0.459667       -12.5082
 170   2.0000      -0.457188       -12.4407
 171   2.0000      -0.454888       -12.3781
 172   2.0000      -0.449418       -12.2293
 173   2.0000      -0.446700       -12.1553
 174   2.0000      -0.444895       -12.1062
 175   2.0000      -0.441438       -12.0121
 176   2.0000      -0.439223       -11.9519
 177   2.0000      -0.429974       -11.7002
 178   2.0000      -0.426067       -11.5939
 179   2.0000      -0.416102       -11.3227
 180   2.0000      -0.400992       -10.9115
 181   2.0000      -0.397382       -10.8133
 182   2.0000      -0.391466       -10.6523
 183   2.0000      -0.385816       -10.4986
 184   2.0000      -0.384848       -10.4722
 185   2.0000      -0.382276       -10.4023
 186   2.0000      -0.378344       -10.2953
 187   2.0000      -0.374174       -10.1818
 188   2.0000      -0.372012       -10.1230
 189   2.0000      -0.370418       -10.0796
 190   2.0000      -0.369171       -10.0457
 191   2.0000      -0.364477        -9.9179
 192   2.0000      -0.362745        -9.8708
 193   2.0000      -0.360612        -9.8128
 194   2.0000      -0.358745        -9.7619
 195   2.0000      -0.357146        -9.7184
 196   2.0000      -0.351381        -9.5616
 197   2.0000      -0.346858        -9.4385
 198   2.0000      -0.343236        -9.3399
 199   2.0000      -0.333523        -9.0756
 200   2.0000      -0.327183        -8.9031
 201   2.0000      -0.323886        -8.8134
 202   2.0000      -0.308363        -8.3910
 203   2.0000      -0.301280        -8.1982
 204   2.0000      -0.295541        -8.0421
 205   2.0000      -0.239773        -6.5246
 206   0.0000      -0.138914        -3.7800
 207   0.0000      -0.094728        -2.5777
 208   0.0000      -0.078988        -2.1494
 209   0.0000      -0.065718        -1.7883
 210   0.0000      -0.047750        -1.2993

MULLIKEN ATOMIC CHARGES
-----------------------
   0 N :   -0.137621
   1 C :    0.168956
   2 O :   -0.138110
   3 C :   -0.048209
   4 C :   -0.128140
   5 C :    0.157938
   6 O :   -0.143003
   7 C :    0.078725
   8 C :    0.082642
   9 N :    0.267259
  10 O :   -0.241150
  11 O :   -0.249125
  12 C :    0.000197
  13 C :    0.055649
  14 C :    0.027982
  15 C :    0.035154
  16 C :    0.016556
  17 C :    0.027121
  18 C :    0.056338
  19 N :    0.280407
  20 O :   -0.250896
  21 O :   -0.266750
  22 C :    0.094897
  23 C :   -0.081249
  24 C :   -0.001774
  25 C :    0.133226
  26 N :   -0.253940
  27 C :    0.096677
  28 C :    0.007362
  29 C :    0.171925
  30 O :   -0.210556
  31 C :   -0.078269
  32 C :   -0.054257
  33 C :    0.170156
  34 O :   -0.187291
  35 N :   -0.250767
  36 C :    0.094848
  37 C :    0.009994
  38 C :    0.143459
  39 C :   -0.031497
  40 C :    0.071465
  41 C :   -0.153190
  42 S :    0.238254
  43 C :   -0.078547
  44 C :    0.055973
  45 C :    0.020198
  46 C :    0.037385
  47 O :   -0.161790
  48 C :    0.061527
  49 C :    0.030283
  50 O :   -0.139766
  51 N :   -0.254491
  52 C :    0.206249
  53 O :   -0.139619
  54 C :   -0.011706
  55 C :   -0.007137
  56 C :    0.222964
  57 O :   -0.121078
  58 H :    0.139992
  59 H :    0.020254
  60 H :   -0.004112
  61 H :   -0.008151
  62 H :   -0.002083
  63 H :    0.005479
  64 H :    0.030162
  65 H :   -0.000699
  66 H :    0.040788
  67 H :    0.038743
  68 H :    0.023202
  69 H :    0.028385
  70 H :    0.023024
  71 H :    0.040934
  72 H :    0.043076
  73 H :    0.019640
  74 H :    0.029470
  75 H :    0.025723
  76 H :   -0.010683
  77 H :    0.003794
  78 H :    0.061495
  79 H :    0.081472
  80 H :    0.032687
  81 H :    0.035568
Sum of atomic charges:   -0.0000000

LOEWDIN ATOMIC CHARGES
----------------------
   0 N :   -0.005905
   1 C :    0.077340
   2 O :   -0.136876
   3 C :   -0.002405
   4 C :   -0.046666
   5 C :    0.085139
   6 O :   -0.146098
   7 C :   -0.009450
   8 C :   -0.017032
   9 N :    0.283682
  10 O :   -0.205530
  11 O :   -0.206067
  12 C :   -0.005282
  13 C :   -0.011556
  14 C :    0.031349
  15 C :    0.070967
  16 C :   -0.047523
  17 C :    0.030808
  18 C :   -0.055214
  19 N :    0.287480
  20 O :   -0.214642
  21 O :   -0.227718
  22 C :    0.016452
  23 C :    0.006931
  24 C :    0.000150
  25 C :    0.061722
  26 N :    0.005776
  27 C :    0.038770
  28 C :   -0.058524
  29 C :    0.077790
  30 O :   -0.200706
  31 C :   -0.117274
  32 C :   -0.095437
  33 C :    0.084116
  34 O :   -0.171924
  35 N :    0.008585
  36 C :    0.038559
  37 C :   -0.057385
  38 C :    0.086650
  39 C :   -0.031873
  40 C :    0.008461
  41 C :   -0.140823
  42 S :    0.516387
  43 C :   -0.100989
  44 C :   -0.101776
  45 C :   -0.086760
  46 C :    0.086908
  47 O :   -0.137658
  48 C :   -0.065840
  49 C :    0.077974
  50 O :   -0.126712
  51 N :   -0.046475
  52 C :    0.087275
  53 O :   -0.126466
  54 C :   -0.006250
  55 C :    0.004439
  56 C :    0.095883
  57 O :   -0.103389
  58 H :    0.096446
  59 H :    0.041849
  60 H :    0.035605
  61 H :    0.029776
  62 H :    0.029709
  63 H :    0.038835
  64 H :    0.041323
  65 H :    0.028933
  66 H :    0.036995
  67 H :    0.029675
  68 H :    0.029411
  69 H :    0.033671
  70 H :    0.025314
  71 H :    0.030713
  72 H :    0.037458
  73 H :    0.024388
  74 H :    0.034271
  75 H :    0.030135
  76 H :    0.030516
  77 H :    0.035846
  78 H :    0.059069
  79 H :    0.069655
  80 H :    0.046993
  81 H :    0.048043

  Mayer bond orders larger than 0.100000
B(  0-N ,  1-C ) :   1.0391 B(  0-N ,  5-C ) :   1.1243 B(  0-N , 58-H ) :   0.9196
B(  1-C ,  2-O ) :   2.2231 B(  1-C ,  3-C ) :   0.9183 B(  3-C ,  4-C ) :   1.7056
B(  3-C , 59-H ) :   1.0191 B(  4-C ,  5-C ) :   0.8819 B(  4-C ,  7-C ) :   1.0172
B(  5-C ,  6-O ) :   2.2022 B(  7-C ,  8-C ) :   1.5802 B(  7-C , 14-C ) :   1.0767
B(  8-C ,  9-N ) :   0.9327 B(  8-C , 12-C ) :   1.1429 B(  9-N , 10-O ) :   1.5401
B(  9-N , 11-O ) :   1.5033 B( 10-O , 11-O ) :   0.2677 B( 12-C , 13-C ) :   1.5757
B( 12-C , 60-H ) :   1.0113 B( 13-C , 14-C ) :   1.1278 B( 13-C , 61-H ) :   1.0018
B( 14-C , 15-C ) :   1.4777 B( 15-C , 16-C ) :   1.1512 B( 15-C , 22-C ) :   1.0125
B( 16-C , 17-C ) :   1.5547 B( 16-C , 62-H ) :   0.9902 B( 17-C , 18-C ) :   1.1544
B( 17-C , 63-H ) :   1.0056 B( 18-C , 19-N ) :   0.9732 B( 18-C , 22-C ) :   1.4098
B( 19-N , 20-O ) :   1.5344 B( 19-N , 21-O ) :   1.4527 B( 20-O , 21-O ) :   0.2430
B( 21-O , 65-H ) :   0.1087 B( 22-C , 23-C ) :   1.2286 B( 23-C , 24-C ) :   1.4885
B( 23-C , 64-H ) :   0.9424 B( 24-C , 25-C ) :   1.1964 B( 24-C , 65-H ) :   0.9442
B( 25-C , 26-N ) :   1.1562 B( 25-C , 32-C ) :   1.2744 B( 26-N , 27-C ) :   0.9355
B( 26-N , 29-C ) :   1.0770 B( 27-C , 28-C ) :   1.1256 B( 27-C , 66-H ) :   0.9284
B( 27-C , 67-H ) :   0.9482 B( 28-C , 68-H ) :   0.9635 B( 28-C , 69-H ) :   0.9672
B( 28-C , 70-H ) :   0.9679 B( 29-C , 30-O ) :   2.0231 B( 29-C , 31-C ) :   0.9807
B( 30-O , 77-H ) :   0.1178 B( 31-C , 32-C ) :   1.3139 B( 31-C , 38-C ) :   1.2709
B( 32-C , 33-C ) :   0.9711 B( 33-C , 34-O ) :   2.0289 B( 33-C , 35-N ) :   1.0597
B( 35-N , 36-C ) :   0.9329 B( 35-N , 38-C ) :   1.1835 B( 36-C , 37-C ) :   1.1264
B( 36-C , 71-H ) :   0.9472 B( 36-C , 72-H ) :   0.9287 B( 37-C , 73-H ) :   0.9674
B( 37-C , 74-H ) :   0.9672 B( 37-C , 75-H ) :   0.9640 B( 38-C , 39-C ) :   1.1854
B( 39-C , 40-C ) :   1.5876 B( 39-C , 76-H ) :   0.9332 B( 40-C , 41-C ) :   1.1668
B( 40-C , 77-H ) :   0.9275 B( 41-C , 42-S ) :   1.1453 B( 41-C , 45-C ) :   1.4378
B( 42-S , 43-C ) :   1.1784 B( 43-C , 44-C ) :   1.4849 B( 43-C , 51-N ) :   1.0243
B( 44-C , 45-C ) :   1.2317 B( 44-C , 49-C ) :   0.9058 B( 45-C , 46-C ) :   0.9522
B( 46-C , 47-O ) :   2.1242 B( 46-C , 48-C ) :   1.0061 B( 47-O , 76-H ) :   0.1154
B( 48-C , 49-C ) :   0.9927 B( 48-C , 78-H ) :   0.9031 B( 48-C , 79-H ) :   0.8957
B( 49-C , 50-O ) :   2.2515 B( 51-N , 52-C ) :   0.9905 B( 51-N , 56-C ) :   0.9700
B( 52-C , 53-O ) :   2.1927 B( 52-C , 54-C ) :   0.9597 B( 54-C , 55-C ) :   1.7461
B( 54-C , 80-H ) :   1.0145 B( 55-C , 56-C ) :   0.9572 B( 55-C , 81-H ) :   1.0123
B( 56-C , 57-O ) :   2.2067

-----------------------------------------------------------------------------
         ABSORPTION SPECTRUM VIA TRANSITION ELECTRIC DIPOLE MOMENTS
-----------------------------------------------------------------------------
State   Energy  Wavelength   fosc         T2         TX        TY        TZ
        (cm-1)    (nm)                  (au**2)     (au)      (au)      (au)
-----------------------------------------------------------------------------
   0    6264.7   1596.3   0.256966338  13.50373  -2.60653   2.38196  -1.01782
   1   14873.5    672.3   0.007416096   0.16415   0.11953   0.04459  -0.38454
   2   15900.0    628.9   0.366431970   7.58703   0.35362  -2.36607   1.36518
   3   17355.1    576.2   0.004840482   0.09182   0.27976   0.09522  -0.06698
   4   21944.0    455.7   0.111252485   1.66905   0.93611   0.86786  -0.19894
   5   22445.4    445.5   0.128327018   1.88220  -0.59901  -1.08445   0.58937
   6   22881.2    437.0   0.023395789   0.33662  -0.03690  -0.47177   0.33570
   7   22998.1    434.8   0.005149857   0.07372  -0.18359   0.19149   0.05786
   8   23485.5    425.8   0.363225352   5.09158   1.69341  -1.46802   0.26241
   9   24077.6    415.3   0.001651763   0.02258   0.10614  -0.06278   0.08589
  10   25807.3    387.5   0.010091638   0.12873   0.14025   0.22303  -0.24356
  11   25993.7    384.7   0.015733363   0.19926   0.44347  -0.00367   0.05087
  12   26836.8    372.6   0.014088439   0.17283   0.22506   0.34687   0.04305
  13   27342.9    365.7   0.273943549   3.29831   1.75594   0.17899  -0.42774
  14   27891.1    358.5   0.001262830   0.01491  -0.09137   0.07830  -0.02066
  15   28060.9    356.4   0.026957720   0.31627   0.35105   0.29449   0.32605
  16   28501.0    350.9   0.004307547   0.04976  -0.07954   0.19609  -0.07054
  17   29358.8    340.6   0.293697328   3.29335   0.45936  -1.69227   0.46752
  18   30124.3    332.0   0.003237593   0.03538   0.04867   0.14298  -0.11211
  19   30386.8    329.1   0.006506195   0.07049   0.19281   0.12122   0.13644
  20   30587.8    326.9   0.084692311   0.91153   0.86003  -0.41375   0.02619
  21   30776.3    324.9   0.059937526   0.64115  -0.48505   0.45914  -0.44166
  22   31125.1    321.3   0.050722333   0.53649  -0.31659   0.62789  -0.20498
  23   31159.3    320.9   0.029853535   0.31542   0.54393  -0.12246   0.06750
  24   31321.0    319.3   0.052562127   0.55248   0.19582   0.65336  -0.29538
  25   31383.9    318.6   0.050772235   0.53259  -0.14530  -0.67692   0.23077
  26   31547.2    317.0   0.035287142   0.36824   0.17202   0.42518  -0.39733
  27   31791.6    314.5   0.128096625   1.32648   0.55541  -0.98753  -0.20684
  28   32303.1    309.6   0.052327124   0.53328   0.49542   0.50558  -0.17954
  29   32519.4    307.5   0.003490992   0.03534  -0.07761  -0.04865  -0.16417
  30   32733.1    305.5   0.059399193   0.59740  -0.50900  -0.56167   0.15117
  31   33180.0    301.4   0.032498454   0.32245   0.20255  -0.52485  -0.07716
  32   33385.1    299.5   0.016834467   0.16601   0.03219  -0.34745  -0.21035
  33   33495.3    298.5   0.012869510   0.12649  -0.18695   0.10630   0.28327
  34   33649.0    297.2   0.000656138   0.00642  -0.07078   0.02811  -0.02490
  35   34146.8    292.9   0.008760142   0.08446  -0.28657   0.04039   0.02648
  36   34288.2    291.6   0.000194702   0.00187   0.03913  -0.01306   0.01296
  37   34685.4    288.3   0.001659126   0.01575  -0.08593  -0.01370   0.09042
  38   34889.1    286.6   0.045470406   0.42906  -0.59067  -0.19152   0.20854
  39   35008.0    285.6   0.042469363   0.39938  -0.61863   0.02358   0.12694
  40   35484.3    281.8   0.117664418   1.09165   0.65162   0.79217  -0.19875
  41   35642.0    280.6   0.002120495   0.01959  -0.04281  -0.09351  -0.09491
  42   35658.4    280.4   0.009611785   0.08874  -0.03937  -0.28701  -0.06938
  43   36230.7    276.0   0.044057839   0.40033  -0.23577   0.55995  -0.17663
  44   36628.9    273.0   0.042453081   0.38156  -0.51406  -0.30361   0.15851
  45   36842.0    271.4   0.012682162   0.11332   0.13320   0.26343  -0.16182
  46   37513.5    266.6   0.000544932   0.00478   0.03246  -0.04848  -0.03712
  47   37940.1    263.6   0.050200593   0.43560  -0.09577  -0.65108  -0.05022
  48   38137.7    262.2   0.001972071   0.01702  -0.08788  -0.04472   0.08544
  49   38409.4    260.4   0.038430433   0.32939  -0.17647  -0.53818   0.09280
  50   38838.3    257.5   0.033818958   0.28667  -0.34410  -0.30565   0.27357
  51   38920.3    256.9   0.035149471   0.29732   0.16691   0.50824  -0.10560
  52   39925.3    250.5   0.022575851   0.18615   0.25950   0.33911  -0.06178
  53   40041.9    249.7   0.000397133   0.00327   0.00951  -0.04263   0.03684
  54   40250.3    248.4   0.003844929   0.03145   0.01030  -0.17580  -0.02093

FINAL SINGLE POINT ENERGY     -3126.342573131254

DIPOLE MOMENT
-------------
                                X             Y             Z
Electronic contribution:      0.72862      -4.05100       4.28919
Nuclear contribution   :      2.46312       2.12589      -4.18342
                        -----------------------------------------
Total Dipole Moment    :      3.19174      -1.92511       0.10577
                        -----------------------------------------
Magnitude (a.u.)       :      3.72887
Magnitude (Debye)      :      9.47803

Rotational constants in cm-1:     0.002803     0.000543     0.000475
Rotational constants in MHz :    84.034343    16.268771    14.234302

                             ****ORCA TERMINATED NORMALLY****
TOTAL RUN TIME: 0 days 0 hours 8 minutes 22 seconds 609 msec
