                         Program Version 4.2.0 -  RELEASE  -
|  1> # ORCA input file
|  2> # SCF done       -185.700650912529          0.000776194506
|  3> ! CAM-B3LYP def2-SVP def2/J RIJCOSX Grid4 TightSCF
|  4> %maxcore 5000
|  5> %tddft
|  6>     Mode sTDDFT
|  7>     Ethresh 5.0
|  8>     maxcore 5000
|  9> end
| 10>
| 11> %pal
| 12>   nprocs 6
| 13>   end
| 14> * xyz 0 1
| 15>    C       -1.68538         0.66944         2.19693
| 16>    C       -1.73373         0.58049         0.83242
| 17>    C       -2.32635        -0.49147         0.13404
| 18>    N       -2.78870        -1.34592        -0.47636
| 19>    C       -1.12282         1.52708        -0.01248
| 20>    N       -0.61339         2.29465        -0.69780
| 21>    C       -2.09427        -0.36932         3.13241
| 22>    C       -1.46816        -0.12458         4.38987
| 23>    C       -1.65129        -0.95859         5.45569
| 24>    C       -2.49374        -2.08398         5.31321
| 25>    C       -3.13531        -2.32394         4.06328
| 26>    C       -2.91894        -1.45028         2.97322
| 27>    C       -3.98323        -3.44344         3.93954
| 28>    C       -4.18804        -4.28727         4.99697
| 29>    C       -3.55507        -4.05106         6.22661
| 30>    C       -2.72549        -2.97378         6.38092
| 31>    C       -0.68338         1.11887         4.31369
| 32>    O        0.02101         1.61482         5.16040
| 33>    C       -0.99679         1.69154         2.96574
| 34>    C       -0.72788         2.99347         2.74172
| 35>    N       -1.23604         3.80953         1.76261
| 36>    C       -2.47642         3.65798         1.09924
| 37>    O       -3.27721         2.79509         1.35560
| 38>    C       -2.56480         4.78295         0.17892
| 39>    C       -1.49768         5.60930         0.34114
| 40>    C       -0.59170         4.98343         1.35425
| 41>    O        0.49370         5.31217         1.74653
| 42>    C       -1.29472         6.80845        -0.41133
| 43>    N       -0.50221         7.88363        -0.10935
| 44>    C        0.16355         8.18156         1.13818
| 45>    C       -0.84217         8.43746         2.25714
| 46>    C       -0.56183         8.87794        -1.11884
| 47>    O        0.03017         9.93063        -1.05300
| 48>    C       -1.44751         8.31832        -2.11358
| 49>    C       -1.90588         7.06742        -1.63797
| 50>    C       -2.80530         6.52778        -2.63590
| 51>    O       -3.46631         5.51361        -2.68182
| 52>    N       -2.82106         7.50162        -3.66180
| 53>    C       -3.59466         7.24890        -4.85461
| 54>    C       -5.04020         7.72006        -4.70690
| 55>    C       -2.02945         8.57854        -3.35171
| 56>    C       -1.80121         9.77495        -4.09476
| 57>    C       -2.55970        10.26363        -5.09040
| 58>    N       -2.34291        11.46310        -5.74129
| 59>    C       -1.24317        12.33633        -5.63769
| 60>    O       -0.25682        12.14469        -4.98414
| 61>    C       -1.57079        13.49004        -6.50189
| 62>    C       -2.77340        13.30729        -7.06524
| 63>    C       -3.27858        11.94814        -6.65155
| 64>    O       -4.22055        11.33670        -7.07675
| 65>    C       -3.58739        14.15068        -7.90339
| 66>    C       -4.87041        14.38594        -7.55789
| 67>    C       -5.93769        15.08453        -8.26316
| 68>    C       -5.82339        15.74172        -9.45535
| 69>    C       -6.88822        16.41195       -10.09726
| 70>    N       -7.71430        16.97361       -10.66125
| 71>    C       -4.62071        15.84887       -10.18741
| 72>    N       -3.66797        15.96668       -10.81558
| 73>    C       -7.14314        14.95062        -7.45658
| 74>    C       -6.82653        14.25383        -6.25069
| 75>    C       -5.40301        13.91973        -6.24412
| 76>    O       -4.74590        13.40993        -5.35875
| 77>    C       -7.77417        13.98182        -5.30407
| 78>    C       -9.10584        14.39588        -5.52348
| 79>    C       -9.43127        15.09244        -6.72485
| 80>    C       -8.43070        15.36271        -7.68553
| 81>    C      -10.76457        15.50140        -6.93208
| 82>    C      -11.73081        15.23518        -6.00000
| 83>    C      -11.40958        14.54880        -4.81900
| 84>    C      -10.12497        14.13805        -4.58536
| 85>    H       -1.16343        -0.75973         6.39841
| 86>    H       -3.42477        -1.64538         2.04056
| 87>    H       -4.46597        -3.62232         2.99007
| 88>    H       -4.83888        -5.14236         4.89182
| 89>    H       -3.72858        -4.72668         7.05088
| 90>    H       -2.23598        -2.78659         7.32552
| 91>    H       -0.07491         3.50338         3.44454
| 92>    H       -3.38595         4.90409        -0.50291
| 93>    H        0.74632         9.08704         0.94782
| 94>    H        0.83808         7.36965         1.40933
| 95>    H       -1.50716         9.25635         1.99054
| 96>    H       -0.31297         8.70035         3.16835
| 97>    H       -1.44250         7.55021         2.45073
| 98>    H       -3.59394         6.16347        -4.99606
| 99>    H       -3.10046         7.71443        -5.70918
|100>    H       -5.53074         7.14558        -3.92526
|101>    H       -5.57460         7.56563        -5.64011
|102>    H       -5.09229         8.77397        -4.44242
|103>    H       -0.95336        10.34614        -3.74076
|104>    H       -3.46610         9.79448        -5.44513
|105>    H       -0.93195        14.35117        -6.56508
|106>    H       -3.14444        14.55296        -8.80373
|107>    H       -7.50945        13.45232        -4.40099
|108>    H       -8.70948        15.88821        -8.58523
|109>    H      -11.00780        16.02935        -7.84223
|110>    H      -12.74897        15.55193        -6.16802
|111>    H      -12.18492        14.34688        -4.09552
|112>    H       -9.87165        13.60935        -3.67836
|113> *
|114>
|115>                          ****END OF INPUT****

CARTESIAN COORDINATES (ANGSTROEM)
---------------------------------
  C     -1.685380    0.669440    2.196930
  C     -1.733730    0.580490    0.832420
  C     -2.326350   -0.491470    0.134040
  N     -2.788700   -1.345920   -0.476360
  C     -1.122820    1.527080   -0.012480
  N     -0.613390    2.294650   -0.697800
  C     -2.094270   -0.369320    3.132410
  C     -1.468160   -0.124580    4.389870
  C     -1.651290   -0.958590    5.455690
  C     -2.493740   -2.083980    5.313210
  C     -3.135310   -2.323940    4.063280
  C     -2.918940   -1.450280    2.973220
  C     -3.983230   -3.443440    3.939540
  C     -4.188040   -4.287270    4.996970
  C     -3.555070   -4.051060    6.226610
  C     -2.725490   -2.973780    6.380920
  C     -0.683380    1.118870    4.313690
  O      0.021010    1.614820    5.160400
  C     -0.996790    1.691540    2.965740
  C     -0.727880    2.993470    2.741720
  N     -1.236040    3.809530    1.762610
  C     -2.476420    3.657980    1.099240
  O     -3.277210    2.795090    1.355600
  C     -2.564800    4.782950    0.178920
  C     -1.497680    5.609300    0.341140
  C     -0.591700    4.983430    1.354250
  O      0.493700    5.312170    1.746530
  C     -1.294720    6.808450   -0.411330
  N     -0.502210    7.883630   -0.109350
  C      0.163550    8.181560    1.138180
  C     -0.842170    8.437460    2.257140
  C     -0.561830    8.877940   -1.118840
  O      0.030170    9.930630   -1.053000
  C     -1.447510    8.318320   -2.113580
  C     -1.905880    7.067420   -1.637970
  C     -2.805300    6.527780   -2.635900
  O     -3.466310    5.513610   -2.681820
  N     -2.821060    7.501620   -3.661800
  C     -3.594660    7.248900   -4.854610
  C     -5.040200    7.720060   -4.706900
  C     -2.029450    8.578540   -3.351710
  C     -1.801210    9.774950   -4.094760
  C     -2.559700   10.263630   -5.090400
  N     -2.342910   11.463100   -5.741290
  C     -1.243170   12.336330   -5.637690
  O     -0.256820   12.144690   -4.984140
  C     -1.570790   13.490040   -6.501890
  C     -2.773400   13.307290   -7.065240
  C     -3.278580   11.948140   -6.651550
  O     -4.220550   11.336700   -7.076750
  C     -3.587390   14.150680   -7.903390
  C     -4.870410   14.385940   -7.557890
  C     -5.937690   15.084530   -8.263160
  C     -5.823390   15.741720   -9.455350
  C     -6.888220   16.411950  -10.097260
  N     -7.714300   16.973610  -10.661250
  C     -4.620710   15.848870  -10.187410
  N     -3.667970   15.966680  -10.815580
  C     -7.143140   14.950620   -7.456580
  C     -6.826530   14.253830   -6.250690
  C     -5.403010   13.919730   -6.244120
  O     -4.745900   13.409930   -5.358750
  C     -7.774170   13.981820   -5.304070
  C     -9.105840   14.395880   -5.523480
  C     -9.431270   15.092440   -6.724850
  C     -8.430700   15.362710   -7.685530
  C    -10.764570   15.501400   -6.932080
  C    -11.730810   15.235180   -6.000000
  C    -11.409580   14.548800   -4.819000
  C    -10.124970   14.138050   -4.585360
  H     -1.163430   -0.759730    6.398410
  H     -3.424770   -1.645380    2.040560
  H     -4.465970   -3.622320    2.990070
  H     -4.838880   -5.142360    4.891820
  H     -3.728580   -4.726680    7.050880
  H     -2.235980   -2.786590    7.325520
  H     -0.074910    3.503380    3.444540
  H     -3.385950    4.904090   -0.502910
  H      0.746320    9.087040    0.947820
  H      0.838080    7.369650    1.409330
  H     -1.507160    9.256350    1.990540
  H     -0.312970    8.700350    3.168350
  H     -1.442500    7.550210    2.450730
  H     -3.593940    6.163470   -4.996060
  H     -3.100460    7.714430   -5.709180
  H     -5.530740    7.145580   -3.925260
  H     -5.574600    7.565630   -5.640110
  H     -5.092290    8.773970   -4.442420
  H     -0.953360   10.346140   -3.740760
  H     -3.466100    9.794480   -5.445130
  H     -0.931950   14.351170   -6.565080
  H     -3.144440   14.552960   -8.803730
  H     -7.509450   13.452320   -4.400990
  H     -8.709480   15.888210   -8.585230
  H    -11.007800   16.029350   -7.842230
  H    -12.748970   15.551930   -6.168020
  H    -12.184920   14.346880   -4.095520
  H     -9.871650   13.609350   -3.678360

 Total Charge           Charge          ....    0
 Multiplicity           Mult            ....    1
 Number of Electrons    NEL             ....  472
 Basis Dimension        Dim             .... 1120

ORBITAL ENERGIES
----------------

  NO   OCC          E(Eh)            E(eV)
   0   2.0000     -19.243799      -523.6504
   1   2.0000     -19.241137      -523.5780
   2   2.0000     -19.237927      -523.4906
   3   2.0000     -19.236098      -523.4408
   4   2.0000     -19.231026      -523.3028
   5   2.0000     -19.211902      -522.7824
   6   2.0000     -19.201631      -522.5029
   7   2.0000     -19.181862      -521.9650
   8   2.0000     -14.486971      -394.2105
   9   2.0000     -14.485585      -394.1728
  10   2.0000     -14.458718      -393.4417
  11   2.0000     -14.450824      -393.2269
  12   2.0000     -14.437004      -392.8508
  13   2.0000     -14.435219      -392.8023
  14   2.0000     -14.413764      -392.2185
  15   2.0000     -14.408908      -392.0863
  16   2.0000     -10.419308      -283.5238
  17   2.0000     -10.419057      -283.5170
  18   2.0000     -10.415373      -283.4167
  19   2.0000     -10.407606      -283.2054
  20   2.0000     -10.391066      -282.7553
  21   2.0000     -10.381765      -282.5022
  22   2.0000     -10.367449      -282.1126
  23   2.0000     -10.367383      -282.1108
  24   2.0000     -10.364551      -282.0338
  25   2.0000     -10.362394      -281.9751
  26   2.0000     -10.351988      -281.6919
  27   2.0000     -10.346660      -281.5469
  28   2.0000     -10.346332      -281.5380
  29   2.0000     -10.342336      -281.4293
  30   2.0000     -10.341275      -281.4004
  31   2.0000     -10.338164      -281.3157
  32   2.0000     -10.337413      -281.2953
  33   2.0000     -10.336760      -281.2775
  34   2.0000     -10.336497      -281.2704
  35   2.0000     -10.336083      -281.2591
  36   2.0000     -10.329602      -281.0828
  37   2.0000     -10.326638      -281.0021
  38   2.0000     -10.322652      -280.8936
  39   2.0000     -10.322426      -280.8875
  40   2.0000     -10.315992      -280.7124
  41   2.0000     -10.315393      -280.6961
  42   2.0000     -10.315099      -280.6881
  43   2.0000     -10.314717      -280.6777
  44   2.0000     -10.314349      -280.6677
  45   2.0000     -10.311464      -280.5892
  46   2.0000     -10.311196      -280.5819
  47   2.0000     -10.308528      -280.5093
  48   2.0000     -10.307516      -280.4818
  49   2.0000     -10.301309      -280.3129
  50   2.0000     -10.300910      -280.3020
  51   2.0000     -10.300659      -280.2952
  52   2.0000     -10.300224      -280.2833
  53   2.0000     -10.298336      -280.2320
  54   2.0000     -10.296460      -280.1809
  55   2.0000     -10.293866      -280.1103
  56   2.0000     -10.293663      -280.1048
  57   2.0000     -10.293373      -280.0969
  58   2.0000     -10.291855      -280.0556
  59   2.0000     -10.289081      -279.9801
  60   2.0000     -10.288793      -279.9723
  61   2.0000     -10.285522      -279.8833
  62   2.0000     -10.282941      -279.8131
  63   2.0000     -10.282500      -279.8010
  64   2.0000     -10.282238      -279.7939
  65   2.0000     -10.281516      -279.7743
  66   2.0000     -10.268888      -279.4307
  67   2.0000     -10.264522      -279.3118
  68   2.0000     -10.258760      -279.1550
  69   2.0000     -10.257764      -279.1280
  70   2.0000      -1.186644       -32.2902
  71   2.0000      -1.184800       -32.2401
  72   2.0000      -1.164133       -31.6777
  73   2.0000      -1.158236       -31.5172
  74   2.0000      -1.154628       -31.4190
  75   2.0000      -1.140082       -31.0232
  76   2.0000      -1.128042       -30.6956
  77   2.0000      -1.123543       -30.5732
  78   2.0000      -1.079018       -29.3616
  79   2.0000      -1.075948       -29.2780
  80   2.0000      -1.066374       -29.0175
  81   2.0000      -1.053984       -28.6804
  82   2.0000      -1.038619       -28.2623
  83   2.0000      -1.018056       -27.7027
  84   2.0000      -1.013948       -27.5909
  85   2.0000      -1.013104       -27.5680
  86   2.0000      -0.995294       -27.0833
  87   2.0000      -0.990865       -26.9628
  88   2.0000      -0.989271       -26.9194
  89   2.0000      -0.969609       -26.3844
  90   2.0000      -0.969382       -26.3782
  91   2.0000      -0.951601       -25.8944
  92   2.0000      -0.941697       -25.6249
  93   2.0000      -0.927860       -25.2484
  94   2.0000      -0.922386       -25.0994
  95   2.0000      -0.917364       -24.9628
  96   2.0000      -0.899430       -24.4747
  97   2.0000      -0.896648       -24.3990
  98   2.0000      -0.891354       -24.2550
  99   2.0000      -0.879380       -23.9291
 100   2.0000      -0.877103       -23.8672
 101   2.0000      -0.868035       -23.6204
 102   2.0000      -0.857446       -23.3323
 103   2.0000      -0.845659       -23.0116
 104   2.0000      -0.827742       -22.5240
 105   2.0000      -0.824373       -22.4323
 106   2.0000      -0.822570       -22.3833
 107   2.0000      -0.818838       -22.2817
 108   2.0000      -0.799567       -21.7573
 109   2.0000      -0.789088       -21.4722
 110   2.0000      -0.782341       -21.2886
 111   2.0000      -0.775488       -21.1021
 112   2.0000      -0.765360       -20.8265
 113   2.0000      -0.758763       -20.6470
 114   2.0000      -0.755190       -20.5498
 115   2.0000      -0.739983       -20.1360
 116   2.0000      -0.735503       -20.0141
 117   2.0000      -0.734042       -19.9743
 118   2.0000      -0.721681       -19.6379
 119   2.0000      -0.714598       -19.4452
 120   2.0000      -0.710234       -19.3264
 121   2.0000      -0.704990       -19.1837
 122   2.0000      -0.702716       -19.1219
 123   2.0000      -0.698356       -19.0032
 124   2.0000      -0.696743       -18.9593
 125   2.0000      -0.686588       -18.6830
 126   2.0000      -0.680924       -18.5289
 127   2.0000      -0.671744       -18.2791
 128   2.0000      -0.664485       -18.0816
 129   2.0000      -0.661787       -18.0081
 130   2.0000      -0.651318       -17.7233
 131   2.0000      -0.646740       -17.5987
 132   2.0000      -0.636073       -17.3084
 133   2.0000      -0.628968       -17.1151
 134   2.0000      -0.623909       -16.9774
 135   2.0000      -0.617305       -16.7977
 136   2.0000      -0.613106       -16.6835
 137   2.0000      -0.604958       -16.4618
 138   2.0000      -0.604186       -16.4407
 139   2.0000      -0.602940       -16.4068
 140   2.0000      -0.597065       -16.2470
 141   2.0000      -0.594695       -16.1825
 142   2.0000      -0.587508       -15.9869
 143   2.0000      -0.585234       -15.9250
 144   2.0000      -0.581948       -15.8356
 145   2.0000      -0.576990       -15.7007
 146   2.0000      -0.571807       -15.5597
 147   2.0000      -0.569025       -15.4840
 148   2.0000      -0.568259       -15.4631
 149   2.0000      -0.563544       -15.3348
 150   2.0000      -0.559203       -15.2167
 151   2.0000      -0.557005       -15.1569
 152   2.0000      -0.554542       -15.0898
 153   2.0000      -0.551002       -14.9935
 154   2.0000      -0.548219       -14.9178
 155   2.0000      -0.546719       -14.8770
 156   2.0000      -0.543510       -14.7897
 157   2.0000      -0.541841       -14.7442
 158   2.0000      -0.541042       -14.7225
 159   2.0000      -0.540736       -14.7142
 160   2.0000      -0.538048       -14.6410
 161   2.0000      -0.535079       -14.5602
 162   2.0000      -0.533674       -14.5220
 163   2.0000      -0.531395       -14.4600
 164   2.0000      -0.528096       -14.3702
 165   2.0000      -0.526080       -14.3154
 166   2.0000      -0.524616       -14.2755
 167   2.0000      -0.523789       -14.2530
 168   2.0000      -0.519084       -14.1250
 169   2.0000      -0.517662       -14.0863
 170   2.0000      -0.515682       -14.0324
 171   2.0000      -0.514119       -13.9899
 172   2.0000      -0.511170       -13.9097
 173   2.0000      -0.509231       -13.8569
 174   2.0000      -0.507752       -13.8166
 175   2.0000      -0.507066       -13.7980
 176   2.0000      -0.505414       -13.7530
 177   2.0000      -0.499629       -13.5956
 178   2.0000      -0.495893       -13.4939
 179   2.0000      -0.490961       -13.3597
 180   2.0000      -0.490054       -13.3351
 181   2.0000      -0.483369       -13.1531
 182   2.0000      -0.483233       -13.1494
 183   2.0000      -0.482359       -13.1257
 184   2.0000      -0.476712       -12.9720
 185   2.0000      -0.474439       -12.9101
 186   2.0000      -0.468275       -12.7424
 187   2.0000      -0.467744       -12.7280
 188   2.0000      -0.463080       -12.6011
 189   2.0000      -0.462002       -12.5717
 190   2.0000      -0.458818       -12.4851
 191   2.0000      -0.457634       -12.4528
 192   2.0000      -0.456908       -12.4331
 193   2.0000      -0.452712       -12.3189
 194   2.0000      -0.451407       -12.2834
 195   2.0000      -0.448478       -12.2037
 196   2.0000      -0.447621       -12.1804
 197   2.0000      -0.445939       -12.1346
 198   2.0000      -0.443493       -12.0681
 199   2.0000      -0.441722       -12.0199
 200   2.0000      -0.438651       -11.9363
 201   2.0000      -0.437354       -11.9010
 202   2.0000      -0.436038       -11.8652
 203   2.0000      -0.431305       -11.7364
 204   2.0000      -0.429691       -11.6925
 205   2.0000      -0.427615       -11.6360
 206   2.0000      -0.426783       -11.6134
 207   2.0000      -0.426546       -11.6069
 208   2.0000      -0.425474       -11.5777
 209   2.0000      -0.420175       -11.4335
 210   2.0000      -0.419297       -11.4096
 211   2.0000      -0.413878       -11.2622
 212   2.0000      -0.413171       -11.2430
 213   2.0000      -0.404674       -11.0117
 214   2.0000      -0.399970       -10.8837
 215   2.0000      -0.393962       -10.7203
 216   2.0000      -0.391710       -10.6590
 217   2.0000      -0.390670       -10.6307
 218   2.0000      -0.379194       -10.3184
 219   2.0000      -0.368816       -10.0360
 220   2.0000      -0.367463        -9.9992
 221   2.0000      -0.367133        -9.9902
 222   2.0000      -0.359040        -9.7700
 223   2.0000      -0.357767        -9.7353
 224   2.0000      -0.350797        -9.5457
 225   2.0000      -0.348581        -9.4854
 226   2.0000      -0.335095        -9.1184
 227   2.0000      -0.334448        -9.1008
 228   2.0000      -0.329978        -8.9792
 229   2.0000      -0.326776        -8.8920
 230   2.0000      -0.317643        -8.6435
 231   2.0000      -0.315199        -8.5770
 232   2.0000      -0.310096        -8.4381
 233   2.0000      -0.308485        -8.3943
 234   2.0000      -0.289145        -7.8680
 235   2.0000      -0.244849        -6.6627
 236   0.0000      -0.114360        -3.1119
 237   0.0000      -0.095102        -2.5879
 238   0.0000      -0.077833        -2.1179
 239   0.0000      -0.076665        -2.0862
 240   0.0000      -0.065264        -1.7759

MULLIKEN ATOMIC CHARGES
-----------------------
   0 C :    0.310709
   1 C :   -0.298790
   2 C :   -0.179565
   3 N :    0.153361
   4 C :   -0.201674
   5 N :    0.145380
   6 C :    0.033879
   7 C :    0.013572
   8 C :   -0.078845
   9 C :    0.093464
  10 C :    0.092517
  11 C :   -0.075921
  12 C :   -0.015940
  13 C :    0.035194
  14 C :    0.034167
  15 C :   -0.013265
  16 C :    0.131948
  17 O :   -0.140742
  18 C :   -0.108154
  19 C :    0.104014
  20 N :   -0.228664
  21 C :    0.199922
  22 O :   -0.138356
  23 C :   -0.048560
  24 C :   -0.078326
  25 C :    0.229426
  26 O :   -0.128131
  27 C :    0.148750
  28 N :   -0.258617
  29 C :    0.097996
  30 C :   -0.003241
  31 C :    0.144424
  32 O :   -0.184173
  33 C :   -0.052067
  34 C :   -0.042809
  35 C :    0.149682
  36 O :   -0.191936
  37 N :   -0.266492
  38 C :    0.101666
  39 C :    0.003482
  40 C :    0.112615
  41 C :   -0.036709
  42 C :    0.091839
  43 N :   -0.225416
  44 C :    0.221772
  45 O :   -0.130705
  46 C :   -0.050097
  47 C :    0.001428
  48 C :    0.198522
  49 O :   -0.152976
  50 C :    0.012059
  51 C :   -0.062383
  52 C :    0.312965
  53 C :   -0.327404
  54 C :   -0.181646
  55 N :    0.167479
  56 C :   -0.192115
  57 N :    0.167101
  58 C :    0.046107
  59 C :    0.000496
  60 C :    0.172925
  61 O :   -0.156318
  62 C :   -0.067955
  63 C :    0.095795
  64 C :    0.098517
  65 C :   -0.081125
  66 C :   -0.017190
  67 C :    0.041351
  68 C :    0.037496
  69 C :   -0.012893
  70 H :   -0.012813
  71 H :   -0.003761
  72 H :   -0.011059
  73 H :   -0.005022
  74 H :   -0.005669
  75 H :   -0.018698
  76 H :    0.048596
  77 H :    0.029587
  78 H :    0.040847
  79 H :    0.052996
  80 H :    0.022208
  81 H :    0.025853
  82 H :    0.004713
  83 H :    0.042534
  84 H :    0.026849
  85 H :    0.031701
  86 H :    0.026496
  87 H :    0.020516
  88 H :    0.044943
  89 H :    0.026554
  90 H :    0.018564
  91 H :    0.047734
  92 H :   -0.007253
  93 H :   -0.004481
  94 H :   -0.005111
  95 H :    0.001150
  96 H :    0.001950
  97 H :   -0.012744
Sum of atomic charges:   -0.0000000

LOEWDIN ATOMIC CHARGES
----------------------
   0 C :    0.081379
   1 C :   -0.130037
   2 C :   -0.016174
   3 N :   -0.051379
   4 C :   -0.014688
   5 N :   -0.059276
   6 C :   -0.019899
   7 C :   -0.057811
   8 C :    0.033294
   9 C :   -0.009480
  10 C :   -0.004870
  11 C :    0.019408
  12 C :   -0.005890
  13 C :   -0.013495
  14 C :   -0.014322
  15 C :   -0.009235
  16 C :    0.088013
  17 O :   -0.140973
  18 C :   -0.101179
  19 C :    0.117275
  20 N :   -0.013090
  21 C :    0.087304
  22 O :   -0.122514
  23 C :    0.026320
  24 C :   -0.043776
  25 C :    0.115814
  26 O :   -0.111257
  27 C :    0.063906
  28 N :    0.003513
  29 C :    0.028894
  30 C :   -0.060813
  31 C :    0.077891
  32 O :   -0.189153
  33 C :   -0.127568
  34 C :   -0.101900
  35 C :    0.088099
  36 O :   -0.180280
  37 N :   -0.002116
  38 C :    0.036154
  39 C :   -0.062818
  40 C :    0.092764
  41 C :   -0.058708
  42 C :    0.062954
  43 N :   -0.012683
  44 C :    0.098606
  45 O :   -0.111718
  46 C :   -0.000417
  47 C :   -0.025479
  48 C :    0.099725
  49 O :   -0.144228
  50 C :    0.067660
  51 C :   -0.048051
  52 C :    0.072280
  53 C :   -0.117746
  54 C :   -0.017384
  55 N :   -0.035841
  56 C :   -0.017977
  57 N :   -0.036503
  58 C :   -0.024616
  59 C :   -0.056928
  60 C :    0.098744
  61 O :   -0.127843
  62 C :    0.042458
  63 C :   -0.006516
  64 C :   -0.002761
  65 C :    0.024619
  66 C :   -0.003392
  67 C :   -0.006425
  68 C :   -0.006518
  69 C :   -0.005905
  70 H :    0.039031
  71 H :    0.039728
  72 H :    0.034375
  73 H :    0.032865
  74 H :    0.032386
  75 H :    0.031496
  76 H :    0.048503
  77 H :    0.047548
  78 H :    0.034821
  79 H :    0.024731
  80 H :    0.027903
  81 H :    0.032814
  82 H :    0.015771
  83 H :    0.038544
  84 H :    0.025124
  85 H :    0.033290
  86 H :    0.032776
  87 H :    0.021085
  88 H :    0.052755
  89 H :    0.033547
  90 H :    0.046502
  91 H :    0.054356
  92 H :    0.042040
  93 H :    0.040553
  94 H :    0.036441
  95 H :    0.035854
  96 H :    0.035722
  97 H :    0.033991

  Mayer bond orders larger than 0.100000
B(  0-C ,  1-C ) :   1.6661 B(  0-C ,  6-C ) :   1.0100 B(  0-C , 18-C ) :   1.0088
B(  1-C ,  2-C ) :   1.1387 B(  1-C ,  4-C ) :   1.1602 B(  2-C ,  3-N ) :   2.9890
B(  4-C ,  5-N ) :   2.9810 B(  6-C ,  7-C ) :   1.2130 B(  6-C , 11-C ) :   1.4581
B(  7-C ,  8-C ) :   1.4726 B(  7-C , 16-C ) :   0.9249 B(  8-C ,  9-C ) :   1.1863
B(  8-C , 70-H ) :   1.0152 B(  9-C , 10-C ) :   1.2575 B(  9-C , 15-C ) :   1.2444
B( 10-C , 11-C ) :   1.2048 B( 10-C , 12-C ) :   1.2408 B( 11-C , 71-H ) :   0.9934
B( 12-C , 13-C ) :   1.4911 B( 12-C , 72-H ) :   0.9970 B( 13-C , 14-C ) :   1.2598
B( 13-C , 73-H ) :   0.9885 B( 14-C , 15-C ) :   1.4904 B( 14-C , 74-H ) :   0.9882
B( 15-C , 75-H ) :   0.9969 B( 16-C , 17-O ) :   2.2792 B( 16-C , 18-C ) :   0.9415
B( 18-C , 19-C ) :   1.7008 B( 19-C , 20-N ) :   1.0883 B( 19-C , 76-H ) :   0.9308
B( 20-N , 21-C ) :   0.9578 B( 20-N , 25-C ) :   1.0054 B( 21-C , 22-O ) :   2.1503
B( 21-C , 23-C ) :   0.9652 B( 23-C , 24-C ) :   1.6554 B( 23-C , 77-H ) :   1.0056
B( 24-C , 25-C ) :   0.8809 B( 24-C , 27-C ) :   1.0719 B( 25-C , 26-O ) :   2.1800
B( 27-C , 28-N ) :   1.2202 B( 27-C , 34-C ) :   1.4046 B( 28-N , 29-C ) :   0.9358
B( 28-N , 31-C ) :   1.0170 B( 29-C , 30-C ) :   1.1185 B( 29-C , 78-H ) :   0.9239
B( 29-C , 79-H ) :   0.9358 B( 30-C , 80-H ) :   0.9661 B( 30-C , 81-H ) :   0.9684
B( 30-C , 82-H ) :   0.9668 B( 31-C , 32-O ) :   2.1412 B( 31-C , 33-C ) :   0.9861
B( 33-C , 34-C ) :   1.2282 B( 33-C , 40-C ) :   1.3516 B( 34-C , 35-C ) :   0.9643
B( 35-C , 36-O ) :   2.0744 B( 35-C , 37-N ) :   1.0467 B( 37-N , 38-C ) :   0.9374
B( 37-N , 40-C ) :   1.1806 B( 38-C , 39-C ) :   1.1175 B( 38-C , 83-H ) :   0.9293
B( 38-C , 84-H ) :   0.9498 B( 39-C , 85-H ) :   0.9591 B( 39-C , 86-H ) :   0.9686
B( 39-C , 87-H ) :   0.9647 B( 40-C , 41-C ) :   1.1665 B( 41-C , 42-C ) :   1.6376
B( 41-C , 88-H ) :   0.9372 B( 42-C , 43-N ) :   1.0573 B( 42-C , 89-H ) :   0.9663
B( 43-N , 44-C ) :   0.9885 B( 43-N , 48-C ) :   1.0260 B( 44-C , 45-O ) :   2.1646
B( 44-C , 46-C ) :   0.9510 B( 46-C , 47-C ) :   1.7207 B( 46-C , 90-H ) :   1.0284
B( 47-C , 48-C ) :   0.9003 B( 47-C , 50-C ) :   0.9991 B( 48-C , 49-O ) :   2.1822
B( 50-C , 51-C ) :   1.7731 B( 50-C , 91-H ) :   0.9451 B( 51-C , 52-C ) :   1.0143
B( 51-C , 60-C ) :   0.9367 B( 52-C , 53-C ) :   1.6789 B( 52-C , 58-C ) :   1.0079
B( 53-C , 54-C ) :   1.1362 B( 53-C , 56-C ) :   1.1460 B( 54-C , 55-N ) :   2.9720
B( 56-C , 57-N ) :   2.9733 B( 58-C , 59-C ) :   1.2093 B( 58-C , 65-C ) :   1.4422
B( 59-C , 60-C ) :   0.9620 B( 59-C , 62-C ) :   1.4639 B( 60-C , 61-O ) :   2.1486
B( 62-C , 63-C ) :   1.1850 B( 62-C , 92-H ) :   1.0161 B( 63-C , 64-C ) :   1.2502
B( 63-C , 69-C ) :   1.2440 B( 64-C , 65-C ) :   1.2139 B( 64-C , 66-C ) :   1.2373
B( 65-C , 93-H ) :   0.9891 B( 66-C , 67-C ) :   1.4908 B( 66-C , 94-H ) :   0.9972
B( 67-C , 68-C ) :   1.2597 B( 67-C , 95-H ) :   0.9881 B( 68-C , 69-C ) :   1.4884
B( 68-C , 96-H ) :   0.9888 B( 69-C , 97-H ) :   0.9976

-----------------------------------------------------------------------------
         ABSORPTION SPECTRUM VIA TRANSITION ELECTRIC DIPOLE MOMENTS
-----------------------------------------------------------------------------
State   Energy  Wavelength   fosc         T2         TX        TY        TZ
        (cm-1)    (nm)                  (au**2)     (au)      (au)      (au)
-----------------------------------------------------------------------------
   0   14991.5    667.0   0.399632316   8.77591  -0.54612   1.83783  -2.25833
   1   16372.9    610.8   0.004229047   0.08503   0.08951   0.03442  -0.27539
   2   22622.7    442.0   0.087129977   1.26794  -0.43363   0.69384  -0.77362
   3   24353.8    410.6   0.007190822   0.09720  -0.26823   0.01528  -0.15819
   4   24779.6    403.6   0.010580073   0.14056   0.28334  -0.07039   0.23522
   5   25436.4    393.1   0.061599026   0.79725  -0.55236  -0.28141   0.64262
   6   25528.9    391.7   0.032594668   0.42033  -0.06943   0.55688  -0.32465
   7   25893.2    386.2   0.007654220   0.09732   0.02266  -0.27927   0.13716
   8   26918.1    371.5   0.204957371   2.50666   0.95611   0.08627   1.25900
   9   27328.0    365.9   0.034529530   0.41597   0.59538  -0.24653   0.02675
  10   27923.5    358.1   0.011699364   0.13793   0.13445  -0.04416   0.34338
  11   28522.7    350.6   0.037989504   0.43848  -0.13165  -0.35957   0.54024
  12   28917.6    345.8   0.088409390   1.00649   0.56182   0.59316  -0.58225
  13   29764.7    336.0   0.011086695   0.12262   0.00244  -0.12387  -0.32753
  14   30191.8    331.2   0.032514587   0.35454   0.36265  -0.35946   0.30629
  15   30310.3    329.9   0.055020466   0.59760  -0.26896   0.68820  -0.22723
  16   31216.2    320.3   0.027079576   0.28559  -0.06417  -0.12152   0.51643
  17   31348.3    319.0   0.003236308   0.03399  -0.17539  -0.01897   0.05354
  18   31512.1    317.3   0.029386030   0.30700  -0.15126  -0.34275   0.40822
  19   31653.6    315.9   0.007751962   0.08062   0.00508  -0.25400   0.12682
  20   31722.5    315.2   0.036732060   0.38120  -0.19980  -0.56134   0.16178
  21   32450.2    308.2   0.006756206   0.06854  -0.02712  -0.25049  -0.07114
  22   32696.7    305.8   0.610104146   6.14293  -1.72277  -0.01521   1.78179
  23   32707.0    305.7   0.048400198   0.48717   0.21737   0.61478  -0.24895
  24   32769.9    305.2   0.378473266   3.80221   0.53368   1.86938  -0.15103
  25   33410.7    299.3   0.057536847   0.56694   0.54396  -0.36303   0.37318
  26   33667.4    297.0   0.438079495   4.28369  -0.63721   1.51783  -1.25453
  27   33776.0    296.1   0.045956198   0.44793   0.12410   0.54517  -0.36786
  28   34191.1    292.5   0.221309343   2.13090   1.17199   0.39709  -0.77438
  29   34269.1    291.8   0.338694764   3.25373  -1.72619  -0.05126   0.52094
  30   35232.7    283.8   0.753467742   7.04034   0.63288   1.54612  -2.06138
  31   35302.7    283.3   0.016910006   0.15769  -0.34292  -0.08624   0.18073
  32   35903.6    278.5   0.054142160   0.49645   0.10899  -0.29440   0.63079
  33   36268.4    275.7   0.000746941   0.00678  -0.00766  -0.05319   0.06239
  34   36465.6    274.2   0.007460508   0.06735   0.00631  -0.13913   0.21899
  35   36771.2    272.0   0.007034364   0.06298   0.09378   0.16311  -0.16607
  36   37326.8    267.9   0.004965888   0.04380   0.00597  -0.20684   0.03131
  37   37576.3    266.1   0.034636843   0.30346   0.26226  -0.42429   0.23378
  38   37773.3    264.7   0.597060367   5.20367   0.24476   1.83523  -1.33256
  39   37830.0    264.3   0.055562034   0.48352   0.41952  -0.32101   0.45220
  40   38094.5    262.5   0.004107277   0.03550   0.00380   0.18415   0.03961
  41   38161.2    262.0   0.103682841   0.89446  -0.02329  -0.79393   0.51341
  42   38392.6    260.5   0.117822180   1.01031   0.98159  -0.21621  -0.00683
  43   38455.3    260.0   0.047020329   0.40254  -0.60552   0.18902   0.01234
  44   38522.0    259.6   0.015087286   0.12894  -0.12346   0.22839   0.24806
  45   38792.9    257.8   0.364308814   3.09167   1.40155  -0.76987   0.73118
  46   38972.2    256.6   0.017674865   0.14931   0.26371   0.13205  -0.24965
  47   39365.4    254.0   0.087659107   0.73309  -0.67584  -0.51930   0.08164
  48   39452.6    253.5   0.114410654   0.95470   0.73822  -0.06279   0.63702
  49   39794.5    251.3   0.050113689   0.41458  -0.29183  -0.40789  -0.40378
  50   40158.6    249.0   0.055100806   0.45171   0.26244   0.57599   0.22597
  51   40169.4    248.9   0.120647166   0.98877  -0.46189  -0.87766  -0.07172
  52   40304.8    248.1   0.036855149   0.30104  -0.39936  -0.08386   0.36676

FINAL SINGLE POINT ENERGY     -3110.531739540277

DIPOLE MOMENT
-------------
                                X             Y             Z
Electronic contribution:     16.66601       7.61567     -18.25051
Nuclear contribution   :    -20.43158      -6.15508      19.34917
                        -----------------------------------------
Total Dipole Moment    :     -3.76557       1.46059       1.09866
                        -----------------------------------------
Magnitude (a.u.)       :      4.18567
Magnitude (Debye)      :     10.63914

Rotational constants in cm-1:     0.002314     0.000286     0.000272
Rotational constants in MHz :    69.376684     8.586912     8.139854

                             ****ORCA TERMINATED NORMALLY****
TOTAL RUN TIME: 0 days 0 hours 10 minutes 15 seconds 133 msec
