                         Program Version 4.2.0 -  RELEASE  -
|  1> # ORCA input file
|  2> # SCF done       -208.631384358264          0.000637995023
|  3> ! CAM-B3LYP def2-SVP def2/J RIJCOSX Grid4 TightSCF
|  4> %maxcore 5000
|  5> %tddft
|  6>     Mode sTDDFT
|  7>     Ethresh 5.0
|  8>     maxcore 5000
|  9> end
| 10>
| 11> %pal
| 12>   nprocs 6
| 13>   end
| 14> * xyz 0 1
| 15>    C       -1.15033        -0.68553         7.14144
| 16>    C       -1.86935        -1.81078         7.51930
| 17>    C       -1.59472        -3.12029         6.96265
| 18>    N       -2.39900        -4.14726         7.27019
| 19>    C       -3.38469        -3.96571         8.11458
| 20>    C       -3.59780        -2.68848         8.73800
| 21>    N       -2.85873        -1.65909         8.42822
| 22>    C       -4.62460        -2.54901         9.70696
| 23>    N       -5.45993        -2.48518        10.48789
| 24>    C       -4.22035        -5.06449         8.42786
| 25>    N       -4.89143        -5.95036         8.70853
| 26>    C       -0.53836        -3.32593         6.04584
| 27>    C        0.15331        -2.16240         5.64859
| 28>    C       -0.14780        -0.85628         6.19576
| 29>    N        0.64545         0.09076         5.67909
| 30>    S        1.65146        -0.58713         4.63480
| 31>    N        1.15645        -2.10605         4.76869
| 32>    C       -0.17906        -4.59286         5.47328
| 33>    S        0.42713        -4.58525         3.84049
| 34>    C        0.67436        -6.29297         3.85723
| 35>    C        0.31889        -6.82988         5.08181
| 36>    C       -0.17560        -5.87695         5.99553
| 37>    C       -0.57428        -6.25864         7.38535
| 38>    C       -0.04159        -7.63716         7.76117
| 39>    C       -0.41519        -8.62646         6.66514
| 40>    C        0.39351        -8.29194         5.40696
| 41>    N       -0.16277        -9.11799         4.30381
| 42>    O       -1.11369        -8.69132         3.70181
| 43>    O        0.35506       -10.19658         4.12690
| 44>    C        1.18208        -6.94431         2.66614
| 45>    C        2.11045        -7.95815         2.73209
| 46>    C        2.59305        -8.55727         1.55124
| 47>    C        3.51026        -9.58171         1.33480
| 48>    C        4.28913       -10.40727         2.29822
| 49>    C        5.64416        -9.73128         2.61679
| 50>    N        6.55646        -9.87036         1.49496
| 51>    C        3.55190       -10.73366         3.60543
| 52>    N        4.17241       -11.89908         4.22152
| 53>    C        3.65475        -9.70931        -0.09628
| 54>    C        4.48214       -10.47384        -0.83333
| 55>    C        4.52783       -10.35987        -2.31665
| 56>    C        3.48222        -9.46373        -2.90438
| 57>    C        2.66200        -8.70654        -2.15036
| 58>    C        2.74269        -8.76070        -0.74009
| 59>    C        2.10373        -8.06400         0.27095
| 60>    C        1.15900        -7.01708         0.23500
| 61>    C        0.71838        -6.47349         1.39882
| 62>    C        4.48118       -11.72265        -2.95398
| 63>    C        5.43070       -12.18511        -3.77134
| 64>    C        5.42963       -13.47934        -4.38477
| 65>    S        4.23034       -14.67294        -3.99764
| 66>    C        4.98131       -15.85391        -5.03284
| 67>    C        6.06211       -15.29356        -5.69661
| 68>    C        6.31935       -13.96324        -5.32211
| 69>    C        7.42443       -13.23246        -6.00932
| 70>    C        7.26300       -13.49269        -7.50827
| 71>    C        7.39172       -14.98044        -7.84710
| 72>    C        6.92644       -15.93619        -6.72490
| 73>    N        8.15706       -16.48344        -6.05690
| 74>    O        8.38692       -16.15727        -4.92249
| 75>    O        8.86306       -17.18336        -6.73966
| 76>    C        4.45691       -17.18799        -5.04034
| 77>    C        3.10153       -17.42168        -4.70037
| 78>    C        2.54212       -18.75169        -4.63563
| 79>    N        1.24312       -18.91769        -4.30144
| 80>    C        0.51897       -17.86440        -4.03506
| 81>    C        1.07160       -16.54010        -4.11028
| 82>    N        2.32686       -16.36096        -4.44252
| 83>    C        0.26764       -15.40724        -3.83987
| 84>    N       -0.39927       -14.50346        -3.61236
| 85>    C       -0.84445       -18.03028        -3.67768
| 86>    N       -1.94636       -18.12474        -3.38078
| 87>    C        3.31738       -19.87606        -4.88582
| 88>    C        4.65752       -19.67361        -5.18841
| 89>    C        5.22845       -18.34310        -5.27054
| 90>    N        6.54046       -18.39734        -5.52142
| 91>    S        6.99981       -19.92749        -5.65021
| 92>    N        5.58118       -20.62041        -5.40138
| 93>    H       -1.38165         0.27843         7.56020
| 94>    H       -1.66475        -6.27809         7.44163
| 95>    H       -0.22473        -5.50300         8.09208
| 96>    H       -0.47997        -7.94913         8.70916
| 97>    H        1.04375        -7.60926         7.88094
| 98>    H       -1.48192        -8.53802         6.44711
| 99>    H       -0.20504        -9.65311         6.96968
|100>    H        1.42761        -8.62429         5.55231
|101>    H        2.51824        -8.26060         3.68144
|102>    H        4.51868       -11.36208         1.81264
|103>    H        6.02543       -10.18836         3.54152
|104>    H        5.47846        -8.66554         2.79394
|105>    H        6.91787       -10.81793         1.45834
|106>    H        7.34496        -9.24211         1.59402
|107>    H        2.47991       -10.86762         3.39954
|108>    H        3.66953        -9.90870         4.31283
|109>    H        4.01459       -12.72005         3.64528
|110>    H        3.74828       -12.08169         5.12451
|111>    H        5.17257       -11.17055        -0.38336
|112>    H        5.51056        -9.92150        -2.55914
|113>    H        3.43481        -9.44046        -3.98232
|114>    H        1.93844        -8.05080        -2.61212
|115>    H        0.79827        -6.65550        -0.71608
|116>    H       -0.00752        -5.67489         1.39430
|117>    H        3.60917       -12.31952        -2.72726
|118>    H        6.28882       -11.56476        -3.99832
|119>    H        8.39033       -13.60609        -5.66011
|120>    H        7.37993       -12.16283        -5.80955
|121>    H        8.00863       -12.93015        -8.07074
|122>    H        6.27675       -13.13224        -7.80907
|123>    H        8.43100       -15.22353        -8.07964
|124>    H        6.81060       -15.18956        -8.74576
|125>    H        6.44106       -16.80264        -7.17645
|126>    H        2.89499       -20.86304        -4.81231
|127> *
|128>
|129>                          ****END OF INPUT****

CARTESIAN COORDINATES (ANGSTROEM)
---------------------------------
  C     -1.150330   -0.685530    7.141440
  C     -1.869350   -1.810780    7.519300
  C     -1.594720   -3.120290    6.962650
  N     -2.399000   -4.147260    7.270190
  C     -3.384690   -3.965710    8.114580
  C     -3.597800   -2.688480    8.738000
  N     -2.858730   -1.659090    8.428220
  C     -4.624600   -2.549010    9.706960
  N     -5.459930   -2.485180   10.487890
  C     -4.220350   -5.064490    8.427860
  N     -4.891430   -5.950360    8.708530
  C     -0.538360   -3.325930    6.045840
  C      0.153310   -2.162400    5.648590
  C     -0.147800   -0.856280    6.195760
  N      0.645450    0.090760    5.679090
  S      1.651460   -0.587130    4.634800
  N      1.156450   -2.106050    4.768690
  C     -0.179060   -4.592860    5.473280
  S      0.427130   -4.585250    3.840490
  C      0.674360   -6.292970    3.857230
  C      0.318890   -6.829880    5.081810
  C     -0.175600   -5.876950    5.995530
  C     -0.574280   -6.258640    7.385350
  C     -0.041590   -7.637160    7.761170
  C     -0.415190   -8.626460    6.665140
  C      0.393510   -8.291940    5.406960
  N     -0.162770   -9.117990    4.303810
  O     -1.113690   -8.691320    3.701810
  O      0.355060  -10.196580    4.126900
  C      1.182080   -6.944310    2.666140
  C      2.110450   -7.958150    2.732090
  C      2.593050   -8.557270    1.551240
  C      3.510260   -9.581710    1.334800
  C      4.289130  -10.407270    2.298220
  C      5.644160   -9.731280    2.616790
  N      6.556460   -9.870360    1.494960
  C      3.551900  -10.733660    3.605430
  N      4.172410  -11.899080    4.221520
  C      3.654750   -9.709310   -0.096280
  C      4.482140  -10.473840   -0.833330
  C      4.527830  -10.359870   -2.316650
  C      3.482220   -9.463730   -2.904380
  C      2.662000   -8.706540   -2.150360
  C      2.742690   -8.760700   -0.740090
  C      2.103730   -8.064000    0.270950
  C      1.159000   -7.017080    0.235000
  C      0.718380   -6.473490    1.398820
  C      4.481180  -11.722650   -2.953980
  C      5.430700  -12.185110   -3.771340
  C      5.429630  -13.479340   -4.384770
  S      4.230340  -14.672940   -3.997640
  C      4.981310  -15.853910   -5.032840
  C      6.062110  -15.293560   -5.696610
  C      6.319350  -13.963240   -5.322110
  C      7.424430  -13.232460   -6.009320
  C      7.263000  -13.492690   -7.508270
  C      7.391720  -14.980440   -7.847100
  C      6.926440  -15.936190   -6.724900
  N      8.157060  -16.483440   -6.056900
  O      8.386920  -16.157270   -4.922490
  O      8.863060  -17.183360   -6.739660
  C      4.456910  -17.187990   -5.040340
  C      3.101530  -17.421680   -4.700370
  C      2.542120  -18.751690   -4.635630
  N      1.243120  -18.917690   -4.301440
  C      0.518970  -17.864400   -4.035060
  C      1.071600  -16.540100   -4.110280
  N      2.326860  -16.360960   -4.442520
  C      0.267640  -15.407240   -3.839870
  N     -0.399270  -14.503460   -3.612360
  C     -0.844450  -18.030280   -3.677680
  N     -1.946360  -18.124740   -3.380780
  C      3.317380  -19.876060   -4.885820
  C      4.657520  -19.673610   -5.188410
  C      5.228450  -18.343100   -5.270540
  N      6.540460  -18.397340   -5.521420
  S      6.999810  -19.927490   -5.650210
  N      5.581180  -20.620410   -5.401380
  H     -1.381650    0.278430    7.560200
  H     -1.664750   -6.278090    7.441630
  H     -0.224730   -5.503000    8.092080
  H     -0.479970   -7.949130    8.709160
  H      1.043750   -7.609260    7.880940
  H     -1.481920   -8.538020    6.447110
  H     -0.205040   -9.653110    6.969680
  H      1.427610   -8.624290    5.552310
  H      2.518240   -8.260600    3.681440
  H      4.518680  -11.362080    1.812640
  H      6.025430  -10.188360    3.541520
  H      5.478460   -8.665540    2.793940
  H      6.917870  -10.817930    1.458340
  H      7.344960   -9.242110    1.594020
  H      2.479910  -10.867620    3.399540
  H      3.669530   -9.908700    4.312830
  H      4.014590  -12.720050    3.645280
  H      3.748280  -12.081690    5.124510
  H      5.172570  -11.170550   -0.383360
  H      5.510560   -9.921500   -2.559140
  H      3.434810   -9.440460   -3.982320
  H      1.938440   -8.050800   -2.612120
  H      0.798270   -6.655500   -0.716080
  H     -0.007520   -5.674890    1.394300
  H      3.609170  -12.319520   -2.727260
  H      6.288820  -11.564760   -3.998320
  H      8.390330  -13.606090   -5.660110
  H      7.379930  -12.162830   -5.809550
  H      8.008630  -12.930150   -8.070740
  H      6.276750  -13.132240   -7.809070
  H      8.431000  -15.223530   -8.079640
  H      6.810600  -15.189560   -8.745760
  H      6.441060  -16.802640   -7.176450
  H      2.894990  -20.863040   -4.812310

 Total Charge           Charge          ....    0
 Multiplicity           Mult            ....    1
 Number of Electrons    NEL             ....  566
 Basis Dimension        Dim             .... 1278

ORBITAL ENERGIES
----------------

  NO   OCC          E(Eh)            E(eV)
   0   2.0000     -89.054414     -2423.2938
   1   2.0000     -89.047744     -2423.1123
   2   2.0000     -88.961246     -2420.7586
   3   2.0000     -88.956468     -2420.6286
   4   2.0000     -19.244567      -523.6713
   5   2.0000     -19.240431      -523.5588
   6   2.0000     -19.238049      -523.4939
   7   2.0000     -19.237577      -523.4811
   8   2.0000     -14.639441      -398.3594
   9   2.0000     -14.635122      -398.2419
  10   2.0000     -14.468813      -393.7164
  11   2.0000     -14.464973      -393.6119
  12   2.0000     -14.461462      -393.5164
  13   2.0000     -14.459959      -393.4755
  14   2.0000     -14.458969      -393.4485
  15   2.0000     -14.456833      -393.3904
  16   2.0000     -14.455591      -393.3566
  17   2.0000     -14.451839      -393.2545
  18   2.0000     -14.432199      -392.7201
  19   2.0000     -14.432140      -392.7185
  20   2.0000     -14.428778      -392.6270
  21   2.0000     -14.428635      -392.6231
  22   2.0000     -14.379924      -391.2976
  23   2.0000     -14.375797      -391.1853
  24   2.0000     -10.386871      -282.6411
  25   2.0000     -10.385875      -282.6140
  26   2.0000     -10.381167      -282.4859
  27   2.0000     -10.378115      -282.4029
  28   2.0000     -10.353428      -281.7311
  29   2.0000     -10.352303      -281.7005
  30   2.0000     -10.352134      -281.6959
  31   2.0000     -10.348240      -281.5899
  32   2.0000     -10.347060      -281.5578
  33   2.0000     -10.346053      -281.5304
  34   2.0000     -10.343793      -281.4689
  35   2.0000     -10.342224      -281.4262
  36   2.0000     -10.335977      -281.2562
  37   2.0000     -10.333528      -281.1896
  38   2.0000     -10.329631      -281.0836
  39   2.0000     -10.328846      -281.0622
  40   2.0000     -10.325504      -280.9712
  41   2.0000     -10.324906      -280.9550
  42   2.0000     -10.322277      -280.8834
  43   2.0000     -10.321696      -280.8676
  44   2.0000     -10.320124      -280.8249
  45   2.0000     -10.307459      -280.4802
  46   2.0000     -10.307340      -280.4770
  47   2.0000     -10.306100      -280.4432
  48   2.0000     -10.306030      -280.4413
  49   2.0000     -10.301067      -280.3063
  50   2.0000     -10.295982      -280.1679
  51   2.0000     -10.294070      -280.1159
  52   2.0000     -10.292025      -280.0602
  53   2.0000     -10.291264      -280.0395
  54   2.0000     -10.287947      -279.9493
  55   2.0000     -10.287903      -279.9481
  56   2.0000     -10.287192      -279.9287
  57   2.0000     -10.283859      -279.8380
  58   2.0000     -10.283186      -279.8197
  59   2.0000     -10.282684      -279.8061
  60   2.0000     -10.281015      -279.7606
  61   2.0000     -10.280301      -279.7412
  62   2.0000     -10.278923      -279.7037
  63   2.0000     -10.275177      -279.6018
  64   2.0000     -10.275070      -279.5989
  65   2.0000     -10.273599      -279.5588
  66   2.0000     -10.272428      -279.5270
  67   2.0000     -10.269623      -279.4506
  68   2.0000     -10.266668      -279.3703
  69   2.0000     -10.264490      -279.3110
  70   2.0000     -10.264156      -279.3019
  71   2.0000     -10.262553      -279.2583
  72   2.0000     -10.261612      -279.2327
  73   2.0000     -10.259740      -279.1817
  74   2.0000     -10.258696      -279.1533
  75   2.0000     -10.255125      -279.0561
  76   2.0000     -10.254580      -279.0413
  77   2.0000     -10.254301      -279.0337
  78   2.0000      -8.145365      -221.6466
  79   2.0000      -8.139091      -221.4759
  80   2.0000      -8.055685      -219.2063
  81   2.0000      -8.051550      -219.0938
  82   2.0000      -6.116192      -166.4300
  83   2.0000      -6.109989      -166.2613
  84   2.0000      -6.108639      -166.2245
  85   2.0000      -6.108443      -166.2192
  86   2.0000      -6.102257      -166.0509
  87   2.0000      -6.102168      -166.0484
  88   2.0000      -6.025067      -163.9504
  89   2.0000      -6.020728      -163.8323
  90   2.0000      -6.020678      -163.8310
  91   2.0000      -6.017832      -163.7535
  92   2.0000      -6.016488      -163.7170
  93   2.0000      -6.013866      -163.6456
  94   2.0000      -1.323501       -36.0143
  95   2.0000      -1.317768       -35.8583
  96   2.0000      -1.148762       -31.2594
  97   2.0000      -1.144333       -31.1389
  98   2.0000      -1.143290       -31.1105
  99   2.0000      -1.138435       -30.9784
 100   2.0000      -1.125618       -30.6296
 101   2.0000      -1.118299       -30.4305
 102   2.0000      -1.053026       -28.6543
 103   2.0000      -1.045358       -28.4456
 104   2.0000      -1.017536       -27.6886
 105   2.0000      -1.013288       -27.5730
 106   2.0000      -1.009917       -27.4812
 107   2.0000      -1.006109       -27.3776
 108   2.0000      -1.004906       -27.3449
 109   2.0000      -1.001609       -27.2552
 110   2.0000      -0.996991       -27.1295
 111   2.0000      -0.992219       -26.9997
 112   2.0000      -0.979339       -26.6492
 113   2.0000      -0.977637       -26.6028
 114   2.0000      -0.973612       -26.4933
 115   2.0000      -0.962259       -26.1844
 116   2.0000      -0.948940       -25.8220
 117   2.0000      -0.946944       -25.7677
 118   2.0000      -0.943052       -25.6618
 119   2.0000      -0.937226       -25.5032
 120   2.0000      -0.916251       -24.9325
 121   2.0000      -0.912149       -24.8208
 122   2.0000      -0.906056       -24.6550
 123   2.0000      -0.904614       -24.6158
 124   2.0000      -0.889191       -24.1961
 125   2.0000      -0.880334       -23.9551
 126   2.0000      -0.880295       -23.9540
 127   2.0000      -0.875441       -23.8220
 128   2.0000      -0.859895       -23.3989
 129   2.0000      -0.840887       -22.8817
 130   2.0000      -0.837273       -22.7834
 131   2.0000      -0.836136       -22.7524
 132   2.0000      -0.834548       -22.7092
 133   2.0000      -0.832034       -22.6408
 134   2.0000      -0.828174       -22.5358
 135   2.0000      -0.822973       -22.3942
 136   2.0000      -0.812564       -22.1110
 137   2.0000      -0.801640       -21.8137
 138   2.0000      -0.790346       -21.5064
 139   2.0000      -0.781147       -21.2561
 140   2.0000      -0.774926       -21.0868
 141   2.0000      -0.764781       -20.8107
 142   2.0000      -0.751662       -20.4538
 143   2.0000      -0.748903       -20.3787
 144   2.0000      -0.743550       -20.2330
 145   2.0000      -0.733615       -19.9627
 146   2.0000      -0.723225       -19.6799
 147   2.0000      -0.716894       -19.5077
 148   2.0000      -0.714433       -19.4407
 149   2.0000      -0.708708       -19.2849
 150   2.0000      -0.702809       -19.1244
 151   2.0000      -0.701298       -19.0833
 152   2.0000      -0.692877       -18.8541
 153   2.0000      -0.690884       -18.7999
 154   2.0000      -0.687454       -18.7066
 155   2.0000      -0.684109       -18.6156
 156   2.0000      -0.680249       -18.5105
 157   2.0000      -0.672815       -18.3082
 158   2.0000      -0.665073       -18.0975
 159   2.0000      -0.663612       -18.0578
 160   2.0000      -0.656381       -17.8610
 161   2.0000      -0.653851       -17.7922
 162   2.0000      -0.652246       -17.7485
 163   2.0000      -0.644975       -17.5507
 164   2.0000      -0.641289       -17.4504
 165   2.0000      -0.633110       -17.2278
 166   2.0000      -0.630566       -17.1586
 167   2.0000      -0.629776       -17.1371
 168   2.0000      -0.626000       -17.0343
 169   2.0000      -0.624047       -16.9812
 170   2.0000      -0.617315       -16.7980
 171   2.0000      -0.613606       -16.6971
 172   2.0000      -0.612623       -16.6703
 173   2.0000      -0.607011       -16.5176
 174   2.0000      -0.598721       -16.2920
 175   2.0000      -0.597549       -16.2601
 176   2.0000      -0.592252       -16.1160
 177   2.0000      -0.591132       -16.0855
 178   2.0000      -0.588846       -16.0233
 179   2.0000      -0.583277       -15.8718
 180   2.0000      -0.580527       -15.7969
 181   2.0000      -0.578588       -15.7442
 182   2.0000      -0.572612       -15.5816
 183   2.0000      -0.570729       -15.5303
 184   2.0000      -0.564690       -15.3660
 185   2.0000      -0.563141       -15.3238
 186   2.0000      -0.557603       -15.1732
 187   2.0000      -0.554789       -15.0966
 188   2.0000      -0.548627       -14.9289
 189   2.0000      -0.543473       -14.7886
 190   2.0000      -0.541220       -14.7274
 191   2.0000      -0.538068       -14.6416
 192   2.0000      -0.537897       -14.6369
 193   2.0000      -0.534784       -14.5522
 194   2.0000      -0.532831       -14.4991
 195   2.0000      -0.530990       -14.4490
 196   2.0000      -0.526771       -14.3342
 197   2.0000      -0.524407       -14.2698
 198   2.0000      -0.520491       -14.1633
 199   2.0000      -0.517116       -14.0715
 200   2.0000      -0.513228       -13.9656
 201   2.0000      -0.513007       -13.9596
 202   2.0000      -0.510483       -13.8909
 203   2.0000      -0.508364       -13.8333
 204   2.0000      -0.507291       -13.8041
 205   2.0000      -0.503708       -13.7066
 206   2.0000      -0.500075       -13.6077
 207   2.0000      -0.498947       -13.5770
 208   2.0000      -0.497559       -13.5393
 209   2.0000      -0.492011       -13.3883
 210   2.0000      -0.491428       -13.3724
 211   2.0000      -0.487781       -13.2732
 212   2.0000      -0.485032       -13.1984
 213   2.0000      -0.484177       -13.1751
 214   2.0000      -0.483235       -13.1495
 215   2.0000      -0.482919       -13.1409
 216   2.0000      -0.482004       -13.1160
 217   2.0000      -0.475814       -12.9476
 218   2.0000      -0.473267       -12.8782
 219   2.0000      -0.470670       -12.8076
 220   2.0000      -0.467311       -12.7162
 221   2.0000      -0.458288       -12.4707
 222   2.0000      -0.457555       -12.4507
 223   2.0000      -0.457069       -12.4375
 224   2.0000      -0.455657       -12.3991
 225   2.0000      -0.454881       -12.3779
 226   2.0000      -0.453178       -12.3316
 227   2.0000      -0.452709       -12.3188
 228   2.0000      -0.449507       -12.2317
 229   2.0000      -0.445956       -12.1351
 230   2.0000      -0.444227       -12.0880
 231   2.0000      -0.443234       -12.0610
 232   2.0000      -0.442660       -12.0454
 233   2.0000      -0.439831       -11.9684
 234   2.0000      -0.436964       -11.8904
 235   2.0000      -0.434785       -11.8311
 236   2.0000      -0.433184       -11.7875
 237   2.0000      -0.432787       -11.7767
 238   2.0000      -0.431711       -11.7475
 239   2.0000      -0.428332       -11.6555
 240   2.0000      -0.426812       -11.6141
 241   2.0000      -0.423963       -11.5366
 242   2.0000      -0.422057       -11.4847
 243   2.0000      -0.420347       -11.4382
 244   2.0000      -0.420098       -11.4315
 245   2.0000      -0.418339       -11.3836
 246   2.0000      -0.415690       -11.3115
 247   2.0000      -0.414745       -11.2858
 248   2.0000      -0.413501       -11.2519
 249   2.0000      -0.410956       -11.1827
 250   2.0000      -0.409813       -11.1516
 251   2.0000      -0.407552       -11.0901
 252   2.0000      -0.405641       -11.0380
 253   2.0000      -0.402537       -10.9536
 254   2.0000      -0.397974       -10.8294
 255   2.0000      -0.394944       -10.7470
 256   2.0000      -0.393253       -10.7010
 257   2.0000      -0.389015       -10.5856
 258   2.0000      -0.386851       -10.5268
 259   2.0000      -0.382270       -10.4021
 260   2.0000      -0.380899       -10.3648
 261   2.0000      -0.377132       -10.2623
 262   2.0000      -0.376536       -10.2461
 263   2.0000      -0.374918       -10.2021
 264   2.0000      -0.369509       -10.0548
 265   2.0000      -0.368823       -10.0362
 266   2.0000      -0.362915        -9.8754
 267   2.0000      -0.359982        -9.7956
 268   2.0000      -0.357674        -9.7328
 269   2.0000      -0.356927        -9.7125
 270   2.0000      -0.352422        -9.5899
 271   2.0000      -0.347041        -9.4435
 272   2.0000      -0.339732        -9.2446
 273   2.0000      -0.328888        -8.9495
 274   2.0000      -0.320659        -8.7256
 275   2.0000      -0.313732        -8.5371
 276   2.0000      -0.312822        -8.5123
 277   2.0000      -0.309949        -8.4341
 278   2.0000      -0.299187        -8.1413
 279   2.0000      -0.289240        -7.8706
 280   2.0000      -0.267098        -7.2681
 281   2.0000      -0.265969        -7.2374
 282   2.0000      -0.215320        -5.8592
 283   0.0000      -0.123627        -3.3641
 284   0.0000      -0.116405        -3.1676
 285   0.0000      -0.063041        -1.7154
 286   0.0000      -0.054920        -1.4944
 287   0.0000      -0.047683        -1.2975

MULLIKEN ATOMIC CHARGES
-----------------------
   0 C :   -0.083336
   1 C :    0.024222
   2 C :   -0.089102
   3 N :    0.042050
   4 C :   -0.134176
   5 C :   -0.142355
   6 N :    0.054027
   7 C :   -0.202338
   8 N :    0.235598
   9 C :   -0.211003
  10 N :    0.233686
  11 C :    0.162056
  12 C :   -0.057191
  13 C :    0.107093
  14 N :   -0.269354
  15 S :    0.548612
  16 N :   -0.282566
  17 C :   -0.240633
  18 S :    0.191476
  19 C :   -0.100494
  20 C :   -0.033613
  21 C :   -0.028283
  22 C :    0.129107
  23 C :    0.042374
  24 C :    0.062293
  25 C :    0.108165
  26 N :    0.203439
  27 O :   -0.205498
  28 O :   -0.234572
  29 C :    0.052367
  30 C :   -0.077338
  31 C :    0.041635
  32 C :    0.013179
  33 C :   -0.074736
  34 C :    0.153331
  35 N :   -0.222972
  36 C :    0.096979
  37 N :   -0.218669
  38 C :    0.090934
  39 C :   -0.089204
  40 C :    0.137854
  41 C :   -0.044034
  42 C :    0.025718
  43 C :    0.014845
  44 C :    0.031281
  45 C :    0.001833
  46 C :   -0.008424
  47 C :   -0.059822
  48 C :   -0.000491
  49 C :   -0.081484
  50 S :    0.164062
  51 C :   -0.222960
  52 C :    0.058332
  53 C :   -0.098614
  54 C :    0.175609
  55 C :   -0.001660
  56 C :    0.107327
  57 C :    0.071679
  58 N :    0.220480
  59 O :   -0.211964
  60 O :   -0.250931
  61 C :    0.154825
  62 C :   -0.066887
  63 C :    0.028779
  64 N :    0.055293
  65 C :   -0.143653
  66 C :   -0.120797
  67 N :    0.022720
  68 C :   -0.214225
  69 N :    0.244640
  70 C :   -0.205579
  71 N :    0.240058
  72 C :   -0.090624
  73 C :    0.106139
  74 C :   -0.018701
  75 N :   -0.319014
  76 S :    0.579481
  77 N :   -0.270321
  78 H :   -0.018710
  79 H :    0.046019
  80 H :    0.001156
  81 H :    0.011273
  82 H :    0.006163
  83 H :    0.026687
  84 H :    0.018155
  85 H :    0.028906
  86 H :   -0.053206
  87 H :   -0.034428
  88 H :   -0.000138
  89 H :   -0.011028
  90 H :    0.090814
  91 H :    0.092121
  92 H :    0.031200
  93 H :   -0.008052
  94 H :    0.088327
  95 H :    0.090111
  96 H :   -0.026274
  97 H :    0.040875
  98 H :   -0.015484
  99 H :   -0.035637
 100 H :   -0.036555
 101 H :   -0.021619
 102 H :    0.020098
 103 H :   -0.015647
 104 H :    0.013214
 105 H :    0.000041
 106 H :    0.010675
 107 H :    0.012040
 108 H :    0.021134
 109 H :    0.018073
 110 H :    0.020696
 111 H :   -0.016962
Sum of atomic charges:   -0.0000000

LOEWDIN ATOMIC CHARGES
----------------------
   0 C :   -0.015305
   1 C :   -0.008191
   2 C :   -0.022655
   3 N :    0.016901
   4 C :   -0.037366
   5 C :   -0.026152
   6 N :   -0.001340
   7 C :   -0.034684
   8 N :   -0.003525
   9 C :   -0.039865
  10 N :   -0.009845
  11 C :   -0.014885
  12 C :   -0.053693
  13 C :   -0.046656
  14 N :   -0.287150
  15 S :    0.687011
  16 N :   -0.292482
  17 C :   -0.186857
  18 S :    0.499894
  19 C :   -0.134276
  20 C :   -0.089089
  21 C :   -0.015761
  22 C :   -0.032186
  23 C :   -0.024930
  24 C :   -0.018104
  25 C :    0.013490
  26 N :    0.279446
  27 O :   -0.183377
  28 O :   -0.200556
  29 C :   -0.057355
  30 C :   -0.013549
  31 C :   -0.023229
  32 C :   -0.020279
  33 C :   -0.040740
  34 C :    0.028072
  35 N :   -0.113299
  36 C :    0.020636
  37 N :   -0.119839
  38 C :   -0.014852
  39 C :    0.082917
  40 C :   -0.030006
  41 C :   -0.038226
  42 C :   -0.012247
  43 C :   -0.036119
  44 C :   -0.029937
  45 C :   -0.000588
  46 C :   -0.036880
  47 C :    0.004108
  48 C :   -0.053718
  49 C :   -0.163743
  50 S :    0.485334
  51 C :   -0.163717
  52 C :   -0.052307
  53 C :   -0.048536
  54 C :   -0.026025
  55 C :   -0.025062
  56 C :   -0.024185
  57 C :    0.010185
  58 N :    0.278898
  59 O :   -0.186699
  60 O :   -0.219133
  61 C :   -0.020339
  62 C :   -0.019773
  63 C :   -0.008489
  64 N :    0.000628
  65 C :   -0.023636
  66 C :   -0.029430
  67 N :   -0.011110
  68 C :   -0.038982
  69 N :   -0.001380
  70 C :   -0.035280
  71 N :    0.000253
  72 C :   -0.011296
  73 C :   -0.044457
  74 C :   -0.044978
  75 N :   -0.283129
  76 S :    0.709322
  77 N :   -0.285934
  78 H :    0.047431
  79 H :    0.038766
  80 H :    0.029372
  81 H :    0.031395
  82 H :    0.021816
  83 H :    0.033323
  84 H :    0.030769
  85 H :    0.034855
  86 H :    0.020254
  87 H :    0.019453
  88 H :    0.002219
  89 H :    0.016224
  90 H :    0.050635
  91 H :    0.055120
  92 H :    0.007966
  93 H :    0.010489
  94 H :    0.051134
  95 H :    0.054836
  96 H :    0.025086
  97 H :    0.062808
  98 H :    0.023347
  99 H :    0.029707
 100 H :    0.027977
 101 H :    0.020401
 102 H :    0.025795
 103 H :    0.030437
 104 H :    0.031572
 105 H :    0.028590
 106 H :    0.028300
 107 H :    0.025843
 108 H :    0.032646
 109 H :    0.034791
 110 H :    0.038206
 111 H :    0.048757

  Mayer bond orders larger than 0.100000
B(  0-C ,  1-C ) :   1.3194 B(  0-C , 11-C ) :   0.1304 B(  0-C , 13-C ) :   1.1742
B(  0-C , 78-H ) :   1.0600 B(  1-C ,  2-C ) :   1.1081 B(  1-C ,  6-N ) :   1.3334
B(  2-C ,  3-N ) :   1.4383 B(  2-C , 11-C ) :   1.2912 B(  3-N ,  4-C ) :   1.7280
B(  4-C ,  5-C ) :   1.1797 B(  4-C ,  9-C ) :   1.1479 B(  5-C ,  6-N ) :   1.7893
B(  5-C ,  7-C ) :   1.1543 B(  7-C ,  8-N ) :   3.0517 B(  9-C , 10-N ) :   3.0427
B( 11-C , 12-C ) :   1.2292 B( 11-C , 17-C ) :   1.0917 B( 12-C , 13-C ) :   1.1247
B( 12-C , 16-N ) :   1.4898 B( 13-C , 14-N ) :   1.4639 B( 14-N , 15-S ) :   1.3034
B( 14-N , 16-N ) :   0.1581 B( 15-S , 16-N ) :   1.2914 B( 17-C , 18-S ) :   1.1258
B( 17-C , 19-C ) :   0.1096 B( 17-C , 21-C ) :   1.4976 B( 18-S , 19-C ) :   1.1799
B( 19-C , 20-C ) :   1.5203 B( 19-C , 29-C ) :   1.0084 B( 20-C , 21-C ) :   1.3393
B( 20-C , 25-C ) :   0.9537 B( 21-C , 22-C ) :   1.0644 B( 22-C , 23-C ) :   1.0774
B( 22-C , 79-H ) :   0.8897 B( 22-C , 80-H ) :   0.9098 B( 23-C , 24-C ) :   1.0767
B( 23-C , 81-H ) :   0.9286 B( 23-C , 82-H ) :   0.9405 B( 24-C , 25-C ) :   1.0773
B( 24-C , 83-H ) :   0.9268 B( 24-C , 84-H ) :   0.9292 B( 25-C , 26-N ) :   0.8405
B( 25-C , 85-H ) :   0.8986 B( 26-N , 27-O ) :   1.5997 B( 26-N , 28-O ) :   1.5061
B( 27-O , 28-O ) :   0.2667 B( 29-C , 30-C ) :   1.5346 B( 29-C , 46-C ) :   1.1314
B( 30-C , 31-C ) :   1.1385 B( 30-C , 86-H ) :   0.9907 B( 31-C , 32-C ) :   1.4781
B( 31-C , 44-C ) :   1.1307 B( 32-C , 33-C ) :   1.0024 B( 32-C , 38-C ) :   1.1288
B( 33-C , 34-C ) :   1.0214 B( 33-C , 36-C ) :   1.0327 B( 33-C , 87-H ) :   0.8980
B( 34-C , 35-N ) :   1.1036 B( 34-C , 88-H ) :   0.9408 B( 34-C , 89-H ) :   0.9315
B( 35-N , 90-H ) :   0.9686 B( 35-N , 91-H ) :   0.9691 B( 36-C , 37-N ) :   1.0627
B( 36-C , 92-H ) :   0.9568 B( 36-C , 93-H ) :   0.9198 B( 37-N , 94-H ) :   0.9713
B( 37-N , 95-H ) :   0.9679 B( 38-C , 39-C ) :   1.6376 B( 38-C , 43-C ) :   1.0551
B( 39-C , 40-C ) :   0.9621 B( 39-C , 96-H ) :   0.9670 B( 40-C , 41-C ) :   0.9810
B( 40-C , 47-C ) :   0.9663 B( 40-C , 97-H ) :   0.8565 B( 41-C , 42-C ) :   1.7020
B( 41-C , 98-H ) :   0.9765 B( 42-C , 43-C ) :   1.1340 B( 42-C , 99-H ) :   0.9882
B( 43-C , 44-C ) :   1.4210 B( 44-C , 45-C ) :   1.1502 B( 45-C , 46-C ) :   1.5953
B( 45-C ,100-H ) :   0.9929 B( 46-C ,101-H ) :   0.9821 B( 47-C , 48-C ) :   1.7836
B( 47-C ,102-H ) :   0.9745 B( 48-C , 49-C ) :   1.1142 B( 48-C ,103-H ) :   0.9722
B( 49-C , 50-S ) :   1.1103 B( 49-C , 51-C ) :   0.1058 B( 49-C , 53-C ) :   1.5107
B( 50-S , 51-C ) :   1.1387 B( 51-C , 52-C ) :   1.4959 B( 51-C , 61-C ) :   1.1251
B( 52-C , 53-C ) :   1.2909 B( 52-C , 57-C ) :   1.0003 B( 53-C , 54-C ) :   1.0630
B( 54-C , 55-C ) :   1.1168 B( 54-C ,104-H ) :   0.8928 B( 54-C ,105-H ) :   0.9104
B( 55-C , 56-C ) :   1.1109 B( 55-C ,106-H ) :   0.9353 B( 55-C ,107-H ) :   0.9283
B( 56-C , 57-C ) :   1.0389 B( 56-C ,108-H ) :   0.9130 B( 56-C ,109-H ) :   0.9377
B( 57-C , 58-N ) :   0.8261 B( 57-C ,110-H ) :   0.8804 B( 58-N , 59-O ) :   1.6222
B( 58-N , 60-O ) :   1.5558 B( 59-O , 60-O ) :   0.2553 B( 61-C , 62-C ) :   1.2563
B( 61-C , 72-C ) :   0.1320 B( 61-C , 74-C ) :   1.2418 B( 62-C , 63-C ) :   1.1322
B( 62-C , 67-N ) :   1.4090 B( 63-C , 64-N ) :   1.3382 B( 63-C , 72-C ) :   1.3034
B( 64-N , 65-C ) :   1.7836 B( 65-C , 66-C ) :   1.1903 B( 65-C , 70-C ) :   1.1555
B( 66-C , 67-N ) :   1.7227 B( 66-C , 68-C ) :   1.1556 B( 68-C , 69-N ) :   3.0432
B( 70-C , 71-N ) :   3.0516 B( 72-C , 73-C ) :   1.1771 B( 72-C ,111-H ) :   1.0626
B( 73-C , 74-C ) :   1.1249 B( 73-C , 77-N ) :   1.4572 B( 74-C , 75-N ) :   1.4580
B( 75-N , 76-S ) :   1.2880 B( 75-N , 77-N ) :   0.1573 B( 76-S , 77-N ) :   1.3136

-----------------------------------------------------------------------------
         ABSORPTION SPECTRUM VIA TRANSITION ELECTRIC DIPOLE MOMENTS
-----------------------------------------------------------------------------
State   Energy  Wavelength   fosc         T2         TX        TY        TZ
        (cm-1)    (nm)                  (au**2)     (au)      (au)      (au)
-----------------------------------------------------------------------------
   0    9410.4   1062.7   0.122375401   4.28118  -0.46283   1.78308   0.94213
   1    9792.9   1021.2   0.053522448   1.79929   0.79124  -0.81435  -0.71418
   2   14241.9    702.2   0.244730926   5.65714  -0.80251  -2.03726  -0.92881
   3   14631.2    683.5   0.096238847   2.16543   0.42477   0.96242  -1.02896
   4   16011.2    624.6   0.226692516   4.66110  -0.90197   1.77771   0.82902
   5   21134.6    473.2   0.004434596   0.06908  -0.12386   0.06069   0.22372
   6   22684.1    440.8   0.014816998   0.21504  -0.15618   0.15986   0.40631
   7   23156.7    431.8   0.001823501   0.02592  -0.10769   0.05428   0.10668
   8   24079.2    415.3   0.028826160   0.39411  -0.04559   0.32622   0.53443
   9   25043.6    399.3   0.010260793   0.13488  -0.11530   0.25516   0.23766
  10   25321.5    394.9   0.023909310   0.31085   0.36989  -0.29187  -0.29807
  11   25698.4    389.1   0.073106563   0.93654   0.53331  -0.32252  -0.74034
  12   26065.2    383.7   0.029294755   0.37000   0.18067  -0.36444  -0.45227
  13   26285.6    380.4   0.016680823   0.20892   0.08393   0.26327   0.36409
  14   26375.6    379.1   0.004073831   0.05085  -0.22400   0.01611  -0.02032
  15   26461.1    377.9   0.001194243   0.01486   0.10981  -0.03685  -0.03796
  16   26770.6    373.5   0.003522391   0.04332  -0.14219   0.01753  -0.15097
  17   27277.1    366.6   0.040653036   0.49065   0.51601  -0.41028  -0.23676
  18   27412.7    364.8   0.020702833   0.24863   0.09397  -0.39461  -0.28996
  19   27615.7    362.1   0.160869452   1.91776  -0.55956   1.14887   0.53362
  20   27827.8    359.4   0.007524097   0.08901   0.12855  -0.17261  -0.20663
  21   27873.3    358.8   0.002360162   0.02788  -0.06171  -0.05686   0.14434
  22   28753.2    347.8   0.029841274   0.34167   0.24567  -0.22815  -0.47882
  23   28906.9    345.9   0.009643589   0.10983  -0.01701   0.19758   0.26552
  24   29289.4    341.4   0.168582924   1.89487  -0.99523   0.15571   0.93816
  25   29681.2    336.9   0.428136607   4.74873  -0.86147   1.50538   1.31925
  26   29952.5    333.9   0.031361594   0.34470   0.47146   0.34950   0.01651
  27   30044.3    332.8   0.032777675   0.35916  -0.46157   0.17437   0.34016
  28   30127.2    331.9   0.064877427   0.70894  -0.24770   0.68495   0.42240
  29   30499.7    327.9   0.227145760   2.45180   0.48698  -0.70904  -1.30840
  30   31635.1    316.1   0.000522465   0.00544  -0.02525   0.03913   0.05717
  31   31861.8    313.9   0.012181755   0.12587   0.05250   0.33761  -0.09556
  32   31952.8    313.0   0.002310651   0.02381   0.09045  -0.11883  -0.03879
  33   32651.9    306.3   0.011452953   0.11547  -0.10766   0.32099  -0.02912
  34   32668.6    306.1   0.748440208   7.54227  -2.63945   0.53665   0.53627
  35   32735.0    305.5   0.011197959   0.11262  -0.18046  -0.27858  -0.04946
  36   33479.7    298.7   0.017750856   0.17455   0.21123  -0.34035   0.11872
  37   33690.6    296.8   0.014320521   0.13993  -0.20871   0.29260   0.10374
  38   33707.6    296.7   0.002950263   0.02881  -0.15063   0.07674   0.01539
  39   34021.9    293.9   0.180936164   1.75082   0.95101   0.59727  -0.69976
  40   34026.0    293.9   0.843505402   8.16118   2.21438   0.73242  -1.64962
  41   34199.1    292.4   0.012616319   0.12145   0.04718   0.33527  -0.08257
  42   34312.1    291.4   0.013639958   0.13087   0.19151  -0.30691  -0.00040
  43   34941.0    286.2   0.162583514   1.53185   0.40659  -1.15858  -0.15566
  44   35117.0    284.8   0.311603557   2.92119  -0.29248   1.57413   0.59814
  45   35397.9    282.5   0.061286837   0.56999   0.33936  -0.61230  -0.28268
  46   35530.8    281.4   0.022410884   0.20765  -0.03875   0.45308  -0.02938
  47   35618.0    280.8   0.056425939   0.52154  -0.07241   0.50706   0.50910
  48   36534.3    273.7   0.006426660   0.05791  -0.01664   0.20948   0.11726
  49   36601.4    273.2   0.000710424   0.00639  -0.01477  -0.04504  -0.06437
  50   36741.9    272.2   0.001269328   0.01137   0.02388  -0.10160  -0.02191
  51   36791.8    271.8   0.006317776   0.05653   0.13410  -0.17449  -0.08999
  52   37639.7    265.7   0.026087216   0.22817   0.10640  -0.45399  -0.10366
  53   37927.0    263.7   0.001720857   0.01494   0.10045   0.06665  -0.02014
  54   38001.2    263.1   0.163372643   1.41533  -0.38302   0.86212   0.72482
  55   38049.8    262.8   0.017447913   0.15096   0.27164   0.19842  -0.19444
  56   38440.1    260.1   0.020146973   0.17254   0.09276  -0.16175  -0.37118
  57   38704.5    258.4   0.040357952   0.34328  -0.21003   0.29049   0.46344
  58   38776.9    257.9   0.266478865   2.26238  -0.52978   0.90012   1.08236
  59   38888.4    257.1   0.172518098   1.46046   0.58239  -0.59621  -0.87511
  60   39193.5    255.1   0.013740075   0.11541  -0.20330   0.08291   0.25924
  61   39472.4    253.3   0.024878749   0.20750   0.22333   0.11079  -0.38124
  62   39529.6    253.0   0.010564922   0.08799   0.10199   0.12107  -0.25085
  63   39959.1    250.3   0.032133690   0.26474   0.37556  -0.01085  -0.35153
  64   40021.8    249.9   0.035537719   0.29233   0.22349  -0.34047  -0.35561
  65   40052.5    249.7   0.060960256   0.50106  -0.42434   0.32791   0.46204
  66   40151.2    249.1   0.083368128   0.68356   0.53841  -0.22119  -0.58715

FINAL SINGLE POINT ENERGY     -4842.989977465154

DIPOLE MOMENT
-------------
                                X             Y             Z
Electronic contribution:    -41.66031       1.35649      -1.64937
Nuclear contribution   :     46.61131      -1.04117      -0.50533
                        -----------------------------------------
Total Dipole Moment    :      4.95099       0.31532      -2.15470
                        -----------------------------------------
Magnitude (a.u.)       :      5.40874
Magnitude (Debye)      :     13.74793

Rotational constants in cm-1:     0.001769     0.000225     0.000212
Rotational constants in MHz :    53.024211     6.758289     6.353819

                             ****ORCA TERMINATED NORMALLY****
TOTAL RUN TIME: 0 days 0 hours 13 minutes 56 seconds 641 msec
