                         Program Version 4.2.0 -  RELEASE  -
|  1> # ORCA input file
|  2> # SCF done       -210.250551079770          0.000754144294
|  3> ! CAM-B3LYP def2-SVP def2/J RIJCOSX Grid4 TightSCF
|  4> %maxcore 5000
|  5> %tddft
|  6>     Mode sTDDFT
|  7>     Ethresh 5.0
|  8>     maxcore 5000
|  9> end
| 10>
| 11> %pal
| 12>   nprocs 6
| 13>   end
| 14> * xyz 0 1
| 15>    C       12.27057         6.53795         7.13915
| 16>    S       10.65576         7.04160         6.88428
| 17>    C       10.59360         6.22169         5.34088
| 18>    C       11.80199         5.61408         5.06648
| 19>    C       12.75124         5.79484         6.10435
| 20>    C       14.16140         5.27765         6.05294
| 21>    N       15.06231         6.42504         5.97517
| 22>    C       14.30765         4.26989         4.90179
| 23>    C       13.65421         4.79751         3.63097
| 24>    C       12.13327         4.85002         3.81777
| 25>    N       11.63749         3.47739         3.92715
| 26>    C        9.37979         6.35475         4.59370
| 27>    C        9.03200         5.66757         3.49232
| 28>    C        7.84367         5.90642         2.69793
| 29>    C        7.81454         5.53514         1.33280
| 30>    C        8.95267         4.88683         0.65808
| 31>    O        9.71082         4.08338         1.17763
| 32>    C        9.12912         5.25408        -0.76790
| 33>    C        9.56818         4.35481        -1.69538
| 34>    S        9.63632         5.01199        -3.27689
| 35>    C        9.07387         6.52808        -2.70004
| 36>    C        8.85713         6.53248        -1.35493
| 37>    C        8.41652         7.75419        -0.63561
| 38>    O        7.54526         8.47106        -1.08151
| 39>    C        9.14187         8.07677         0.61696
| 40>    C       10.44966         7.65248         0.84279
| 41>    C       11.10859         8.03295         1.99699
| 42>    C       10.46792         8.81970         2.94040
| 43>    C        9.16692         9.24374         2.72112
| 44>    C        8.51057         8.88594         1.56019
| 45>    C        6.66684         5.81787         0.58373
| 46>    C        5.58276         6.45717         1.13463
| 47>    C        5.59971         6.84934         2.48011
| 48>    C        6.73666         6.55469         3.23270
| 49>    C        4.47441         7.53241         3.06594
| 50>    N        4.26515         7.55306         4.43182
| 51>    C        3.13931         8.27215         4.68328
| 52>    C        2.28832         8.72216         5.68999
| 53>    C        1.30387         9.48082         5.05021
| 54>    N        1.53619         9.49328         3.69307
| 55>    C        2.64579         8.75145         3.44796
| 56>    C        3.48019         8.27341         2.43351
| 57>    C        0.20470        10.12594         5.69015
| 58>    C       -0.70945        10.91536         5.09824
| 59>    C       -1.84805        11.49169         5.79258
| 60>    C       -3.08034        11.66633         5.13184
| 61>    C       -3.34454        11.06020         3.81207
| 62>    O       -4.02170        11.57890         2.94983
| 63>    C       -2.75910         9.69332         3.67255
| 64>    C       -2.94446         8.71679         4.60427
| 65>    S       -2.08895         7.27667         4.23269
| 66>    C       -1.42315         8.00148         2.82662
| 67>    C       -1.88611         9.26519         2.62450
| 68>    C       -1.38708        10.16938         1.55358
| 69>    O       -0.20041        10.44928         1.50246
| 70>    C       -2.38289        10.71099         0.62245
| 71>    C       -2.04906        11.82679        -0.14674
| 72>    C       -2.97128        12.36914        -1.01818
| 73>    C       -4.22785        11.79585        -1.13844
| 74>    C       -4.56007        10.67670        -0.39035
| 75>    C       -3.64653        10.13475         0.49111
| 76>    C       -4.11187        12.35912         5.76118
| 77>    C       -3.97936        12.78667         7.06401
| 78>    C       -2.79662        12.53865         7.76633
| 79>    C       -1.73227        11.93463         7.10380
| 80>    C       -2.66294        12.94697         9.15175
| 81>    S       -3.42192        14.41400         9.67612
| 82>    C       -2.78403        14.24920        11.28531
| 83>    C       -2.02234        13.10416        11.39294
| 84>    C       -1.98397        12.35129        10.18911
| 85>    C       -1.39347        10.96532        10.14011
| 86>    N       -2.09962        10.13360         9.17802
| 87>    C       -1.41057        10.38877        11.56505
| 88>    C       -0.62775        11.30567        12.48766
| 89>    C       -1.30952        12.67743        12.65058
| 90>    N       -0.35217        13.70704        13.04843
| 91>    C       -3.20974        15.25742        12.22457
| 92>    C       -2.73022        15.50083        13.44074
| 93>    H       12.78626         6.82027         8.03482
| 94>    H       14.39333         4.77739         7.00228
| 95>    H       14.89117         6.94727         5.12218
| 96>    H       16.02656         6.10986         5.95677
| 97>    H       13.81036         3.33811         5.17188
| 98>    H       15.36779         4.06411         4.73441
| 99>    H       13.88157         4.13870         2.79204
|100>    H       14.02693         5.79656         3.38921
|101>    H       11.69264         5.38414         2.95611
|102>    H       10.72096         3.46200         4.35992
|103>    H       11.54285         3.07256         3.00150
|104>    H        8.71590         7.11641         4.98296
|105>    H        9.67802         4.89931         3.11106
|106>    H        9.82741         3.32874        -1.52352
|107>    H        8.95741         7.35286        -3.37488
|108>    H       10.96063         7.04923         0.10629
|109>    H       12.12848         7.71829         2.16155
|110>    H       10.98594         9.10481         3.84411
|111>    H        8.66801         9.86099         3.45331
|112>    H        7.50060         9.21401         1.36500
|113>    H        6.61405         5.49460        -0.44586
|114>    H        4.70828         6.64717         0.53400
|115>    H        6.77151         6.84752         4.27070
|116>    H        4.80059         7.02801         5.10030
|117>    H        2.35361         8.54901         6.74591
|118>    H        0.96286         9.94178         2.98872
|119>    H        3.40670         8.46395         1.38208
|120>    H        0.10123         9.90534         6.74413
|121>    H       -0.62391        11.14596         4.04646
|122>    H       -3.54383         8.76818         5.49140
|123>    H       -0.74472         7.44836         2.20781
|124>    H       -1.06593        12.25924        -0.03252
|125>    H       -2.71544        13.24093        -1.60192
|126>    H       -4.95171        12.22335        -1.81671
|127>    H       -5.53922        10.23280        -0.49021
|128>    H       -3.90509         9.26262         1.07298
|129>    H       -5.03260        12.51625         5.21878
|130>    H       -4.79403        13.29780         7.55550
|131>    H       -0.78427        11.83932         7.60502
|132>    H       -0.34699        11.01826         9.80372
|133>    H       -3.08647        10.09183         9.40840
|134>    H       -1.73089         9.18914         9.19978
|135>    H       -0.96784         9.38904        11.55936
|136>    H       -2.44474        10.30365        11.91038
|137>    H        0.37064        11.45580        12.06320
|138>    H       -0.50459        10.84727        13.47165
|139>    H       -2.05437        12.61611        13.45769
|140>    H        0.28811        13.90216        12.28609
|141>    H        0.19225        13.38424        13.84168
|142>    H       -4.02497        15.86518        11.84761
|143>    H       -1.88738        14.96757        13.83833
|144>    H       -3.16101        16.27767        14.04958
|145> *
|146>
|147>                          ****END OF INPUT****

CARTESIAN COORDINATES (ANGSTROEM)
---------------------------------
  C     12.270570    6.537950    7.139150
  S     10.655760    7.041600    6.884280
  C     10.593600    6.221690    5.340880
  C     11.801990    5.614080    5.066480
  C     12.751240    5.794840    6.104350
  C     14.161400    5.277650    6.052940
  N     15.062310    6.425040    5.975170
  C     14.307650    4.269890    4.901790
  C     13.654210    4.797510    3.630970
  C     12.133270    4.850020    3.817770
  N     11.637490    3.477390    3.927150
  C      9.379790    6.354750    4.593700
  C      9.032000    5.667570    3.492320
  C      7.843670    5.906420    2.697930
  C      7.814540    5.535140    1.332800
  C      8.952670    4.886830    0.658080
  O      9.710820    4.083380    1.177630
  C      9.129120    5.254080   -0.767900
  C      9.568180    4.354810   -1.695380
  S      9.636320    5.011990   -3.276890
  C      9.073870    6.528080   -2.700040
  C      8.857130    6.532480   -1.354930
  C      8.416520    7.754190   -0.635610
  O      7.545260    8.471060   -1.081510
  C      9.141870    8.076770    0.616960
  C     10.449660    7.652480    0.842790
  C     11.108590    8.032950    1.996990
  C     10.467920    8.819700    2.940400
  C      9.166920    9.243740    2.721120
  C      8.510570    8.885940    1.560190
  C      6.666840    5.817870    0.583730
  C      5.582760    6.457170    1.134630
  C      5.599710    6.849340    2.480110
  C      6.736660    6.554690    3.232700
  C      4.474410    7.532410    3.065940
  N      4.265150    7.553060    4.431820
  C      3.139310    8.272150    4.683280
  C      2.288320    8.722160    5.689990
  C      1.303870    9.480820    5.050210
  N      1.536190    9.493280    3.693070
  C      2.645790    8.751450    3.447960
  C      3.480190    8.273410    2.433510
  C      0.204700   10.125940    5.690150
  C     -0.709450   10.915360    5.098240
  C     -1.848050   11.491690    5.792580
  C     -3.080340   11.666330    5.131840
  C     -3.344540   11.060200    3.812070
  O     -4.021700   11.578900    2.949830
  C     -2.759100    9.693320    3.672550
  C     -2.944460    8.716790    4.604270
  S     -2.088950    7.276670    4.232690
  C     -1.423150    8.001480    2.826620
  C     -1.886110    9.265190    2.624500
  C     -1.387080   10.169380    1.553580
  O     -0.200410   10.449280    1.502460
  C     -2.382890   10.710990    0.622450
  C     -2.049060   11.826790   -0.146740
  C     -2.971280   12.369140   -1.018180
  C     -4.227850   11.795850   -1.138440
  C     -4.560070   10.676700   -0.390350
  C     -3.646530   10.134750    0.491110
  C     -4.111870   12.359120    5.761180
  C     -3.979360   12.786670    7.064010
  C     -2.796620   12.538650    7.766330
  C     -1.732270   11.934630    7.103800
  C     -2.662940   12.946970    9.151750
  S     -3.421920   14.414000    9.676120
  C     -2.784030   14.249200   11.285310
  C     -2.022340   13.104160   11.392940
  C     -1.983970   12.351290   10.189110
  C     -1.393470   10.965320   10.140110
  N     -2.099620   10.133600    9.178020
  C     -1.410570   10.388770   11.565050
  C     -0.627750   11.305670   12.487660
  C     -1.309520   12.677430   12.650580
  N     -0.352170   13.707040   13.048430
  C     -3.209740   15.257420   12.224570
  C     -2.730220   15.500830   13.440740
  H     12.786260    6.820270    8.034820
  H     14.393330    4.777390    7.002280
  H     14.891170    6.947270    5.122180
  H     16.026560    6.109860    5.956770
  H     13.810360    3.338110    5.171880
  H     15.367790    4.064110    4.734410
  H     13.881570    4.138700    2.792040
  H     14.026930    5.796560    3.389210
  H     11.692640    5.384140    2.956110
  H     10.720960    3.462000    4.359920
  H     11.542850    3.072560    3.001500
  H      8.715900    7.116410    4.982960
  H      9.678020    4.899310    3.111060
  H      9.827410    3.328740   -1.523520
  H      8.957410    7.352860   -3.374880
  H     10.960630    7.049230    0.106290
  H     12.128480    7.718290    2.161550
  H     10.985940    9.104810    3.844110
  H      8.668010    9.860990    3.453310
  H      7.500600    9.214010    1.365000
  H      6.614050    5.494600   -0.445860
  H      4.708280    6.647170    0.534000
  H      6.771510    6.847520    4.270700
  H      4.800590    7.028010    5.100300
  H      2.353610    8.549010    6.745910
  H      0.962860    9.941780    2.988720
  H      3.406700    8.463950    1.382080
  H      0.101230    9.905340    6.744130
  H     -0.623910   11.145960    4.046460
  H     -3.543830    8.768180    5.491400
  H     -0.744720    7.448360    2.207810
  H     -1.065930   12.259240   -0.032520
  H     -2.715440   13.240930   -1.601920
  H     -4.951710   12.223350   -1.816710
  H     -5.539220   10.232800   -0.490210
  H     -3.905090    9.262620    1.072980
  H     -5.032600   12.516250    5.218780
  H     -4.794030   13.297800    7.555500
  H     -0.784270   11.839320    7.605020
  H     -0.346990   11.018260    9.803720
  H     -3.086470   10.091830    9.408400
  H     -1.730890    9.189140    9.199780
  H     -0.967840    9.389040   11.559360
  H     -2.444740   10.303650   11.910380
  H      0.370640   11.455800   12.063200
  H     -0.504590   10.847270   13.471650
  H     -2.054370   12.616110   13.457690
  H      0.288110   13.902160   12.286090
  H      0.192250   13.384240   13.841680
  H     -4.024970   15.865180   11.847610
  H     -1.887380   14.967570   13.838330
  H     -3.161010   16.277670   14.049580

 Total Charge           Charge          ....    0
 Multiplicity           Mult            ....    1
 Number of Electrons    NEL             ....  574
 Basis Dimension        Dim             .... 1368

ORBITAL ENERGIES
----------------

  NO   OCC          E(Eh)            E(eV)
   0   2.0000     -88.964774     -2420.8546
   1   2.0000     -88.963350     -2420.8158
   2   2.0000     -88.940660     -2420.1984
   3   2.0000     -88.938801     -2420.1478
   4   2.0000     -19.218658      -522.9663
   5   2.0000     -19.200879      -522.4825
   6   2.0000     -19.200298      -522.4667
   7   2.0000     -19.195529      -522.3369
   8   2.0000     -14.441002      -392.9596
   9   2.0000     -14.424658      -392.5149
  10   2.0000     -14.386658      -391.4809
  11   2.0000     -14.384948      -391.4343
  12   2.0000     -14.369836      -391.0231
  13   2.0000     -14.366729      -390.9386
  14   2.0000     -10.367178      -282.1052
  15   2.0000     -10.356525      -281.8154
  16   2.0000     -10.354163      -281.7511
  17   2.0000     -10.351801      -281.6868
  18   2.0000     -10.301462      -280.3170
  19   2.0000     -10.301416      -280.3158
  20   2.0000     -10.300651      -280.2950
  21   2.0000     -10.300136      -280.2809
  22   2.0000     -10.298761      -280.2435
  23   2.0000     -10.297812      -280.2177
  24   2.0000     -10.287588      -279.9395
  25   2.0000     -10.287452      -279.9358
  26   2.0000     -10.286711      -279.9156
  27   2.0000     -10.283959      -279.8408
  28   2.0000     -10.283022      -279.8152
  29   2.0000     -10.282494      -279.8009
  30   2.0000     -10.282154      -279.7916
  31   2.0000     -10.281802      -279.7821
  32   2.0000     -10.280660      -279.7510
  33   2.0000     -10.280525      -279.7473
  34   2.0000     -10.280489      -279.7463
  35   2.0000     -10.280208      -279.7387
  36   2.0000     -10.279324      -279.7146
  37   2.0000     -10.276882      -279.6482
  38   2.0000     -10.273479      -279.5556
  39   2.0000     -10.272956      -279.5414
  40   2.0000     -10.272407      -279.5264
  41   2.0000     -10.271795      -279.5098
  42   2.0000     -10.271022      -279.4887
  43   2.0000     -10.270781      -279.4822
  44   2.0000     -10.270390      -279.4715
  45   2.0000     -10.269901      -279.4582
  46   2.0000     -10.269504      -279.4474
  47   2.0000     -10.269293      -279.4417
  48   2.0000     -10.269022      -279.4343
  49   2.0000     -10.268772      -279.4275
  50   2.0000     -10.267460      -279.3918
  51   2.0000     -10.266541      -279.3668
  52   2.0000     -10.266095      -279.3546
  53   2.0000     -10.265964      -279.3511
  54   2.0000     -10.265799      -279.3466
  55   2.0000     -10.265328      -279.3338
  56   2.0000     -10.265237      -279.3313
  57   2.0000     -10.264611      -279.3143
  58   2.0000     -10.264373      -279.3078
  59   2.0000     -10.264160      -279.3020
  60   2.0000     -10.264053      -279.2991
  61   2.0000     -10.263951      -279.2963
  62   2.0000     -10.263582      -279.2863
  63   2.0000     -10.263366      -279.2804
  64   2.0000     -10.262860      -279.2666
  65   2.0000     -10.262732      -279.2631
  66   2.0000     -10.261557      -279.2311
  67   2.0000     -10.260957      -279.2148
  68   2.0000     -10.259816      -279.1838
  69   2.0000     -10.259549      -279.1765
  70   2.0000     -10.256406      -279.0910
  71   2.0000     -10.254739      -279.0456
  72   2.0000     -10.252616      -278.9879
  73   2.0000     -10.247069      -278.8369
  74   2.0000     -10.246394      -278.8186
  75   2.0000     -10.245072      -278.7826
  76   2.0000     -10.244140      -278.7572
  77   2.0000     -10.237740      -278.5831
  78   2.0000      -8.061044      -219.3522
  79   2.0000      -8.059381      -219.3069
  80   2.0000      -8.036637      -218.6880
  81   2.0000      -8.034804      -218.6381
  82   2.0000      -6.030175      -164.0894
  83   2.0000      -6.028567      -164.0456
  84   2.0000      -6.025731      -163.9685
  85   2.0000      -6.024143      -163.9253
  86   2.0000      -6.023705      -163.9133
  87   2.0000      -6.021939      -163.8653
  88   2.0000      -6.005698      -163.4234
  89   2.0000      -6.003923      -163.3751
  90   2.0000      -6.001736      -163.3155
  91   2.0000      -5.999836      -163.2638
  92   2.0000      -5.998973      -163.2403
  93   2.0000      -5.997237      -163.1931
  94   2.0000      -1.132177       -30.8081
  95   2.0000      -1.116801       -30.3897
  96   2.0000      -1.115625       -30.3577
  97   2.0000      -1.112321       -30.2678
  98   2.0000      -1.068183       -29.0667
  99   2.0000      -1.030499       -28.0413
 100   2.0000      -0.997759       -27.1504
 101   2.0000      -0.988092       -26.8874
 102   2.0000      -0.987532       -26.8721
 103   2.0000      -0.983553       -26.7638
 104   2.0000      -0.973131       -26.4803
 105   2.0000      -0.961149       -26.1542
 106   2.0000      -0.955334       -25.9959
 107   2.0000      -0.951521       -25.8922
 108   2.0000      -0.947723       -25.7888
 109   2.0000      -0.946340       -25.7512
 110   2.0000      -0.945339       -25.7240
 111   2.0000      -0.942761       -25.6538
 112   2.0000      -0.889646       -24.2085
 113   2.0000      -0.886085       -24.1116
 114   2.0000      -0.879613       -23.9355
 115   2.0000      -0.878875       -23.9154
 116   2.0000      -0.871418       -23.7125
 117   2.0000      -0.865537       -23.5524
 118   2.0000      -0.857518       -23.3343
 119   2.0000      -0.853759       -23.2320
 120   2.0000      -0.852461       -23.1966
 121   2.0000      -0.846542       -23.0356
 122   2.0000      -0.840419       -22.8690
 123   2.0000      -0.836812       -22.7708
 124   2.0000      -0.833877       -22.6909
 125   2.0000      -0.830164       -22.5899
 126   2.0000      -0.828005       -22.5312
 127   2.0000      -0.827582       -22.5196
 128   2.0000      -0.825099       -22.4521
 129   2.0000      -0.823592       -22.4111
 130   2.0000      -0.819837       -22.3089
 131   2.0000      -0.812598       -22.1119
 132   2.0000      -0.806178       -21.9372
 133   2.0000      -0.795457       -21.6455
 134   2.0000      -0.788346       -21.4520
 135   2.0000      -0.771118       -20.9832
 136   2.0000      -0.762237       -20.7415
 137   2.0000      -0.753840       -20.5130
 138   2.0000      -0.734636       -19.9905
 139   2.0000      -0.731419       -19.9029
 140   2.0000      -0.724534       -19.7156
 141   2.0000      -0.719363       -19.5749
 142   2.0000      -0.712853       -19.3977
 143   2.0000      -0.699204       -19.0263
 144   2.0000      -0.698552       -19.0086
 145   2.0000      -0.689577       -18.7643
 146   2.0000      -0.688067       -18.7232
 147   2.0000      -0.685239       -18.6463
 148   2.0000      -0.684290       -18.6205
 149   2.0000      -0.678259       -18.4564
 150   2.0000      -0.675871       -18.3914
 151   2.0000      -0.673678       -18.3317
 152   2.0000      -0.672498       -18.2996
 153   2.0000      -0.664463       -18.0810
 154   2.0000      -0.661388       -17.9973
 155   2.0000      -0.657401       -17.8888
 156   2.0000      -0.653689       -17.7878
 157   2.0000      -0.651228       -17.7208
 158   2.0000      -0.648095       -17.6356
 159   2.0000      -0.641565       -17.4579
 160   2.0000      -0.636959       -17.3325
 161   2.0000      -0.627222       -17.0676
 162   2.0000      -0.623957       -16.9787
 163   2.0000      -0.620584       -16.8869
 164   2.0000      -0.617585       -16.8054
 165   2.0000      -0.614874       -16.7316
 166   2.0000      -0.610220       -16.6049
 167   2.0000      -0.602666       -16.3994
 168   2.0000      -0.598228       -16.2786
 169   2.0000      -0.596139       -16.2218
 170   2.0000      -0.583660       -15.8822
 171   2.0000      -0.581772       -15.8308
 172   2.0000      -0.573557       -15.6073
 173   2.0000      -0.572055       -15.5664
 174   2.0000      -0.564597       -15.3635
 175   2.0000      -0.561469       -15.2783
 176   2.0000      -0.558483       -15.1971
 177   2.0000      -0.551069       -14.9953
 178   2.0000      -0.547138       -14.8884
 179   2.0000      -0.544815       -14.8252
 180   2.0000      -0.543905       -14.8004
 181   2.0000      -0.541640       -14.7388
 182   2.0000      -0.539444       -14.6790
 183   2.0000      -0.536426       -14.5969
 184   2.0000      -0.534839       -14.5537
 185   2.0000      -0.533813       -14.5258
 186   2.0000      -0.532791       -14.4980
 187   2.0000      -0.532117       -14.4796
 188   2.0000      -0.528853       -14.3908
 189   2.0000      -0.527521       -14.3546
 190   2.0000      -0.524693       -14.2776
 191   2.0000      -0.521984       -14.2039
 192   2.0000      -0.517615       -14.0850
 193   2.0000      -0.517057       -14.0698
 194   2.0000      -0.513310       -13.9679
 195   2.0000      -0.512848       -13.9553
 196   2.0000      -0.512226       -13.9384
 197   2.0000      -0.511664       -13.9231
 198   2.0000      -0.508902       -13.8479
 199   2.0000      -0.506378       -13.7792
 200   2.0000      -0.503640       -13.7047
 201   2.0000      -0.501940       -13.6585
 202   2.0000      -0.500340       -13.6150
 203   2.0000      -0.499037       -13.5795
 204   2.0000      -0.497670       -13.5423
 205   2.0000      -0.497053       -13.5255
 206   2.0000      -0.496686       -13.5155
 207   2.0000      -0.494899       -13.4669
 208   2.0000      -0.493137       -13.4189
 209   2.0000      -0.489887       -13.3305
 210   2.0000      -0.488493       -13.2926
 211   2.0000      -0.485617       -13.2143
 212   2.0000      -0.485345       -13.2069
 213   2.0000      -0.483945       -13.1688
 214   2.0000      -0.477665       -12.9979
 215   2.0000      -0.475881       -12.9494
 216   2.0000      -0.474185       -12.9032
 217   2.0000      -0.473780       -12.8922
 218   2.0000      -0.472860       -12.8672
 219   2.0000      -0.471748       -12.8369
 220   2.0000      -0.468696       -12.7539
 221   2.0000      -0.467670       -12.7260
 222   2.0000      -0.465036       -12.6543
 223   2.0000      -0.460823       -12.5396
 224   2.0000      -0.455781       -12.4024
 225   2.0000      -0.455407       -12.3923
 226   2.0000      -0.452869       -12.3232
 227   2.0000      -0.452496       -12.3130
 228   2.0000      -0.450235       -12.2515
 229   2.0000      -0.449799       -12.2397
 230   2.0000      -0.447935       -12.1889
 231   2.0000      -0.445526       -12.1234
 232   2.0000      -0.441932       -12.0256
 233   2.0000      -0.440221       -11.9790
 234   2.0000      -0.436639       -11.8816
 235   2.0000      -0.436048       -11.8655
 236   2.0000      -0.434381       -11.8201
 237   2.0000      -0.431356       -11.7378
 238   2.0000      -0.430204       -11.7064
 239   2.0000      -0.429466       -11.6864
 240   2.0000      -0.428409       -11.6576
 241   2.0000      -0.423687       -11.5291
 242   2.0000      -0.422518       -11.4973
 243   2.0000      -0.422065       -11.4850
 244   2.0000      -0.420238       -11.4353
 245   2.0000      -0.418260       -11.3814
 246   2.0000      -0.414006       -11.2657
 247   2.0000      -0.413471       -11.2511
 248   2.0000      -0.410329       -11.1656
 249   2.0000      -0.408968       -11.1286
 250   2.0000      -0.403402       -10.9771
 251   2.0000      -0.400051       -10.8859
 252   2.0000      -0.398033       -10.8310
 253   2.0000      -0.397741       -10.8231
 254   2.0000      -0.391028       -10.6404
 255   2.0000      -0.380646       -10.3579
 256   2.0000      -0.379188       -10.3182
 257   2.0000      -0.372183       -10.1276
 258   2.0000      -0.371195       -10.1007
 259   2.0000      -0.362625        -9.8675
 260   2.0000      -0.347331        -9.4514
 261   2.0000      -0.343907        -9.3582
 262   2.0000      -0.335440        -9.1278
 263   2.0000      -0.331061        -9.0086
 264   2.0000      -0.329703        -8.9717
 265   2.0000      -0.329201        -8.9580
 266   2.0000      -0.327624        -8.9151
 267   2.0000      -0.326104        -8.8738
 268   2.0000      -0.319506        -8.6942
 269   2.0000      -0.318048        -8.6545
 270   2.0000      -0.317299        -8.6341
 271   2.0000      -0.314573        -8.5600
 272   2.0000      -0.310498        -8.4491
 273   2.0000      -0.309742        -8.4285
 274   2.0000      -0.307474        -8.3668
 275   2.0000      -0.305507        -8.3133
 276   2.0000      -0.303929        -8.2703
 277   2.0000      -0.300849        -8.1865
 278   2.0000      -0.300068        -8.1653
 279   2.0000      -0.296348        -8.0640
 280   2.0000      -0.292635        -7.9630
 281   2.0000      -0.287827        -7.8322
 282   2.0000      -0.282912        -7.6984
 283   2.0000      -0.267848        -7.2885
 284   2.0000      -0.252513        -6.8712
 285   2.0000      -0.247148        -6.7252
 286   2.0000      -0.212525        -5.7831
 287   0.0000      -0.042440        -1.1549
 288   0.0000      -0.031709        -0.8628
 289   0.0000      -0.027638        -0.7521
 290   0.0000      -0.018016        -0.4902
 291   0.0000      -0.004247        -0.1156

MULLIKEN ATOMIC CHARGES
-----------------------
   0 C :   -0.108768
   1 S :    0.094882
   2 C :   -0.182136
   3 C :   -0.019605
   4 C :   -0.016813
   5 C :    0.069779
   6 N :   -0.183397
   7 C :    0.092280
   8 C :    0.068503
   9 C :    0.047674
  10 N :   -0.165585
  11 C :    0.097506
  12 C :   -0.061720
  13 C :    0.119149
  14 C :   -0.049925
  15 C :    0.122318
  16 O :   -0.199388
  17 C :    0.012340
  18 C :   -0.114090
  19 S :    0.137776
  20 C :   -0.113859
  21 C :    0.009591
  22 C :    0.111208
  23 O :   -0.170766
  24 C :   -0.020382
  25 C :    0.020935
  26 C :    0.016958
  27 C :    0.066743
  28 C :   -0.000158
  29 C :    0.024956
  30 C :    0.054124
  31 C :   -0.048472
  32 C :    0.164241
  33 C :   -0.148275
  34 C :    0.058895
  35 N :   -0.039848
  36 C :    0.117815
  37 C :   -0.197264
  38 C :    0.096214
  39 N :   -0.038738
  40 C :    0.099368
  41 C :   -0.170478
  42 C :    0.018990
  43 C :    0.004519
  44 C :    0.076048
  45 C :   -0.013629
  46 C :    0.082691
  47 O :   -0.165433
  48 C :    0.012812
  49 C :   -0.101468
  50 S :    0.136803
  51 C :   -0.106927
  52 C :   -0.046443
  53 C :    0.149466
  54 O :   -0.206712
  55 C :    0.011967
  56 C :    0.008007
  57 C :    0.024740
  58 C :    0.041492
  59 C :    0.021809
  60 C :    0.060439
  61 C :   -0.002273
  62 C :   -0.029804
  63 C :    0.104188
  64 C :    0.006016
  65 C :   -0.162608
  66 S :    0.120199
  67 C :   -0.123601
  68 C :   -0.049759
  69 C :   -0.019114
  70 C :    0.038049
  71 N :   -0.161488
  72 C :    0.066873
  73 C :    0.070362
  74 C :    0.056400
  75 N :   -0.169416
  76 C :    0.013114
  77 C :   -0.006919
  78 H :    0.010636
  79 H :   -0.011831
  80 H :    0.079192
  81 H :    0.084789
  82 H :    0.004468
  83 H :   -0.023730
  84 H :   -0.011356
  85 H :   -0.026964
  86 H :   -0.005638
  87 H :    0.098945
  88 H :    0.101469
  89 H :   -0.029899
  90 H :   -0.015616
  91 H :    0.032805
  92 H :    0.033565
  93 H :   -0.001356
  94 H :   -0.013580
  95 H :   -0.009904
  96 H :   -0.013748
  97 H :   -0.000830
  98 H :    0.000100
  99 H :   -0.025709
 100 H :   -0.059287
 101 H :    0.120614
 102 H :   -0.052940
 103 H :    0.125871
 104 H :   -0.029735
 105 H :   -0.030490
 106 H :   -0.023593
 107 H :    0.031293
 108 H :    0.031942
 109 H :   -0.004346
 110 H :   -0.011652
 111 H :   -0.008627
 112 H :   -0.016296
 113 H :   -0.002658
 114 H :   -0.014154
 115 H :   -0.023258
 116 H :   -0.043234
 117 H :    0.000933
 118 H :    0.095614
 119 H :    0.090886
 120 H :   -0.012524
 121 H :   -0.005186
 122 H :   -0.022448
 123 H :   -0.003862
 124 H :    0.000301
 125 H :    0.093873
 126 H :    0.092827
 127 H :   -0.016827
 128 H :    0.017268
 129 H :    0.010908
Sum of atomic charges:   -0.0000000

LOEWDIN ATOMIC CHARGES
----------------------
   0 C :   -0.175727
   1 S :    0.422842
   2 C :   -0.180266
   3 C :   -0.054966
   4 C :   -0.063819
   5 C :    0.019252
   6 N :   -0.104831
   7 C :   -0.042820
   8 C :   -0.031607
   9 C :    0.019006
  10 N :   -0.096943
  11 C :   -0.028640
  12 C :   -0.033884
  13 C :    0.015837
  14 C :   -0.080879
  15 C :    0.093295
  16 O :   -0.164978
  17 C :   -0.097719
  18 C :   -0.152384
  19 S :    0.462296
  20 C :   -0.157308
  21 C :   -0.092391
  22 C :    0.086386
  23 O :   -0.143545
  24 C :   -0.069111
  25 C :   -0.010810
  26 C :   -0.024260
  27 C :   -0.001201
  28 C :   -0.023973
  29 C :    0.019348
  30 C :    0.004230
  31 C :   -0.022287
  32 C :   -0.003854
  33 C :   -0.029100
  34 C :   -0.009677
  35 N :    0.065615
  36 C :   -0.030918
  37 C :   -0.103993
  38 C :   -0.007060
  39 N :    0.073707
  40 C :   -0.022918
  41 C :   -0.088332
  42 C :   -0.020069
  43 C :   -0.043148
  44 C :   -0.006954
  45 C :   -0.073472
  46 C :    0.082324
  47 O :   -0.131262
  48 C :   -0.086588
  49 C :   -0.162629
  50 S :    0.466255
  51 C :   -0.162289
  52 C :   -0.094996
  53 C :    0.108091
  54 O :   -0.149471
  55 C :   -0.074863
  56 C :    0.021163
  57 C :   -0.025852
  58 C :    0.004144
  59 C :   -0.022960
  60 C :    0.021297
  61 C :    0.004063
  62 C :   -0.038979
  63 C :   -0.025250
  64 C :    0.012708
  65 C :   -0.173427
  66 S :    0.444635
  67 C :   -0.160549
  68 C :   -0.069671
  69 C :   -0.066610
  70 C :    0.014917
  71 N :   -0.080992
  72 C :   -0.040633
  73 C :   -0.042349
  74 C :    0.019921
  75 N :   -0.081140
  76 C :   -0.056267
  77 C :   -0.037271
  78 H :    0.022972
  79 H :    0.024697
  80 H :    0.046026
  81 H :    0.049303
  82 H :    0.024036
  83 H :    0.013072
  84 H :    0.022393
  85 H :    0.007851
  86 H :    0.010446
  87 H :    0.052770
  88 H :    0.057772
  89 H :    0.017845
  90 H :    0.020757
  91 H :    0.030292
  92 H :    0.030915
  93 H :    0.031662
  94 H :    0.027168
  95 H :    0.029280
  96 H :    0.028446
  97 H :    0.035162
  98 H :    0.035297
  99 H :    0.030087
 100 H :    0.015934
 101 H :    0.083426
 102 H :    0.017505
 103 H :    0.065762
 104 H :    0.025921
 105 H :    0.029846
 106 H :    0.021041
 107 H :    0.027791
 108 H :    0.029812
 109 H :    0.033618
 110 H :    0.029622
 111 H :    0.030175
 112 H :    0.029134
 113 H :    0.032168
 114 H :    0.032370
 115 H :    0.020903
 116 H :    0.025665
 117 H :    0.021569
 118 H :    0.056055
 119 H :    0.052001
 120 H :    0.017737
 121 H :    0.020256
 122 H :    0.015709
 123 H :    0.022469
 124 H :    0.025519
 125 H :    0.054317
 126 H :    0.052256
 127 H :    0.023413
 128 H :    0.016145
 129 H :    0.020170

  Mayer bond orders larger than 0.100000
B(  0-C ,  1-S ) :   1.1588 B(  0-C ,  4-C ) :   1.5664 B(  0-C , 78-H ) :   0.9647
B(  1-S ,  2-C ) :   1.1260 B(  2-C ,  3-C ) :   1.5203 B(  2-C , 11-C ) :   1.1063
B(  3-C ,  4-C ) :   1.3268 B(  3-C ,  9-C ) :   1.0071 B(  4-C ,  5-C ) :   0.9798
B(  5-C ,  6-N ) :   1.1067 B(  5-C ,  7-C ) :   1.0591 B(  5-C , 79-H ) :   0.8997
B(  6-N , 80-H ) :   0.9719 B(  6-N , 81-H ) :   0.9721 B(  7-C ,  8-C ) :   1.0472
B(  7-C , 82-H ) :   0.9144 B(  7-C , 83-H ) :   0.9323 B(  8-C ,  9-C ) :   1.0605
B(  8-C , 84-H ) :   0.9246 B(  8-C , 85-H ) :   0.9359 B(  9-C , 10-N ) :   1.1038
B(  9-C , 86-H ) :   0.8943 B( 10-N , 87-H ) :   0.9707 B( 10-N , 88-H ) :   0.9659
B( 11-C , 12-C ) :   1.7184 B( 11-C , 89-H ) :   0.9372 B( 12-C , 13-C ) :   1.0770
B( 12-C , 90-H ) :   0.9326 B( 13-C , 14-C ) :   1.3236 B( 13-C , 33-C ) :   1.3706
B( 14-C , 15-C ) :   0.9517 B( 14-C , 30-C ) :   1.3528 B( 15-C , 16-O ) :   2.1185
B( 15-C , 17-C ) :   0.9479 B( 17-C , 18-C ) :   1.5445 B( 17-C , 21-C ) :   1.2484
B( 18-C , 19-S ) :   1.1920 B( 18-C , 91-H ) :   0.9662 B( 19-S , 20-C ) :   1.1786
B( 20-C , 21-C ) :   1.5704 B( 20-C , 92-H ) :   0.9684 B( 21-C , 22-C ) :   0.9137
B( 22-C , 23-O ) :   2.2391 B( 22-C , 24-C ) :   0.9385 B( 24-C , 25-C ) :   1.3834
B( 24-C , 29-C ) :   1.3801 B( 25-C , 26-C ) :   1.3889 B( 25-C , 93-H ) :   0.9798
B( 26-C , 27-C ) :   1.3976 B( 26-C , 94-H ) :   0.9830 B( 27-C , 28-C ) :   1.3623
B( 27-C , 95-H ) :   0.9898 B( 28-C , 29-C ) :   1.3691 B( 28-C , 96-H ) :   0.9975
B( 29-C , 97-H ) :   0.9978 B( 30-C , 31-C ) :   1.4097 B( 30-C , 98-H ) :   0.9744
B( 31-C , 32-C ) :   1.3316 B( 31-C , 99-H ) :   0.9978 B( 32-C , 33-C ) :   1.2967
B( 32-C , 34-C ) :   1.0100 B( 33-C ,100-H ) :   0.9871 B( 34-C , 35-N ) :   1.2008
B( 34-C , 41-C ) :   1.4349 B( 35-N , 36-C ) :   1.1554 B( 35-N ,101-H ) :   0.9329
B( 36-C , 37-C ) :   1.2304 B( 36-C , 40-C ) :   1.3287 B( 37-C , 38-C ) :   1.3614
B( 37-C ,102-H ) :   1.0428 B( 38-C , 39-N ) :   1.2246 B( 38-C , 42-C ) :   1.1276
B( 39-N , 40-C ) :   1.1892 B( 39-N ,103-H ) :   0.8811 B( 40-C , 41-C ) :   1.2349
B( 41-C ,104-H ) :   1.0333 B( 42-C , 43-C ) :   1.7326 B( 42-C ,105-H ) :   0.9572
B( 43-C , 44-C ) :   1.0284 B( 43-C ,106-H ) :   0.9389 B( 44-C , 45-C ) :   1.3273
B( 44-C , 64-C ) :   1.4034 B( 45-C , 46-C ) :   0.9441 B( 45-C , 61-C ) :   1.3729
B( 46-C , 47-O ) :   2.2030 B( 46-C , 48-C ) :   0.8905 B( 48-C , 49-C ) :   1.5760
B( 48-C , 52-C ) :   1.2970 B( 49-C , 50-S ) :   1.1871 B( 49-C ,107-H ) :   0.9618
B( 50-S , 51-C ) :   1.1820 B( 51-C , 52-C ) :   1.5709 B( 51-C ,108-H ) :   0.9743
B( 52-C , 53-C ) :   0.9135 B( 53-C , 54-O ) :   2.0658 B( 53-C , 55-C ) :   1.0031
B( 54-O ,103-H ) :   0.1221 B( 55-C , 56-C ) :   1.3603 B( 55-C , 60-C ) :   1.3665
B( 56-C , 57-C ) :   1.3817 B( 56-C ,109-H ) :   0.9998 B( 57-C , 58-C ) :   1.3730
B( 57-C ,110-H ) :   0.9927 B( 58-C , 59-C ) :   1.3858 B( 58-C ,111-H ) :   0.9917
B( 59-C , 60-C ) :   1.3990 B( 59-C ,112-H ) :   0.9888 B( 60-C ,113-H ) :   0.9766
B( 61-C , 62-C ) :   1.3682 B( 61-C ,114-H ) :   0.9972 B( 62-C , 63-C ) :   1.3395
B( 62-C ,115-H ) :   0.9950 B( 63-C , 64-C ) :   1.3495 B( 63-C , 65-C ) :   1.0007
B( 64-C ,116-H ) :   0.9860 B( 65-C , 66-S ) :   1.1356 B( 65-C , 67-C ) :   0.1043
B( 65-C , 69-C ) :   1.5723 B( 66-S , 67-C ) :   1.1313 B( 67-C , 68-C ) :   1.5448
B( 67-C , 76-C ) :   1.0852 B( 68-C , 69-C ) :   1.2833 B( 68-C , 74-C ) :   1.0169
B( 69-C , 70-C ) :   0.9885 B( 70-C , 71-N ) :   1.1166 B( 70-C , 72-C ) :   1.0603
B( 70-C ,117-H ) :   0.8761 B( 71-N ,118-H ) :   0.9607 B( 71-N ,119-H ) :   0.9647
B( 72-C , 73-C ) :   1.0741 B( 72-C ,120-H ) :   0.9271 B( 72-C ,121-H ) :   0.9267
B( 73-C , 74-C ) :   1.0579 B( 73-C ,122-H ) :   0.9151 B( 73-C ,123-H ) :   0.9234
B( 74-C , 75-N ) :   1.0709 B( 74-C ,124-H ) :   0.8785 B( 75-N ,125-H ) :   0.9603
B( 75-N ,126-H ) :   0.9691 B( 75-N ,128-H ) :   0.1081 B( 76-C , 77-C ) :   1.9515
B( 76-C ,127-H ) :   0.9470 B( 77-C ,128-H ) :   0.9217 B( 77-C ,129-H ) :   0.9426

-----------------------------------------------------------------------------
         ABSORPTION SPECTRUM VIA TRANSITION ELECTRIC DIPOLE MOMENTS
-----------------------------------------------------------------------------
State   Energy  Wavelength   fosc         T2         TX        TY        TZ
        (cm-1)    (nm)                  (au**2)     (au)      (au)      (au)
-----------------------------------------------------------------------------
   0   21723.5    460.3   1.134583435  17.19424   3.50262  -1.81595  -1.27601
   1   23261.4    429.9   0.046352694   0.65602   0.61124  -0.28311  -0.44971
   2   24417.4    409.5   0.014409832   0.19428  -0.31550   0.06949  -0.29986
   3   26918.5    371.5   0.268261940   3.28083  -1.01531  -0.20470  -1.48596
   4   27873.3    358.8   0.414518679   4.89589   1.77907  -1.20484  -0.52836
   5   30523.3    327.6   0.333757646   3.59978   1.64766  -0.71685  -0.60919
   6   30940.3    323.2   0.112294796   1.19484   0.29547   0.48102   0.93603
   7   31911.6    313.4   0.638303192   6.58497   0.41905   0.83734   2.38919
   8   32403.6    308.6   0.030577855   0.31066  -0.45843   0.28418   0.14052
   9   32778.2    305.1   0.193106276   1.93949  -0.83516   0.76511   0.81031
  10   33216.3    301.1   0.058413130   0.57894  -0.45474   0.44582  -0.41642
  11   34502.5    289.8   0.002316527   0.02210   0.07640  -0.10021  -0.07889
  12   34932.5    286.3   0.009234146   0.08702   0.07322  -0.21065  -0.19311
  13   35587.3    281.0   0.210989216   1.95182   1.10639  -0.05327   0.85141
  14   35798.4    279.3   0.030176854   0.27752  -0.14936  -0.33264  -0.38020
  15   35934.7    278.3   0.003066570   0.02809   0.00843   0.13808  -0.09465
  16   36469.3    274.2   0.180996583   1.63387  -0.14936  -0.59957  -1.11896
  17   36506.7    273.9   0.010198048   0.09196   0.07591  -0.27341   0.10700
  18   37344.8    267.8   0.154478920   1.36181  -0.94801   0.10797  -0.67187
  19   37642.6    265.7   0.233242077   2.03987  -0.51608  -0.46718  -1.24710
  20   37808.1    264.5   0.023151727   0.20159   0.39238  -0.14043   0.16708
  21   37913.6    263.8   0.017401562   0.15110   0.25809   0.08122   0.27910
  22   37958.1    263.4   0.061123912   0.53013  -0.62723   0.08189  -0.36056
  23   38535.2    259.5   0.018069002   0.15437  -0.28092   0.21642   0.16915
  24   39037.1    256.2   0.001641621   0.01384  -0.10767  -0.01015  -0.04636
  25   39120.6    255.6   0.077363296   0.65104  -0.77684   0.03352  -0.21548
  26   39770.5    251.4   0.030925583   0.25600  -0.43813   0.15215   0.20222
  27   39958.8    250.3   0.003315058   0.02731   0.16428   0.01591   0.00850
  28   40032.7    249.8   0.109086428   0.89708  -0.66333   0.51273  -0.44066
  29   40214.5    248.7   0.001510409   0.01236  -0.05919  -0.09321  -0.01315
  30   40295.5    248.2   0.027689442   0.22622  -0.24816   0.33300   0.23183

FINAL SINGLE POINT ENERGY     -4687.844998274164

DIPOLE MOMENT
-------------
                                X             Y             Z
Electronic contribution:    -25.34217      -3.54097     -50.60365
Nuclear contribution   :     24.65851       2.35871      51.70188
                        -----------------------------------------
Total Dipole Moment    :     -0.68366      -1.18227       1.09823
                        -----------------------------------------
Magnitude (a.u.)       :      1.75250
Magnitude (Debye)      :      4.45449

Rotational constants in cm-1:     0.001003     0.000308     0.000249
Rotational constants in MHz :    30.057020     9.219695     7.453548

                             ****ORCA TERMINATED NORMALLY****
TOTAL RUN TIME: 0 days 0 hours 13 minutes 27 seconds 773 msec
