                         Program Version 4.2.0 -  RELEASE  -
|  1> # ORCA input file
|  2> # SCF done       -194.885529988205          0.000801641444
|  3> ! CAM-B3LYP def2-SVP def2/J RIJCOSX Grid4 TightSCF
|  4> %maxcore 5000
|  5> %tddft
|  6>     Mode sTDDFT
|  7>     Ethresh 5.0
|  8>     maxcore 5000
|  9> end
| 10>
| 11> %pal
| 12>   nprocs 6
| 13>   end
| 14> * xyz 0 1
| 15>    C       -9.39736         2.81199        -9.25222
| 16>    C      -10.46557         2.03811        -9.62820
| 17>    C      -10.81941         1.77938       -10.96845
| 18>    N      -11.16058         1.52918       -12.03623
| 19>    C      -11.34738         1.36360        -8.75741
| 20>    N      -12.10667         0.76672        -8.13581
| 21>    C       -8.45158         3.44487       -10.16810
| 22>    C       -7.44016         4.08268        -9.40650
| 23>    C       -6.39554         4.76390        -9.98227
| 24>    C       -6.34533         4.82202       -11.37851
| 25>    C       -7.36003         4.18571       -12.13112
| 26>    C       -8.41662         3.49473       -11.54786
| 27>    S       -7.09932         4.38836       -13.83498
| 28>    C       -5.66297         5.30332       -13.53122
| 29>    C       -5.38531         5.45473       -12.21805
| 30>    C       -7.72067         3.88330        -7.97599
| 31>    O       -7.04211         4.28749        -7.04349
| 32>    C       -8.96723         3.11926        -7.90406
| 33>    C       -9.63510         2.80633        -6.74426
| 34>    C       -9.28021         3.06053        -5.41906
| 35>    S       -7.82007         3.77288        -4.79460
| 36>    C       -8.30746         3.57076        -3.15122
| 37>    C       -9.58912         3.00221        -3.06108
| 38>    C      -10.13073         2.70189        -4.34750
| 39>    N      -11.34045         2.14828        -4.50259
| 40>    C      -12.00815         1.91724        -3.40479
| 41>    N      -11.64115         2.23582        -2.15664
| 42>    C      -10.46352         2.77858        -1.98091
| 43>    C       -7.41494         3.94293        -2.08948
| 44>    C       -6.50899         4.96465        -2.28715
| 45>    C       -5.59864         5.30800        -1.27203
| 46>    C       -4.59225         6.26801        -1.22070
| 47>    C       -4.19806         7.28235        -2.23455
| 48>    C       -3.36619         6.66888        -3.38797
| 49>    N       -4.12221         5.65029        -4.08499
| 50>    C       -5.39267         8.04825        -2.83213
| 51>    N       -4.92234         9.32331        -3.34863
| 52>    C       -3.94139         6.11628         0.05931
| 53>    C       -2.88098         6.74864         0.59657
| 54>    C       -2.39724         6.42951         1.96615
| 55>    C       -3.09660         5.28268         2.62848
| 56>    C       -4.15515         4.65794         2.07538
| 57>    C       -4.61508         5.03435         0.79407
| 58>    C       -5.61885         4.55447        -0.02375
| 59>    C       -6.55745         3.51132         0.14815
| 60>    C       -7.42899         3.22029        -0.84978
| 61>    C       -2.66342         7.61208         2.86136
| 62>    C       -1.76229         8.09930         3.72774
| 63>    C       -2.01833         9.18774         4.60753
| 64>    S       -0.81211         9.70910         5.71919
| 65>    C       -1.79599        10.98269         6.38405
| 66>    C       -3.04757        10.98291         5.74567
| 67>    C       -3.17211         9.98133         4.73440
| 68>    N       -4.29525         9.84748         4.00619
| 69>    C       -5.25668        10.68457         4.28019
| 70>    N       -5.24762        11.66071         5.19936
| 71>    C       -4.16905        11.81757         5.91806
| 72>    C       -1.42698        11.77778         7.47946
| 73>    C       -0.21165        11.94318         8.08213
| 74>    C        1.13910        11.65195         7.66657
| 75>    C        1.62302        11.72361         6.38353
| 76>    C        2.97101        11.51079         6.03805
| 77>    N        4.05334        11.32496         5.70303
| 78>    C        0.82961        12.12089         5.29002
| 79>    N        0.21797        12.47942         4.38630
| 80>    C        1.95479        11.56752         8.87281
| 81>    C        1.18903        12.04364         9.96885
| 82>    C       -0.16812        12.38505         9.50209
| 83>    O       -1.07805        12.86780        10.13805
| 84>    C        1.70098        12.12605        11.24092
| 85>    C        3.02057        11.70822        11.44247
| 86>    C        3.76993        11.22261        10.34405
| 87>    C        3.25746        11.14919         9.05345
| 88>    S        5.36691        10.75167        10.83171
| 89>    C        5.02788        11.20396        12.46657
| 90>    C        3.77853        11.68440        12.64729
| 91>    H       -5.64115         5.23821        -9.37376
| 92>    H       -9.16490         3.02918       -12.16693
| 93>    H       -5.10738         5.67697       -14.36928
| 94>    H       -4.53472         5.99312       -11.84064
| 95>    H      -10.58910         2.29653        -6.81962
| 96>    H      -12.97514         1.44455        -3.51033
| 97>    H      -10.21619         3.07320        -0.96898
| 98>    H       -6.49142         5.49293        -3.22625
| 99>    H       -3.55281         8.01977        -1.74532
|100>    H       -2.41249         6.30161        -2.97402
|101>    H       -3.15466         7.48229        -4.08460
|102>    H       -4.10843         4.77159        -3.58128
|103>    H       -3.76568         5.49240        -5.01801
|104>    H       -6.18089         8.14876        -2.06768
|105>    H       -5.79089         7.48001        -3.67297
|106>    H       -4.67350         9.94710        -2.58749
|107>    H       -5.64691         9.77495        -3.89442
|108>    H       -2.35703         7.53946         0.07740
|109>    H       -1.31532         6.24584         1.93981
|110>    H       -2.72753         5.00784         3.60430
|111>    H       -4.64525         3.84555         2.59220
|112>    H       -6.55981         2.94334         1.06665
|113>    H       -8.11509         2.39453        -0.74624
|114>    H       -3.65565         8.03431         2.81953
|115>    H       -0.76925         7.67094         3.78812
|116>    H       -6.16718        10.58800         3.70382
|117>    H       -4.17995        12.61793         6.64668
|118>    H       -2.25193        12.26026         7.99632
|119>    H        1.10210        12.50137        12.05611
|120>    H        3.86095        10.76837         8.24581
|121>    H        5.79809        11.07894        13.20260
|122>    H        3.39118        12.01373        13.59441
|123> *
|124>
|125>                          ****END OF INPUT****

CARTESIAN COORDINATES (ANGSTROEM)
---------------------------------
  C     -9.397360    2.811990   -9.252220
  C    -10.465570    2.038110   -9.628200
  C    -10.819410    1.779380  -10.968450
  N    -11.160580    1.529180  -12.036230
  C    -11.347380    1.363600   -8.757410
  N    -12.106670    0.766720   -8.135810
  C     -8.451580    3.444870  -10.168100
  C     -7.440160    4.082680   -9.406500
  C     -6.395540    4.763900   -9.982270
  C     -6.345330    4.822020  -11.378510
  C     -7.360030    4.185710  -12.131120
  C     -8.416620    3.494730  -11.547860
  S     -7.099320    4.388360  -13.834980
  C     -5.662970    5.303320  -13.531220
  C     -5.385310    5.454730  -12.218050
  C     -7.720670    3.883300   -7.975990
  O     -7.042110    4.287490   -7.043490
  C     -8.967230    3.119260   -7.904060
  C     -9.635100    2.806330   -6.744260
  C     -9.280210    3.060530   -5.419060
  S     -7.820070    3.772880   -4.794600
  C     -8.307460    3.570760   -3.151220
  C     -9.589120    3.002210   -3.061080
  C    -10.130730    2.701890   -4.347500
  N    -11.340450    2.148280   -4.502590
  C    -12.008150    1.917240   -3.404790
  N    -11.641150    2.235820   -2.156640
  C    -10.463520    2.778580   -1.980910
  C     -7.414940    3.942930   -2.089480
  C     -6.508990    4.964650   -2.287150
  C     -5.598640    5.308000   -1.272030
  C     -4.592250    6.268010   -1.220700
  C     -4.198060    7.282350   -2.234550
  C     -3.366190    6.668880   -3.387970
  N     -4.122210    5.650290   -4.084990
  C     -5.392670    8.048250   -2.832130
  N     -4.922340    9.323310   -3.348630
  C     -3.941390    6.116280    0.059310
  C     -2.880980    6.748640    0.596570
  C     -2.397240    6.429510    1.966150
  C     -3.096600    5.282680    2.628480
  C     -4.155150    4.657940    2.075380
  C     -4.615080    5.034350    0.794070
  C     -5.618850    4.554470   -0.023750
  C     -6.557450    3.511320    0.148150
  C     -7.428990    3.220290   -0.849780
  C     -2.663420    7.612080    2.861360
  C     -1.762290    8.099300    3.727740
  C     -2.018330    9.187740    4.607530
  S     -0.812110    9.709100    5.719190
  C     -1.795990   10.982690    6.384050
  C     -3.047570   10.982910    5.745670
  C     -3.172110    9.981330    4.734400
  N     -4.295250    9.847480    4.006190
  C     -5.256680   10.684570    4.280190
  N     -5.247620   11.660710    5.199360
  C     -4.169050   11.817570    5.918060
  C     -1.426980   11.777780    7.479460
  C     -0.211650   11.943180    8.082130
  C      1.139100   11.651950    7.666570
  C      1.623020   11.723610    6.383530
  C      2.971010   11.510790    6.038050
  N      4.053340   11.324960    5.703030
  C      0.829610   12.120890    5.290020
  N      0.217970   12.479420    4.386300
  C      1.954790   11.567520    8.872810
  C      1.189030   12.043640    9.968850
  C     -0.168120   12.385050    9.502090
  O     -1.078050   12.867800   10.138050
  C      1.700980   12.126050   11.240920
  C      3.020570   11.708220   11.442470
  C      3.769930   11.222610   10.344050
  C      3.257460   11.149190    9.053450
  S      5.366910   10.751670   10.831710
  C      5.027880   11.203960   12.466570
  C      3.778530   11.684400   12.647290
  H     -5.641150    5.238210   -9.373760
  H     -9.164900    3.029180  -12.166930
  H     -5.107380    5.676970  -14.369280
  H     -4.534720    5.993120  -11.840640
  H    -10.589100    2.296530   -6.819620
  H    -12.975140    1.444550   -3.510330
  H    -10.216190    3.073200   -0.968980
  H     -6.491420    5.492930   -3.226250
  H     -3.552810    8.019770   -1.745320
  H     -2.412490    6.301610   -2.974020
  H     -3.154660    7.482290   -4.084600
  H     -4.108430    4.771590   -3.581280
  H     -3.765680    5.492400   -5.018010
  H     -6.180890    8.148760   -2.067680
  H     -5.790890    7.480010   -3.672970
  H     -4.673500    9.947100   -2.587490
  H     -5.646910    9.774950   -3.894420
  H     -2.357030    7.539460    0.077400
  H     -1.315320    6.245840    1.939810
  H     -2.727530    5.007840    3.604300
  H     -4.645250    3.845550    2.592200
  H     -6.559810    2.943340    1.066650
  H     -8.115090    2.394530   -0.746240
  H     -3.655650    8.034310    2.819530
  H     -0.769250    7.670940    3.788120
  H     -6.167180   10.588000    3.703820
  H     -4.179950   12.617930    6.646680
  H     -2.251930   12.260260    7.996320
  H      1.102100   12.501370   12.056110
  H      3.860950   10.768370    8.245810
  H      5.798090   11.078940   13.202600
  H      3.391180   12.013730   13.594410

 Total Charge           Charge          ....    0
 Multiplicity           Mult            ....    1
 Number of Electrons    NEL             ....  542
 Basis Dimension        Dim             .... 1240

ORBITAL ENERGIES
----------------

  NO   OCC          E(Eh)            E(eV)
   0   2.0000     -88.999162     -2421.7903
   1   2.0000     -88.977124     -2421.1906
   2   2.0000     -88.969614     -2420.9863
   3   2.0000     -88.959668     -2420.7156
   4   2.0000     -19.216003      -522.8940
   5   2.0000     -19.211423      -522.7694
   6   2.0000     -14.428701      -392.6249
   7   2.0000     -14.425838      -392.5470
   8   2.0000     -14.418744      -392.3540
   9   2.0000     -14.418562      -392.3490
  10   2.0000     -14.410391      -392.1267
  11   2.0000     -14.408433      -392.0734
  12   2.0000     -14.401639      -391.8885
  13   2.0000     -14.400232      -391.8502
  14   2.0000     -14.382542      -391.3689
  15   2.0000     -14.380232      -391.3060
  16   2.0000     -10.367762      -282.1211
  17   2.0000     -10.358697      -281.8745
  18   2.0000     -10.347294      -281.5642
  19   2.0000     -10.345768      -281.5227
  20   2.0000     -10.345186      -281.5068
  21   2.0000     -10.344423      -281.4861
  22   2.0000     -10.339882      -281.3625
  23   2.0000     -10.335541      -281.2444
  24   2.0000     -10.334459      -281.2149
  25   2.0000     -10.332639      -281.1654
  26   2.0000     -10.331937      -281.1463
  27   2.0000     -10.327880      -281.0359
  28   2.0000     -10.327789      -281.0334
  29   2.0000     -10.326792      -281.0063
  30   2.0000     -10.325563      -280.9728
  31   2.0000     -10.324666      -280.9484
  32   2.0000     -10.323620      -280.9200
  33   2.0000     -10.321471      -280.8615
  34   2.0000     -10.320450      -280.8337
  35   2.0000     -10.316649      -280.7303
  36   2.0000     -10.314168      -280.6628
  37   2.0000     -10.314130      -280.6618
  38   2.0000     -10.312369      -280.6138
  39   2.0000     -10.309842      -280.5451
  40   2.0000     -10.308078      -280.4970
  41   2.0000     -10.307378      -280.4780
  42   2.0000     -10.307072      -280.4697
  43   2.0000     -10.306527      -280.4549
  44   2.0000     -10.305259      -280.4204
  45   2.0000     -10.304883      -280.4101
  46   2.0000     -10.304152      -280.3902
  47   2.0000     -10.303431      -280.3706
  48   2.0000     -10.302686      -280.3503
  49   2.0000     -10.301858      -280.3278
  50   2.0000     -10.301448      -280.3167
  51   2.0000     -10.299862      -280.2735
  52   2.0000     -10.296435      -280.1803
  53   2.0000     -10.294530      -280.1284
  54   2.0000     -10.293767      -280.1076
  55   2.0000     -10.293756      -280.1073
  56   2.0000     -10.293707      -280.1060
  57   2.0000     -10.293695      -280.1057
  58   2.0000     -10.291691      -280.0511
  59   2.0000     -10.291485      -280.0456
  60   2.0000     -10.285156      -279.8733
  61   2.0000     -10.283720      -279.8343
  62   2.0000     -10.282965      -279.8137
  63   2.0000     -10.282936      -279.8129
  64   2.0000     -10.282391      -279.7981
  65   2.0000     -10.281598      -279.7765
  66   2.0000     -10.281440      -279.7722
  67   2.0000     -10.281243      -279.7669
  68   2.0000     -10.280723      -279.7527
  69   2.0000     -10.280112      -279.7361
  70   2.0000     -10.278076      -279.6807
  71   2.0000     -10.275659      -279.6149
  72   2.0000     -10.273446      -279.5547
  73   2.0000     -10.273404      -279.5535
  74   2.0000     -10.273033      -279.5435
  75   2.0000     -10.268221      -279.4125
  76   2.0000      -8.093566      -220.2371
  77   2.0000      -8.069385      -219.5791
  78   2.0000      -8.065780      -219.4810
  79   2.0000      -8.055885      -219.2118
  80   2.0000      -6.062346      -164.9648
  81   2.0000      -6.058261      -164.8537
  82   2.0000      -6.056756      -164.8127
  83   2.0000      -6.038478      -164.3153
  84   2.0000      -6.035279      -164.2283
  85   2.0000      -6.033842      -164.1892
  86   2.0000      -6.032536      -164.1536
  87   2.0000      -6.030999      -164.1118
  88   2.0000      -6.027502      -164.0167
  89   2.0000      -6.025387      -163.9591
  90   2.0000      -6.021107      -163.8426
  91   2.0000      -6.017567      -163.7463
  92   2.0000      -1.131088       -30.7785
  93   2.0000      -1.125659       -30.6307
  94   2.0000      -1.098129       -29.8816
  95   2.0000      -1.083636       -29.4872
  96   2.0000      -1.025414       -27.9029
  97   2.0000      -1.016318       -27.6554
  98   2.0000      -1.010610       -27.5001
  99   2.0000      -1.008820       -27.4514
 100   2.0000      -1.000562       -27.2267
 101   2.0000      -0.997483       -27.1429
 102   2.0000      -0.997399       -27.1406
 103   2.0000      -0.993572       -27.0365
 104   2.0000      -0.991867       -26.9901
 105   2.0000      -0.986581       -26.8462
 106   2.0000      -0.979481       -26.6530
 107   2.0000      -0.976740       -26.5784
 108   2.0000      -0.974313       -26.5124
 109   2.0000      -0.970423       -26.4066
 110   2.0000      -0.955360       -25.9967
 111   2.0000      -0.951195       -25.8833
 112   2.0000      -0.935475       -25.4556
 113   2.0000      -0.927957       -25.2510
 114   2.0000      -0.920311       -25.0429
 115   2.0000      -0.913417       -24.8554
 116   2.0000      -0.898978       -24.4624
 117   2.0000      -0.893771       -24.3207
 118   2.0000      -0.884356       -24.0646
 119   2.0000      -0.882420       -24.0119
 120   2.0000      -0.879625       -23.9358
 121   2.0000      -0.875752       -23.8304
 122   2.0000      -0.872038       -23.7294
 123   2.0000      -0.869305       -23.6550
 124   2.0000      -0.859098       -23.3772
 125   2.0000      -0.845908       -23.0183
 126   2.0000      -0.836838       -22.7715
 127   2.0000      -0.836112       -22.7518
 128   2.0000      -0.825780       -22.4706
 129   2.0000      -0.818552       -22.2739
 130   2.0000      -0.814943       -22.1757
 131   2.0000      -0.803112       -21.8538
 132   2.0000      -0.781814       -21.2742
 133   2.0000      -0.771339       -20.9892
 134   2.0000      -0.769879       -20.9495
 135   2.0000      -0.766302       -20.8521
 136   2.0000      -0.758581       -20.6420
 137   2.0000      -0.754953       -20.5433
 138   2.0000      -0.750403       -20.4195
 139   2.0000      -0.746551       -20.3147
 140   2.0000      -0.729370       -19.8472
 141   2.0000      -0.725137       -19.7320
 142   2.0000      -0.720816       -19.6144
 143   2.0000      -0.712906       -19.3992
 144   2.0000      -0.702359       -19.1122
 145   2.0000      -0.697262       -18.9735
 146   2.0000      -0.689289       -18.7565
 147   2.0000      -0.682759       -18.5788
 148   2.0000      -0.680111       -18.5068
 149   2.0000      -0.677609       -18.4387
 150   2.0000      -0.674190       -18.3456
 151   2.0000      -0.671840       -18.2817
 152   2.0000      -0.665114       -18.0987
 153   2.0000      -0.664804       -18.0902
 154   2.0000      -0.656397       -17.8615
 155   2.0000      -0.653722       -17.7887
 156   2.0000      -0.649045       -17.6614
 157   2.0000      -0.637902       -17.3582
 158   2.0000      -0.634999       -17.2792
 159   2.0000      -0.623732       -16.9726
 160   2.0000      -0.622370       -16.9356
 161   2.0000      -0.612319       -16.6620
 162   2.0000      -0.611331       -16.6352
 163   2.0000      -0.606695       -16.5090
 164   2.0000      -0.604849       -16.4588
 165   2.0000      -0.598932       -16.2978
 166   2.0000      -0.596701       -16.2371
 167   2.0000      -0.595272       -16.1982
 168   2.0000      -0.591470       -16.0947
 169   2.0000      -0.587990       -16.0000
 170   2.0000      -0.582877       -15.8609
 171   2.0000      -0.577305       -15.7093
 172   2.0000      -0.567346       -15.4383
 173   2.0000      -0.566680       -15.4201
 174   2.0000      -0.555839       -15.1252
 175   2.0000      -0.552747       -15.0410
 176   2.0000      -0.551293       -15.0014
 177   2.0000      -0.549503       -14.9527
 178   2.0000      -0.548318       -14.9205
 179   2.0000      -0.544131       -14.8066
 180   2.0000      -0.542173       -14.7533
 181   2.0000      -0.541024       -14.7220
 182   2.0000      -0.539512       -14.6809
 183   2.0000      -0.537141       -14.6164
 184   2.0000      -0.535316       -14.5667
 185   2.0000      -0.532707       -14.4957
 186   2.0000      -0.531635       -14.4665
 187   2.0000      -0.530608       -14.4386
 188   2.0000      -0.528841       -14.3905
 189   2.0000      -0.526846       -14.3362
 190   2.0000      -0.523601       -14.2479
 191   2.0000      -0.523207       -14.2372
 192   2.0000      -0.518266       -14.1027
 193   2.0000      -0.513603       -13.9759
 194   2.0000      -0.513513       -13.9734
 195   2.0000      -0.511205       -13.9106
 196   2.0000      -0.509217       -13.8565
 197   2.0000      -0.507701       -13.8153
 198   2.0000      -0.500920       -13.6307
 199   2.0000      -0.498950       -13.5771
 200   2.0000      -0.498727       -13.5710
 201   2.0000      -0.497398       -13.5349
 202   2.0000      -0.493605       -13.4317
 203   2.0000      -0.492216       -13.3939
 204   2.0000      -0.491748       -13.3811
 205   2.0000      -0.489136       -13.3101
 206   2.0000      -0.484725       -13.1900
 207   2.0000      -0.483757       -13.1637
 208   2.0000      -0.481829       -13.1112
 209   2.0000      -0.480817       -13.0837
 210   2.0000      -0.475324       -12.9342
 211   2.0000      -0.470654       -12.8071
 212   2.0000      -0.468120       -12.7382
 213   2.0000      -0.465720       -12.6729
 214   2.0000      -0.462131       -12.5752
 215   2.0000      -0.457557       -12.4508
 216   2.0000      -0.457090       -12.4381
 217   2.0000      -0.453852       -12.3499
 218   2.0000      -0.452395       -12.3103
 219   2.0000      -0.451466       -12.2850
 220   2.0000      -0.447740       -12.1836
 221   2.0000      -0.446626       -12.1533
 222   2.0000      -0.446181       -12.1412
 223   2.0000      -0.444117       -12.0850
 224   2.0000      -0.439605       -11.9623
 225   2.0000      -0.435703       -11.8561
 226   2.0000      -0.435073       -11.8389
 227   2.0000      -0.434700       -11.8288
 228   2.0000      -0.433340       -11.7918
 229   2.0000      -0.429627       -11.6907
 230   2.0000      -0.429464       -11.6863
 231   2.0000      -0.427653       -11.6370
 232   2.0000      -0.426469       -11.6048
 233   2.0000      -0.424715       -11.5571
 234   2.0000      -0.424207       -11.5433
 235   2.0000      -0.420761       -11.4495
 236   2.0000      -0.417848       -11.3702
 237   2.0000      -0.413853       -11.2615
 238   2.0000      -0.413037       -11.2393
 239   2.0000      -0.406890       -11.0720
 240   2.0000      -0.403289       -10.9741
 241   2.0000      -0.400187       -10.8896
 242   2.0000      -0.399019       -10.8579
 243   2.0000      -0.393686       -10.7127
 244   2.0000      -0.393485       -10.7073
 245   2.0000      -0.391806       -10.6616
 246   2.0000      -0.387707       -10.5501
 247   2.0000      -0.384872       -10.4729
 248   2.0000      -0.378831       -10.3085
 249   2.0000      -0.374500       -10.1906
 250   2.0000      -0.371550       -10.1104
 251   2.0000      -0.370696       -10.0872
 252   2.0000      -0.353385        -9.6161
 253   2.0000      -0.351532        -9.5657
 254   2.0000      -0.350878        -9.5479
 255   2.0000      -0.341546        -9.2940
 256   2.0000      -0.339331        -9.2337
 257   2.0000      -0.336204        -9.1486
 258   2.0000      -0.333950        -9.0872
 259   2.0000      -0.330573        -8.9953
 260   2.0000      -0.324252        -8.8233
 261   2.0000      -0.318384        -8.6637
 262   2.0000      -0.316293        -8.6068
 263   2.0000      -0.306550        -8.3417
 264   2.0000      -0.306150        -8.3308
 265   2.0000      -0.303204        -8.2506
 266   2.0000      -0.298479        -8.1220
 267   2.0000      -0.287291        -7.8176
 268   2.0000      -0.271070        -7.3762
 269   2.0000      -0.261907        -7.1268
 270   2.0000      -0.229366        -6.2414
 271   0.0000      -0.111183        -3.0254
 272   0.0000      -0.095614        -2.6018
 273   0.0000      -0.070286        -1.9126
 274   0.0000      -0.066806        -1.8179
 275   0.0000      -0.052157        -1.4193

MULLIKEN ATOMIC CHARGES
-----------------------
   0 C :    0.328319
   1 C :   -0.356803
   2 C :   -0.189522
   3 N :    0.142271
   4 C :   -0.203959
   5 N :    0.160675
   6 C :    0.011117
   7 C :   -0.010244
   8 C :   -0.072808
   9 C :    0.115342
  10 C :   -0.097933
  11 C :   -0.024536
  12 S :    0.137692
  13 C :   -0.049693
  14 C :    0.021928
  15 C :    0.162816
  16 O :   -0.198725
  17 C :   -0.096348
  18 C :   -0.053493
  19 C :   -0.119582
  20 S :    0.244998
  21 C :   -0.104863
  22 C :    0.074294
  23 C :    0.027251
  24 N :   -0.047346
  25 C :    0.084095
  26 N :   -0.105616
  27 C :    0.024145
  28 C :    0.103395
  29 C :   -0.101616
  30 C :    0.021326
  31 C :   -0.026317
  32 C :   -0.022076
  33 C :    0.146477
  34 N :   -0.234740
  35 C :    0.112532
  36 N :   -0.220294
  37 C :    0.105289
  38 C :   -0.137007
  39 C :    0.119956
  40 C :   -0.025905
  41 C :    0.023832
  42 C :    0.014455
  43 C :    0.037711
  44 C :   -0.005267
  45 C :   -0.017898
  46 C :   -0.020920
  47 C :    0.022714
  48 C :   -0.100113
  49 S :    0.214547
  50 C :   -0.121860
  51 C :    0.089858
  52 C :    0.032238
  53 N :   -0.058375
  54 C :    0.077280
  55 N :   -0.091652
  56 C :    0.032688
  57 C :    0.020677
  58 C :   -0.134147
  59 C :    0.246713
  60 C :   -0.330948
  61 C :   -0.171199
  62 N :    0.152030
  63 C :   -0.222265
  64 N :    0.174351
  65 C :    0.003842
  66 C :    0.002129
  67 C :    0.135216
  68 O :   -0.148426
  69 C :   -0.067197
  70 C :    0.107232
  71 C :   -0.094261
  72 C :   -0.021572
  73 S :    0.139649
  74 C :   -0.051231
  75 C :    0.028815
  76 H :   -0.018811
  77 H :   -0.008632
  78 H :    0.035492
  79 H :   -0.010492
  80 H :    0.029530
  81 H :    0.024535
  82 H :    0.011424
  83 H :    0.002846
  84 H :   -0.036599
  85 H :   -0.020420
  86 H :    0.005833
  87 H :    0.104058
  88 H :    0.103647
  89 H :   -0.005895
  90 H :    0.018775
  91 H :    0.090155
  92 H :    0.093396
  93 H :    0.006164
  94 H :    0.027292
  95 H :   -0.009398
  96 H :   -0.030949
  97 H :   -0.032400
  98 H :   -0.020051
  99 H :    0.038053
 100 H :   -0.019371
 101 H :    0.019906
 102 H :    0.018410
 103 H :    0.021927
 104 H :   -0.010694
 105 H :   -0.004673
 106 H :    0.040007
 107 H :   -0.006205
Sum of atomic charges:   -0.0000000

LOEWDIN ATOMIC CHARGES
----------------------
   0 C :    0.075511
   1 C :   -0.145935
   2 C :   -0.017324
   3 N :   -0.062920
   4 C :   -0.026785
   5 N :   -0.047083
   6 C :   -0.019575
   7 C :   -0.053148
   8 C :    0.018929
   9 C :   -0.038298
  10 C :   -0.146709
  11 C :   -0.010208
  12 S :    0.427035
  13 C :   -0.152890
  14 C :   -0.059501
  15 C :    0.084195
  16 O :   -0.184507
  17 C :   -0.120545
  18 C :    0.065288
  19 C :   -0.216896
  20 S :    0.578839
  21 C :   -0.127309
  22 C :   -0.104609
  23 C :    0.009967
  24 N :   -0.076599
  25 C :    0.059369
  26 N :   -0.097975
  27 C :    0.070519
  28 C :   -0.059486
  29 C :    0.007009
  30 C :   -0.025756
  31 C :   -0.020952
  32 C :   -0.043013
  33 C :    0.030672
  34 N :   -0.103224
  35 C :    0.024537
  36 N :   -0.116310
  37 C :   -0.015717
  38 C :    0.070518
  39 C :   -0.029639
  40 C :   -0.026843
  41 C :   -0.012841
  42 C :   -0.035970
  43 C :   -0.029029
  44 C :   -0.006130
  45 C :   -0.029076
  46 C :    0.045538
  47 C :   -0.067999
  48 C :   -0.140961
  49 S :    0.548778
  50 C :   -0.191091
  51 C :   -0.059203
  52 C :   -0.025447
  53 N :   -0.070720
  54 C :    0.045805
  55 N :   -0.078164
  56 C :    0.072049
  57 C :    0.043961
  58 C :   -0.102862
  59 C :    0.062131
  60 C :   -0.152349
  61 C :   -0.021331
  62 N :   -0.053488
  63 C :   -0.038831
  64 N :   -0.051392
  65 C :   -0.019554
  66 C :   -0.054588
  67 C :    0.082651
  68 O :   -0.148241
  69 C :    0.024050
  70 C :   -0.036155
  71 C :   -0.145337
  72 C :   -0.012447
  73 S :    0.428944
  74 C :   -0.149897
  75 C :   -0.057113
  76 H :    0.037440
  77 H :    0.040300
  78 H :    0.028061
  79 H :    0.033611
  80 H :    0.054076
  81 H :    0.023629
  82 H :    0.027132
  83 H :    0.024713
  84 H :    0.021714
  85 H :   -0.002032
  86 H :    0.021000
  87 H :    0.054737
  88 H :    0.060371
  89 H :   -0.000185
  90 H :    0.020365
  91 H :    0.051171
  92 H :    0.055728
  93 H :    0.033452
  94 H :    0.052127
  95 H :    0.026079
  96 H :    0.031858
  97 H :    0.029508
  98 H :    0.027871
  99 H :    0.034342
 100 H :    0.028160
 101 H :    0.021459
 102 H :    0.030442
 103 H :    0.050139
 104 H :    0.041002
 105 H :    0.040188
 106 H :    0.029708
 107 H :    0.035514

  Mayer bond orders larger than 0.100000
B(  0-C ,  1-C ) :   1.6180 B(  0-C ,  6-C ) :   0.9913 B(  0-C , 17-C ) :   1.0902
B(  1-C ,  2-C ) :   1.1484 B(  1-C ,  4-C ) :   1.1451 B(  2-C ,  3-N ) :   2.9658
B(  4-C ,  5-N ) :   2.9747 B(  6-C ,  7-C ) :   1.2721 B(  6-C , 11-C ) :   1.4224
B(  7-C ,  8-C ) :   1.4248 B(  7-C , 15-C ) :   0.9599 B(  8-C ,  9-C ) :   1.2427
B(  8-C , 76-H ) :   1.0162 B(  9-C , 10-C ) :   1.3083 B(  9-C , 14-C ) :   1.1702
B( 10-C , 11-C ) :   1.3153 B( 10-C , 12-S ) :   1.0984 B( 11-C , 77-H ) :   0.9819
B( 12-S , 13-C ) :   1.1258 B( 13-C , 14-C ) :   1.6286 B( 13-C , 78-H ) :   0.9688
B( 14-C , 79-H ) :   0.9991 B( 15-C , 16-O ) :   2.1048 B( 15-C , 17-C ) :   0.9953
B( 17-C , 18-C ) :   1.4326 B( 18-C , 19-C ) :   1.3303 B( 18-C , 80-H ) :   0.9363
B( 19-C , 20-S ) :   1.0875 B( 19-C , 23-C ) :   1.2577 B( 20-S , 21-C ) :   1.2402
B( 21-C , 22-C ) :   1.2417 B( 21-C , 28-C ) :   1.0775 B( 22-C , 23-C ) :   1.2148
B( 22-C , 27-C ) :   1.2044 B( 23-C , 24-N ) :   1.4507 B( 24-N , 25-C ) :   1.6188
B( 25-C , 26-N ) :   1.3692 B( 25-C , 81-H ) :   0.9746 B( 26-N , 27-C ) :   1.6876
B( 27-C , 82-H ) :   0.9820 B( 28-C , 29-C ) :   1.4597 B( 28-C , 45-C ) :   1.1257
B( 29-C , 30-C ) :   1.1590 B( 29-C , 83-H ) :   0.9890 B( 30-C , 31-C ) :   1.4562
B( 30-C , 43-C ) :   1.1148 B( 31-C , 32-C ) :   1.0131 B( 31-C , 37-C ) :   1.1171
B( 32-C , 33-C ) :   1.0211 B( 32-C , 35-C ) :   1.0282 B( 32-C , 84-H ) :   0.8893
B( 33-C , 34-N ) :   1.1052 B( 33-C , 85-H ) :   0.9405 B( 33-C , 86-H ) :   0.9326
B( 34-N , 87-H ) :   0.9606 B( 34-N , 88-H ) :   0.9689 B( 35-C , 36-N ) :   1.0954
B( 35-C , 89-H ) :   0.9573 B( 35-C , 90-H ) :   0.9228 B( 36-N , 91-H ) :   0.9712
B( 36-N , 92-H ) :   0.9686 B( 37-C , 38-C ) :   1.6527 B( 37-C , 42-C ) :   1.0398
B( 38-C , 39-C ) :   0.9664 B( 38-C , 93-H ) :   0.9765 B( 39-C , 40-C ) :   0.9889
B( 39-C , 46-C ) :   0.9373 B( 39-C , 94-H ) :   0.8829 B( 40-C , 41-C ) :   1.7034
B( 40-C , 95-H ) :   0.9686 B( 41-C , 42-C ) :   1.1375 B( 41-C , 96-H ) :   0.9890
B( 42-C , 43-C ) :   1.4380 B( 43-C , 44-C ) :   1.1422 B( 44-C , 45-C ) :   1.6152
B( 44-C , 97-H ) :   0.9917 B( 45-C , 98-H ) :   0.9827 B( 46-C , 47-C ) :   1.7597
B( 46-C , 99-H ) :   0.9390 B( 47-C , 48-C ) :   1.1264 B( 47-C ,100-H ) :   0.9556
B( 48-C , 49-S ) :   1.2307 B( 48-C , 50-C ) :   0.1033 B( 48-C , 52-C ) :   1.3019
B( 49-S , 50-C ) :   1.1280 B( 50-C , 51-C ) :   1.2651 B( 50-C , 57-C ) :   1.2086
B( 51-C , 52-C ) :   1.2323 B( 51-C , 56-C ) :   1.1992 B( 52-C , 53-N ) :   1.3996
B( 53-N , 54-C ) :   1.6338 B( 54-C , 55-N ) :   1.3625 B( 54-C ,101-H ) :   0.9748
B( 55-N , 56-C ) :   1.7044 B( 56-C ,102-H ) :   0.9806 B( 57-C , 58-C ) :   1.6094
B( 57-C ,103-H ) :   0.9358 B( 58-C , 59-C ) :   1.0466 B( 58-C , 67-C ) :   0.9466
B( 59-C , 60-C ) :   1.6347 B( 59-C , 65-C ) :   1.0161 B( 60-C , 61-C ) :   1.1308
B( 60-C , 63-C ) :   1.1623 B( 61-C , 62-N ) :   2.9907 B( 63-C , 64-N ) :   3.0233
B( 65-C , 66-C ) :   1.2682 B( 65-C , 72-C ) :   1.4205 B( 66-C , 67-C ) :   0.9251
B( 66-C , 69-C ) :   1.4326 B( 67-C , 68-O ) :   2.2533 B( 69-C , 70-C ) :   1.2490
B( 69-C ,104-H ) :   1.0155 B( 70-C , 71-C ) :   1.3069 B( 70-C , 75-C ) :   1.1728
B( 71-C , 72-C ) :   1.3173 B( 71-C , 73-S ) :   1.0972 B( 72-C ,105-H ) :   0.9858
B( 73-S , 74-C ) :   1.1264 B( 74-C , 75-C ) :   1.6300 B( 74-C ,106-H ) :   0.9683
B( 75-C ,107-H ) :   0.9992

-----------------------------------------------------------------------------
         ABSORPTION SPECTRUM VIA TRANSITION ELECTRIC DIPOLE MOMENTS
-----------------------------------------------------------------------------
State   Energy  Wavelength   fosc         T2         TX        TY        TZ
        (cm-1)    (nm)                  (au**2)     (au)      (au)      (au)
-----------------------------------------------------------------------------
   0   12281.8    814.2   0.267715199   7.17607   1.38584   1.57186   1.66876
   1   14018.9    713.3   0.174200194   4.09083   1.00458   0.88258   1.51747
   2   17568.3    569.2   1.287807228  24.13216  -2.33292  -1.33523  -4.11179
   3   18481.1    541.1   0.139315352   2.48168  -1.01058  -0.89442   0.81267
   4   20562.1    486.3   0.384174225   6.15088   0.51902   0.50201   2.37265
   5   24234.3    412.6   0.032143029   0.43665   0.45192  -0.47702   0.06978
   6   24288.5    411.7   0.001059149   0.01436   0.05692  -0.09704  -0.04122
   7   24607.7    406.4   0.022385023   0.29948  -0.16291  -0.05344  -0.51969
   8   25442.2    393.0   0.179901041   2.32785   0.31712   0.30697   1.46050
   9   25807.3    387.5   0.029081750   0.37098   0.22068   0.04430  -0.56597
  10   26603.2    375.9   0.037559646   0.46480  -0.57978  -0.31019   0.18007
  11   26708.9    374.4   0.002905615   0.03581  -0.00826  -0.04788  -0.18290
  12   26851.6    372.4   0.048824829   0.59861  -0.66367  -0.36229   0.16403
  13   27159.9    368.2   0.005064176   0.06138  -0.01920   0.04731   0.24244
  14   27265.7    366.8   0.023332470   0.28172  -0.12463   0.08526   0.50884
  15   27508.5    363.5   0.173696838   2.07874  -0.68618  -0.60655   1.11355
  16   27809.1    359.6   0.066791275   0.79069  -0.60192  -0.28260   0.59036
  17   28040.1    356.6   0.145657903   1.71013  -0.12048   0.42461   1.23098
  18   28072.4    356.2   0.007374548   0.08648  -0.03263   0.26179   0.12994
  19   28752.4    347.8   0.055291579   0.63308   0.25746   0.06503   0.75005
  20   28951.1    345.4   0.008923269   0.10147  -0.25157  -0.19386   0.02456
  21   29509.7    338.9   0.047616128   0.53121  -0.70577  -0.01654  -0.18117
  22   29564.7    338.2   0.060560061   0.67435  -0.40902  -0.26522   0.66084
  23   30406.0    328.9   0.044423119   0.48098   0.43827   0.32326  -0.42942
  24   30976.8    322.8   0.000791524   0.00841   0.00386   0.09031  -0.01553
  25   31289.7    319.6   0.114457233   1.20425   0.28298   0.01519   1.06016
  26   31908.9    313.4   0.014976949   0.15452  -0.05476  -0.31072   0.23447
  27   32163.0    310.9   0.065228484   0.66766   0.16187   0.13772  -0.78898
  28   32476.2    307.9   0.023731642   0.24057  -0.34174  -0.19698   0.29152
  29   32567.4    307.1   0.464074739   4.69116  -1.24811  -0.28194  -1.74754
  30   32674.7    306.0   0.172009917   1.73308   0.21306  -0.37347   1.24427
  31   32899.5    304.0   0.253846556   2.54014   1.20579   0.78661  -0.68370
  32   33175.2    301.4   0.319458548   3.17013  -1.53509  -0.89234  -0.13181
  33   33341.2    299.9   0.105371448   1.04044  -0.62257   0.40608  -0.69853
  34   33350.1    299.8   0.044862432   0.44285   0.61372  -0.06638   0.24860
  35   33650.1    297.2   0.300801580   2.94286  -1.36235  -1.02094  -0.21101
  36   34100.6    293.2   0.154017082   1.48690  -1.13354   0.31417  -0.32136
  37   34460.8    290.2   0.108623954   1.03771   0.81097  -0.30304   0.53685
  38   34541.0    289.5   0.001997380   0.01904   0.07980   0.00817  -0.11226
  39   35138.9    284.6   0.127466883   1.19422   0.92447   0.50549   0.28992
  40   35562.9    281.2   0.008235975   0.07624   0.09631  -0.01603  -0.25828
  41   35861.7    278.8   0.007177244   0.06589  -0.21422  -0.05875   0.12863
  42   36020.2    277.6   0.002781899   0.02543  -0.07600   0.05668   0.12820
  43   36079.7    277.2   0.000831286   0.00759   0.07522   0.04312  -0.00826
  44   36543.8    273.6   0.033727795   0.30384  -0.30568  -0.43347   0.15000
  45   36641.8    272.9   0.251132514   2.25633   0.92960  -0.24790  -1.15356
  46   36829.6    271.5   0.000717999   0.00642   0.06971   0.01666  -0.03579
  47   36888.1    271.1   0.014681230   0.13102  -0.25915  -0.24354  -0.06745
  48   37120.5    269.4   0.011845098   0.10505  -0.16146   0.16430  -0.22801
  49   37489.4    266.7   0.092533254   0.81258  -0.85025  -0.25668   0.15417
  50   37623.8    265.8   0.133405597   1.16731   0.99547   0.40779   0.10029
  51   37729.5    265.0   0.160053127   1.39656  -1.10900  -0.40088   0.07720
  52   38545.8    259.4   0.222337600   1.89894  -0.30576  -0.81613  -1.06742
  53   38827.4    257.5   0.024208655   0.20526  -0.37920  -0.24787  -0.00515
  54   39012.3    256.3   0.050180595   0.42346   0.47272  -0.34918  -0.27941
  55   39073.3    255.9   0.064562057   0.54397   0.58729   0.04553  -0.44382
  56   39152.0    255.4   0.026351797   0.22158   0.13137  -0.45170  -0.01695
  57   39375.1    254.0   0.026268639   0.21963  -0.31475   0.29296  -0.18639
  58   39592.9    252.6   0.010674943   0.08876   0.23785   0.10243  -0.14729
  59   39938.9    250.4   0.190591443   1.57102  -0.59433   0.58473   0.93588
  60   40031.1    249.8   0.003028489   0.02491   0.09236   0.11014  -0.06516
  61   40156.4    249.0   0.078307160   0.64198  -0.69053  -0.29776  -0.27656
  62   40267.2    248.3   0.018849830   0.15411  -0.34351  -0.18976   0.01017

FINAL SINGLE POINT ENERGY     -4591.937160591739

DIPOLE MOMENT
-------------
                                X             Y             Z
Electronic contribution:     -0.38424      -1.26655       5.32271
Nuclear contribution   :      4.39265       2.47609      -1.70401
                        -----------------------------------------
Total Dipole Moment    :      4.00841       1.20954       3.61870
                        -----------------------------------------
Magnitude (a.u.)       :      5.53402
Magnitude (Debye)      :     14.06635

Rotational constants in cm-1:     0.001983     0.000186     0.000177
Rotational constants in MHz :    59.455681     5.587510     5.320518

                             ****ORCA TERMINATED NORMALLY****
TOTAL RUN TIME: 0 days 0 hours 11 minutes 34 seconds 100 msec
