                         Program Version 4.2.0 -  RELEASE  -
|  1> # ORCA input file
|  2> # SCF done       -198.254014731754          0.000542017606
|  3> ! CAM-B3LYP def2-SVP def2/J RIJCOSX Grid4 TightSCF
|  4> %maxcore 5000
|  5> %tddft
|  6>     Mode sTDDFT
|  7>     Ethresh 5.0
|  8>     maxcore 5000
|  9> end
| 10>
| 11> %pal
| 12>   nprocs 6
| 13>   end
| 14> * xyz 0 1
| 15>    C        3.13773       -10.45634        -3.42942
| 16>    C        4.29296        -9.75062        -3.62261
| 17>    C        4.64603        -9.13031        -4.84139
| 18>    N        4.98346        -8.60521        -5.80376
| 19>    C        5.30282        -9.57496        -2.65007
| 20>    N        6.17298        -9.41182        -1.92033
| 21>    C        2.11929       -10.73292        -4.43710
| 22>    C        1.14615       -11.58716        -3.88631
| 23>    C        0.05987       -12.02200        -4.61933
| 24>    C       -0.06043       -11.59634        -5.93600
| 25>    C        0.90210       -10.74259        -6.49226
| 26>    C        1.99391       -10.30661        -5.74997
| 27>   Cl        0.73730       -10.21881        -8.11693
| 28>   Cl       -1.39309       -12.11648        -6.88212
| 29>    C        1.48097       -11.88883        -2.48093
| 30>    O        0.84096       -12.55977        -1.70442
| 31>    C        2.73150       -11.12876        -2.20551
| 32>    C        3.26477       -10.97295        -0.96626
| 33>    C        2.88214       -11.68662         0.20268
| 34>    C        2.49081       -13.09945         0.34962
| 35>    N        2.23403       -13.45111         1.57513
| 36>    C        2.41427       -12.33501         2.33373
| 37>    C        2.84481       -11.20888         1.49158
| 38>    C        3.04970       -10.02717         2.29061
| 39>    S        3.57959        -8.57181         1.74716
| 40>    C        2.73615       -10.45214         3.63042
| 41>    C        2.35731       -11.87988         3.62688
| 42>    N        2.06151       -12.30417         4.88680
| 43>    C        2.22656       -11.26846         5.65364
| 44>    C        2.65055       -10.05452         4.94737
| 45>    C        2.87033        -8.80350         5.56822
| 46>    N        3.20106        -7.69464         4.97819
| 47>    C        3.30424        -6.68339         5.83868
| 48>    C        3.04757        -7.00656         7.16358
| 49>    S        2.67262        -8.65397         7.34330
| 50>    C        3.32132        -5.82427         8.00138
| 51>    C        3.00192        -4.71699         6.98471
| 52>    C        3.67598        -5.21999         5.66458
| 53>    C        5.21266        -5.10875         5.66713
| 54>    C        5.75702        -3.68536         5.62418
| 55>    C        3.04869        -4.60629         4.40727
| 56>    C        3.59446        -5.17461         3.10311
| 57>    N        3.29181        -3.47511         7.66537
| 58>    C        3.40568        -3.65950         9.09852
| 59>    S        2.51295        -5.21347         9.51213
| 60>    C        2.94470        -2.25926         7.19202
| 61>    C        2.04198        -1.96404         6.06391
| 62>    N        1.88735        -0.70061         5.83015
| 63>    C        2.65822        -0.04907         6.75568
| 64>    C        3.30214        -1.01224         7.66233
| 65>    C        4.11745        -0.31293         8.61328
| 66>    S        5.10801        -0.90465         9.79007
| 67>    C        3.92902         1.08098         8.28237
| 68>    C        3.03886         1.21350         7.11983
| 69>    N        2.88852         2.52792         6.78536
| 70>    C        3.62810         3.19653         7.61531
| 71>    C        4.33986         2.35347         8.59587
| 72>    C        5.18815         2.75104         9.66636
| 73>    C        6.08195         3.77230         9.63524
| 74>    C        6.91312         4.24696        10.73058
| 75>    C        6.75364         3.95037        12.05567
| 76>    C        7.57922         4.45609        13.08411
| 77>    N        8.21825         4.83345        13.95880
| 78>    C        5.72524         3.13507        12.57978
| 79>    N        4.90276         2.50731        13.07557
| 80>    C        7.89898         5.16140        10.16456
| 81>    C        7.65699         5.30394         8.78570
| 82>    C        6.51017         4.46414         8.38752
| 83>    O        6.05818         4.32288         7.27490
| 84>    C        8.43663         6.12007         7.99035
| 85>    C        9.48442         6.81280         8.58322
| 86>    C        9.73551         6.67380         9.95529
| 87>    C        8.94795         5.85088        10.75237
| 88>   Cl       11.03778         7.52908        10.67263
| 89>   Cl       10.47492         7.83946         7.63108
| 90>    H       -0.67439       -12.67695        -4.17733
| 91>    H        2.71149        -9.64674        -6.20944
| 92>    H        4.01182       -10.20406        -0.80151
| 93>    H        2.45695       -13.82216        -0.44382
| 94>    H        2.04733       -11.33177         6.71315
| 95>    H        4.38779        -5.82872         8.26315
| 96>    H        1.91595        -4.76463         6.79132
| 97>    H        5.61046        -5.61016         6.55240
| 98>    H        5.57771        -5.66286         4.80180
| 99>    H        5.47275        -3.12179         6.50863
|100>    H        5.40700        -3.15179         4.74526
|101>    H        6.84326        -3.72017         5.58421
|102>    H        1.97140        -4.79216         4.44057
|103>    H        3.20924        -3.52645         4.42239
|104>    H        3.55228        -6.25891         3.11628
|105>    H        4.62021        -4.86245         2.93063
|106>    H        2.99186        -4.81599         2.27250
|107>    H        2.95246        -2.83063         9.63966
|108>    H        4.44745        -3.77247         9.41290
|109>    H        1.47765        -2.68969         5.50829
|110>    H        3.64721         4.26984         7.59123
|111>    H        5.12208         2.13055        10.55310
|112>    H        8.23333         6.21519         6.93531
|113>    H        9.17326         5.76481        11.80277
|114> *
|115>
|116>                          ****END OF INPUT****

CARTESIAN COORDINATES (ANGSTROEM)
---------------------------------
  C      3.137730  -10.456340   -3.429420
  C      4.292960   -9.750620   -3.622610
  C      4.646030   -9.130310   -4.841390
  N      4.983460   -8.605210   -5.803760
  C      5.302820   -9.574960   -2.650070
  N      6.172980   -9.411820   -1.920330
  C      2.119290  -10.732920   -4.437100
  C      1.146150  -11.587160   -3.886310
  C      0.059870  -12.022000   -4.619330
  C     -0.060430  -11.596340   -5.936000
  C      0.902100  -10.742590   -6.492260
  C      1.993910  -10.306610   -5.749970
  Cl     0.737300  -10.218810   -8.116930
  Cl    -1.393090  -12.116480   -6.882120
  C      1.480970  -11.888830   -2.480930
  O      0.840960  -12.559770   -1.704420
  C      2.731500  -11.128760   -2.205510
  C      3.264770  -10.972950   -0.966260
  C      2.882140  -11.686620    0.202680
  C      2.490810  -13.099450    0.349620
  N      2.234030  -13.451110    1.575130
  C      2.414270  -12.335010    2.333730
  C      2.844810  -11.208880    1.491580
  C      3.049700  -10.027170    2.290610
  S      3.579590   -8.571810    1.747160
  C      2.736150  -10.452140    3.630420
  C      2.357310  -11.879880    3.626880
  N      2.061510  -12.304170    4.886800
  C      2.226560  -11.268460    5.653640
  C      2.650550  -10.054520    4.947370
  C      2.870330   -8.803500    5.568220
  N      3.201060   -7.694640    4.978190
  C      3.304240   -6.683390    5.838680
  C      3.047570   -7.006560    7.163580
  S      2.672620   -8.653970    7.343300
  C      3.321320   -5.824270    8.001380
  C      3.001920   -4.716990    6.984710
  C      3.675980   -5.219990    5.664580
  C      5.212660   -5.108750    5.667130
  C      5.757020   -3.685360    5.624180
  C      3.048690   -4.606290    4.407270
  C      3.594460   -5.174610    3.103110
  N      3.291810   -3.475110    7.665370
  C      3.405680   -3.659500    9.098520
  S      2.512950   -5.213470    9.512130
  C      2.944700   -2.259260    7.192020
  C      2.041980   -1.964040    6.063910
  N      1.887350   -0.700610    5.830150
  C      2.658220   -0.049070    6.755680
  C      3.302140   -1.012240    7.662330
  C      4.117450   -0.312930    8.613280
  S      5.108010   -0.904650    9.790070
  C      3.929020    1.080980    8.282370
  C      3.038860    1.213500    7.119830
  N      2.888520    2.527920    6.785360
  C      3.628100    3.196530    7.615310
  C      4.339860    2.353470    8.595870
  C      5.188150    2.751040    9.666360
  C      6.081950    3.772300    9.635240
  C      6.913120    4.246960   10.730580
  C      6.753640    3.950370   12.055670
  C      7.579220    4.456090   13.084110
  N      8.218250    4.833450   13.958800
  C      5.725240    3.135070   12.579780
  N      4.902760    2.507310   13.075570
  C      7.898980    5.161400   10.164560
  C      7.656990    5.303940    8.785700
  C      6.510170    4.464140    8.387520
  O      6.058180    4.322880    7.274900
  C      8.436630    6.120070    7.990350
  C      9.484420    6.812800    8.583220
  C      9.735510    6.673800    9.955290
  C      8.947950    5.850880   10.752370
  Cl    11.037780    7.529080   10.672630
  Cl    10.474920    7.839460    7.631080
  H     -0.674390  -12.676950   -4.177330
  H      2.711490   -9.646740   -6.209440
  H      4.011820  -10.204060   -0.801510
  H      2.456950  -13.822160   -0.443820
  H      2.047330  -11.331770    6.713150
  H      4.387790   -5.828720    8.263150
  H      1.915950   -4.764630    6.791320
  H      5.610460   -5.610160    6.552400
  H      5.577710   -5.662860    4.801800
  H      5.472750   -3.121790    6.508630
  H      5.407000   -3.151790    4.745260
  H      6.843260   -3.720170    5.584210
  H      1.971400   -4.792160    4.440570
  H      3.209240   -3.526450    4.422390
  H      3.552280   -6.258910    3.116280
  H      4.620210   -4.862450    2.930630
  H      2.991860   -4.815990    2.272500
  H      2.952460   -2.830630    9.639660
  H      4.447450   -3.772470    9.412900
  H      1.477650   -2.689690    5.508290
  H      3.647210    4.269840    7.591230
  H      5.122080    2.130550   10.553100
  H      8.233330    6.215190    6.935310
  H      9.173260    5.764810   11.802770

 Total Charge           Charge          ....    0
 Multiplicity           Mult            ....    1
 Number of Electrons    NEL             ....  572
 Basis Dimension        Dim             .... 1202

ORBITAL ENERGIES
----------------

  NO   OCC          E(Eh)            E(eV)
   0   2.0000    -101.611315     -2764.9844
   1   2.0000    -101.610030     -2764.9495
   2   2.0000    -101.607279     -2764.8746
   3   2.0000    -101.606055     -2764.8413
   4   2.0000     -88.992823     -2421.6178
   5   2.0000     -88.936400     -2420.0825
   6   2.0000     -88.917347     -2419.5640
   7   2.0000     -88.905685     -2419.2467
   8   2.0000     -19.242195      -523.6068
   9   2.0000     -19.235104      -523.4138
  10   2.0000     -14.470076      -393.7508
  11   2.0000     -14.433320      -392.7506
  12   2.0000     -14.432182      -392.7196
  13   2.0000     -14.431569      -392.7030
  14   2.0000     -14.430716      -392.6797
  15   2.0000     -14.429812      -392.6551
  16   2.0000     -14.426814      -392.5736
  17   2.0000     -14.425648      -392.5419
  18   2.0000     -14.423975      -392.4963
  19   2.0000     -14.412279      -392.1780
  20   2.0000     -10.391820      -282.7758
  21   2.0000     -10.385167      -282.5948
  22   2.0000     -10.369470      -282.1676
  23   2.0000     -10.368929      -282.1529
  24   2.0000     -10.364941      -282.0444
  25   2.0000     -10.364523      -282.0330
  26   2.0000     -10.364159      -282.0231
  27   2.0000     -10.362208      -281.9700
  28   2.0000     -10.359632      -281.8999
  29   2.0000     -10.358460      -281.8680
  30   2.0000     -10.356433      -281.8129
  31   2.0000     -10.354144      -281.7506
  32   2.0000     -10.353247      -281.7262
  33   2.0000     -10.352643      -281.7097
  34   2.0000     -10.349120      -281.6139
  35   2.0000     -10.348918      -281.6084
  36   2.0000     -10.347845      -281.5792
  37   2.0000     -10.347833      -281.5789
  38   2.0000     -10.347243      -281.5628
  39   2.0000     -10.343489      -281.4606
  40   2.0000     -10.337992      -281.3111
  41   2.0000     -10.337587      -281.3000
  42   2.0000     -10.336079      -281.2590
  43   2.0000     -10.334414      -281.2137
  44   2.0000     -10.333176      -281.1800
  45   2.0000     -10.332892      -281.1723
  46   2.0000     -10.331843      -281.1437
  47   2.0000     -10.330841      -281.1165
  48   2.0000     -10.329133      -281.0700
  49   2.0000     -10.329125      -281.0698
  50   2.0000     -10.328382      -281.0496
  51   2.0000     -10.327061      -281.0136
  52   2.0000     -10.325916      -280.9825
  53   2.0000     -10.325838      -280.9803
  54   2.0000     -10.325826      -280.9800
  55   2.0000     -10.323115      -280.9062
  56   2.0000     -10.322266      -280.8831
  57   2.0000     -10.322100      -280.8786
  58   2.0000     -10.321488      -280.8620
  59   2.0000     -10.321338      -280.8579
  60   2.0000     -10.319358      -280.8040
  61   2.0000     -10.318309      -280.7755
  62   2.0000     -10.317539      -280.7545
  63   2.0000     -10.316701      -280.7317
  64   2.0000     -10.315871      -280.7091
  65   2.0000     -10.314042      -280.6594
  66   2.0000     -10.311735      -280.5966
  67   2.0000     -10.311474      -280.5895
  68   2.0000     -10.307019      -280.4682
  69   2.0000     -10.306899      -280.4650
  70   2.0000     -10.288412      -279.9619
  71   2.0000     -10.276313      -279.6327
  72   2.0000     -10.275315      -279.6055
  73   2.0000     -10.260330      -279.1978
  74   2.0000     -10.248184      -278.8673
  75   2.0000      -9.566344      -260.3135
  76   2.0000      -9.565119      -260.2801
  77   2.0000      -9.562347      -260.2047
  78   2.0000      -9.561143      -260.1719
  79   2.0000      -8.087717      -220.0780
  80   2.0000      -8.032643      -218.5793
  81   2.0000      -8.012283      -218.0253
  82   2.0000      -8.001233      -217.7246
  83   2.0000      -7.336765      -199.6435
  84   2.0000      -7.335543      -199.6103
  85   2.0000      -7.332701      -199.5329
  86   2.0000      -7.331561      -199.5019
  87   2.0000      -7.326602      -199.3670
  88   2.0000      -7.325829      -199.3459
  89   2.0000      -7.325363      -199.3333
  90   2.0000      -7.324590      -199.3122
  91   2.0000      -7.322633      -199.2590
  92   2.0000      -7.321870      -199.2382
  93   2.0000      -7.321384      -199.2250
  94   2.0000      -7.320626      -199.2044
  95   2.0000      -6.056686      -164.8108
  96   2.0000      -6.052834      -164.7060
  97   2.0000      -6.050264      -164.6360
  98   2.0000      -6.002896      -163.3471
  99   2.0000      -5.999928      -163.2663
 100   2.0000      -5.991353      -163.0330
 101   2.0000      -5.981479      -162.7643
 102   2.0000      -5.980839      -162.7469
 103   2.0000      -5.971241      -162.4857
 104   2.0000      -5.970148      -162.4560
 105   2.0000      -5.969509      -162.4386
 106   2.0000      -5.960678      -162.1983
 107   2.0000      -1.157992       -31.5106
 108   2.0000      -1.151019       -31.3208
 109   2.0000      -1.103477       -30.0271
 110   2.0000      -1.100699       -29.9515
 111   2.0000      -1.090332       -29.6695
 112   2.0000      -1.080970       -29.4147
 113   2.0000      -1.078507       -29.3477
 114   2.0000      -1.066568       -29.0228
 115   2.0000      -1.044770       -28.4296
 116   2.0000      -1.039997       -28.2997
 117   2.0000      -1.030023       -28.0284
 118   2.0000      -1.025176       -27.8965
 119   2.0000      -1.009150       -27.4604
 120   2.0000      -1.006081       -27.3769
 121   2.0000      -1.004347       -27.3297
 122   2.0000      -1.000798       -27.2331
 123   2.0000      -0.981581       -26.7102
 124   2.0000      -0.978728       -26.6326
 125   2.0000      -0.973605       -26.4931
 126   2.0000      -0.969532       -26.3823
 127   2.0000      -0.967874       -26.3372
 128   2.0000      -0.951330       -25.8870
 129   2.0000      -0.945606       -25.7313
 130   2.0000      -0.933574       -25.4038
 131   2.0000      -0.930256       -25.3136
 132   2.0000      -0.922961       -25.1150
 133   2.0000      -0.912734       -24.8368
 134   2.0000      -0.907744       -24.7010
 135   2.0000      -0.901421       -24.5289
 136   2.0000      -0.894522       -24.3412
 137   2.0000      -0.874615       -23.7995
 138   2.0000      -0.871144       -23.7050
 139   2.0000      -0.869891       -23.6709
 140   2.0000      -0.866712       -23.5844
 141   2.0000      -0.863934       -23.5088
 142   2.0000      -0.853166       -23.2158
 143   2.0000      -0.850129       -23.1332
 144   2.0000      -0.842276       -22.9195
 145   2.0000      -0.838551       -22.8181
 146   2.0000      -0.821561       -22.3558
 147   2.0000      -0.802012       -21.8239
 148   2.0000      -0.794366       -21.6158
 149   2.0000      -0.788340       -21.4518
 150   2.0000      -0.781716       -21.2716
 151   2.0000      -0.778973       -21.1969
 152   2.0000      -0.776449       -21.1283
 153   2.0000      -0.771342       -20.9893
 154   2.0000      -0.761996       -20.7350
 155   2.0000      -0.747759       -20.3476
 156   2.0000      -0.741031       -20.1645
 157   2.0000      -0.727331       -19.7917
 158   2.0000      -0.724662       -19.7191
 159   2.0000      -0.721757       -19.6400
 160   2.0000      -0.719534       -19.5795
 161   2.0000      -0.714733       -19.4489
 162   2.0000      -0.708623       -19.2826
 163   2.0000      -0.707549       -19.2534
 164   2.0000      -0.701356       -19.0849
 165   2.0000      -0.694782       -18.9060
 166   2.0000      -0.693405       -18.8685
 167   2.0000      -0.688785       -18.7428
 168   2.0000      -0.672329       -18.2950
 169   2.0000      -0.660238       -17.9660
 170   2.0000      -0.657192       -17.8831
 171   2.0000      -0.653489       -17.7824
 172   2.0000      -0.652228       -17.7480
 173   2.0000      -0.648298       -17.6411
 174   2.0000      -0.634706       -17.2712
 175   2.0000      -0.629322       -17.1247
 176   2.0000      -0.627926       -17.0867
 177   2.0000      -0.623914       -16.9776
 178   2.0000      -0.619926       -16.8690
 179   2.0000      -0.615307       -16.7433
 180   2.0000      -0.607840       -16.5402
 181   2.0000      -0.601336       -16.3632
 182   2.0000      -0.596687       -16.2367
 183   2.0000      -0.589429       -16.0392
 184   2.0000      -0.584955       -15.9174
 185   2.0000      -0.580171       -15.7873
 186   2.0000      -0.579055       -15.7569
 187   2.0000      -0.576867       -15.6974
 188   2.0000      -0.571097       -15.5403
 189   2.0000      -0.568498       -15.4696
 190   2.0000      -0.564647       -15.3648
 191   2.0000      -0.562364       -15.3027
 192   2.0000      -0.560582       -15.2542
 193   2.0000      -0.559452       -15.2235
 194   2.0000      -0.558840       -15.2068
 195   2.0000      -0.556823       -15.1519
 196   2.0000      -0.553995       -15.0750
 197   2.0000      -0.552248       -15.0274
 198   2.0000      -0.548739       -14.9320
 199   2.0000      -0.546044       -14.8586
 200   2.0000      -0.544468       -14.8157
 201   2.0000      -0.539103       -14.6697
 202   2.0000      -0.535908       -14.5828
 203   2.0000      -0.532445       -14.4886
 204   2.0000      -0.530835       -14.4447
 205   2.0000      -0.528133       -14.3712
 206   2.0000      -0.525384       -14.2964
 207   2.0000      -0.522115       -14.2075
 208   2.0000      -0.520253       -14.1568
 209   2.0000      -0.516169       -14.0457
 210   2.0000      -0.514241       -13.9932
 211   2.0000      -0.513561       -13.9747
 212   2.0000      -0.510749       -13.8982
 213   2.0000      -0.507663       -13.8142
 214   2.0000      -0.505616       -13.7585
 215   2.0000      -0.504904       -13.7391
 216   2.0000      -0.500443       -13.6177
 217   2.0000      -0.499529       -13.5929
 218   2.0000      -0.497239       -13.5306
 219   2.0000      -0.497137       -13.5278
 220   2.0000      -0.493282       -13.4229
 221   2.0000      -0.491993       -13.3878
 222   2.0000      -0.490462       -13.3461
 223   2.0000      -0.488952       -13.3051
 224   2.0000      -0.484410       -13.1815
 225   2.0000      -0.482103       -13.1187
 226   2.0000      -0.478265       -13.0143
 227   2.0000      -0.477076       -12.9819
 228   2.0000      -0.476073       -12.9546
 229   2.0000      -0.462546       -12.5865
 230   2.0000      -0.459354       -12.4997
 231   2.0000      -0.457954       -12.4616
 232   2.0000      -0.457253       -12.4425
 233   2.0000      -0.456135       -12.4121
 234   2.0000      -0.452823       -12.3219
 235   2.0000      -0.452386       -12.3101
 236   2.0000      -0.451362       -12.2822
 237   2.0000      -0.448526       -12.2050
 238   2.0000      -0.446198       -12.1417
 239   2.0000      -0.444166       -12.0864
 240   2.0000      -0.442835       -12.0501
 241   2.0000      -0.442075       -12.0295
 242   2.0000      -0.440930       -11.9983
 243   2.0000      -0.440235       -11.9794
 244   2.0000      -0.438028       -11.9193
 245   2.0000      -0.436946       -11.8899
 246   2.0000      -0.436438       -11.8761
 247   2.0000      -0.435705       -11.8561
 248   2.0000      -0.430889       -11.7251
 249   2.0000      -0.426890       -11.6163
 250   2.0000      -0.426237       -11.5985
 251   2.0000      -0.422007       -11.4834
 252   2.0000      -0.421296       -11.4640
 253   2.0000      -0.419136       -11.4053
 254   2.0000      -0.416386       -11.3304
 255   2.0000      -0.414680       -11.2840
 256   2.0000      -0.412033       -11.2120
 257   2.0000      -0.407931       -11.1004
 258   2.0000      -0.397660       -10.8209
 259   2.0000      -0.392569       -10.6823
 260   2.0000      -0.388709       -10.5773
 261   2.0000      -0.387791       -10.5523
 262   2.0000      -0.382874       -10.4185
 263   2.0000      -0.381681       -10.3861
 264   2.0000      -0.374824       -10.1995
 265   2.0000      -0.372172       -10.1273
 266   2.0000      -0.371329       -10.1044
 267   2.0000      -0.366499        -9.9729
 268   2.0000      -0.365159        -9.9365
 269   2.0000      -0.361901        -9.8478
 270   2.0000      -0.359383        -9.7793
 271   2.0000      -0.358613        -9.7584
 272   2.0000      -0.353056        -9.6071
 273   2.0000      -0.350161        -9.5284
 274   2.0000      -0.347038        -9.4434
 275   2.0000      -0.330807        -9.0017
 276   2.0000      -0.325503        -8.8574
 277   2.0000      -0.324706        -8.8357
 278   2.0000      -0.320105        -8.7105
 279   2.0000      -0.317998        -8.6532
 280   2.0000      -0.313616        -8.5339
 281   2.0000      -0.307999        -8.3811
 282   2.0000      -0.296295        -8.0626
 283   2.0000      -0.294214        -8.0060
 284   2.0000      -0.291217        -7.9244
 285   2.0000      -0.281037        -7.6474
 286   0.0000      -0.132137        -3.5956
 287   0.0000      -0.121272        -3.3000
 288   0.0000      -0.108467        -2.9515
 289   0.0000      -0.091594        -2.4924
 290   0.0000      -0.088394        -2.4053

MULLIKEN ATOMIC CHARGES
-----------------------
   0 C :    0.300957
   1 C :   -0.325418
   2 C :   -0.188622
   3 N :    0.168519
   4 C :   -0.195718
   5 N :    0.179015
   6 C :    0.038282
   7 C :   -0.025410
   8 C :   -0.023984
   9 C :    0.060965
  10 C :    0.052111
  11 C :   -0.016608
  12 Cl:   -0.026125
  13 Cl:   -0.034368
  14 C :    0.147703
  15 O :   -0.134511
  16 C :   -0.086255
  17 C :   -0.042251
  18 C :   -0.017876
  19 C :    0.116675
  20 N :   -0.030526
  21 C :    0.035471
  22 C :    0.006025
  23 C :   -0.027158
  24 S :   -0.055013
  25 C :   -0.004801
  26 C :   -0.007555
  27 N :   -0.019521
  28 C :    0.055028
  29 C :    0.069431
  30 C :   -0.176155
  31 N :    0.030101
  32 C :   -0.042875
  33 C :   -0.042305
  34 S :    0.126877
  35 C :   -0.137405
  36 C :    0.119533
  37 C :   -0.188100
  38 C :    0.048968
  39 C :    0.034023
  40 C :    0.023708
  41 C :    0.021499
  42 N :   -0.235314
  43 C :    0.132621
  44 S :   -0.007679
  45 C :    0.054568
  46 C :    0.005867
  47 N :    0.004544
  48 C :    0.004669
  49 C :   -0.044201
  50 C :   -0.015813
  51 S :   -0.142128
  52 C :    0.013220
  53 C :    0.013575
  54 N :   -0.029260
  55 C :    0.104546
  56 C :   -0.022009
  57 C :   -0.037202
  58 C :   -0.092903
  59 C :    0.302795
  60 C :   -0.319309
  61 C :   -0.189630
  62 N :    0.163767
  63 C :   -0.197782
  64 N :    0.173000
  65 C :    0.037371
  66 C :   -0.026603
  67 C :    0.146818
  68 O :   -0.132960
  69 C :   -0.022784
  70 C :    0.059227
  71 C :    0.048957
  72 C :   -0.011880
  73 Cl:   -0.029241
  74 Cl:   -0.035838
  75 H :    0.003751
  76 H :    0.004333
  77 H :    0.043853
  78 H :    0.017980
  79 H :    0.021156
  80 H :    0.074716
  81 H :    0.021440
  82 H :   -0.009202
  83 H :    0.019028
  84 H :    0.022928
  85 H :    0.012486
  86 H :    0.019564
  87 H :    0.003316
  88 H :    0.019027
  89 H :    0.049671
  90 H :    0.009622
  91 H :    0.007615
  92 H :    0.066121
  93 H :    0.063960
  94 H :    0.006727
  95 H :    0.011263
  96 H :    0.044510
  97 H :    0.003778
  98 H :    0.003012
Sum of atomic charges:   -0.0000000

LOEWDIN ATOMIC CHARGES
----------------------
   0 C :    0.069715
   1 C :   -0.118345
   2 C :   -0.019760
   3 N :   -0.035362
   4 C :   -0.023535
   5 N :   -0.030675
   6 C :   -0.011913
   7 C :   -0.046689
   8 C :    0.004384
   9 C :   -0.132677
  10 C :   -0.127036
  11 C :   -0.011191
  12 Cl:    0.170056
  13 Cl:    0.166201
  14 C :    0.086703
  15 O :   -0.121554
  16 C :   -0.079760
  17 C :    0.076669
  18 C :   -0.051769
  19 C :    0.116202
  20 N :   -0.086111
  21 C :    0.043887
  22 C :    0.001582
  23 C :   -0.151667
  24 S :    0.123744
  25 C :   -0.019830
  26 C :    0.038577
  27 N :   -0.071509
  28 C :    0.082033
  29 C :   -0.065990
  30 C :   -0.123070
  31 N :   -0.057169
  32 C :   -0.024010
  33 C :   -0.207219
  34 S :    0.435419
  35 C :   -0.135609
  36 C :    0.034084
  37 C :   -0.042925
  38 C :   -0.020487
  39 C :   -0.059326
  40 C :   -0.028043
  41 C :   -0.061466
  42 N :   -0.033143
  43 C :   -0.038886
  44 S :    0.223426
  45 C :    0.016814
  46 C :    0.068008
  47 N :   -0.062042
  48 C :    0.048924
  49 C :   -0.113223
  50 C :   -0.137920
  51 S :    0.041144
  52 C :   -0.001400
  53 C :    0.022143
  54 N :   -0.084392
  55 C :    0.098273
  56 C :   -0.050926
  57 C :    0.079403
  58 C :   -0.082640
  59 C :    0.070784
  60 C :   -0.120678
  61 C :   -0.019733
  62 N :   -0.038289
  63 C :   -0.023070
  64 N :   -0.033447
  65 C :   -0.012161
  66 C :   -0.045793
  67 C :    0.085982
  68 O :   -0.120710
  69 C :    0.003632
  70 C :   -0.133403
  71 C :   -0.128176
  72 C :   -0.011506
  73 Cl:    0.167849
  74 Cl:    0.164627
  75 H :    0.047830
  76 H :    0.045647
  77 H :    0.048265
  78 H :    0.028480
  79 H :    0.023756
  80 H :    0.034215
  81 H :    0.021157
  82 H :    0.019270
  83 H :    0.030636
  84 H :    0.022925
  85 H :    0.023011
  86 H :    0.030872
  87 H :    0.021018
  88 H :    0.020252
  89 H :    0.014817
  90 H :    0.020623
  91 H :    0.026122
  92 H :    0.027867
  93 H :    0.014446
  94 H :    0.026927
  95 H :    0.025320
  96 H :    0.049526
  97 H :    0.047631
  98 H :    0.045354

  Mayer bond orders larger than 0.100000
B(  0-C ,  1-C ) :   1.6792 B(  0-C ,  6-C ) :   1.0021 B(  0-C , 16-C ) :   1.0303
B(  1-C ,  2-C ) :   1.1356 B(  1-C ,  4-C ) :   1.1394 B(  2-C ,  3-N ) :   2.9778
B(  4-C ,  5-N ) :   2.9894 B(  6-C ,  7-C ) :   1.3226 B(  6-C , 11-C ) :   1.3368
B(  7-C ,  8-C ) :   1.3411 B(  7-C , 14-C ) :   0.9479 B(  8-C ,  9-C ) :   1.3454
B(  8-C , 75-H ) :   1.0176 B(  9-C , 10-C ) :   1.3965 B(  9-C , 13-Cl) :   1.0550
B( 10-C , 11-C ) :   1.3624 B( 10-C , 12-Cl) :   1.0840 B( 11-C , 76-H ) :   0.9875
B( 14-C , 15-O ) :   2.2218 B( 14-C , 16-C ) :   0.9366 B( 16-C , 17-C ) :   1.6609
B( 17-C , 18-C ) :   1.0832 B( 17-C , 77-H ) :   0.9373 B( 18-C , 19-C ) :   1.0038
B( 18-C , 22-C ) :   1.5510 B( 19-C , 20-N ) :   1.7144 B( 19-C , 78-H ) :   0.9886
B( 20-N , 21-C ) :   1.2775 B( 21-C , 22-C ) :   1.0584 B( 21-C , 26-C ) :   1.4961
B( 22-C , 23-C ) :   1.0048 B( 23-C , 24-S ) :   1.7437 B( 23-C , 25-C ) :   1.0264
B( 25-C , 26-C ) :   1.0651 B( 25-C , 29-C ) :   1.5392 B( 26-C , 27-N ) :   1.2673
B( 27-N , 28-C ) :   1.7299 B( 28-C , 29-C ) :   1.0375 B( 28-C , 79-H ) :   0.9819
B( 29-C , 30-C ) :   1.0644 B( 30-C , 31-N ) :   1.7334 B( 30-C , 34-S ) :   1.0794
B( 31-N , 32-C ) :   1.4112 B( 31-N , 34-S ) :   0.1113 B( 32-C , 33-C ) :   1.5144
B( 32-C , 37-C ) :   0.9544 B( 33-C , 34-S ) :   1.1388 B( 33-C , 35-C ) :   1.0491
B( 35-C , 36-C ) :   0.9664 B( 35-C , 44-S ) :   1.0101 B( 35-C , 80-H ) :   0.8720
B( 36-C , 37-C ) :   0.9647 B( 36-C , 42-N ) :   0.9717 B( 36-C , 81-H ) :   0.9205
B( 37-C , 38-C ) :   1.0058 B( 37-C , 40-C ) :   1.0444 B( 38-C , 39-C ) :   1.1041
B( 38-C , 82-H ) :   0.9366 B( 38-C , 83-H ) :   0.9330 B( 39-C , 84-H ) :   0.9621
B( 39-C , 85-H ) :   0.9620 B( 39-C , 86-H ) :   0.9597 B( 40-C , 41-C ) :   1.1055
B( 40-C , 87-H ) :   0.9258 B( 40-C , 88-H ) :   0.9299 B( 41-C , 89-H ) :   0.9553
B( 41-C , 90-H ) :   0.9560 B( 41-C , 91-H ) :   0.9549 B( 42-N , 43-C ) :   0.9482
B( 42-N , 45-C ) :   1.2060 B( 43-C , 44-S ) :   0.9980 B( 43-C , 92-H ) :   0.9478
B( 43-C , 93-H ) :   0.9405 B( 45-C , 46-C ) :   1.0014 B( 45-C , 49-C ) :   1.4861
B( 46-C , 47-N ) :   1.7579 B( 46-C , 94-H ) :   0.9920 B( 47-N , 48-C ) :   1.2419
B( 48-C , 49-C ) :   1.0791 B( 48-C , 53-C ) :   1.5401 B( 49-C , 50-C ) :   1.0557
B( 50-C , 51-S ) :   1.6721 B( 50-C , 52-C ) :   1.0161 B( 52-C , 53-C ) :   1.0750
B( 52-C , 56-C ) :   1.5391 B( 53-C , 54-N ) :   1.2662 B( 54-N , 55-C ) :   1.7339
B( 55-C , 56-C ) :   1.0088 B( 55-C , 95-H ) :   0.9883 B( 56-C , 57-C ) :   1.0871
B( 57-C , 58-C ) :   1.6581 B( 57-C , 96-H ) :   0.9383 B( 58-C , 59-C ) :   1.0308
B( 58-C , 67-C ) :   0.9377 B( 59-C , 60-C ) :   1.6742 B( 59-C , 65-C ) :   1.0036
B( 60-C , 61-C ) :   1.1339 B( 60-C , 63-C ) :   1.1396 B( 61-C , 62-N ) :   2.9772
B( 63-C , 64-N ) :   2.9888 B( 65-C , 66-C ) :   1.3232 B( 65-C , 72-C ) :   1.3390
B( 66-C , 67-C ) :   0.9445 B( 66-C , 69-C ) :   1.3440 B( 67-C , 68-O ) :   2.2263
B( 69-C , 70-C ) :   1.3470 B( 69-C , 97-H ) :   1.0161 B( 70-C , 71-C ) :   1.3973
B( 70-C , 74-Cl) :   1.0534 B( 71-C , 72-C ) :   1.3642 B( 71-C , 73-Cl) :   1.0810
B( 72-C , 98-H ) :   0.9862

-----------------------------------------------------------------------------
         ABSORPTION SPECTRUM VIA TRANSITION ELECTRIC DIPOLE MOMENTS
-----------------------------------------------------------------------------
State   Energy  Wavelength   fosc         T2         TX        TY        TZ
        (cm-1)    (nm)                  (au**2)     (au)      (au)      (au)
-----------------------------------------------------------------------------
   0   14022.4    713.1   0.001145762   0.02690   0.00668   0.08492   0.14016
   1   14846.7    673.5   0.090467247   2.00602  -0.37588  -1.28694  -0.45665
   2   15559.2    642.7   0.009190503   0.19446   0.13426   0.39476   0.14352
   3   16376.7    610.6   0.000034227   0.00069  -0.00382  -0.00135   0.02592
   4   16704.5    598.6   0.166088234   3.27326  -0.06052  -0.78938  -1.62680
   5   20751.3    481.9   0.002922425   0.04636   0.00861  -0.19645  -0.08773
   6   20779.4    481.2   0.019958757   0.31621   0.04255   0.07703  -0.55540
   7   21771.4    459.3   0.179510964   2.71444   0.56900   1.37799   0.70131
   8   22664.9    441.2   0.009424122   0.13689  -0.02735   0.26443   0.25732
   9   23325.4    428.7   0.075837760   1.07037  -0.07841  -0.98583  -0.30389
  10   23583.0    424.0   0.072991906   1.01895  -0.73999  -0.52815  -0.43865
  11   23908.5    418.3   0.329210570   4.53311  -0.20073  -0.93226  -1.90361
  12   24570.9    407.0   0.022938587   0.30734  -0.02528   0.26267   0.48755
  13   24624.4    406.1   0.029430253   0.39346   0.15299   0.34061   0.50402
  14   24916.4    401.3   0.793762450  10.48771   0.00643   1.16874   3.02022
  15   25774.1    388.0   0.080544710   1.02879  -0.28504  -0.28685   0.93020
  16   25922.4    385.8   0.007096148   0.09012   0.01084  -0.25458   0.15873
  17   26425.9    378.4   0.495840673   6.17715   1.16587   1.95252   1.00277
  18   26658.7    375.1   0.012967470   0.16014  -0.33259  -0.21902  -0.03935
  19   26744.7    373.9   0.011303274   0.13914   0.22551   0.05433   0.29211
  20   26848.4    372.5   0.180689180   2.21559  -0.42645  -0.02138  -1.42593
  21   27059.2    369.6   0.022971298   0.27948  -0.05165  -0.14552  -0.50560
  22   27145.3    368.4   0.021901693   0.26562   0.32769   0.37449  -0.13416
  23   27798.4    359.7   0.007512704   0.08897   0.13380   0.08743  -0.25185
  24   27860.4    358.9   0.196646831   2.32368  -0.93912  -1.20064   0.01371
  25   28110.4    355.7   0.003647037   0.04271   0.02778   0.14841  -0.14112
  26   28295.6    353.4   0.016209520   0.18859   0.28080   0.16066  -0.28972
  27   28511.4    350.7   0.025254114   0.29160   0.03665  -0.18971  -0.50425
  28   28573.6    350.0   0.000948888   0.01093   0.00613   0.10418   0.00641
  29   28648.2    349.1   0.053238776   0.61180   0.28103  -0.18694  -0.70560
  30   28905.6    346.0   0.016690000   0.19009   0.11594  -0.01237  -0.42011
  31   29729.6    336.4   0.185715653   2.05653  -0.66680  -0.59311  -1.12255
  32   29800.5    335.6   0.146091775   1.61391  -0.64448  -1.05083  -0.30708
  33   30432.9    328.6   0.001981882   0.02144  -0.05573  -0.13322   0.02421
  34   30980.0    322.8   0.149317471   1.58674  -0.59068  -1.04683  -0.37679
  35   31036.0    322.2   0.355062519   3.76629   0.90849   1.71107  -0.11482
  36   31139.0    321.1   0.011443384   0.12098  -0.05084  -0.13843  -0.31502
  37   31215.8    320.4   0.000854941   0.00902   0.04764   0.07737   0.02760
  38   31392.6    318.5   0.000743647   0.00780  -0.04764  -0.02597   0.06967
  39   31654.7    315.9   0.013615512   0.14160   0.04541  -0.13043  -0.35004
  40   31719.3    315.3   0.010370992   0.10764  -0.21264   0.21618   0.12526
  41   32029.2    312.2   0.026721519   0.27466  -0.39772  -0.11189  -0.32243
  42   32395.1    308.7   0.020841328   0.21180  -0.40330  -0.11737   0.18807
  43   32533.1    307.4   0.004521844   0.04576   0.15232   0.06550   0.13515
  44   32573.1    307.0   0.003801951   0.03843   0.07162   0.07354  -0.16700
  45   32937.2    303.6   0.000982517   0.00982  -0.09871   0.00332   0.00814
  46   33146.7    301.7   0.016192466   0.16082   0.32065  -0.00124   0.24084
  47   33224.1    301.0   0.037691311   0.37348  -0.37582  -0.32299  -0.35765
  48   33252.9    300.7   0.014356598   0.14213   0.00938   0.35177   0.13528
  49   33307.3    300.2   0.020291586   0.20056   0.01742  -0.44372   0.05805
  50   33541.5    298.1   0.198633422   1.94960  -0.61307  -0.43036  -1.17836
  51   33651.6    297.2   0.036320017   0.35532  -0.31896  -0.50012   0.05883
  52   33766.1    296.2   0.031669411   0.30877  -0.11712  -0.37313   0.39475
  53   33927.0    294.8   0.045122364   0.43785  -0.43122   0.08522  -0.49460
  54   34050.0    293.7   0.100720173   0.97381  -0.00728   0.32688   0.93108
  55   34204.2    292.4   0.029437493   0.28333   0.12817   0.18671   0.48171
  56   34372.8    290.9   0.093688772   0.89732   0.58421   0.56419   0.48756
  57   34558.6    289.4   0.002994781   0.02853   0.06598   0.02879  -0.15280
  58   34668.6    288.4   0.238222809   2.26216   1.31841   0.26643   0.67302
  59   34698.7    288.2   0.958300421   9.09210  -1.62887  -1.84721   1.73974
  60   34800.8    287.3   0.001944984   0.01840  -0.04362   0.11772  -0.05138
  61   34981.1    285.9   0.080862616   0.76101  -0.16033   0.35452   0.78078
  62   35134.0    284.6   0.002645355   0.02479  -0.07050  -0.09242   0.10619
  63   35679.3    280.3   0.001404527   0.01296  -0.06385   0.08518  -0.04034
  64   35706.0    280.1   0.011836625   0.10913  -0.16540   0.28174  -0.04897
  65   35764.0    279.6   0.001414926   0.01302   0.08706   0.06776   0.02923
  66   35790.7    279.4   0.005036628   0.04633   0.13914  -0.16403  -0.00775
  67   35941.9    278.2   0.000711409   0.00652  -0.03646   0.07132   0.01002
  68   36643.5    272.9   0.313495765   2.81651   0.43654  -0.06947   1.61898
  69   36906.0    271.0   0.015537631   0.13860  -0.16208  -0.27783   0.18746
  70   36975.5    270.4   0.061076472   0.54380   0.50156   0.52709  -0.12002
  71   36994.6    270.3   0.024255186   0.21584   0.26305   0.36601  -0.11264
  72   37113.8    269.4   0.003666961   0.03253  -0.03543  -0.15716   0.08107
  73   37157.2    269.1   0.000382851   0.00339  -0.04858   0.03198   0.00313
  74   37501.3    266.7   0.025495116   0.22381   0.23276   0.28509   0.29725
  75   37776.5    264.7   0.062964120   0.54871  -0.25090   0.43063  -0.54802
  76   37830.7    264.3   0.001987155   0.01729   0.02739  -0.04310   0.12118
  77   37958.1    263.4   0.000000415   0.00000   0.00141  -0.00058  -0.00113
  78   38275.8    261.3   0.114233399   0.98253  -0.21957  -0.55584   0.79079
  79   38323.4    260.9   0.239445875   2.05693  -1.14252  -0.55726  -0.66411
  80   38495.3    259.8   0.002267259   0.01939   0.01563   0.09825  -0.09743
  81   38740.7    258.1   0.024283377   0.20636   0.17072   0.40221  -0.12426
  82   38809.8    257.7   0.000399523   0.00339   0.01185  -0.01141   0.05584
  83   39003.4    256.4   0.069710710   0.58840  -0.61113  -0.46066  -0.05204
  84   39577.2    252.7   0.003034528   0.02524   0.00058  -0.11413  -0.11052
  85   39721.2    251.8   0.078100262   0.64730   0.04190  -0.19446   0.77957
  86   39750.2    251.6   0.046694257   0.38672  -0.00345   0.14607   0.60446
  87   39761.1    251.5   0.006479670   0.05365  -0.00522  -0.10893   0.20435
  88   39857.2    250.9   0.053032410   0.43804  -0.39717  -0.52656   0.05497
  89   39918.1    250.5   0.008141157   0.06714  -0.18224  -0.17665  -0.05222
  90   40271.8    248.3   0.048142727   0.39355  -0.29066   0.29755  -0.46961

FINAL SINGLE POINT ENERGY     -6236.975236418612

DIPOLE MOMENT
-------------
                                X             Y             Z
Electronic contribution:      6.32050      15.48809     -32.30517
Nuclear contribution   :     -7.00892     -16.80504      31.32979
                        -----------------------------------------
Total Dipole Moment    :     -0.68842      -1.31695      -0.97538
                        -----------------------------------------
Magnitude (a.u.)       :      1.77754
Magnitude (Debye)      :      4.51815

Rotational constants in cm-1:     0.001238     0.000188     0.000172
Rotational constants in MHz :    37.111648     5.650583     5.168284

                             ****ORCA TERMINATED NORMALLY****
TOTAL RUN TIME: 0 days 0 hours 10 minutes 14 seconds 585 msec
