                         Program Version 4.2.0 -  RELEASE  -
|  1> # ORCA input file
|  2> # SCF done       -210.997581501953          0.000930228403
|  3> ! CAM-B3LYP def2-SVP def2/J RIJCOSX Grid4 TightSCF
|  4> %maxcore 5000
|  5> %tddft
|  6>     Mode sTDDFT
|  7>     Ethresh 5.0
|  8>     maxcore 5000
|  9> end
| 10>
| 11> %pal
| 12>   nprocs 6
| 13>   end
| 14> * xyz 0 1
| 15>    C       -3.72275        -0.26315         4.99547
| 16>    O       -3.94035        -0.58551         3.85013
| 17>    C       -4.17246         0.98468         5.65223
| 18>    C       -3.88450         0.93211         7.02725
| 19>    C       -4.24740         1.99011         7.84531
| 20>    C       -4.88411         3.08564         7.27389
| 21>    C       -5.16152         3.13055         5.90610
| 22>    C       -4.80935         2.06807         5.08398
| 23>   Br       -6.02036         4.63660         5.15460
| 24>   Br       -5.37747         4.53063         8.38865
| 25>    C       -3.19846        -0.32310         7.31975
| 26>    C       -2.66629        -0.67898         8.52963
| 27>    C       -2.78046         0.09844         9.70229
| 28>    N       -2.84568         0.68818        10.68444
| 29>    C       -1.90659        -1.84529         8.76784
| 30>    N       -1.25763        -2.75390         9.03348
| 31>    C       -3.09664        -1.06695         6.07732
| 32>    C       -2.66538        -2.34894         5.93628
| 33>    C       -2.37920        -2.99018         4.68867
| 34>    C       -2.59908        -4.35017         4.50710
| 35>    F       -3.15408        -5.05373         5.50465
| 36>    C       -2.32656        -5.02344         3.30979
| 37>    F       -2.65611        -6.32662         3.26641
| 38>    C       -1.78516        -4.40192         2.19270
| 39>    C       -1.50752        -3.01837         2.35556
| 40>    C       -1.77940        -2.32592         3.58761
| 41>    N       -1.34792        -1.06936         3.56131
| 42>    S       -0.70982        -0.77022         2.11888
| 43>    N       -0.91408        -2.22135         1.46749
| 44>    C       -1.48106        -5.10169         0.95232
| 45>    C       -0.99909        -6.39049         0.97364
| 46>    C       -0.64109        -7.02508        -0.23141
| 47>    C       -0.09610        -8.28164        -0.46637
| 48>    C        0.21590        -9.31725         0.55772
| 49>    C       -0.49739       -10.65179         0.25968
| 50>    N       -0.69913       -11.36650         1.50148
| 51>    C        1.73821        -9.50007         0.70686
| 52>    N        2.04077       -10.36220         1.83826
| 53>    C        0.10665        -8.38168        -1.89422
| 54>    C        0.65970        -9.34428        -2.65480
| 55>    C        0.80956        -9.18553        -4.13118
| 56>    C        0.20745        -7.94118        -4.69198
| 57>    C       -0.31895        -6.97553        -3.91557
| 58>    C       -0.37285        -7.13484        -2.51073
| 59>    C       -0.81489        -6.31582        -1.48997
| 60>    C       -1.33957        -5.00337        -1.47764
| 61>    C       -1.64874        -4.41593        -0.29375
| 62>    C        0.37622       -10.46486        -4.79715
| 63>    C       -0.67472       -10.56937        -5.61304
| 64>    C       -1.10363       -11.76530        -6.30228
| 65>    C       -0.66442       -13.05959        -6.07488
| 66>    F        0.20387       -13.32681        -5.08311
| 67>    C       -1.08109       -14.16090        -6.83794
| 68>    F       -0.58417       -15.36018        -6.48817
| 69>    C       -1.98611       -14.07297        -7.88573
| 70>    C       -2.51574       -12.77393        -8.10254
| 71>    C       -2.06876       -11.64413        -7.33720
| 72>    N       -2.66214       -10.51747        -7.72900
| 73>    S       -3.67245       -10.85023        -8.93019
| 74>    N       -3.41386       -12.43251        -9.02185
| 75>    C       -2.44682       -15.17075        -8.68352
| 76>    C       -1.82542       -16.32381        -9.03174
| 77>    C       -2.65322       -17.45534        -9.55008
| 78>    O       -3.80332       -17.40673        -9.90896
| 79>    C       -1.77124       -18.63934        -9.47374
| 80>    C       -0.48057       -18.23969        -9.08007
| 81>    C       -0.45299       -16.78561        -8.94321
| 82>    C        0.67740       -16.01524        -8.96449
| 83>    C        0.67095       -14.60909        -9.05396
| 84>    N        0.71586       -13.46529        -9.13820
| 85>    C        1.98795       -16.54029        -8.97616
| 86>    N        3.07220       -16.91393        -8.97831
| 87>    C        0.51165       -19.18931        -8.90389
| 88>    C        0.20113       -20.52464        -9.13391
| 89>    C       -1.07831       -20.91188        -9.54099
| 90>    C       -2.07852       -19.96325        -9.71168
| 91>   Br       -1.46770       -22.73282        -9.85924
| 92>   Br        1.54784       -21.82499        -8.88098
| 93>    H       -4.05545         1.98782         8.90605
| 94>    H       -5.02399         2.08868         4.02681
| 95>    H       -2.53742        -2.96719         6.81646
| 96>    H       -0.84413        -6.90800         1.90718
| 97>    H       -0.17380        -8.97942         1.52286
| 98>    H        0.08398       -11.22192        -0.48311
| 99>    H       -1.48046       -10.44033        -0.17424
|100>    H        0.20522       -11.56870         1.91754
|101>    H       -1.19178       -12.23767         1.34318
|102>    H        2.19809        -8.49951         0.78891
|103>    H        2.14438        -9.97645        -0.18945
|104>    H        1.74396        -9.91835         2.70189
|105>    H        3.04008       -10.52452         1.90150
|106>    H        1.02854       -10.26903        -2.23617
|107>    H        1.89879        -9.11932        -4.31200
|108>    H        0.25988        -7.83132        -5.76410
|109>    H       -0.71274        -6.07024        -4.35356
|110>    H       -1.48352        -4.47693        -2.40918
|111>    H       -2.04102        -3.41278        -0.26818
|112>    H        0.98980       -11.31967        -4.55658
|113>    H       -1.26950        -9.69851        -5.85064
|114>    H       -3.46939       -15.07010        -9.03477
|115>    H        1.50640       -18.92509        -8.58284
|116>    H       -3.07081       -20.25250       -10.02130
|117> *
|118>
|119>                          ****END OF INPUT****

CARTESIAN COORDINATES (ANGSTROEM)
---------------------------------
  C     -3.722750   -0.263150    4.995470
  O     -3.940350   -0.585510    3.850130
  C     -4.172460    0.984680    5.652230
  C     -3.884500    0.932110    7.027250
  C     -4.247400    1.990110    7.845310
  C     -4.884110    3.085640    7.273890
  C     -5.161520    3.130550    5.906100
  C     -4.809350    2.068070    5.083980
  Br    -6.020360    4.636600    5.154600
  Br    -5.377470    4.530630    8.388650
  C     -3.198460   -0.323100    7.319750
  C     -2.666290   -0.678980    8.529630
  C     -2.780460    0.098440    9.702290
  N     -2.845680    0.688180   10.684440
  C     -1.906590   -1.845290    8.767840
  N     -1.257630   -2.753900    9.033480
  C     -3.096640   -1.066950    6.077320
  C     -2.665380   -2.348940    5.936280
  C     -2.379200   -2.990180    4.688670
  C     -2.599080   -4.350170    4.507100
  F     -3.154080   -5.053730    5.504650
  C     -2.326560   -5.023440    3.309790
  F     -2.656110   -6.326620    3.266410
  C     -1.785160   -4.401920    2.192700
  C     -1.507520   -3.018370    2.355560
  C     -1.779400   -2.325920    3.587610
  N     -1.347920   -1.069360    3.561310
  S     -0.709820   -0.770220    2.118880
  N     -0.914080   -2.221350    1.467490
  C     -1.481060   -5.101690    0.952320
  C     -0.999090   -6.390490    0.973640
  C     -0.641090   -7.025080   -0.231410
  C     -0.096100   -8.281640   -0.466370
  C      0.215900   -9.317250    0.557720
  C     -0.497390  -10.651790    0.259680
  N     -0.699130  -11.366500    1.501480
  C      1.738210   -9.500070    0.706860
  N      2.040770  -10.362200    1.838260
  C      0.106650   -8.381680   -1.894220
  C      0.659700   -9.344280   -2.654800
  C      0.809560   -9.185530   -4.131180
  C      0.207450   -7.941180   -4.691980
  C     -0.318950   -6.975530   -3.915570
  C     -0.372850   -7.134840   -2.510730
  C     -0.814890   -6.315820   -1.489970
  C     -1.339570   -5.003370   -1.477640
  C     -1.648740   -4.415930   -0.293750
  C      0.376220  -10.464860   -4.797150
  C     -0.674720  -10.569370   -5.613040
  C     -1.103630  -11.765300   -6.302280
  C     -0.664420  -13.059590   -6.074880
  F      0.203870  -13.326810   -5.083110
  C     -1.081090  -14.160900   -6.837940
  F     -0.584170  -15.360180   -6.488170
  C     -1.986110  -14.072970   -7.885730
  C     -2.515740  -12.773930   -8.102540
  C     -2.068760  -11.644130   -7.337200
  N     -2.662140  -10.517470   -7.729000
  S     -3.672450  -10.850230   -8.930190
  N     -3.413860  -12.432510   -9.021850
  C     -2.446820  -15.170750   -8.683520
  C     -1.825420  -16.323810   -9.031740
  C     -2.653220  -17.455340   -9.550080
  O     -3.803320  -17.406730   -9.908960
  C     -1.771240  -18.639340   -9.473740
  C     -0.480570  -18.239690   -9.080070
  C     -0.452990  -16.785610   -8.943210
  C      0.677400  -16.015240   -8.964490
  C      0.670950  -14.609090   -9.053960
  N      0.715860  -13.465290   -9.138200
  C      1.987950  -16.540290   -8.976160
  N      3.072200  -16.913930   -8.978310
  C      0.511650  -19.189310   -8.903890
  C      0.201130  -20.524640   -9.133910
  C     -1.078310  -20.911880   -9.540990
  C     -2.078520  -19.963250   -9.711680
  Br    -1.467700  -22.732820   -9.859240
  Br     1.547840  -21.824990   -8.880980
  H     -4.055450    1.987820    8.906050
  H     -5.023990    2.088680    4.026810
  H     -2.537420   -2.967190    6.816460
  H     -0.844130   -6.908000    1.907180
  H     -0.173800   -8.979420    1.522860
  H      0.083980  -11.221920   -0.483110
  H     -1.480460  -10.440330   -0.174240
  H      0.205220  -11.568700    1.917540
  H     -1.191780  -12.237670    1.343180
  H      2.198090   -8.499510    0.788910
  H      2.144380   -9.976450   -0.189450
  H      1.743960   -9.918350    2.701890
  H      3.040080  -10.524520    1.901500
  H      1.028540  -10.269030   -2.236170
  H      1.898790   -9.119320   -4.312000
  H      0.259880   -7.831320   -5.764100
  H     -0.712740   -6.070240   -4.353560
  H     -1.483520   -4.476930   -2.409180
  H     -2.041020   -3.412780   -0.268180
  H      0.989800  -11.319670   -4.556580
  H     -1.269500   -9.698510   -5.850640
  H     -3.469390  -15.070100   -9.034770
  H      1.506400  -18.925090   -8.582840
  H     -3.070810  -20.252500  -10.021300

 Total Charge           Charge          ....    0
 Multiplicity           Mult            ....    1
 Number of Electrons    NEL             ....  654
 Basis Dimension        Dim             .... 1292

ORBITAL ENERGIES
----------------

  NO   OCC          E(Eh)            E(eV)
   0   2.0000    -482.881775    -13139.8811
   1   2.0000    -482.880802    -13139.8546
   2   2.0000    -482.878361    -13139.7882
   3   2.0000    -482.876297    -13139.7320
   4   2.0000     -89.037524     -2422.8342
   5   2.0000     -89.029680     -2422.6208
   6   2.0000     -62.559351     -1702.3265
   7   2.0000     -62.558413     -1702.3010
   8   2.0000     -62.555971     -1702.2345
   9   2.0000     -62.553920     -1702.1787
  10   2.0000     -56.393308     -1534.5399
  11   2.0000     -56.392378     -1534.5146
  12   2.0000     -56.390650     -1534.4676
  13   2.0000     -56.390552     -1534.4649
  14   2.0000     -56.389920     -1534.4477
  15   2.0000     -56.389704     -1534.4419
  16   2.0000     -56.389607     -1534.4392
  17   2.0000     -56.387883     -1534.3923
  18   2.0000     -56.387271     -1534.3757
  19   2.0000     -56.387175     -1534.3730
  20   2.0000     -56.385211     -1534.3196
  21   2.0000     -56.385114     -1534.3170
  22   2.0000     -24.824323      -675.5042
  23   2.0000     -24.813670      -675.2143
  24   2.0000     -24.811589      -675.1577
  25   2.0000     -24.800768      -674.8632
  26   2.0000     -19.230469      -523.2877
  27   2.0000     -19.222711      -523.0766
  28   2.0000     -14.453149      -393.2902
  29   2.0000     -14.451699      -393.2507
  30   2.0000     -14.444440      -393.0532
  31   2.0000     -14.441368      -392.9696
  32   2.0000     -14.431102      -392.6902
  33   2.0000     -14.427684      -392.5972
  34   2.0000     -14.421982      -392.4421
  35   2.0000     -14.421766      -392.4362
  36   2.0000     -14.392151      -391.6303
  37   2.0000     -14.358757      -390.7217
  38   2.0000     -10.403340      -283.0893
  39   2.0000     -10.395329      -282.8713
  40   2.0000     -10.392221      -282.7867
  41   2.0000     -10.383216      -282.5417
  42   2.0000     -10.381062      -282.4831
  43   2.0000     -10.374157      -282.2952
  44   2.0000     -10.360021      -281.9105
  45   2.0000     -10.359217      -281.8886
  46   2.0000     -10.359150      -281.8868
  47   2.0000     -10.355330      -281.7828
  48   2.0000     -10.354929      -281.7720
  49   2.0000     -10.354786      -281.7681
  50   2.0000     -10.352474      -281.7051
  51   2.0000     -10.348769      -281.6043
  52   2.0000     -10.343864      -281.4708
  53   2.0000     -10.341988      -281.4198
  54   2.0000     -10.335152      -281.2338
  55   2.0000     -10.334811      -281.2245
  56   2.0000     -10.331833      -281.1435
  57   2.0000     -10.330065      -281.0954
  58   2.0000     -10.329310      -281.0748
  59   2.0000     -10.326242      -280.9913
  60   2.0000     -10.325259      -280.9646
  61   2.0000     -10.325258      -280.9646
  62   2.0000     -10.323847      -280.9262
  63   2.0000     -10.323652      -280.9208
  64   2.0000     -10.323637      -280.9204
  65   2.0000     -10.319859      -280.8176
  66   2.0000     -10.319248      -280.8010
  67   2.0000     -10.318224      -280.7731
  68   2.0000     -10.317790      -280.7613
  69   2.0000     -10.314048      -280.6595
  70   2.0000     -10.313833      -280.6537
  71   2.0000     -10.312830      -280.6264
  72   2.0000     -10.312665      -280.6219
  73   2.0000     -10.310680      -280.5679
  74   2.0000     -10.309861      -280.5456
  75   2.0000     -10.307368      -280.4777
  76   2.0000     -10.304641      -280.4035
  77   2.0000     -10.302964      -280.3579
  78   2.0000     -10.299679      -280.2685
  79   2.0000     -10.291575      -280.0480
  80   2.0000     -10.289933      -280.0033
  81   2.0000     -10.289551      -279.9929
  82   2.0000     -10.279049      -279.7072
  83   2.0000     -10.278909      -279.7033
  84   2.0000     -10.276411      -279.6354
  85   2.0000     -10.275756      -279.6175
  86   2.0000     -10.272101      -279.5181
  87   2.0000     -10.268320      -279.4152
  88   2.0000     -10.267649      -279.3969
  89   2.0000     -10.266971      -279.3785
  90   2.0000     -10.266726      -279.3718
  91   2.0000     -10.265951      -279.3507
  92   2.0000     -10.264364      -279.3075
  93   2.0000     -10.263601      -279.2868
  94   2.0000      -8.788646      -239.1512
  95   2.0000      -8.787725      -239.1261
  96   2.0000      -8.785288      -239.0598
  97   2.0000      -8.783243      -239.0042
  98   2.0000      -8.129373      -221.2115
  99   2.0000      -8.121419      -220.9950
 100   2.0000      -6.624786      -180.2696
 101   2.0000      -6.623895      -180.2453
 102   2.0000      -6.621405      -180.1776
 103   2.0000      -6.619429      -180.1238
 104   2.0000      -6.610768      -179.8881
 105   2.0000      -6.609968      -179.8664
 106   2.0000      -6.609831      -179.8627
 107   2.0000      -6.609039      -179.8411
 108   2.0000      -6.607420      -179.7970
 109   2.0000      -6.606630      -179.7756
 110   2.0000      -6.605330      -179.7402
 111   2.0000      -6.604559      -179.7192
 112   2.0000      -6.100569      -166.0049
 113   2.0000      -6.092851      -165.7949
 114   2.0000      -6.092611      -165.7884
 115   2.0000      -6.091716      -165.7640
 116   2.0000      -6.084875      -165.5779
 117   2.0000      -6.083854      -165.5501
 118   2.0000      -2.740717       -74.5787
 119   2.0000      -2.739839       -74.5548
 120   2.0000      -2.737314       -74.4861
 121   2.0000      -2.736904       -74.4750
 122   2.0000      -2.736310       -74.4588
 123   2.0000      -2.735996       -74.4502
 124   2.0000      -2.735380       -74.4335
 125   2.0000      -2.735289       -74.4310
 126   2.0000      -2.733551       -74.3837
 127   2.0000      -2.732957       -74.3675
 128   2.0000      -2.731535       -74.3289
 129   2.0000      -2.730955       -74.3131
 130   2.0000      -2.725148       -74.1551
 131   2.0000      -2.725143       -74.1549
 132   2.0000      -2.724205       -74.1294
 133   2.0000      -2.724198       -74.1292
 134   2.0000      -2.721822       -74.0645
 135   2.0000      -2.721804       -74.0641
 136   2.0000      -2.719725       -74.0075
 137   2.0000      -2.719717       -74.0073
 138   2.0000      -1.342906       -36.5423
 139   2.0000      -1.331113       -36.2214
 140   2.0000      -1.322051       -35.9748
 141   2.0000      -1.310293       -35.6549
 142   2.0000      -1.146584       -31.2001
 143   2.0000      -1.140358       -31.0307
 144   2.0000      -1.139526       -31.0081
 145   2.0000      -1.130260       -30.7560
 146   2.0000      -1.034326       -28.1454
 147   2.0000      -1.027629       -27.9632
 148   2.0000      -1.017894       -27.6983
 149   2.0000      -1.011364       -27.5206
 150   2.0000      -1.007955       -27.4279
 151   2.0000      -1.000089       -27.2138
 152   2.0000      -0.997477       -27.1427
 153   2.0000      -0.992843       -27.0166
 154   2.0000      -0.990774       -26.9603
 155   2.0000      -0.989043       -26.9132
 156   2.0000      -0.984309       -26.7844
 157   2.0000      -0.983468       -26.7615
 158   2.0000      -0.977190       -26.5907
 159   2.0000      -0.973898       -26.5011
 160   2.0000      -0.949877       -25.8475
 161   2.0000      -0.940611       -25.5953
 162   2.0000      -0.930194       -25.3119
 163   2.0000      -0.927233       -25.2313
 164   2.0000      -0.923563       -25.1314
 165   2.0000      -0.920460       -25.0470
 166   2.0000      -0.917016       -24.9533
 167   2.0000      -0.913919       -24.8690
 168   2.0000      -0.906935       -24.6789
 169   2.0000      -0.895538       -24.3688
 170   2.0000      -0.881578       -23.9889
 171   2.0000      -0.878237       -23.8981
 172   2.0000      -0.876201       -23.8427
 173   2.0000      -0.868339       -23.6287
 174   2.0000      -0.865173       -23.5426
 175   2.0000      -0.859612       -23.3912
 176   2.0000      -0.854629       -23.2556
 177   2.0000      -0.849054       -23.1039
 178   2.0000      -0.840253       -22.8644
 179   2.0000      -0.835237       -22.7280
 180   2.0000      -0.829074       -22.5603
 181   2.0000      -0.810543       -22.0560
 182   2.0000      -0.791646       -21.5418
 183   2.0000      -0.782306       -21.2876
 184   2.0000      -0.774444       -21.0737
 185   2.0000      -0.769405       -20.9366
 186   2.0000      -0.761351       -20.7174
 187   2.0000      -0.759203       -20.6590
 188   2.0000      -0.756047       -20.5731
 189   2.0000      -0.742226       -20.1970
 190   2.0000      -0.737070       -20.0567
 191   2.0000      -0.726790       -19.7769
 192   2.0000      -0.723881       -19.6978
 193   2.0000      -0.722335       -19.6557
 194   2.0000      -0.717222       -19.5166
 195   2.0000      -0.710078       -19.3222
 196   2.0000      -0.698933       -19.0189
 197   2.0000      -0.697206       -18.9719
 198   2.0000      -0.693445       -18.8696
 199   2.0000      -0.690948       -18.8017
 200   2.0000      -0.680153       -18.5079
 201   2.0000      -0.676651       -18.4126
 202   2.0000      -0.675231       -18.3740
 203   2.0000      -0.669926       -18.2296
 204   2.0000      -0.659193       -17.9376
 205   2.0000      -0.656540       -17.8654
 206   2.0000      -0.653014       -17.7694
 207   2.0000      -0.647089       -17.6082
 208   2.0000      -0.645414       -17.5626
 209   2.0000      -0.642676       -17.4881
 210   2.0000      -0.633464       -17.2374
 211   2.0000      -0.632060       -17.1992
 212   2.0000      -0.627146       -17.0655
 213   2.0000      -0.625636       -17.0244
 214   2.0000      -0.618506       -16.8304
 215   2.0000      -0.611861       -16.6496
 216   2.0000      -0.609793       -16.5933
 217   2.0000      -0.601131       -16.3576
 218   2.0000      -0.596281       -16.2256
 219   2.0000      -0.595454       -16.2031
 220   2.0000      -0.589578       -16.0432
 221   2.0000      -0.587088       -15.9755
 222   2.0000      -0.584102       -15.8942
 223   2.0000      -0.582336       -15.8462
 224   2.0000      -0.577502       -15.7146
 225   2.0000      -0.575139       -15.6503
 226   2.0000      -0.566868       -15.4253
 227   2.0000      -0.565588       -15.3904
 228   2.0000      -0.565371       -15.3845
 229   2.0000      -0.563063       -15.3217
 230   2.0000      -0.559681       -15.2297
 231   2.0000      -0.558439       -15.1959
 232   2.0000      -0.557593       -15.1729
 233   2.0000      -0.554316       -15.0837
 234   2.0000      -0.551736       -15.0135
 235   2.0000      -0.550602       -14.9826
 236   2.0000      -0.548691       -14.9306
 237   2.0000      -0.547221       -14.8906
 238   2.0000      -0.545862       -14.8537
 239   2.0000      -0.544343       -14.8123
 240   2.0000      -0.540193       -14.6994
 241   2.0000      -0.533966       -14.5300
 242   2.0000      -0.531539       -14.4639
 243   2.0000      -0.527988       -14.3673
 244   2.0000      -0.525678       -14.3044
 245   2.0000      -0.524418       -14.2701
 246   2.0000      -0.521652       -14.1949
 247   2.0000      -0.517678       -14.0867
 248   2.0000      -0.516209       -14.0468
 249   2.0000      -0.514726       -14.0064
 250   2.0000      -0.512307       -13.9406
 251   2.0000      -0.508870       -13.8470
 252   2.0000      -0.506132       -13.7725
 253   2.0000      -0.504062       -13.7162
 254   2.0000      -0.502638       -13.6775
 255   2.0000      -0.501782       -13.6542
 256   2.0000      -0.500225       -13.6118
 257   2.0000      -0.498734       -13.5713
 258   2.0000      -0.496756       -13.5174
 259   2.0000      -0.491949       -13.3866
 260   2.0000      -0.491743       -13.3810
 261   2.0000      -0.486292       -13.2327
 262   2.0000      -0.484955       -13.1963
 263   2.0000      -0.480328       -13.0704
 264   2.0000      -0.473373       -12.8811
 265   2.0000      -0.472724       -12.8635
 266   2.0000      -0.470952       -12.8152
 267   2.0000      -0.467273       -12.7151
 268   2.0000      -0.466725       -12.7002
 269   2.0000      -0.465094       -12.6559
 270   2.0000      -0.464737       -12.6461
 271   2.0000      -0.463505       -12.6126
 272   2.0000      -0.462332       -12.5807
 273   2.0000      -0.461687       -12.5631
 274   2.0000      -0.453891       -12.3510
 275   2.0000      -0.453525       -12.3411
 276   2.0000      -0.451799       -12.2941
 277   2.0000      -0.449245       -12.2246
 278   2.0000      -0.448155       -12.1949
 279   2.0000      -0.444478       -12.0949
 280   2.0000      -0.442458       -12.0399
 281   2.0000      -0.440708       -11.9923
 282   2.0000      -0.438615       -11.9353
 283   2.0000      -0.437801       -11.9132
 284   2.0000      -0.436267       -11.8714
 285   2.0000      -0.433215       -11.7884
 286   2.0000      -0.431072       -11.7301
 287   2.0000      -0.430760       -11.7216
 288   2.0000      -0.426167       -11.5966
 289   2.0000      -0.420410       -11.4399
 290   2.0000      -0.417868       -11.3708
 291   2.0000      -0.416440       -11.3319
 292   2.0000      -0.413386       -11.2488
 293   2.0000      -0.410883       -11.1807
 294   2.0000      -0.406848       -11.0709
 295   2.0000      -0.405546       -11.0355
 296   2.0000      -0.402893       -10.9633
 297   2.0000      -0.399115       -10.8605
 298   2.0000      -0.397804       -10.8248
 299   2.0000      -0.395680       -10.7670
 300   2.0000      -0.394351       -10.7308
 301   2.0000      -0.391753       -10.6601
 302   2.0000      -0.390670       -10.6307
 303   2.0000      -0.389252       -10.5921
 304   2.0000      -0.383540       -10.4366
 305   2.0000      -0.375378       -10.2146
 306   2.0000      -0.372249       -10.1294
 307   2.0000      -0.367706       -10.0058
 308   2.0000      -0.358577        -9.7574
 309   2.0000      -0.354673        -9.6512
 310   2.0000      -0.352552        -9.5934
 311   2.0000      -0.349209        -9.5025
 312   2.0000      -0.347749        -9.4627
 313   2.0000      -0.343694        -9.3524
 314   2.0000      -0.341507        -9.2929
 315   2.0000      -0.338870        -9.2211
 316   2.0000      -0.337987        -9.1971
 317   2.0000      -0.332795        -9.0558
 318   2.0000      -0.329585        -8.9685
 319   2.0000      -0.319744        -8.7007
 320   2.0000      -0.317214        -8.6318
 321   2.0000      -0.314245        -8.5510
 322   2.0000      -0.312081        -8.4922
 323   2.0000      -0.293018        -7.9734
 324   2.0000      -0.287395        -7.8204
 325   2.0000      -0.285187        -7.7603
 326   2.0000      -0.225667        -6.1407
 327   0.0000      -0.105829        -2.8798
 328   0.0000      -0.103712        -2.8221
 329   0.0000      -0.080370        -2.1870
 330   0.0000      -0.076967        -2.0944
 331   0.0000      -0.066143        -1.7998

MULLIKEN ATOMIC CHARGES
-----------------------
   0 C :    0.161505
   1 O :   -0.136052
   2 C :   -0.019914
   3 C :    0.040079
   4 C :   -0.012171
   5 C :   -0.025278
   6 C :   -0.012534
   7 C :   -0.022115
   8 Br:    0.014645
   9 Br:    0.022389
  10 C :    0.296819
  11 C :   -0.329809
  12 C :   -0.184179
  13 N :    0.158611
  14 C :   -0.199561
  15 N :    0.167390
  16 C :   -0.063899
  17 C :   -0.053791
  18 C :   -0.007445
  19 C :    0.191273
  20 F :   -0.157360
  21 C :    0.151452
  22 F :   -0.168035
  23 C :    0.032066
  24 C :    0.007612
  25 C :    0.047388
  26 N :   -0.279786
  27 S :    0.519172
  28 N :   -0.271770
  29 C :    0.028845
  30 C :   -0.067160
  31 C :    0.035601
  32 C :   -0.015713
  33 C :   -0.064685
  34 C :    0.152969
  35 N :   -0.222679
  36 C :    0.146184
  37 N :   -0.217759
  38 C :    0.087120
  39 C :   -0.121382
  40 C :    0.175627
  41 C :   -0.065394
  42 C :    0.026904
  43 C :    0.000002
  44 C :    0.050161
  45 C :   -0.020956
  46 C :    0.035768
  47 C :   -0.084716
  48 C :    0.001309
  49 C :    0.059642
  50 C :    0.170305
  51 F :   -0.173877
  52 C :    0.170852
  53 F :   -0.162194
  54 C :   -0.008543
  55 C :    0.024030
  56 C :   -0.002557
  57 N :   -0.271816
  58 S :    0.525728
  59 N :   -0.263802
  60 C :    0.007614
  61 C :   -0.104069
  62 C :    0.134082
  63 O :   -0.124031
  64 C :    0.002243
  65 C :    0.017434
  66 C :    0.279394
  67 C :   -0.314299
  68 C :   -0.197930
  69 N :    0.167181
  70 C :   -0.183810
  71 N :    0.167625
  72 C :   -0.004522
  73 C :   -0.023228
  74 C :   -0.017997
  75 C :   -0.017555
  76 Br:    0.018561
  77 Br:    0.024980
  78 H :    0.008239
  79 H :    0.005071
  80 H :    0.042630
  81 H :   -0.027709
  82 H :   -0.020512
  83 H :   -0.029747
  84 H :    0.000783
  85 H :    0.081132
  86 H :    0.082743
  87 H :   -0.004251
  88 H :   -0.019524
  89 H :    0.103439
  90 H :    0.097812
  91 H :   -0.004302
  92 H :    0.053778
  93 H :   -0.002188
  94 H :   -0.035501
  95 H :   -0.037447
  96 H :   -0.018554
  97 H :    0.017103
  98 H :    0.015855
  99 H :    0.042879
 100 H :    0.012568
 101 H :    0.009518
Sum of atomic charges:   -0.0000000

LOEWDIN ATOMIC CHARGES
----------------------
   0 C :    0.084850
   1 O :   -0.129892
   2 C :   -0.038284
   3 C :   -0.012550
   4 C :   -0.006615
   5 C :   -0.119383
   6 C :   -0.121758
   7 C :    0.005539
   8 Br:    0.138112
   9 Br:    0.141524
  10 C :    0.073664
  11 C :   -0.125739
  12 C :   -0.018983
  13 N :   -0.041637
  14 C :   -0.022985
  15 N :   -0.040028
  16 C :   -0.075039
  17 C :    0.081342
  18 C :   -0.075149
  19 C :    0.098640
  20 F :   -0.037082
  21 C :    0.057419
  22 F :   -0.043759
  23 C :   -0.014051
  24 C :   -0.046985
  25 C :   -0.034678
  26 N :   -0.279319
  27 S :    0.654421
  28 N :   -0.274432
  29 C :   -0.031060
  30 C :    0.014298
  31 C :   -0.024602
  32 C :   -0.017750
  33 C :   -0.040995
  34 C :    0.031155
  35 N :   -0.125784
  36 C :    0.026631
  37 N :   -0.104666
  38 C :   -0.016196
  39 C :    0.071657
  40 C :   -0.031874
  41 C :   -0.040238
  42 C :   -0.010711
  43 C :   -0.041044
  44 C :   -0.026969
  45 C :   -0.013296
  46 C :   -0.013898
  47 C :    0.021984
  48 C :   -0.028192
  49 C :   -0.023378
  50 C :    0.068941
  51 F :   -0.043738
  52 C :    0.091850
  53 F :   -0.033267
  54 C :   -0.075211
  55 C :   -0.038349
  56 C :   -0.044064
  57 N :   -0.278442
  58 S :    0.658918
  59 N :   -0.283140
  60 C :    0.080625
  61 C :   -0.077916
  62 C :    0.086085
  63 O :   -0.124176
  64 C :   -0.045137
  65 C :   -0.008126
  66 C :    0.067067
  67 C :   -0.125585
  68 C :   -0.015704
  69 N :   -0.043352
  70 C :   -0.020504
  71 N :   -0.037935
  72 C :   -0.007825
  73 C :   -0.116897
  74 C :   -0.123206
  75 C :    0.009218
  76 Br:    0.140888
  77 Br:    0.145133
  78 H :    0.044789
  79 H :    0.045741
  80 H :    0.048322
  81 H :    0.025320
  82 H :    0.026073
  83 H :   -0.006017
  84 H :    0.018543
  85 H :    0.036208
  86 H :    0.050038
  87 H :    0.003853
  88 H :    0.011750
  89 H :    0.057627
  90 H :    0.058013
  91 H :    0.025716
  92 H :    0.071133
  93 H :    0.027017
  94 H :    0.030756
  95 H :    0.027423
  96 H :    0.027046
  97 H :    0.025203
  98 H :    0.038895
  99 H :    0.055481
 100 H :    0.045215
 101 H :    0.047466

  Mayer bond orders larger than 0.100000
B(  0-C ,  1-O ) :   2.2383 B(  0-C ,  2-C ) :   0.9427 B(  0-C , 16-C ) :   0.9363
B(  2-C ,  3-C ) :   1.3283 B(  2-C ,  7-C ) :   1.3729 B(  3-C ,  4-C ) :   1.3574
B(  3-C , 10-C ) :   0.9987 B(  4-C ,  5-C ) :   1.3746 B(  4-C , 78-H ) :   0.9798
B(  5-C ,  6-C ) :   1.4193 B(  5-C ,  9-Br) :   1.0575 B(  6-C ,  7-C ) :   1.3516
B(  6-C ,  8-Br) :   1.0344 B(  7-C , 79-H ) :   1.0083 B( 10-C , 11-C ) :   1.6613
B( 10-C , 16-C ) :   1.0601 B( 11-C , 12-C ) :   1.1358 B( 11-C , 14-C ) :   1.1398
B( 12-C , 13-N ) :   2.9724 B( 14-C , 15-N ) :   2.9891 B( 16-C , 17-C ) :   1.6565
B( 17-C , 18-C ) :   1.0966 B( 17-C , 80-H ) :   0.9416 B( 18-C , 19-C ) :   1.3736
B( 18-C , 23-C ) :   0.1199 B( 18-C , 25-C ) :   1.1793 B( 19-C , 20-F ) :   1.1809
B( 19-C , 21-C ) :   1.1407 B( 21-C , 22-F ) :   1.1455 B( 21-C , 23-C ) :   1.4168
B( 23-C , 24-C ) :   1.1919 B( 23-C , 29-C ) :   0.9973 B( 24-C , 25-C ) :   1.1506
B( 24-C , 28-N ) :   1.5395 B( 25-C , 26-N ) :   1.5384 B( 26-N , 27-S ) :   1.2608
B( 26-N , 28-N ) :   0.1453 B( 27-S , 28-N ) :   1.2754 B( 29-C , 30-C ) :   1.5308
B( 29-C , 46-C ) :   1.1442 B( 30-C , 31-C ) :   1.1586 B( 30-C , 81-H ) :   0.9904
B( 31-C , 32-C ) :   1.4915 B( 31-C , 44-C ) :   1.1127 B( 32-C , 33-C ) :   1.0295
B( 32-C , 38-C ) :   1.0852 B( 33-C , 34-C ) :   1.0234 B( 33-C , 36-C ) :   1.0453
B( 33-C , 82-H ) :   0.8783 B( 34-C , 35-N ) :   1.1134 B( 34-C , 83-H ) :   0.9218
B( 34-C , 84-H ) :   0.9477 B( 35-N , 85-H ) :   0.9445 B( 35-N , 86-H ) :   0.9671
B( 36-C , 37-N ) :   1.0847 B( 36-C , 87-H ) :   0.9457 B( 36-C , 88-H ) :   0.9316
B( 37-N , 89-H ) :   0.9621 B( 37-N , 90-H ) :   0.9671 B( 38-C , 39-C ) :   1.6883
B( 38-C , 43-C ) :   1.0461 B( 39-C , 40-C ) :   0.9634 B( 39-C , 91-H ) :   0.9563
B( 40-C , 41-C ) :   1.0085 B( 40-C , 47-C ) :   0.9468 B( 40-C , 92-H ) :   0.8319
B( 41-C , 42-C ) :   1.7123 B( 41-C , 93-H ) :   0.9674 B( 42-C , 43-C ) :   1.1320
B( 42-C , 94-H ) :   0.9902 B( 43-C , 44-C ) :   1.4416 B( 44-C , 45-C ) :   1.1370
B( 45-C , 46-C ) :   1.6124 B( 45-C , 95-H ) :   0.9940 B( 46-C , 96-H ) :   0.9772
B( 47-C , 48-C ) :   1.8169 B( 47-C , 97-H ) :   0.9671 B( 48-C , 49-C ) :   1.1092
B( 48-C , 98-H ) :   0.9539 B( 49-C , 50-C ) :   1.3910 B( 49-C , 54-C ) :   0.1261
B( 49-C , 56-C ) :   1.1591 B( 50-C , 51-F ) :   1.1276 B( 50-C , 52-C ) :   1.1579
B( 52-C , 53-F ) :   1.1437 B( 52-C , 54-C ) :   1.3709 B( 54-C , 55-C ) :   1.1753
B( 54-C , 60-C ) :   1.0794 B( 55-C , 56-C ) :   1.1483 B( 55-C , 59-N ) :   1.5897
B( 56-C , 57-N ) :   1.5601 B( 57-N , 58-S ) :   1.2725 B( 57-N , 59-N ) :   0.1458
B( 58-S , 59-N ) :   1.2585 B( 60-C , 61-C ) :   1.6932 B( 60-C , 99-H ) :   0.9397
B( 61-C , 62-C ) :   0.9314 B( 61-C , 66-C ) :   1.0247 B( 62-C , 63-O ) :   2.2828
B( 62-C , 64-C ) :   0.9234 B( 64-C , 65-C ) :   1.3255 B( 64-C , 75-C ) :   1.3705
B( 65-C , 66-C ) :   1.0086 B( 65-C , 72-C ) :   1.3698 B( 66-C , 67-C ) :   1.6676
B( 67-C , 68-C ) :   1.1741 B( 67-C , 70-C ) :   1.1256 B( 68-C , 69-N ) :   2.9941
B( 70-C , 71-N ) :   2.9930 B( 72-C , 73-C ) :   1.3711 B( 72-C ,100-H ) :   0.9813
B( 73-C , 74-C ) :   1.4169 B( 73-C , 77-Br) :   1.0553 B( 74-C , 75-C ) :   1.3594
B( 74-C , 76-Br) :   1.0364 B( 75-C ,101-H ) :   1.0077

-----------------------------------------------------------------------------
         ABSORPTION SPECTRUM VIA TRANSITION ELECTRIC DIPOLE MOMENTS
-----------------------------------------------------------------------------
State   Energy  Wavelength   fosc         T2         TX        TY        TZ
        (cm-1)    (nm)                  (au**2)     (au)      (au)      (au)
-----------------------------------------------------------------------------
   0   12254.5    816.0   0.129339028   3.47464  -0.47599   1.59411   0.84076
   1   14567.5    686.5   0.016303535   0.36844  -0.29336   0.21306   0.48681
   2   16612.1    602.0   0.342391742   6.78536   0.38609  -1.10413  -2.32749
   3   21360.6    468.2   0.011918744   0.18369   0.04884  -0.21862  -0.36539
   4   21977.3    455.0   0.002054718   0.03078  -0.08906   0.04974  -0.14273
   5   22811.7    438.4   1.478266265  21.33392   0.93078  -3.47580  -2.89592
   6   23227.3    430.5   0.050178901   0.71121  -0.32007  -0.15059   0.76556
   7   25502.6    392.1   0.003449793   0.04453   0.14127  -0.04443   0.15034
   8   25949.7    385.4   0.016499858   0.20933   0.07420   0.26088  -0.36846
   9   27027.6    370.0   0.001182564   0.01440  -0.02019   0.11323   0.03427
  10   27463.8    364.1   0.098796775   1.18429   0.23295  -1.01400  -0.31909
  11   27902.6    358.4   0.026745674   0.31556  -0.04214   0.29148   0.47835
  12   28446.1    351.5   0.033289794   0.38527  -0.01829  -0.41714  -0.45927
  13   28609.2    349.5   0.000796755   0.00917  -0.07156   0.03642   0.05216
  14   29263.1    341.7   0.197490559   2.22178   0.44717  -1.40272   0.23283
  15   29524.8    338.7   0.255807640   2.85234   1.06518   1.01977   0.82329
  16   30072.4    332.5   0.017137416   0.18761  -0.19868   0.36217  -0.13026
  17   30517.6    327.7   0.097375423   1.05045  -0.35456  -0.92914  -0.24784
  18   30757.7    325.1   0.000348187   0.00373   0.03138   0.05178   0.00777
  19   31119.1    321.3   0.045329372   0.47954  -0.08729   0.66405  -0.17597
  20   31526.7    317.2   0.004658576   0.04865  -0.14199   0.12985  -0.10781
  21   31593.9    316.5   0.019938993   0.20777   0.33332   0.25058  -0.18405
  22   31810.4    314.4   0.003017180   0.03123   0.15765   0.07161  -0.03526
  23   32214.6    310.4   0.068846869   0.70357  -0.09533  -0.83327   0.01219
  24   32406.6    308.6   0.098831012   1.00400  -0.75742  -0.09427  -0.64918
  25   32462.9    308.0   0.016924647   0.17164  -0.13313  -0.37072   0.12836
  26   32516.7    307.5   0.044795737   0.45353  -0.31123  -0.45604   0.38561
  27   32769.1    305.2   0.044556092   0.44763   0.04563   0.64306  -0.17893
  28   32975.6    303.3   0.035823182   0.35764  -0.15308   0.57700  -0.03574
  29   33456.7    298.9   0.052505495   0.51665  -0.03821   0.56341   0.44470
  30   33751.0    296.3   0.075436293   0.73582  -0.13445  -0.82132   0.20778
  31   33821.9    295.7   0.104139926   1.01367   0.65274  -0.52954   0.55424
  32   34591.9    289.1   0.624369550   5.94213   1.01717   2.17091   0.44118
  33   34623.9    288.8   0.186235025   1.77077   0.62795  -1.14328   0.26337
  34   35150.6    284.5   0.551666474   5.16678   0.60277  -0.64120   2.09578
  35   35450.4    282.1   0.000314058   0.00292   0.00217  -0.01742  -0.05107
  36   35594.3    280.9   0.125448055   1.16027  -0.36250   0.63028   0.79474
  37   35619.8    280.7   0.068374091   0.63194   0.39911  -0.43123  -0.53543
  38   35674.8    280.3   0.018564984   0.17132   0.04011  -0.28663  -0.29589
  39   35956.1    278.1   0.021046923   0.19270   0.19420  -0.24814  -0.30564
  40   36482.9    274.1   0.025102154   0.22651   0.38806   0.05839   0.26929
  41   37061.3    269.8   0.000834231   0.00741   0.04218   0.07396   0.01269
  42   37166.6    269.1   0.010287980   0.09113  -0.28392  -0.09814   0.02974
  43   37215.0    268.7   0.051683214   0.45720   0.60917  -0.25240   0.14968
  44   37555.2    266.3   0.058090028   0.50922   0.64521  -0.27532   0.13085
  45   37676.9    265.4   0.039552817   0.34560   0.54614  -0.15831   0.14923
  46   37744.7    264.9   0.001925664   0.01680  -0.07224   0.10619   0.01737
  47   37982.2    263.3   0.020277991   0.17576   0.00951   0.16307  -0.38611
  48   38014.9    263.1   0.017705538   0.15333  -0.15884   0.08063   0.34871
  49   38394.2    260.5   0.079922845   0.68530  -0.65533   0.47427   0.17582
  50   38532.3    259.5   0.048436409   0.41383   0.09321  -0.52764   0.35600
  51   38686.9    258.5   0.073792286   0.62795  -0.18433  -0.70979  -0.30029
  52   38843.7    257.4   0.053971169   0.45742   0.01113  -0.37874  -0.56022
  53   39234.3    254.9   0.160226261   1.34444   0.54754  -0.69590  -0.74858
  54   39344.9    254.2   0.002360106   0.01975  -0.03903  -0.06290   0.11945
  55   39624.2    252.4   0.287471939   2.38842   1.22601  -0.61740   0.71002
  56   39942.4    250.4   0.061426569   0.50629   0.03603  -0.46453   0.53777
  57   40037.6    249.8   0.189028624   1.55430  -0.32537   1.10787   0.47017
  58   40160.8    249.0   0.005697478   0.04670   0.07432  -0.20292   0.00244

FINAL SINGLE POINT ENERGY    -14333.531889811209

DIPOLE MOMENT
-------------
                                X             Y             Z
Electronic contribution:    -66.31541      -9.32829      -2.37297
Nuclear contribution   :     66.34261       8.87994       0.18153
                        -----------------------------------------
Total Dipole Moment    :      0.02720      -0.44835      -2.19144
                        -----------------------------------------
Magnitude (a.u.)       :      2.23700
Magnitude (Debye)      :      5.68600

Rotational constants in cm-1:     0.001727     0.000105     0.000103
Rotational constants in MHz :    51.785767     3.150724     3.074805

                             ****ORCA TERMINATED NORMALLY****
TOTAL RUN TIME: 0 days 0 hours 11 minutes 22 seconds 509 msec
