                         Program Version 4.2.0 -  RELEASE  -
|  1> # ORCA input file
|  2> # SCF done       -184.252178108691          0.000845135503
|  3> ! CAM-B3LYP def2-SVP def2/J RIJCOSX Grid4 TightSCF
|  4> %maxcore 5000
|  5> %tddft
|  6>     Mode sTDDFT
|  7>     Ethresh 5.0
|  8>     maxcore 5000
|  9> end
| 10>
| 11> %pal
| 12>   nprocs 6
| 13>   end
| 14> * xyz 0 1
| 15>    C        4.44284        13.02047         0.66903
| 16>    C        4.33829        14.22178         1.31632
| 17>    C        5.43149        14.91348         1.88122
| 18>    N        6.27590        15.52310         2.36297
| 19>    C        3.13135        14.91738         1.54091
| 20>    N        2.18690        15.53193         1.76065
| 21>    C        5.67177        12.26747         0.45497
| 22>    C        5.34797        11.00337        -0.11800
| 23>    C        6.30951        10.08548        -0.42844
| 24>    C        7.66541        10.40097        -0.19017
| 25>    C        7.99840        11.66557         0.37696
| 26>    C        6.98130        12.59184         0.69785
| 27>    C        9.35564        11.97001         0.60988
| 28>    C       10.33801        11.07033         0.29859
| 29>    C       10.00925         9.82540        -0.25955
| 30>    C        8.70225         9.49827        -0.49905
| 31>    C        3.88902        10.90238        -0.28423
| 32>    O        3.23833         9.90959        -0.51952
| 33>    C        3.36106        12.26183         0.05890
| 34>    C        2.09402        12.67343        -0.18339
| 35>    C        1.17249        11.98836        -1.03023
| 36>    C       -0.28551        11.94571        -0.84968
| 37>    N       -0.92069        11.32375        -1.79744
| 38>    C        0.03453        10.93568        -2.68941
| 39>    C        1.37202        11.33583        -2.22229
| 40>    C        2.36062        10.99972        -3.22076
| 41>    S        3.97029        11.37772        -3.19158
| 42>    C        1.61629        10.35524        -4.26041
| 43>    C        0.18788        10.33421        -3.91157
| 44>    N       -0.54444         9.74927        -4.90637
| 45>    C        0.31070         9.42268        -5.82561
| 46>    C        1.70298         9.76654        -5.51206
| 47>    C        2.81624         9.51080        -6.33560
| 48>    N        4.09471         9.80772        -5.92972
| 49>    C        4.94747         9.44319        -6.91481
| 50>    C        6.28413         9.38654        -7.26990
| 51>    C        6.32167         8.82026        -8.55986
| 52>    N        5.03568         8.53676        -8.97321
| 53>    C        4.17370         8.89845        -7.98982
| 54>    C        2.84069         8.93564        -7.62493
| 55>    C        7.41827         8.54369        -9.40003
| 56>    C        8.73007         8.68867        -9.06009
| 57>    C        9.80198         8.41576        -9.93567
| 58>    C       11.20511         8.39403        -9.50261
| 59>    N       12.06039         8.11775       -10.43885
| 60>    C       11.31655         7.94112       -11.56940
| 61>    C        9.87790         8.10675       -11.28655
| 62>    C        9.13686         7.97917       -12.50730
| 63>    S        7.53030         8.24033       -12.79137
| 64>    C       10.13194         7.69086       -13.51244
| 65>    C       11.47190         7.69931       -12.90907
| 66>    N       12.43063         7.53932       -13.86643
| 67>    C       11.79161         7.47780       -14.99661
| 68>    C       10.33094         7.56167       -14.86686
| 69>    C        9.39102         7.62919       -15.93498
| 70>    C        8.11960         7.16557       -15.84868
| 71>    C        7.00022         7.45480       -16.72988
| 72>    C        7.04726         8.13234       -17.91906
| 73>    C        5.91771         8.40946       -18.71857
| 74>    N        5.04185         8.66549       -19.41475
| 75>    C        8.22297         8.62254       -18.52567
| 76>    N        9.13908         9.04244       -19.07593
| 77>    C        5.80125         6.91620       -16.09988
| 78>    C        6.17613         6.18508       -14.93603
| 79>    C        7.64177         6.21925       -14.78910
| 80>    O        8.32870         5.51338       -14.08476
| 81>    C        5.25214         5.56478       -14.14615
| 82>    C        3.88312         5.66244       -14.47984
| 83>    C        3.49897         6.39549       -15.64002
| 84>    C        4.47851         7.01762       -16.44542
| 85>    C        2.12960         6.48350       -15.96607
| 86>    C        1.18362         5.87844       -15.18489
| 87>    C        1.56260         5.15794       -14.04180
| 88>    C        2.88263         5.05282       -13.69693
| 89>    H        6.03847         9.13335        -0.86003
| 90>    H        7.26483        13.54114         1.12411
| 91>    H        9.60306        12.92909         1.04070
| 92>    H       11.37430        11.31229         0.48093
| 93>    H       10.79750         9.12686        -0.49766
| 94>    H        8.44344         8.54075        -0.92717
| 95>    H        1.73263        13.60310         0.23923
| 96>    H       -0.81136        12.36170        -0.00826
| 97>    H       -0.01730         8.93687        -6.72750
| 98>    H        4.30857        10.27358        -5.04696
| 99>    H        7.13098         9.71266        -6.70190
|100>    H        4.80615         8.13789        -9.86796
|101>    H        1.98654         8.61027        -8.18276
|102>    H        7.18230         8.18249       -10.39263
|103>    H        8.99575         9.00752        -8.06156
|104>    H       11.53518         8.57633        -8.49382
|105>    H       12.31936         7.35196       -15.92585
|106>    H        9.73066         8.13915       -16.82775
|107>    H        5.56292         5.01174       -13.27205
|108>    H        4.15627         7.56362       -17.31784
|109>    H        1.84364         7.03864       -16.84734
|110>    H        0.13781         5.95056       -15.44316
|111>    H        0.80285         4.68449       -13.43784
|112>    H        3.18002         4.49552       -12.82030
|113> *
|114>
|115>                          ****END OF INPUT****

CARTESIAN COORDINATES (ANGSTROEM)
---------------------------------
  C      4.442840   13.020470    0.669030
  C      4.338290   14.221780    1.316320
  C      5.431490   14.913480    1.881220
  N      6.275900   15.523100    2.362970
  C      3.131350   14.917380    1.540910
  N      2.186900   15.531930    1.760650
  C      5.671770   12.267470    0.454970
  C      5.347970   11.003370   -0.118000
  C      6.309510   10.085480   -0.428440
  C      7.665410   10.400970   -0.190170
  C      7.998400   11.665570    0.376960
  C      6.981300   12.591840    0.697850
  C      9.355640   11.970010    0.609880
  C     10.338010   11.070330    0.298590
  C     10.009250    9.825400   -0.259550
  C      8.702250    9.498270   -0.499050
  C      3.889020   10.902380   -0.284230
  O      3.238330    9.909590   -0.519520
  C      3.361060   12.261830    0.058900
  C      2.094020   12.673430   -0.183390
  C      1.172490   11.988360   -1.030230
  C     -0.285510   11.945710   -0.849680
  N     -0.920690   11.323750   -1.797440
  C      0.034530   10.935680   -2.689410
  C      1.372020   11.335830   -2.222290
  C      2.360620   10.999720   -3.220760
  S      3.970290   11.377720   -3.191580
  C      1.616290   10.355240   -4.260410
  C      0.187880   10.334210   -3.911570
  N     -0.544440    9.749270   -4.906370
  C      0.310700    9.422680   -5.825610
  C      1.702980    9.766540   -5.512060
  C      2.816240    9.510800   -6.335600
  N      4.094710    9.807720   -5.929720
  C      4.947470    9.443190   -6.914810
  C      6.284130    9.386540   -7.269900
  C      6.321670    8.820260   -8.559860
  N      5.035680    8.536760   -8.973210
  C      4.173700    8.898450   -7.989820
  C      2.840690    8.935640   -7.624930
  C      7.418270    8.543690   -9.400030
  C      8.730070    8.688670   -9.060090
  C      9.801980    8.415760   -9.935670
  C     11.205110    8.394030   -9.502610
  N     12.060390    8.117750  -10.438850
  C     11.316550    7.941120  -11.569400
  C      9.877900    8.106750  -11.286550
  C      9.136860    7.979170  -12.507300
  S      7.530300    8.240330  -12.791370
  C     10.131940    7.690860  -13.512440
  C     11.471900    7.699310  -12.909070
  N     12.430630    7.539320  -13.866430
  C     11.791610    7.477800  -14.996610
  C     10.330940    7.561670  -14.866860
  C      9.391020    7.629190  -15.934980
  C      8.119600    7.165570  -15.848680
  C      7.000220    7.454800  -16.729880
  C      7.047260    8.132340  -17.919060
  C      5.917710    8.409460  -18.718570
  N      5.041850    8.665490  -19.414750
  C      8.222970    8.622540  -18.525670
  N      9.139080    9.042440  -19.075930
  C      5.801250    6.916200  -16.099880
  C      6.176130    6.185080  -14.936030
  C      7.641770    6.219250  -14.789100
  O      8.328700    5.513380  -14.084760
  C      5.252140    5.564780  -14.146150
  C      3.883120    5.662440  -14.479840
  C      3.498970    6.395490  -15.640020
  C      4.478510    7.017620  -16.445420
  C      2.129600    6.483500  -15.966070
  C      1.183620    5.878440  -15.184890
  C      1.562600    5.157940  -14.041800
  C      2.882630    5.052820  -13.696930
  H      6.038470    9.133350   -0.860030
  H      7.264830   13.541140    1.124110
  H      9.603060   12.929090    1.040700
  H     11.374300   11.312290    0.480930
  H     10.797500    9.126860   -0.497660
  H      8.443440    8.540750   -0.927170
  H      1.732630   13.603100    0.239230
  H     -0.811360   12.361700   -0.008260
  H     -0.017300    8.936870   -6.727500
  H      4.308570   10.273580   -5.046960
  H      7.130980    9.712660   -6.701900
  H      4.806150    8.137890   -9.867960
  H      1.986540    8.610270   -8.182760
  H      7.182300    8.182490  -10.392630
  H      8.995750    9.007520   -8.061560
  H     11.535180    8.576330   -8.493820
  H     12.319360    7.351960  -15.925850
  H      9.730660    8.139150  -16.827750
  H      5.562920    5.011740  -13.272050
  H      4.156270    7.563620  -17.317840
  H      1.843640    7.038640  -16.847340
  H      0.137810    5.950560  -15.443160
  H      0.802850    4.684490  -13.437840
  H      3.180020    4.495520  -12.820300

 Total Charge           Charge          ....    0
 Multiplicity           Mult            ....    1
 Number of Electrons    NEL             ....  502
 Basis Dimension        Dim             .... 1164

ORBITAL ENERGIES
----------------

  NO   OCC          E(Eh)            E(eV)
   0   2.0000     -88.918790     -2419.6033
   1   2.0000     -88.914550     -2419.4879
   2   2.0000     -19.218110      -522.9514
   3   2.0000     -19.214809      -522.8615
   4   2.0000     -14.479996      -394.0207
   5   2.0000     -14.464535      -393.6000
   6   2.0000     -14.430717      -392.6798
   7   2.0000     -14.426451      -392.5637
   8   2.0000     -14.423409      -392.4809
   9   2.0000     -14.421970      -392.4417
  10   2.0000     -14.421136      -392.4190
  11   2.0000     -14.420056      -392.3897
  12   2.0000     -14.420013      -392.3885
  13   2.0000     -14.419165      -392.3654
  14   2.0000     -10.372502      -282.2501
  15   2.0000     -10.371123      -282.2126
  16   2.0000     -10.356816      -281.8233
  17   2.0000     -10.352604      -281.7087
  18   2.0000     -10.351278      -281.6726
  19   2.0000     -10.350384      -281.6483
  20   2.0000     -10.348608      -281.5999
  21   2.0000     -10.347935      -281.5816
  22   2.0000     -10.346360      -281.5388
  23   2.0000     -10.345144      -281.5057
  24   2.0000     -10.343064      -281.4491
  25   2.0000     -10.340870      -281.3894
  26   2.0000     -10.336648      -281.2745
  27   2.0000     -10.336264      -281.2640
  28   2.0000     -10.333710      -281.1946
  29   2.0000     -10.332392      -281.1587
  30   2.0000     -10.332341      -281.1573
  31   2.0000     -10.331485      -281.1340
  32   2.0000     -10.325512      -280.9715
  33   2.0000     -10.324118      -280.9335
  34   2.0000     -10.323486      -280.9163
  35   2.0000     -10.323312      -280.9116
  36   2.0000     -10.323279      -280.9107
  37   2.0000     -10.322490      -280.8892
  38   2.0000     -10.320304      -280.8298
  39   2.0000     -10.320142      -280.8253
  40   2.0000     -10.318883      -280.7911
  41   2.0000     -10.316438      -280.7246
  42   2.0000     -10.313828      -280.6535
  43   2.0000     -10.311385      -280.5870
  44   2.0000     -10.310987      -280.5762
  45   2.0000     -10.308831      -280.5176
  46   2.0000     -10.308693      -280.5138
  47   2.0000     -10.308358      -280.5047
  48   2.0000     -10.307994      -280.4948
  49   2.0000     -10.306815      -280.4627
  50   2.0000     -10.303732      -280.3788
  51   2.0000     -10.303537      -280.3735
  52   2.0000     -10.303388      -280.3694
  53   2.0000     -10.303007      -280.3591
  54   2.0000     -10.302934      -280.3571
  55   2.0000     -10.302121      -280.3350
  56   2.0000     -10.301680      -280.3230
  57   2.0000     -10.301299      -280.3126
  58   2.0000     -10.300657      -280.2951
  59   2.0000     -10.299614      -280.2667
  60   2.0000     -10.299092      -280.2525
  61   2.0000     -10.298745      -280.2431
  62   2.0000     -10.294205      -280.1196
  63   2.0000     -10.293933      -280.1122
  64   2.0000     -10.293921      -280.1118
  65   2.0000     -10.293212      -280.0925
  66   2.0000     -10.292566      -280.0750
  67   2.0000     -10.292229      -280.0658
  68   2.0000     -10.291649      -280.0500
  69   2.0000     -10.291584      -280.0482
  70   2.0000     -10.291215      -280.0382
  71   2.0000     -10.291075      -280.0344
  72   2.0000     -10.290703      -280.0243
  73   2.0000     -10.288016      -279.9512
  74   2.0000      -8.014361      -218.0818
  75   2.0000      -8.009711      -217.9553
  76   2.0000      -5.983163      -162.8101
  77   2.0000      -5.981871      -162.7750
  78   2.0000      -5.978488      -162.6829
  79   2.0000      -5.977605      -162.6589
  80   2.0000      -5.974671      -162.5791
  81   2.0000      -5.969753      -162.4453
  82   2.0000      -1.134642       -30.8752
  83   2.0000      -1.131841       -30.7990
  84   2.0000      -1.111606       -30.2483
  85   2.0000      -1.093817       -29.7643
  86   2.0000      -1.091096       -29.6902
  87   2.0000      -1.074989       -29.2519
  88   2.0000      -1.071244       -29.1500
  89   2.0000      -1.070857       -29.1395
  90   2.0000      -1.024564       -27.8798
  91   2.0000      -1.023174       -27.8420
  92   2.0000      -1.004424       -27.3318
  93   2.0000      -1.003497       -27.3065
  94   2.0000      -1.000362       -27.2212
  95   2.0000      -0.999090       -27.1866
  96   2.0000      -0.977690       -26.6043
  97   2.0000      -0.977175       -26.5903
  98   2.0000      -0.973703       -26.4958
  99   2.0000      -0.971451       -26.4345
 100   2.0000      -0.933388       -25.3988
 101   2.0000      -0.932807       -25.3830
 102   2.0000      -0.931070       -25.3357
 103   2.0000      -0.919800       -25.0290
 104   2.0000      -0.918199       -24.9855
 105   2.0000      -0.912411       -24.8280
 106   2.0000      -0.892458       -24.2850
 107   2.0000      -0.891390       -24.2559
 108   2.0000      -0.890701       -24.2372
 109   2.0000      -0.886105       -24.1121
 110   2.0000      -0.885794       -24.1037
 111   2.0000      -0.880846       -23.9690
 112   2.0000      -0.869727       -23.6665
 113   2.0000      -0.865450       -23.5501
 114   2.0000      -0.856073       -23.2949
 115   2.0000      -0.845812       -23.0157
 116   2.0000      -0.844336       -22.9756
 117   2.0000      -0.833749       -22.6875
 118   2.0000      -0.833690       -22.6859
 119   2.0000      -0.809726       -22.0338
 120   2.0000      -0.803010       -21.8510
 121   2.0000      -0.797141       -21.6913
 122   2.0000      -0.785163       -21.3654
 123   2.0000      -0.775738       -21.1089
 124   2.0000      -0.767229       -20.8774
 125   2.0000      -0.766252       -20.8508
 126   2.0000      -0.761449       -20.7201
 127   2.0000      -0.745952       -20.2984
 128   2.0000      -0.734201       -19.9786
 129   2.0000      -0.722022       -19.6472
 130   2.0000      -0.719420       -19.5764
 131   2.0000      -0.716097       -19.4860
 132   2.0000      -0.712489       -19.3878
 133   2.0000      -0.710213       -19.3259
 134   2.0000      -0.708061       -19.2673
 135   2.0000      -0.707178       -19.2433
 136   2.0000      -0.700016       -19.0484
 137   2.0000      -0.698401       -19.0045
 138   2.0000      -0.696659       -18.9571
 139   2.0000      -0.682420       -18.5696
 140   2.0000      -0.681237       -18.5374
 141   2.0000      -0.678874       -18.4731
 142   2.0000      -0.663496       -18.0546
 143   2.0000      -0.655686       -17.8421
 144   2.0000      -0.652013       -17.7422
 145   2.0000      -0.643257       -17.5039
 146   2.0000      -0.640864       -17.4388
 147   2.0000      -0.634698       -17.2710
 148   2.0000      -0.631808       -17.1924
 149   2.0000      -0.617241       -16.7960
 150   2.0000      -0.616530       -16.7766
 151   2.0000      -0.615363       -16.7449
 152   2.0000      -0.612352       -16.6629
 153   2.0000      -0.612276       -16.6609
 154   2.0000      -0.603910       -16.4332
 155   2.0000      -0.590555       -16.0698
 156   2.0000      -0.586056       -15.9474
 157   2.0000      -0.582691       -15.8558
 158   2.0000      -0.581705       -15.8290
 159   2.0000      -0.573624       -15.6091
 160   2.0000      -0.571599       -15.5540
 161   2.0000      -0.571124       -15.5411
 162   2.0000      -0.561246       -15.2723
 163   2.0000      -0.557938       -15.1823
 164   2.0000      -0.556896       -15.1539
 165   2.0000      -0.555073       -15.1043
 166   2.0000      -0.552224       -15.0268
 167   2.0000      -0.551397       -15.0043
 168   2.0000      -0.549811       -14.9611
 169   2.0000      -0.549208       -14.9447
 170   2.0000      -0.548085       -14.9141
 171   2.0000      -0.543691       -14.7946
 172   2.0000      -0.542647       -14.7662
 173   2.0000      -0.538870       -14.6634
 174   2.0000      -0.538044       -14.6409
 175   2.0000      -0.533710       -14.5230
 176   2.0000      -0.527176       -14.3452
 177   2.0000      -0.525659       -14.3039
 178   2.0000      -0.521798       -14.1989
 179   2.0000      -0.521273       -14.1846
 180   2.0000      -0.517874       -14.0921
 181   2.0000      -0.517660       -14.0862
 182   2.0000      -0.512832       -13.9549
 183   2.0000      -0.512140       -13.9360
 184   2.0000      -0.510357       -13.8875
 185   2.0000      -0.510069       -13.8797
 186   2.0000      -0.505284       -13.7495
 187   2.0000      -0.504702       -13.7336
 188   2.0000      -0.502340       -13.6694
 189   2.0000      -0.501217       -13.6388
 190   2.0000      -0.500202       -13.6112
 191   2.0000      -0.495619       -13.4865
 192   2.0000      -0.494172       -13.4471
 193   2.0000      -0.493639       -13.4326
 194   2.0000      -0.489633       -13.3236
 195   2.0000      -0.488716       -13.2986
 196   2.0000      -0.485315       -13.2061
 197   2.0000      -0.482080       -13.1181
 198   2.0000      -0.480920       -13.0865
 199   2.0000      -0.470045       -12.7906
 200   2.0000      -0.469656       -12.7800
 201   2.0000      -0.467426       -12.7193
 202   2.0000      -0.460473       -12.5301
 203   2.0000      -0.455929       -12.4065
 204   2.0000      -0.454201       -12.3594
 205   2.0000      -0.453723       -12.3464
 206   2.0000      -0.450854       -12.2683
 207   2.0000      -0.450552       -12.2601
 208   2.0000      -0.449609       -12.2345
 209   2.0000      -0.446845       -12.1593
 210   2.0000      -0.446639       -12.1537
 211   2.0000      -0.442807       -12.0494
 212   2.0000      -0.441942       -12.0259
 213   2.0000      -0.439577       -11.9615
 214   2.0000      -0.439245       -11.9525
 215   2.0000      -0.434353       -11.8194
 216   2.0000      -0.433200       -11.7880
 217   2.0000      -0.428711       -11.6658
 218   2.0000      -0.427604       -11.6357
 219   2.0000      -0.425791       -11.5864
 220   2.0000      -0.424931       -11.5630
 221   2.0000      -0.415616       -11.3095
 222   2.0000      -0.414315       -11.2741
 223   2.0000      -0.412643       -11.2286
 224   2.0000      -0.411637       -11.2012
 225   2.0000      -0.410441       -11.1687
 226   2.0000      -0.388920       -10.5831
 227   2.0000      -0.385333       -10.4854
 228   2.0000      -0.385271       -10.4838
 229   2.0000      -0.370480       -10.0813
 230   2.0000      -0.369556       -10.0561
 231   2.0000      -0.368821       -10.0361
 232   2.0000      -0.364695        -9.9239
 233   2.0000      -0.358761        -9.7624
 234   2.0000      -0.358005        -9.7418
 235   2.0000      -0.356364        -9.6972
 236   2.0000      -0.340372        -9.2620
 237   2.0000      -0.338664        -9.2155
 238   2.0000      -0.328750        -8.9457
 239   2.0000      -0.325368        -8.8537
 240   2.0000      -0.324229        -8.8227
 241   2.0000      -0.323964        -8.8155
 242   2.0000      -0.315306        -8.5799
 243   2.0000      -0.310758        -8.4562
 244   2.0000      -0.309822        -8.4307
 245   2.0000      -0.307102        -8.3567
 246   2.0000      -0.301946        -8.2164
 247   2.0000      -0.298511        -8.1229
 248   2.0000      -0.298177        -8.1138
 249   2.0000      -0.293722        -7.9926
 250   2.0000      -0.243850        -6.6355
 251   0.0000      -0.130841        -3.5604
 252   0.0000      -0.122172        -3.3245
 253   0.0000      -0.109504        -2.9798
 254   0.0000      -0.094733        -2.5778
 255   0.0000      -0.079785        -2.1711

MULLIKEN ATOMIC CHARGES
-----------------------
   0 C :    0.309670
   1 C :   -0.345574
   2 C :   -0.182403
   3 N :    0.155790
   4 C :   -0.181736
   5 N :    0.153714
   6 C :    0.053554
   7 C :    0.020349
   8 C :   -0.082556
   9 C :    0.097068
  10 C :    0.096723
  11 C :   -0.086186
  12 C :   -0.016672
  13 C :    0.034895
  14 C :    0.035174
  15 C :   -0.015734
  16 C :    0.123780
  17 O :   -0.136661
  18 C :   -0.045586
  19 C :   -0.045965
  20 C :   -0.000993
  21 C :    0.060305
  22 N :   -0.026907
  23 C :   -0.009056
  24 C :    0.023192
  25 C :    0.029700
  26 S :   -0.157511
  27 C :   -0.071379
  28 C :    0.027042
  29 N :   -0.016942
  30 C :    0.069436
  31 C :    0.056124
  32 C :    0.025684
  33 N :   -0.021429
  34 C :    0.133927
  35 C :   -0.160763
  36 C :    0.099348
  37 N :   -0.027244
  38 C :    0.135970
  39 C :   -0.171862
  40 C :    0.059152
  41 C :   -0.038915
  42 C :    0.024144
  43 C :    0.065053
  44 N :   -0.019901
  45 C :    0.008117
  46 C :   -0.025177
  47 C :    0.026391
  48 S :   -0.146044
  49 C :    0.029063
  50 C :    0.002817
  51 N :   -0.025038
  52 C :    0.064370
  53 C :   -0.003290
  54 C :   -0.040929
  55 C :   -0.038205
  56 C :    0.315408
  57 C :   -0.347855
  58 C :   -0.179850
  59 N :    0.149082
  60 C :   -0.181128
  61 N :    0.153577
  62 C :    0.055434
  63 C :    0.033068
  64 C :    0.102671
  65 O :   -0.139675
  66 C :   -0.092006
  67 C :    0.100181
  68 C :    0.095261
  69 C :   -0.087882
  70 C :   -0.016525
  71 C :    0.033456
  72 C :    0.036752
  73 C :   -0.023834
  74 H :   -0.015485
  75 H :   -0.007176
  76 H :   -0.007945
  77 H :   -0.003055
  78 H :   -0.004075
  79 H :   -0.019455
  80 H :    0.029235
  81 H :    0.012996
  82 H :    0.008397
  83 H :    0.107653
  84 H :   -0.022055
  85 H :    0.132815
  86 H :   -0.028746
  87 H :   -0.031493
  88 H :   -0.024748
  89 H :    0.009396
  90 H :    0.013200
  91 H :    0.027220
  92 H :   -0.018299
  93 H :   -0.007443
  94 H :   -0.007220
  95 H :   -0.003321
  96 H :   -0.005111
  97 H :   -0.021315
Sum of atomic charges:   -0.0000000

LOEWDIN ATOMIC CHARGES
----------------------
   0 C :    0.076820
   1 C :   -0.131180
   2 C :   -0.017591
   3 N :   -0.047342
   4 C :   -0.018946
   5 N :   -0.046525
   6 C :   -0.023869
   7 C :   -0.052179
   8 C :    0.029550
   9 C :   -0.007231
  10 C :   -0.005946
  11 C :    0.020321
  12 C :   -0.004373
  13 C :   -0.013247
  14 C :   -0.011999
  15 C :   -0.011033
  16 C :    0.070114
  17 O :   -0.138143
  18 C :   -0.058843
  19 C :    0.054061
  20 C :   -0.040625
  21 C :    0.081582
  22 N :   -0.074096
  23 C :    0.022227
  24 C :   -0.005305
  25 C :   -0.116398
  26 S :    0.087501
  27 C :   -0.075584
  28 C :    0.054970
  29 N :   -0.067709
  30 C :    0.098227
  31 C :   -0.030868
  32 C :    0.006342
  33 N :    0.077244
  34 C :    0.003760
  35 C :   -0.075300
  36 C :    0.009434
  37 N :    0.075869
  38 C :   -0.009146
  39 C :   -0.078817
  40 C :    0.011655
  41 C :   -0.039027
  42 C :   -0.026708
  43 C :    0.093002
  44 N :   -0.071471
  45 C :    0.052350
  46 C :   -0.059047
  47 C :   -0.121083
  48 S :    0.085349
  49 C :   -0.001937
  50 C :    0.027132
  51 N :   -0.076125
  52 C :    0.086076
  53 C :   -0.043370
  54 C :    0.051644
  55 C :   -0.059739
  56 C :    0.076728
  57 C :   -0.132118
  58 C :   -0.017107
  59 N :   -0.049377
  60 C :   -0.018644
  61 N :   -0.047469
  62 C :   -0.023588
  63 C :   -0.050631
  64 C :    0.064592
  65 O :   -0.143301
  66 C :    0.023708
  67 C :   -0.008139
  68 C :   -0.007197
  69 C :    0.019705
  70 C :   -0.003859
  71 C :   -0.014893
  72 C :   -0.012881
  73 C :   -0.014666
  74 H :    0.037936
  75 H :    0.039197
  76 H :    0.035283
  77 H :    0.033793
  78 H :    0.033081
  79 H :    0.031190
  80 H :    0.048018
  81 H :    0.028359
  82 H :    0.026721
  83 H :    0.031743
  84 H :    0.028883
  85 H :    0.095718
  86 H :    0.026662
  87 H :    0.009946
  88 H :    0.028311
  89 H :    0.026660
  90 H :    0.028534
  91 H :    0.047114
  92 H :    0.036552
  93 H :    0.039207
  94 H :    0.035463
  95 H :    0.033648
  96 H :    0.032600
  97 H :    0.030084

  Mayer bond orders larger than 0.100000
B(  0-C ,  1-C ) :   1.6481 B(  0-C ,  6-C ) :   1.0017 B(  0-C , 18-C ) :   1.0504
B(  1-C ,  2-C ) :   1.1392 B(  1-C ,  4-C ) :   1.1433 B(  2-C ,  3-N ) :   2.9709
B(  4-C ,  5-N ) :   2.9682 B(  6-C ,  7-C ) :   1.2151 B(  6-C , 11-C ) :   1.4377
B(  7-C ,  8-C ) :   1.4701 B(  7-C , 16-C ) :   0.9260 B(  8-C ,  9-C ) :   1.1841
B(  8-C , 74-H ) :   1.0153 B(  9-C , 10-C ) :   1.2516 B(  9-C , 15-C ) :   1.2448
B( 10-C , 11-C ) :   1.2163 B( 10-C , 12-C ) :   1.2349 B( 11-C , 75-H ) :   0.9890
B( 12-C , 13-C ) :   1.4936 B( 12-C , 76-H ) :   0.9972 B( 13-C , 14-C ) :   1.2567
B( 13-C , 77-H ) :   0.9887 B( 14-C , 15-C ) :   1.4897 B( 14-C , 78-H ) :   0.9892
B( 15-C , 79-H ) :   0.9971 B( 16-C , 17-O ) :   2.2575 B( 16-C , 18-C ) :   0.8997
B( 18-C , 19-C ) :   1.7094 B( 19-C , 20-C ) :   1.0591 B( 19-C , 80-H ) :   0.9316
B( 20-C , 21-C ) :   1.0249 B( 20-C , 24-C ) :   1.5403 B( 21-C , 22-N ) :   1.7190
B( 21-C , 81-H ) :   0.9953 B( 22-N , 23-C ) :   1.2712 B( 23-C , 24-C ) :   1.0864
B( 23-C , 28-C ) :   1.5109 B( 24-C , 25-C ) :   1.0438 B( 25-C , 26-S ) :   1.5951
B( 25-C , 27-C ) :   1.0960 B( 26-S , 83-H ) :   0.1758 B( 27-C , 28-C ) :   1.0712
B( 27-C , 31-C ) :   1.4296 B( 28-C , 29-N ) :   1.2541 B( 29-N , 30-C ) :   1.7429
B( 30-C , 31-C ) :   1.0337 B( 30-C , 82-H ) :   0.9867 B( 31-C , 32-C ) :   1.0991
B( 32-C , 33-N ) :   1.2538 B( 32-C , 39-C ) :   1.3240 B( 33-N , 34-C ) :   1.1924
B( 33-N , 83-H ) :   0.8560 B( 34-C , 35-C ) :   1.2861 B( 34-C , 38-C ) :   1.2489
B( 35-C , 36-C ) :   1.3536 B( 35-C , 84-H ) :   1.0336 B( 36-C , 37-N ) :   1.1737
B( 36-C , 40-C ) :   1.1578 B( 37-N , 38-C ) :   1.1712 B( 37-N , 85-H ) :   0.9316
B( 38-C , 39-C ) :   1.3037 B( 39-C , 86-H ) :   1.0251 B( 40-C , 41-C ) :   1.5814
B( 40-C , 87-H ) :   0.9315 B( 41-C , 42-C ) :   1.1696 B( 41-C , 88-H ) :   0.9701
B( 42-C , 43-C ) :   1.0096 B( 42-C , 46-C ) :   1.4262 B( 43-C , 44-N ) :   1.7289
B( 43-C , 89-H ) :   0.9911 B( 44-N , 45-C ) :   1.2598 B( 45-C , 46-C ) :   1.0778
B( 45-C , 50-C ) :   1.5138 B( 46-C , 47-C ) :   1.0935 B( 47-C , 48-S ) :   1.6085
B( 47-C , 49-C ) :   1.0400 B( 48-S , 87-H ) :   0.1074 B( 49-C , 50-C ) :   1.0812
B( 49-C , 53-C ) :   1.5313 B( 50-C , 51-N ) :   1.2730 B( 51-N , 52-C ) :   1.7215
B( 52-C , 53-C ) :   1.0252 B( 52-C , 90-H ) :   0.9953 B( 53-C , 54-C ) :   1.0744
B( 54-C , 55-C ) :   1.6883 B( 54-C , 91-H ) :   0.9323 B( 55-C , 56-C ) :   1.0620
B( 55-C , 64-C ) :   0.8946 B( 56-C , 57-C ) :   1.6406 B( 56-C , 62-C ) :   0.9998
B( 57-C , 58-C ) :   1.1428 B( 57-C , 60-C ) :   1.1413 B( 58-C , 59-N ) :   2.9644
B( 60-C , 61-N ) :   2.9672 B( 62-C , 63-C ) :   1.2181 B( 62-C , 69-C ) :   1.4385
B( 63-C , 64-C ) :   0.9210 B( 63-C , 66-C ) :   1.4653 B( 64-C , 65-O ) :   2.2545
B( 66-C , 67-C ) :   1.1828 B( 66-C , 92-H ) :   1.0172 B( 67-C , 68-C ) :   1.2526
B( 67-C , 73-C ) :   1.2398 B( 68-C , 69-C ) :   1.2146 B( 68-C , 70-C ) :   1.2367
B( 69-C , 93-H ) :   0.9889 B( 70-C , 71-C ) :   1.4919 B( 70-C , 94-H ) :   0.9976
B( 71-C , 72-C ) :   1.2561 B( 71-C , 95-H ) :   0.9893 B( 72-C , 73-C ) :   1.4917
B( 72-C , 96-H ) :   0.9892 B( 73-C , 97-H ) :   0.9981

-----------------------------------------------------------------------------
         ABSORPTION SPECTRUM VIA TRANSITION ELECTRIC DIPOLE MOMENTS
-----------------------------------------------------------------------------
State   Energy  Wavelength   fosc         T2         TX        TY        TZ
        (cm-1)    (nm)                  (au**2)     (au)      (au)      (au)
-----------------------------------------------------------------------------
   0   10064.1    993.6   0.453429376  14.83241   1.91442  -1.04940  -3.17272
   1   11279.1    886.6   0.106350277   3.10413  -0.93178   0.38366   1.44524
   2   14099.2    709.3   0.781446918  18.24658   2.16899  -1.16929  -3.48924
   3   15601.4    641.0   0.019477725   0.41101  -0.10251   0.02418   0.63239
   4   17632.5    567.1   0.010582100   0.19758   0.01574  -0.23926  -0.37427
   5   17833.3    560.7   0.008664866   0.15996  -0.11161  -0.25102  -0.29067
   6   18553.5    539.0   0.001628178   0.02889  -0.05724  -0.15134   0.05207
   7   19814.1    504.7   0.035684548   0.59290  -0.39165  -0.01653  -0.66275
   8   20236.6    494.2   0.020517435   0.33378  -0.36934  -0.14865  -0.41865
   9   20842.0    479.8   0.053759235   0.84916   0.34460   0.40549   0.75233
  10   21617.5    462.6   0.084357831   1.28468  -0.10753   0.16245   1.11657
  11   22216.5    450.1   0.011183001   0.16571   0.31436  -0.05155  -0.25345
  12   22264.5    449.1   0.103387596   1.52873   0.06960   0.58642   1.08628
  13   22385.1    446.7   0.008985373   0.13215  -0.17832  -0.01442  -0.31645
  14   22661.6    441.3   0.012514068   0.18180   0.06009  -0.27197  -0.32283
  15   23096.0    433.0   0.061470733   0.87621   0.14148   0.17348   0.90890
  16   23263.0    429.9   0.011350624   0.16063  -0.26454   0.16353  -0.25280
  17   23387.5    427.6   0.004879372   0.06868  -0.03012  -0.09649   0.24180
  18   23693.8    422.1   0.015587082   0.21657  -0.28592   0.14041   0.33928
  19   24189.7    413.4   0.032665206   0.44456  -0.45391   0.07333  -0.48286
  20   24646.0    405.7   0.064365220   0.85976  -0.79667  -0.28619  -0.37838
  21   25435.9    393.1   0.005199973   0.06730   0.21781   0.05382   0.13026
  22   25728.3    388.7   0.042639166   0.54560  -0.04858   0.17242   0.71660
  23   25994.1    384.7   0.009750145   0.12348   0.21320   0.05915   0.27300
  24   26109.4    383.0   0.016209644   0.20439   0.19556   0.28992   0.28651
  25   26349.2    379.5   0.083585256   1.04433  -0.11144  -0.08189  -1.01252
  26   26584.1    376.2   0.036352745   0.45018   0.14662  -0.03127   0.65400
  27   26667.5    375.0   0.022908882   0.28281   0.04139  -0.36454  -0.38498
  28   26939.7    371.2   0.003613320   0.04416   0.05973   0.00967   0.20123
  29   27039.0    369.8   0.037863134   0.46100   0.00487  -0.50594  -0.45277
  30   27417.7    364.7   0.082872805   0.99508  -0.68408  -0.50522  -0.52140
  31   27686.6    361.2   0.171213735   2.03585   0.88149   0.13929   1.11329
  32   27758.6    360.2   0.021789264   0.25842  -0.41853  -0.11882  -0.26293
  33   27995.0    357.2   0.005118196   0.06019  -0.09061  -0.01267  -0.22764
  34   28024.7    356.8   0.010734523   0.12610  -0.09941  -0.19652  -0.27857
  35   28172.1    355.0   0.085492760   0.99905  -0.93651  -0.05714  -0.34456
  36   28653.0    349.0   0.100642071   1.15634   0.71215   0.17975   0.78541
  37   29049.5    344.2   0.043355546   0.49134  -0.69732  -0.03933  -0.05943
  38   29188.4    342.6   0.007322497   0.08259   0.26526   0.08522  -0.07045
  39   29279.6    341.5   0.012626589   0.14197   0.05205   0.33791   0.15835
  40   29723.4    336.4   0.011347886   0.12569  -0.33885  -0.10389  -0.00875
  41   29913.1    334.3   0.017106068   0.18826   0.32599   0.27481  -0.08044
  42   30350.0    329.5   0.003970058   0.04306   0.00323   0.06688  -0.19642
  43   30421.9    328.7   0.079494171   0.86025   0.74677  -0.53077  -0.14448
  44   30472.8    328.2   0.012229236   0.13212  -0.32776  -0.03318  -0.15359
  45   30699.2    325.7   0.114858576   1.23172  -0.65258   0.24884  -0.86252
  46   30821.0    324.5   0.002241777   0.02395  -0.06081  -0.14199  -0.00920
  47   30890.2    323.7   0.114831919   1.22382  -1.04166   0.24966  -0.27648
  48   30940.3    323.2   0.092858628   0.98804   0.77212   0.39764   0.48348
  49   31466.8    317.8   0.019566914   0.20471   0.13387   0.39919   0.16563
  50   31690.0    315.6   0.310243811   3.22297  -1.61504  -0.59063   0.51554
  51   31707.6    315.4   0.181930870   1.88894  -1.27513   0.41886  -0.29588
  52   31835.7    314.1   0.105452859   1.09048  -0.98863  -0.15740   0.29718
  53   32002.1    312.5   0.090011990   0.92597   0.51279  -0.73113  -0.35843
  54   32210.0    310.5   0.046790718   0.47824   0.55949   0.39067  -0.11217
  55   32556.0    307.2   0.174340145   1.76296   1.27178   0.18887   0.33147
  56   32883.3    304.1   0.066402756   0.66479  -0.74940  -0.17891  -0.26680
  57   33272.6    300.5   0.046562504   0.46071  -0.05530   0.18610   0.65040
  58   33355.3    299.8   0.021246064   0.20970   0.06039  -0.06767  -0.44885
  59   33418.5    299.2   0.061787095   0.60868  -0.08289  -0.21470  -0.74546
  60   33499.3    298.5   0.021745725   0.21370   0.06900   0.45217   0.06698
  61   33610.3    297.5   0.065221027   0.63884  -0.77967   0.05126  -0.16828
  62   34053.7    293.7   0.181569138   1.75531  -1.31128   0.09615   0.16312
  63   34094.1    293.3   0.197427394   1.90636  -1.03788   0.18894   0.89076
  64   34275.9    291.7   0.208004780   1.99784   1.33504   0.10635   0.45187
  65   34506.8    289.8   0.078618417   0.75006   0.86498  -0.04271  -0.00602
  66   34634.6    288.7   0.016093294   0.15297  -0.33606   0.17941  -0.08857
  67   34714.0    288.1   0.008539477   0.08098   0.06699   0.14790   0.23372
  68   34748.0    287.8   0.138968320   1.31662   0.73791   0.57209   0.66695
  69   34844.3    287.0   0.016048576   0.15163  -0.05559   0.37253   0.09877
  70   34901.9    286.5   0.135233376   1.27559  -1.04633  -0.41091   0.10923
  71   35322.1    283.1   0.073666312   0.68659   0.78916  -0.12861   0.21742
  72   35364.2    282.8   0.002758150   0.02568   0.10833  -0.00351   0.11801
  73   35539.9    281.4   0.006869188   0.06363   0.10005  -0.20277  -0.11181
  74   35601.6    280.9   0.012565161   0.11619   0.04440  -0.07870  -0.32867
  75   35847.2    279.0   0.041987234   0.38560  -0.50742   0.07624  -0.34973
  76   35890.8    278.6   0.003173549   0.02911  -0.12091  -0.06563   0.10091
  77   36004.0    277.7   0.001746807   0.01597  -0.06942   0.02991   0.10128
  78   36185.2    276.4   0.018366900   0.16710  -0.23139   0.29612   0.16085
  79   36326.8    275.3   0.003220950   0.02919  -0.00156   0.16902  -0.02491
  80   36691.5    272.5   0.026798877   0.24045  -0.33559   0.35689  -0.02136
  81   36917.7    270.9   0.005406713   0.04821   0.03660   0.21092  -0.04886
  82   37061.0    269.8   0.062016191   0.55089  -0.53871  -0.03208   0.50956
  83   37136.5    269.3   0.454626777   4.03022   1.01983  -1.66148  -0.47922
  84   37322.2    267.9   0.076625215   0.67590   0.58218  -0.53545  -0.22418
  85   37420.1    267.2   0.247019665   2.17321  -0.84009   0.05443   1.21016
  86   37528.1    266.5   0.157635143   1.38284   0.88129   0.65595  -0.41939
  87   37568.4    266.2   0.246896800   2.16356   0.49080   0.65911  -1.21994
  88   37943.4    263.6   0.063859713   0.55407   0.05630   0.56910  -0.47647
  89   38084.0    262.6   0.092502714   0.79963  -0.53454  -0.58182  -0.41878
  90   38269.0    261.3   0.141405870   1.21646   0.51679  -0.05360  -0.97289
  91   38304.6    261.1   0.112224116   0.96452   0.91956  -0.23773   0.24984
  92   38615.0    259.0   0.193055923   1.64590   1.28096   0.02335   0.06702
  93   38792.6    257.8   0.088867354   0.75417  -0.30259   0.32646   0.74568
  94   38928.6    256.9   0.001482991   0.01254   0.03242  -0.05585   0.09150
  95   39054.6    256.1   0.024452834   0.20613   0.38598   0.09334   0.22008
  96   39135.2    255.5   0.016990262   0.14292   0.32219   0.03882   0.19394
  97   39163.7    255.3   0.101262815   0.85122   0.88417   0.18909   0.18357
  98   39519.2    253.0   0.029632775   0.24685  -0.49104   0.06365  -0.04104
  99   39542.1    252.9   0.015088073   0.12562  -0.34707  -0.04488   0.05607
 100   39974.3    250.2   0.012996453   0.10703  -0.27048   0.06760   0.17119
 101   40230.8    248.6   0.043951932   0.35966  -0.59879   0.00113  -0.03327

FINAL SINGLE POINT ENERGY     -3790.896619700826

DIPOLE MOMENT
-------------
                                X             Y             Z
Electronic contribution:     -1.82617      10.82928      -1.86253
Nuclear contribution   :      1.66383     -13.08122       2.58467
                        -----------------------------------------
Total Dipole Moment    :     -0.16235      -2.25194       0.72214
                        -----------------------------------------
Magnitude (a.u.)       :      2.37046
Magnitude (Debye)      :      6.02522

Rotational constants in cm-1:     0.001463     0.000327     0.000280
Rotational constants in MHz :    43.860985     9.799578     8.403969

                             ****ORCA TERMINATED NORMALLY****
TOTAL RUN TIME: 0 days 0 hours 21 minutes 11 seconds 355 msec
