                         Program Version 4.2.0 -  RELEASE  -
|  1> # ORCA input file
|  2> # SCF done       -169.698910883313          0.007195598514
|  3> ! CAM-B3LYP def2-SVP def2/J RIJCOSX Grid4 TightSCF
|  4> %maxcore 5000
|  5> %tddft
|  6>     Mode sTDDFT
|  7>     Ethresh 5.0
|  8>     maxcore 5000
|  9> end
| 10>
| 11> %pal
| 12>   nprocs 6
| 13>   end
| 14> * xyz 0 1
| 15>    C        3.83766         7.81823         7.17893
| 16>    C        3.85826         6.45612         7.13793
| 17>    C        3.49414         5.97673         5.86645
| 18>    C        3.20618         7.01155         4.96839
| 19>    S        3.37666         8.55446         5.68393
| 20>    C        2.88173         6.44152         3.70402
| 21>    C        2.96507         5.04341         3.81535
| 22>    C        3.37170         4.70628         5.17247
| 23>    C        3.61016         3.45852         5.66519
| 24>    C        3.52323         2.30743         4.85393
| 25>    N        3.46722         1.37924         4.18338
| 26>    C        3.94906         3.23136         7.01744
| 27>    N        4.19076         3.02981         8.12022
| 28>    C        2.62435         4.38605         2.63424
| 29>    C        2.30999         5.28244         1.63524
| 30>    S        2.41357         6.95170         2.14510
| 31>    C        1.94754         5.00499         0.28108
| 32>    N        1.82657         6.05001        -0.53420
| 33>    C        1.45159         5.76449        -1.77768
| 34>    N        1.20211         4.52615        -2.22167
| 35>    C        1.38479         3.56696        -1.33794
| 36>    N        1.76170         3.73023        -0.08461
| 37>    C        1.28548         6.85484        -2.70404
| 38>    C        1.68862         8.12748        -2.39519
| 39>    C        1.50149         9.22165        -3.23379
| 40>    C        0.78755         9.07876        -4.50616
| 41>    C        0.34502         7.89661        -5.00138
| 42>    S        0.52310         6.39159        -4.20330
| 43>    C        0.72021        10.39191        -5.04017
| 44>    C        1.36623        11.29529        -4.18497
| 45>    C        1.31097        12.61555        -4.68656
| 46>    C        0.64788        12.67715        -5.87050
| 47>    S        0.06421        11.14938        -6.43455
| 48>    C        1.87974        10.56841        -3.05566
| 49>    C        2.67864        11.00961        -1.97684
| 50>    C        3.15630        12.25791        -1.74501
| 51>    C        4.04503        12.53306        -0.65813
| 52>    C        4.56029        13.77482        -0.40385
| 53>    C        5.46593        13.98006         0.67540
| 54>    C        5.99850        15.22773         0.97741
| 55>    C        6.90447        15.41229         2.03204
| 56>    N        7.64991        15.55552         2.89440
| 57>    C        5.65933        16.37084         0.23791
| 58>    N        5.38063        17.30734        -0.36765
| 59>    C        5.80627        12.81521         1.43072
| 60>    C        5.27631        11.60045         1.09917
| 61>    O        4.36992        11.46318         0.11325
| 62>    C        5.65335        10.41215         1.81979
| 63>    C        5.55985         9.11977         1.40949
| 64>    C        5.82438         7.94300         2.23356
| 65>    C        6.18556         7.92534         3.55565
| 66>    C        6.32186         6.74327         4.31297
| 67>    N        6.39850         5.82703         4.99891
| 68>    C        6.44638         9.04822         4.36884
| 69>    N        6.67498         9.90264         5.10090
| 70>    C        5.58133         6.76108         1.41938
| 71>    C        5.21965         7.17134         0.11260
| 72>    C        5.23758         8.64168         0.02922
| 73>    O        5.09603         9.29754        -0.97756
| 74>    C        4.91383         6.28735        -0.89281
| 75>    C        4.93740         4.92320        -0.58804
| 76>    C        5.29393         4.51788         0.72218
| 77>    C        5.63804         5.41238         1.72741
| 78>    S        5.21741         2.79267         0.89959
| 79>    C        4.70538         2.63999        -0.75696
| 80>    C        4.61379         3.81972        -1.42140
| 81>   Br        4.32483         0.95160        -1.45736
| 82>    H        4.07177         8.45425         8.00915
| 83>    H        4.12720         5.83788         7.97462
| 84>    H        2.59386         3.32268         2.48121
| 85>    H        1.21408         2.55104        -1.67244
| 86>    H        2.16406         8.25276        -1.43214
| 87>    H       -0.15438         7.82760        -5.95512
| 88>    H        1.72606        13.48308        -4.20859
| 89>    H        0.45698        13.54684        -6.46784
| 90>    H        2.98275        10.23618        -1.28570
| 91>    H        2.91391        13.09173        -2.38380
| 92>    H        4.28292        14.60764        -1.02991
| 93>    H        6.51048        12.89688         2.24371
| 94>    H        6.06583        10.61497         2.79809
| 95>    H        4.64917         6.63852        -1.87873
| 96>    H        5.91999         5.04604         2.69724
| 97>    H        4.31540         3.90805        -2.45152
| 98> *
| 99>
|100>                          ****END OF INPUT****

CARTESIAN COORDINATES (ANGSTROEM)
---------------------------------
  C      3.837660    7.818230    7.178930
  C      3.858260    6.456120    7.137930
  C      3.494140    5.976730    5.866450
  C      3.206180    7.011550    4.968390
  S      3.376660    8.554460    5.683930
  C      2.881730    6.441520    3.704020
  C      2.965070    5.043410    3.815350
  C      3.371700    4.706280    5.172470
  C      3.610160    3.458520    5.665190
  C      3.523230    2.307430    4.853930
  N      3.467220    1.379240    4.183380
  C      3.949060    3.231360    7.017440
  N      4.190760    3.029810    8.120220
  C      2.624350    4.386050    2.634240
  C      2.309990    5.282440    1.635240
  S      2.413570    6.951700    2.145100
  C      1.947540    5.004990    0.281080
  N      1.826570    6.050010   -0.534200
  C      1.451590    5.764490   -1.777680
  N      1.202110    4.526150   -2.221670
  C      1.384790    3.566960   -1.337940
  N      1.761700    3.730230   -0.084610
  C      1.285480    6.854840   -2.704040
  C      1.688620    8.127480   -2.395190
  C      1.501490    9.221650   -3.233790
  C      0.787550    9.078760   -4.506160
  C      0.345020    7.896610   -5.001380
  S      0.523100    6.391590   -4.203300
  C      0.720210   10.391910   -5.040170
  C      1.366230   11.295290   -4.184970
  C      1.310970   12.615550   -4.686560
  C      0.647880   12.677150   -5.870500
  S      0.064210   11.149380   -6.434550
  C      1.879740   10.568410   -3.055660
  C      2.678640   11.009610   -1.976840
  C      3.156300   12.257910   -1.745010
  C      4.045030   12.533060   -0.658130
  C      4.560290   13.774820   -0.403850
  C      5.465930   13.980060    0.675400
  C      5.998500   15.227730    0.977410
  C      6.904470   15.412290    2.032040
  N      7.649910   15.555520    2.894400
  C      5.659330   16.370840    0.237910
  N      5.380630   17.307340   -0.367650
  C      5.806270   12.815210    1.430720
  C      5.276310   11.600450    1.099170
  O      4.369920   11.463180    0.113250
  C      5.653350   10.412150    1.819790
  C      5.559850    9.119770    1.409490
  C      5.824380    7.943000    2.233560
  C      6.185560    7.925340    3.555650
  C      6.321860    6.743270    4.312970
  N      6.398500    5.827030    4.998910
  C      6.446380    9.048220    4.368840
  N      6.674980    9.902640    5.100900
  C      5.581330    6.761080    1.419380
  C      5.219650    7.171340    0.112600
  C      5.237580    8.641680    0.029220
  O      5.096030    9.297540   -0.977560
  C      4.913830    6.287350   -0.892810
  C      4.937400    4.923200   -0.588040
  C      5.293930    4.517880    0.722180
  C      5.638040    5.412380    1.727410
  S      5.217410    2.792670    0.899590
  C      4.705380    2.639990   -0.756960
  C      4.613790    3.819720   -1.421400
  Br     4.324830    0.951600   -1.457360
  H      4.071770    8.454250    8.009150
  H      4.127200    5.837880    7.974620
  H      2.593860    3.322680    2.481210
  H      1.214080    2.551040   -1.672440
  H      2.164060    8.252760   -1.432140
  H     -0.154380    7.827600   -5.955120
  H      1.726060   13.483080   -4.208590
  H      0.456980   13.546840   -6.467840
  H      2.982750   10.236180   -1.285700
  H      2.913910   13.091730   -2.383800
  H      4.282920   14.607640   -1.029910
  H      6.510480   12.896880    2.243710
  H      6.065830   10.614970    2.798090
  H      4.649170    6.638520   -1.878730
  H      5.919990    5.046040    2.697240
  H      4.315400    3.908050   -2.451520

 Total Charge           Charge          ....    0
 Multiplicity           Mult            ....    1
 Number of Electrons    NEL             ....  510
 Basis Dimension        Dim             .... 1056

ORBITAL ENERGIES
----------------

  NO   OCC          E(Eh)            E(eV)
   0   2.0000    -482.897609    -13140.3120
   1   2.0000     -89.001359     -2421.8501
   2   2.0000     -88.993433     -2421.6344
   3   2.0000     -88.992447     -2421.6076
   4   2.0000     -88.989194     -2421.5191
   5   2.0000     -88.969591     -2420.9856
   6   2.0000     -62.575213     -1702.7581
   7   2.0000     -56.409155     -1534.9712
   8   2.0000     -56.406441     -1534.8973
   9   2.0000     -56.406427     -1534.8969
  10   2.0000     -19.316402      -525.6260
  11   2.0000     -19.237141      -523.4692
  12   2.0000     -14.441710      -392.9789
  13   2.0000     -14.437928      -392.8760
  14   2.0000     -14.437853      -392.8740
  15   2.0000     -14.435972      -392.8228
  16   2.0000     -14.433438      -392.7538
  17   2.0000     -14.433235      -392.7483
  18   2.0000     -14.429882      -392.6570
  19   2.0000     -14.396292      -391.7430
  20   2.0000     -14.395470      -391.7207
  21   2.0000     -10.390763      -282.7470
  22   2.0000     -10.389812      -282.7212
  23   2.0000     -10.387045      -282.6459
  24   2.0000     -10.385784      -282.6116
  25   2.0000     -10.379582      -282.4428
  26   2.0000     -10.371918      -282.2342
  27   2.0000     -10.371209      -282.2150
  28   2.0000     -10.366774      -282.0943
  29   2.0000     -10.366764      -282.0940
  30   2.0000     -10.364798      -282.0405
  31   2.0000     -10.353498      -281.7330
  32   2.0000     -10.344323      -281.4833
  33   2.0000     -10.344284      -281.4823
  34   2.0000     -10.343409      -281.4585
  35   2.0000     -10.340755      -281.3862
  36   2.0000     -10.340197      -281.3711
  37   2.0000     -10.339858      -281.3618
  38   2.0000     -10.336111      -281.2599
  39   2.0000     -10.333361      -281.1851
  40   2.0000     -10.332835      -281.1707
  41   2.0000     -10.332599      -281.1643
  42   2.0000     -10.332485      -281.1612
  43   2.0000     -10.329885      -281.0904
  44   2.0000     -10.326609      -281.0013
  45   2.0000     -10.323373      -280.9133
  46   2.0000     -10.323171      -280.9078
  47   2.0000     -10.321680      -280.8672
  48   2.0000     -10.320346      -280.8309
  49   2.0000     -10.318090      -280.7695
  50   2.0000     -10.317709      -280.7591
  51   2.0000     -10.317268      -280.7471
  52   2.0000     -10.316976      -280.7392
  53   2.0000     -10.313171      -280.6356
  54   2.0000     -10.312972      -280.6302
  55   2.0000     -10.309416      -280.5335
  56   2.0000     -10.309096      -280.5248
  57   2.0000     -10.309057      -280.5237
  58   2.0000     -10.308881      -280.5189
  59   2.0000     -10.306519      -280.4546
  60   2.0000     -10.304504      -280.3998
  61   2.0000     -10.302860      -280.3551
  62   2.0000     -10.300348      -280.2867
  63   2.0000     -10.299830      -280.2726
  64   2.0000     -10.299752      -280.2705
  65   2.0000     -10.299185      -280.2551
  66   2.0000     -10.298245      -280.2295
  67   2.0000     -10.293275      -280.0943
  68   2.0000     -10.290617      -280.0219
  69   2.0000     -10.290042      -280.0063
  70   2.0000     -10.287796      -279.9452
  71   2.0000      -8.804656      -239.5869
  72   2.0000      -8.094461      -220.2615
  73   2.0000      -8.087843      -220.0814
  74   2.0000      -8.087032      -220.0593
  75   2.0000      -8.084667      -219.9950
  76   2.0000      -8.065064      -219.4616
  77   2.0000      -6.640906      -180.7082
  78   2.0000      -6.626519      -180.3167
  79   2.0000      -6.626109      -180.3056
  80   2.0000      -6.063703      -165.0017
  81   2.0000      -6.059476      -164.8867
  82   2.0000      -6.057177      -164.8242
  83   2.0000      -6.057154      -164.8235
  84   2.0000      -6.056446      -164.8043
  85   2.0000      -6.054370      -164.7478
  86   2.0000      -6.052642      -164.7008
  87   2.0000      -6.051861      -164.6795
  88   2.0000      -6.050503      -164.6425
  89   2.0000      -6.050014      -164.6293
  90   2.0000      -6.049266      -164.6089
  91   2.0000      -6.045974      -164.5193
  92   2.0000      -6.034500      -164.2071
  93   2.0000      -6.030221      -164.0907
  94   2.0000      -6.027119      -164.0063
  95   2.0000      -2.756828       -75.0171
  96   2.0000      -2.752792       -74.9073
  97   2.0000      -2.752490       -74.8991
  98   2.0000      -2.741036       -74.5874
  99   2.0000      -2.741029       -74.5872
 100   2.0000      -1.232263       -33.5316
 101   2.0000      -1.153125       -31.3781
 102   2.0000      -1.144559       -31.1450
 103   2.0000      -1.051208       -28.6048
 104   2.0000      -1.041876       -28.3509
 105   2.0000      -1.033031       -28.1102
 106   2.0000      -1.028352       -27.9829
 107   2.0000      -1.024448       -27.8766
 108   2.0000      -1.020056       -27.7571
 109   2.0000      -1.016564       -27.6621
 110   2.0000      -1.016018       -27.6472
 111   2.0000      -1.009723       -27.4759
 112   2.0000      -1.008629       -27.4462
 113   2.0000      -0.996710       -27.1219
 114   2.0000      -0.995966       -27.1016
 115   2.0000      -0.980407       -26.6782
 116   2.0000      -0.974925       -26.5290
 117   2.0000      -0.967943       -26.3391
 118   2.0000      -0.959181       -26.1006
 119   2.0000      -0.958653       -26.0863
 120   2.0000      -0.953298       -25.9405
 121   2.0000      -0.940586       -25.5947
 122   2.0000      -0.926620       -25.2146
 123   2.0000      -0.913807       -24.8660
 124   2.0000      -0.912780       -24.8380
 125   2.0000      -0.904311       -24.6076
 126   2.0000      -0.902469       -24.5574
 127   2.0000      -0.889708       -24.2102
 128   2.0000      -0.874344       -23.7921
 129   2.0000      -0.873000       -23.7555
 130   2.0000      -0.862336       -23.4654
 131   2.0000      -0.858590       -23.3634
 132   2.0000      -0.848191       -23.0805
 133   2.0000      -0.844617       -22.9832
 134   2.0000      -0.838328       -22.8121
 135   2.0000      -0.832138       -22.6436
 136   2.0000      -0.810319       -22.0499
 137   2.0000      -0.800017       -21.7696
 138   2.0000      -0.789302       -21.4780
 139   2.0000      -0.780226       -21.2310
 140   2.0000      -0.779885       -21.2217
 141   2.0000      -0.777431       -21.1550
 142   2.0000      -0.766355       -20.8536
 143   2.0000      -0.757177       -20.6038
 144   2.0000      -0.733992       -19.9729
 145   2.0000      -0.726173       -19.7602
 146   2.0000      -0.721649       -19.6371
 147   2.0000      -0.710395       -19.3308
 148   2.0000      -0.706292       -19.2192
 149   2.0000      -0.698953       -19.0195
 150   2.0000      -0.695083       -18.9142
 151   2.0000      -0.687172       -18.6989
 152   2.0000      -0.681804       -18.5528
 153   2.0000      -0.676922       -18.4200
 154   2.0000      -0.671545       -18.2737
 155   2.0000      -0.666557       -18.1379
 156   2.0000      -0.662446       -18.0261
 157   2.0000      -0.649889       -17.6844
 158   2.0000      -0.646401       -17.5895
 159   2.0000      -0.640782       -17.4366
 160   2.0000      -0.635879       -17.3031
 161   2.0000      -0.627729       -17.0814
 162   2.0000      -0.621310       -16.9067
 163   2.0000      -0.619724       -16.8635
 164   2.0000      -0.615735       -16.7550
 165   2.0000      -0.612653       -16.6711
 166   2.0000      -0.603335       -16.4176
 167   2.0000      -0.596380       -16.2283
 168   2.0000      -0.588542       -16.0150
 169   2.0000      -0.587241       -15.9796
 170   2.0000      -0.584213       -15.8972
 171   2.0000      -0.581677       -15.8282
 172   2.0000      -0.578210       -15.7339
 173   2.0000      -0.574602       -15.6357
 174   2.0000      -0.569127       -15.4867
 175   2.0000      -0.564171       -15.3519
 176   2.0000      -0.562301       -15.3010
 177   2.0000      -0.560413       -15.2496
 178   2.0000      -0.553748       -15.0683
 179   2.0000      -0.547569       -14.9001
 180   2.0000      -0.546396       -14.8682
 181   2.0000      -0.543513       -14.7897
 182   2.0000      -0.542836       -14.7713
 183   2.0000      -0.540411       -14.7053
 184   2.0000      -0.531315       -14.4578
 185   2.0000      -0.529487       -14.4081
 186   2.0000      -0.524207       -14.2644
 187   2.0000      -0.522597       -14.2206
 188   2.0000      -0.520483       -14.1631
 189   2.0000      -0.516250       -14.0479
 190   2.0000      -0.514870       -14.0103
 191   2.0000      -0.509365       -13.8605
 192   2.0000      -0.504769       -13.7355
 193   2.0000      -0.504214       -13.7204
 194   2.0000      -0.500045       -13.6069
 195   2.0000      -0.495457       -13.4821
 196   2.0000      -0.493948       -13.4410
 197   2.0000      -0.492563       -13.4033
 198   2.0000      -0.489624       -13.3233
 199   2.0000      -0.483217       -13.1490
 200   2.0000      -0.481994       -13.1157
 201   2.0000      -0.476490       -12.9660
 202   2.0000      -0.475279       -12.9330
 203   2.0000      -0.474503       -12.9119
 204   2.0000      -0.472521       -12.8579
 205   2.0000      -0.469823       -12.7845
 206   2.0000      -0.465650       -12.6710
 207   2.0000      -0.463574       -12.6145
 208   2.0000      -0.462864       -12.5952
 209   2.0000      -0.459790       -12.5115
 210   2.0000      -0.458896       -12.4872
 211   2.0000      -0.457748       -12.4560
 212   2.0000      -0.454903       -12.3785
 213   2.0000      -0.453157       -12.3310
 214   2.0000      -0.452018       -12.3000
 215   2.0000      -0.449319       -12.2266
 216   2.0000      -0.447215       -12.1693
 217   2.0000      -0.444332       -12.0909
 218   2.0000      -0.443510       -12.0685
 219   2.0000      -0.443286       -12.0624
 220   2.0000      -0.440529       -11.9874
 221   2.0000      -0.440019       -11.9735
 222   2.0000      -0.439205       -11.9514
 223   2.0000      -0.435462       -11.8495
 224   2.0000      -0.430939       -11.7264
 225   2.0000      -0.430774       -11.7220
 226   2.0000      -0.428702       -11.6656
 227   2.0000      -0.427948       -11.6451
 228   2.0000      -0.427377       -11.6295
 229   2.0000      -0.426562       -11.6073
 230   2.0000      -0.418840       -11.3972
 231   2.0000      -0.415053       -11.2942
 232   2.0000      -0.412949       -11.2369
 233   2.0000      -0.409684       -11.1481
 234   2.0000      -0.406249       -11.0546
 235   2.0000      -0.403126       -10.9696
 236   2.0000      -0.397382       -10.8133
 237   2.0000      -0.387919       -10.5558
 238   2.0000      -0.385924       -10.5015
 239   2.0000      -0.381580       -10.3833
 240   2.0000      -0.370781       -10.0895
 241   2.0000      -0.365808        -9.9541
 242   2.0000      -0.364017        -9.9054
 243   2.0000      -0.360946        -9.8218
 244   2.0000      -0.356806        -9.7092
 245   2.0000      -0.352819        -9.6007
 246   2.0000      -0.346090        -9.4176
 247   2.0000      -0.329434        -8.9643
 248   2.0000      -0.327381        -8.9085
 249   2.0000      -0.323591        -8.8054
 250   2.0000      -0.307453        -8.3662
 251   2.0000      -0.295119        -8.0306
 252   2.0000      -0.284734        -7.7480
 253   2.0000      -0.283132        -7.7044
 254   2.0000      -0.250746        -6.8232
 255   0.0000      -0.120877        -3.2892
 256   0.0000      -0.107519        -2.9257
 257   0.0000      -0.091632        -2.4934
 258   0.0000      -0.082112        -2.2344
 259   0.0000      -0.057527        -1.5654

MULLIKEN ATOMIC CHARGES
-----------------------
   0 C :   -0.070005
   1 C :    0.049353
   2 C :   -0.002570
   3 C :   -0.142226
   4 S :    0.184537
   5 C :   -0.100785
   6 C :    0.008114
   7 C :    0.294330
   8 C :   -0.282471
   9 C :   -0.199494
  10 N :    0.176997
  11 C :   -0.188819
  12 N :    0.181287
  13 C :   -0.045900
  14 C :   -0.057420
  15 S :    0.212872
  16 C :   -0.035561
  17 N :   -0.072552
  18 C :   -0.013165
  19 N :   -0.110452
  20 C :    0.121921
  21 N :   -0.083333
  22 C :   -0.088644
  23 C :   -0.039945
  24 C :    0.066132
  25 C :    0.056469
  26 C :   -0.120164
  27 S :    0.208983
  28 C :   -0.109072
  29 C :    0.047748
  30 C :    0.000185
  31 C :   -0.063928
  32 S :    0.136475
  33 C :    0.099453
  34 C :    0.048624
  35 C :   -0.070936
  36 C :    0.254426
  37 C :   -0.150616
  38 C :    0.296570
  39 C :   -0.337993
  40 C :   -0.179941
  41 N :    0.131059
  42 C :   -0.177204
  43 N :    0.128493
  44 C :   -0.127828
  45 C :    0.216682
  46 O :   -0.210720
  47 C :   -0.063183
  48 C :   -0.034714
  49 C :    0.312324
  50 C :   -0.372665
  51 C :   -0.155868
  52 N :    0.151980
  53 C :   -0.193762
  54 N :    0.175055
  55 C :    0.027846
  56 C :   -0.007319
  57 C :    0.139103
  58 O :   -0.132095
  59 C :   -0.067920
  60 C :    0.119351
  61 C :   -0.097375
  62 C :   -0.014778
  63 S :    0.210143
  64 C :   -0.115632
  65 C :    0.020334
  66 Br:    0.041166
  67 H :    0.045225
  68 H :    0.015700
  69 H :    0.026392
  70 H :    0.024520
  71 H :   -0.000049
  72 H :    0.039809
  73 H :   -0.009481
  74 H :    0.031625
  75 H :   -0.011170
  76 H :   -0.022154
  77 H :    0.020735
  78 H :    0.043000
  79 H :    0.033995
  80 H :   -0.011355
  81 H :   -0.009225
  82 H :    0.001476
Sum of atomic charges:   -0.0000000

LOEWDIN ATOMIC CHARGES
----------------------
   0 C :   -0.162244
   1 C :   -0.027382
   2 C :   -0.057641
   3 C :   -0.201963
   4 S :    0.490774
   5 C :   -0.165996
   6 C :   -0.078505
   7 C :    0.079813
   8 C :   -0.094099
   9 C :   -0.017113
  10 N :   -0.033399
  11 C :   -0.015196
  12 N :   -0.027369
  13 C :    0.007362
  14 C :   -0.204807
  15 S :    0.512648
  16 C :    0.035658
  17 N :   -0.117111
  18 C :    0.034180
  19 N :   -0.132242
  20 C :    0.082450
  21 N :   -0.107975
  22 C :   -0.204649
  23 C :    0.016274
  24 C :   -0.008951
  25 C :   -0.052994
  26 C :   -0.133818
  27 S :    0.505925
  28 C :   -0.196391
  29 C :   -0.036501
  30 C :   -0.063272
  31 C :   -0.158246
  32 S :    0.429613
  33 C :   -0.046759
  34 C :    0.034431
  35 C :   -0.068166
  36 C :    0.104432
  37 C :   -0.062609
  38 C :    0.046869
  39 C :   -0.174114
  40 C :   -0.033200
  41 N :   -0.068870
  42 C :   -0.028556
  43 N :   -0.069282
  44 C :   -0.006484
  45 C :    0.066522
  46 O :    0.013436
  47 C :    0.049778
  48 C :   -0.063049
  49 C :    0.069927
  50 C :   -0.133551
  51 C :   -0.010554
  52 N :   -0.045402
  53 C :   -0.031515
  54 N :   -0.038478
  55 C :   -0.029733
  56 C :   -0.056914
  57 C :    0.080608
  58 O :   -0.125868
  59 C :    0.025681
  60 C :   -0.034546
  61 C :   -0.140515
  62 C :   -0.008075
  63 S :    0.461006
  64 C :   -0.265002
  65 C :   -0.079844
  66 Br:    0.154671
  67 H :    0.032378
  68 H :    0.045070
  69 H :    0.043312
  70 H :    0.024118
  71 H :    0.040110
  72 H :    0.038229
  73 H :    0.030769
  74 H :    0.026510
  75 H :    0.029831
  76 H :    0.033771
  77 H :    0.047495
  78 H :    0.054067
  79 H :    0.054078
  80 H :    0.040318
  81 H :    0.038449
  82 H :    0.038389

  Mayer bond orders larger than 0.100000
B(  0-C ,  1-C ) :   1.5426 B(  0-C ,  4-S ) :   1.1615 B(  0-C , 67-H ) :   0.9644
B(  1-C ,  2-C ) :   1.2799 B(  1-C , 68-H ) :   0.9945 B(  2-C ,  3-C ) :   1.4565
B(  2-C ,  7-C ) :   1.0129 B(  3-C ,  4-S ) :   1.1265 B(  3-C ,  5-C ) :   1.1864
B(  5-C ,  6-C ) :   1.4299 B(  5-C , 15-S ) :   1.1479 B(  6-C ,  7-C ) :   0.9872
B(  6-C , 13-C ) :   1.2626 B(  7-C ,  8-C ) :   1.7237 B(  8-C ,  9-C ) :   1.1362
B(  8-C , 11-C ) :   1.1290 B(  9-C , 10-N ) :   2.9925 B( 11-C , 12-N ) :   3.0037
B( 13-C , 14-C ) :   1.4476 B( 13-C , 69-H ) :   1.0112 B( 14-C , 15-S ) :   1.1003
B( 14-C , 16-C ) :   1.0438 B( 16-C , 17-N ) :   1.5499 B( 16-C , 21-N ) :   1.5761
B( 17-N , 18-C ) :   1.5350 B( 18-C , 19-N ) :   1.5604 B( 18-C , 22-C ) :   1.0271
B( 19-N , 20-C ) :   1.4948 B( 20-C , 21-N ) :   1.4918 B( 20-C , 70-H ) :   0.9760
B( 22-C , 23-C ) :   1.5511 B( 22-C , 27-S ) :   1.0708 B( 23-C , 24-C ) :   1.2170
B( 23-C , 71-H ) :   0.9650 B( 24-C , 25-C ) :   1.0619 B( 24-C , 33-C ) :   1.3565
B( 25-C , 26-C ) :   1.5721 B( 25-C , 28-C ) :   1.1950 B( 26-C , 27-S ) :   1.1590
B( 26-C , 72-H ) :   0.9406 B( 28-C , 29-C ) :   1.4340 B( 28-C , 32-S ) :   1.0812
B( 29-C , 30-C ) :   1.2146 B( 29-C , 33-C ) :   1.0864 B( 30-C , 31-C ) :   1.5910
B( 30-C , 73-H ) :   1.0011 B( 31-C , 32-S ) :   1.1551 B( 31-C , 74-H ) :   0.9643
B( 33-C , 34-C ) :   1.1810 B( 34-C , 35-C ) :   1.5827 B( 34-C , 75-H ) :   0.9482
B( 35-C , 36-C ) :   1.1480 B( 35-C , 76-H ) :   0.9818 B( 36-C , 37-C ) :   1.4786
B( 36-C , 46-O ) :   1.1026 B( 37-C , 38-C ) :   1.1420 B( 37-C , 77-H ) :   0.9771
B( 38-C , 39-C ) :   1.5259 B( 38-C , 44-C ) :   1.0896 B( 39-C , 40-C ) :   1.1394
B( 39-C , 42-C ) :   1.1420 B( 40-C , 41-N ) :   3.0016 B( 42-C , 43-N ) :   3.0044
B( 44-C , 45-C ) :   1.5254 B( 44-C , 78-H ) :   0.9776 B( 45-C , 46-O ) :   1.1472
B( 45-C , 47-C ) :   1.0900 B( 47-C , 48-C ) :   1.6339 B( 47-C , 79-H ) :   0.9415
B( 48-C , 49-C ) :   1.0512 B( 48-C , 57-C ) :   0.9089 B( 49-C , 50-C ) :   1.6416
B( 49-C , 55-C ) :   1.0093 B( 50-C , 51-C ) :   1.1527 B( 50-C , 53-C ) :   1.1425
B( 51-C , 52-N ) :   2.9079 B( 53-C , 54-N ) :   2.9610 B( 55-C , 56-C ) :   1.2567
B( 55-C , 62-C ) :   1.4063 B( 56-C , 57-C ) :   0.9461 B( 56-C , 59-C ) :   1.4148
B( 57-C , 58-O ) :   2.2337 B( 59-C , 60-C ) :   1.2409 B( 59-C , 80-H ) :   1.0168
B( 60-C , 61-C ) :   1.3046 B( 60-C , 65-C ) :   1.1709 B( 61-C , 62-C ) :   1.3233
B( 61-C , 63-S ) :   1.0984 B( 62-C , 81-H ) :   0.9753 B( 63-S , 64-C ) :   1.0923
B( 64-C , 65-C ) :   1.6021 B( 64-C , 66-Br) :   1.0340 B( 65-C , 82-H ) :   0.9945

-----------------------------------------------------------------------------
         ABSORPTION SPECTRUM VIA TRANSITION ELECTRIC DIPOLE MOMENTS
-----------------------------------------------------------------------------
State   Energy  Wavelength   fosc         T2         TX        TY        TZ
        (cm-1)    (nm)                  (au**2)     (au)      (au)      (au)
-----------------------------------------------------------------------------
   0   13476.4    742.0   0.101092204   2.46955   0.90481   1.09455   0.67293
   1   17250.4    579.7   0.033414828   0.63770  -0.01329   0.11362  -0.79032
   2   18574.9    538.4   0.023155291   0.41039   0.00685   0.50839  -0.38972
   3   18884.9    529.5   0.095600829   1.66657  -0.88135  -0.82302  -0.46091
   4   19816.0    504.6   0.080958693   1.34501   0.12098   1.15278  -0.03833
   5   20644.0    484.4   0.761185082  12.13872  -0.86361  -3.37493   0.05252
   6   21426.1    466.7   0.061204196   0.94040   0.02061  -0.86247   0.44286
   7   23878.4    418.8   0.004184092   0.05769   0.01843   0.08203   0.22498
   8   24158.4    413.9   0.128669892   1.75341   0.31135   0.51269   1.18052
   9   24990.5    400.2   0.113497981   1.49516   0.50967  -0.76750   0.80396
  10   25952.1    385.3   0.015784551   0.20023  -0.20851  -0.20624   0.33797
  11   26197.2    381.7   0.007639811   0.09601  -0.15615   0.26415  -0.04299
  12   26423.1    378.5   0.043048521   0.53635  -0.05639  -0.59112   0.42866
  13   26642.9    375.3   0.153887398   1.90151  -0.61901  -0.93311  -0.80477
  14   27010.6    370.2   0.010312424   0.12569  -0.09341  -0.00437  -0.34197
  15   27252.0    366.9   0.033784900   0.40813  -0.09935  -0.01630  -0.63087
  16   27441.2    364.4   0.292733586   3.51192  -0.86071  -0.28471  -1.64013
  17   27920.4    358.2   0.098589475   1.16248   0.46638  -0.52824   0.81605
  18   28123.7    355.6   0.005337209   0.06248   0.08427   0.08802  -0.21824
  19   28210.9    354.5   0.055287655   0.64519  -0.44690  -0.54096  -0.39095
  20   28246.5    354.0   0.015222896   0.17742  -0.01176  -0.26077  -0.33058
  21   29419.6    339.9   0.178138960   1.99342  -0.67344   0.95045  -0.79784
  22   29848.7    335.0   0.574604337   6.33751   0.87644   2.07974   1.11538
  23   30172.1    331.4   0.084025894   0.91682   0.19814  -0.67308   0.65156
  24   30514.3    327.7   0.228362281   2.46375   0.25038  -0.95828   1.21769
  25   30640.5    326.4   0.129225341   1.38844   0.18557   1.15026  -0.17579
  26   30860.0    324.0   0.152604901   1.62798  -0.26304   0.87013  -0.89535
  27   31218.6    320.3   0.204657572   2.15819  -0.59262   0.73615  -1.12476
  28   31673.9    315.7   0.642575438   6.67879  -0.32271  -1.35997  -2.17374
  29   32138.3    311.2   0.009265314   0.09491   0.00231  -0.24777  -0.18307
  30   32654.2    306.2   0.008265901   0.08333  -0.08506   0.27430   0.02929
  31   32820.6    304.7   0.008064663   0.08089   0.25703   0.11785  -0.03072
  32   32965.0    303.4   0.065902529   0.65815  -0.17741   0.21870  -0.76082
  33   33749.9    296.3   0.389752189   3.80182  -0.80896  -1.19553  -1.31077
  34   34273.0    291.8   0.138515025   1.33052  -0.01292  -0.97761   0.61206
  35   34421.1    290.5   0.157356282   1.50499   0.38336  -0.60019   0.99890
  36   34811.1    287.3   0.021747385   0.20567   0.12183   0.30419   0.31351
  37   34977.9    285.9   0.180892511   1.70256  -0.69504  -0.52162  -0.97334
  38   35350.9    282.9   0.082349299   0.76689  -0.02535  -0.69450   0.53284
  39   35408.4    282.4   0.032656066   0.30362   0.19968   0.47629  -0.19208
  40   35623.2    280.7   0.072835660   0.67311   0.12753   0.71884   0.37431
  41   35863.1    278.8   0.115824714   1.06323  -0.10440  -1.02260  -0.08141
  42   36171.4    276.5   0.114168246   1.03909  -0.05623   0.93433  -0.40368
  43   36263.9    275.8   0.510623521   4.63555   0.09486   2.12048  -0.36073
  44   36540.0    273.7   0.144204331   1.29923  -0.44710   0.22577  -1.02389
  45   36731.7    272.2   0.200925292   1.80081   0.21744  -0.91709   0.95524
  46   36868.3    271.2   0.033017076   0.29482   0.20109   0.24251   0.44224
  47   37004.7    270.2   0.114774582   1.02109   0.15801  -0.99359  -0.09438
  48   37148.2    269.2   0.120094150   1.06429  -0.20648  -0.55939  -0.84186
  49   37306.6    268.0   0.084219523   0.74320  -0.24445   0.49191  -0.66443
  50   37479.1    266.8   0.041592146   0.36534  -0.38433  -0.40117  -0.23810
  51   37714.1    265.2   0.099475399   0.86834   0.19658  -0.67924   0.60689
  52   37892.6    263.9   0.004624663   0.04018  -0.09818  -0.09372  -0.14750
  53   38058.9    262.8   0.007837172   0.06779   0.01418  -0.24678   0.08179
  54   38237.8    261.5   0.197197015   1.69779   0.15611   1.28702   0.13032
  55   38364.8    260.7   0.179868370   1.54347   0.26254   1.15212   0.38361
  56   38472.0    259.9   0.006408028   0.05483  -0.05762  -0.04669   0.22212
  57   38797.7    257.7   0.006055067   0.05138  -0.12401  -0.14721   0.11971
  58   38917.4    257.0   0.037971423   0.32121  -0.16198  -0.54304   0.00903
  59   38967.1    256.6   0.006187855   0.05228   0.12754   0.17117  -0.08194
  60   39280.8    254.6   0.025809945   0.21631  -0.10949  -0.44578  -0.07488
  61   39543.4    252.9   0.011553606   0.09619  -0.11801  -0.28460  -0.03559
  62   39841.9    251.0   0.011613487   0.09596   0.13456  -0.26566   0.08532
  63   39947.6    250.3   0.011375158   0.09374   0.08780   0.28787  -0.05624
  64   40249.3    248.5   0.030702199   0.25112  -0.29431  -0.39701  -0.08297

FINAL SINGLE POINT ENERGY     -7119.082063368291

DIPOLE MOMENT
-------------
                                X             Y             Z
Electronic contribution:      7.70750     -82.57582     -11.48499
Nuclear contribution   :    -10.35536      80.14874       8.24718
                        -----------------------------------------
Total Dipole Moment    :     -2.64785      -2.42708      -3.23781
                        -----------------------------------------
Magnitude (a.u.)       :      4.83583
Magnitude (Debye)      :     12.29171

Rotational constants in cm-1:     0.001131     0.000828     0.000544
Rotational constants in MHz :    33.913338    24.832103    16.323518

                             ****ORCA TERMINATED NORMALLY****
TOTAL RUN TIME: 0 days 0 hours 10 minutes 42 seconds 92 msec
