                         Program Version 4.2.0 -  RELEASE  -
|  1> # ORCA input file
|  2> # SCF done       -194.023680679512          0.000611568736
|  3> ! CAM-B3LYP def2-SVP def2/J RIJCOSX Grid4 TightSCF
|  4> %maxcore 5000
|  5> %tddft
|  6>     Mode sTDDFT
|  7>     Ethresh 5.0
|  8>     maxcore 5000
|  9> end
| 10>
| 11> %pal
| 12>   nprocs 6
| 13>   end
| 14> * xyz 0 1
| 15>    C       -7.70267       -19.53713        14.88606
| 16>    C       -6.61198       -19.95661        15.59473
| 17>    F       -6.76270       -20.46009        16.82841
| 18>    C       -5.31971       -19.86700        15.04161
| 19>    F       -4.26695       -20.28700        15.75907
| 20>    C       -5.13543       -19.35824        13.78656
| 21>    C       -6.23933       -18.91805        13.03146
| 22>    C       -7.54691       -19.00842        13.58903
| 23>    C       -8.67113       -18.57488        12.84838
| 24>    C       -8.49284       -18.06794        11.58835
| 25>    C       -7.18464       -17.98262        11.04178
| 26>    C       -6.08020       -18.39031        11.73059
| 27>    C       -7.25628       -17.41467         9.67895
| 28>    O       -6.29826       -17.20844         8.95967
| 29>    C       -8.68781       -17.17956         9.41620
| 30>    C       -9.43832       -17.55814        10.59648
| 31>    C      -10.79501       -17.46209        10.80047
| 32>    C      -11.74855       -16.96941         9.88814
| 33>    N      -12.59376       -16.58327         9.20987
| 34>    C      -11.44488       -17.85000        11.99020
| 35>    N      -12.04511       -18.14094        12.92524
| 36>    C       -9.27917       -16.72016         8.25999
| 37>    C       -8.75504       -16.30857         7.03037
| 38>    N       -9.64924       -15.94350         6.02552
| 39>    C       -8.94805       -15.59541         4.92589
| 40>    C       -9.05807       -15.16956         3.60389
| 41>    C       -7.75006       -15.04912         3.12735
| 42>    N       -6.86123       -15.38440         4.12205
| 43>    C       -7.56466       -15.73123         5.23497
| 44>    C       -7.44013       -16.17254         6.53801
| 45>    C       -7.27313       -14.68277         1.83141
| 46>    C       -8.04939       -14.44755         0.75916
| 47>    C       -7.50136       -14.07486        -0.53348
| 48>    C       -6.52089       -13.13170        -0.61574
| 49>    S       -6.00034       -12.77226        -2.21325
| 50>    C       -7.11029       -13.95244        -2.83488
| 51>    C       -7.86325       -14.58750        -1.83419
| 52>    C       -8.73409       -15.64485        -2.19508
| 53>    C       -9.47399       -16.38074        -1.10895
| 54>    C      -10.84500       -15.75146        -0.84728
| 55>    C       -8.89651       -15.99233        -3.52756
| 56>    C       -9.75070       -17.16842        -3.92486
| 57>    C       -8.90587       -18.44309        -3.99368
| 58>    C       -8.17563       -15.30672        -4.53479
| 59>    C       -8.13523       -15.51668        -5.96030
| 60>    C       -7.20114       -14.73849        -6.56794
| 61>    S       -6.36430       -13.67215        -5.50832
| 62>    C       -7.25861       -14.31042        -4.16499
| 63>    C       -8.96773       -16.41046        -6.76038
| 64>    C       -8.46402       -17.42873        -7.46841
| 65>    C       -9.25332       -18.31393        -8.29206
| 66>    C       -8.73274       -19.41116        -8.90066
| 67>    C       -9.56111       -20.26754        -9.69005
| 68>    C       -9.08031       -21.40690       -10.30679
| 69>    C       -9.91566       -22.22814       -11.08092
| 70>    N      -10.61663       -22.88193       -11.71434
| 71>    C       -7.73759       -21.80037       -10.18817
| 72>    N       -6.63711       -22.11231       -10.08182
| 73>    C      -10.93302       -19.86610        -9.79743
| 74>    C      -11.37906       -18.75101        -9.17174
| 75>    O      -10.56429       -17.97868        -8.40865
| 76>    C      -12.75772       -18.26350        -9.22902
| 77>    C      -13.23552       -17.41234        -8.21726
| 78>    C      -14.52045       -16.93093        -8.24094
| 79>    C      -15.38023       -17.27896        -9.28758
| 80>    C      -14.91567       -18.12879       -10.31508
| 81>    C      -13.60507       -18.60913       -10.26954
| 82>    C      -15.81794       -18.45570       -11.36944
| 83>    C      -17.08601       -17.96901       -11.38921
| 84>    C      -17.59311       -17.08344       -10.33083
| 85>    O      -18.70126       -16.60436       -10.26866
| 86>    N      -16.65828       -16.81271        -9.34282
| 87>    C      -17.96991       -18.30013       -12.44180
| 88>    N      -18.66738       -18.58143       -13.30559
| 89>    H       -8.68542       -19.61274        15.32466
| 90>    H       -4.13950       -19.29622        13.37665
| 91>    H       -9.64529       -18.66006        13.30109
| 92>    H       -5.09876       -18.31305        11.28785
| 93>    H      -10.36129       -16.67433         8.28573
| 94>    H      -10.64988       -15.94703         6.13206
| 95>    H       -9.95184       -14.96645         3.05039
| 96>    H       -5.86075       -15.38635         4.02156
| 97>    H       -6.55325       -16.38540         7.09714
| 98>    H       -6.19653       -14.64507         1.71931
| 99>    H       -9.12224       -14.49712         0.85599
|100>    H       -6.09677       -12.58121         0.20148
|101>    H       -8.87797       -16.35785        -0.19608
|102>    H       -9.60432       -17.42845        -1.37586
|103>    H      -10.74910       -14.68996        -0.62988
|104>    H      -11.33142       -16.24035        -0.00595
|105>    H      -11.48703       -15.84930        -1.71985
|106>    H      -10.19204       -16.98932        -4.90253
|107>    H      -10.57066       -17.31114        -3.22368
|108>    H       -8.10811       -18.32979        -4.72374
|109>    H       -9.52255       -19.29070        -4.28454
|110>    H       -8.45311       -18.65906        -3.02886
|111>    H       -6.98462       -14.70503        -7.61813
|112>    H      -10.02573       -16.18674        -6.81313
|113>    H       -7.40935       -17.65651        -7.42252
|114>    H       -7.68737       -19.64688        -8.78328
|115>    H      -11.60682       -20.48074       -10.37047
|116>    H      -12.57892       -17.14565        -7.40431
|117>    H      -14.87671       -16.28191        -7.45492
|118>    H      -13.26189       -19.23930       -11.07474
|119>    H      -15.47507       -19.10542       -12.16280
|120>    H      -16.98484       -16.20208        -8.60170
|121> *
|122>
|123>                          ****END OF INPUT****

CARTESIAN COORDINATES (ANGSTROEM)
---------------------------------
  C     -7.702670  -19.537130   14.886060
  C     -6.611980  -19.956610   15.594730
  F     -6.762700  -20.460090   16.828410
  C     -5.319710  -19.867000   15.041610
  F     -4.266950  -20.287000   15.759070
  C     -5.135430  -19.358240   13.786560
  C     -6.239330  -18.918050   13.031460
  C     -7.546910  -19.008420   13.589030
  C     -8.671130  -18.574880   12.848380
  C     -8.492840  -18.067940   11.588350
  C     -7.184640  -17.982620   11.041780
  C     -6.080200  -18.390310   11.730590
  C     -7.256280  -17.414670    9.678950
  O     -6.298260  -17.208440    8.959670
  C     -8.687810  -17.179560    9.416200
  C     -9.438320  -17.558140   10.596480
  C    -10.795010  -17.462090   10.800470
  C    -11.748550  -16.969410    9.888140
  N    -12.593760  -16.583270    9.209870
  C    -11.444880  -17.850000   11.990200
  N    -12.045110  -18.140940   12.925240
  C     -9.279170  -16.720160    8.259990
  C     -8.755040  -16.308570    7.030370
  N     -9.649240  -15.943500    6.025520
  C     -8.948050  -15.595410    4.925890
  C     -9.058070  -15.169560    3.603890
  C     -7.750060  -15.049120    3.127350
  N     -6.861230  -15.384400    4.122050
  C     -7.564660  -15.731230    5.234970
  C     -7.440130  -16.172540    6.538010
  C     -7.273130  -14.682770    1.831410
  C     -8.049390  -14.447550    0.759160
  C     -7.501360  -14.074860   -0.533480
  C     -6.520890  -13.131700   -0.615740
  S     -6.000340  -12.772260   -2.213250
  C     -7.110290  -13.952440   -2.834880
  C     -7.863250  -14.587500   -1.834190
  C     -8.734090  -15.644850   -2.195080
  C     -9.473990  -16.380740   -1.108950
  C    -10.845000  -15.751460   -0.847280
  C     -8.896510  -15.992330   -3.527560
  C     -9.750700  -17.168420   -3.924860
  C     -8.905870  -18.443090   -3.993680
  C     -8.175630  -15.306720   -4.534790
  C     -8.135230  -15.516680   -5.960300
  C     -7.201140  -14.738490   -6.567940
  S     -6.364300  -13.672150   -5.508320
  C     -7.258610  -14.310420   -4.164990
  C     -8.967730  -16.410460   -6.760380
  C     -8.464020  -17.428730   -7.468410
  C     -9.253320  -18.313930   -8.292060
  C     -8.732740  -19.411160   -8.900660
  C     -9.561110  -20.267540   -9.690050
  C     -9.080310  -21.406900  -10.306790
  C     -9.915660  -22.228140  -11.080920
  N    -10.616630  -22.881930  -11.714340
  C     -7.737590  -21.800370  -10.188170
  N     -6.637110  -22.112310  -10.081820
  C    -10.933020  -19.866100   -9.797430
  C    -11.379060  -18.751010   -9.171740
  O    -10.564290  -17.978680   -8.408650
  C    -12.757720  -18.263500   -9.229020
  C    -13.235520  -17.412340   -8.217260
  C    -14.520450  -16.930930   -8.240940
  C    -15.380230  -17.278960   -9.287580
  C    -14.915670  -18.128790  -10.315080
  C    -13.605070  -18.609130  -10.269540
  C    -15.817940  -18.455700  -11.369440
  C    -17.086010  -17.969010  -11.389210
  C    -17.593110  -17.083440  -10.330830
  O    -18.701260  -16.604360  -10.268660
  N    -16.658280  -16.812710   -9.342820
  C    -17.969910  -18.300130  -12.441800
  N    -18.667380  -18.581430  -13.305590
  H     -8.685420  -19.612740   15.324660
  H     -4.139500  -19.296220   13.376650
  H     -9.645290  -18.660060   13.301090
  H     -5.098760  -18.313050   11.287850
  H    -10.361290  -16.674330    8.285730
  H    -10.649880  -15.947030    6.132060
  H     -9.951840  -14.966450    3.050390
  H     -5.860750  -15.386350    4.021560
  H     -6.553250  -16.385400    7.097140
  H     -6.196530  -14.645070    1.719310
  H     -9.122240  -14.497120    0.855990
  H     -6.096770  -12.581210    0.201480
  H     -8.877970  -16.357850   -0.196080
  H     -9.604320  -17.428450   -1.375860
  H    -10.749100  -14.689960   -0.629880
  H    -11.331420  -16.240350   -0.005950
  H    -11.487030  -15.849300   -1.719850
  H    -10.192040  -16.989320   -4.902530
  H    -10.570660  -17.311140   -3.223680
  H     -8.108110  -18.329790   -4.723740
  H     -9.522550  -19.290700   -4.284540
  H     -8.453110  -18.659060   -3.028860
  H     -6.984620  -14.705030   -7.618130
  H    -10.025730  -16.186740   -6.813130
  H     -7.409350  -17.656510   -7.422520
  H     -7.687370  -19.646880   -8.783280
  H    -11.606820  -20.480740  -10.370470
  H    -12.578920  -17.145650   -7.404310
  H    -14.876710  -16.281910   -7.454920
  H    -13.261890  -19.239300  -11.074740
  H    -15.475070  -19.105420  -12.162800
  H    -16.984840  -16.202080   -8.601700

 Total Charge           Charge          ....    0
 Multiplicity           Mult            ....    1
 Number of Electrons    NEL             ....  516
 Basis Dimension        Dim             .... 1204

ORBITAL ENERGIES
----------------

  NO   OCC          E(Eh)            E(eV)
   0   2.0000     -88.969235     -2420.9760
   1   2.0000     -88.967595     -2420.9313
   2   2.0000     -24.793040      -674.6529
   3   2.0000     -24.791727      -674.6172
   4   2.0000     -19.333838      -526.1005
   5   2.0000     -19.209287      -522.7113
   6   2.0000     -19.207741      -522.6692
   7   2.0000     -14.491813      -394.3423
   8   2.0000     -14.476294      -393.9200
   9   2.0000     -14.471963      -393.8021
  10   2.0000     -14.412371      -392.1805
  11   2.0000     -14.412113      -392.1735
  12   2.0000     -14.405343      -391.9893
  13   2.0000     -14.404362      -391.9626
  14   2.0000     -14.403438      -391.9375
  15   2.0000     -10.408381      -283.2264
  16   2.0000     -10.395471      -282.8752
  17   2.0000     -10.391568      -282.7689
  18   2.0000     -10.375443      -282.3301
  19   2.0000     -10.374398      -282.3017
  20   2.0000     -10.370683      -282.2006
  21   2.0000     -10.360499      -281.9235
  22   2.0000     -10.344798      -281.4963
  23   2.0000     -10.340451      -281.3780
  24   2.0000     -10.337738      -281.3041
  25   2.0000     -10.333761      -281.1959
  26   2.0000     -10.333646      -281.1928
  27   2.0000     -10.330081      -281.0958
  28   2.0000     -10.326825      -281.0072
  29   2.0000     -10.325595      -280.9737
  30   2.0000     -10.325314      -280.9661
  31   2.0000     -10.325079      -280.9597
  32   2.0000     -10.324091      -280.9328
  33   2.0000     -10.319704      -280.8134
  34   2.0000     -10.319611      -280.8109
  35   2.0000     -10.319530      -280.8087
  36   2.0000     -10.317723      -280.7595
  37   2.0000     -10.316770      -280.7336
  38   2.0000     -10.315875      -280.7092
  39   2.0000     -10.314893      -280.6825
  40   2.0000     -10.314619      -280.6750
  41   2.0000     -10.314289      -280.6661
  42   2.0000     -10.313666      -280.6491
  43   2.0000     -10.313266      -280.6382
  44   2.0000     -10.312059      -280.6054
  45   2.0000     -10.311950      -280.6024
  46   2.0000     -10.310542      -280.5641
  47   2.0000     -10.309823      -280.5445
  48   2.0000     -10.309086      -280.5245
  49   2.0000     -10.308041      -280.4961
  50   2.0000     -10.307030      -280.4686
  51   2.0000     -10.304010      -280.3864
  52   2.0000     -10.303362      -280.3687
  53   2.0000     -10.302867      -280.3553
  54   2.0000     -10.301553      -280.3195
  55   2.0000     -10.299558      -280.2652
  56   2.0000     -10.298921      -280.2479
  57   2.0000     -10.298671      -280.2411
  58   2.0000     -10.297140      -280.1994
  59   2.0000     -10.295338      -280.1504
  60   2.0000     -10.295189      -280.1463
  61   2.0000     -10.294340      -280.1232
  62   2.0000     -10.294204      -280.1195
  63   2.0000     -10.293951      -280.1126
  64   2.0000     -10.291614      -280.0490
  65   2.0000     -10.290735      -280.0251
  66   2.0000     -10.287587      -279.9395
  67   2.0000     -10.284252      -279.8487
  68   2.0000     -10.283665      -279.8327
  69   2.0000     -10.281160      -279.7646
  70   2.0000     -10.280552      -279.7480
  71   2.0000     -10.280059      -279.7346
  72   2.0000     -10.275516      -279.6110
  73   2.0000     -10.271788      -279.5096
  74   2.0000      -8.065370      -219.4699
  75   2.0000      -8.063698      -219.4244
  76   2.0000      -6.034872      -164.2172
  77   2.0000      -6.033192      -164.1715
  78   2.0000      -6.030651      -164.1023
  79   2.0000      -6.028968      -164.0566
  80   2.0000      -6.027023      -164.0036
  81   2.0000      -6.025408      -163.9597
  82   2.0000      -1.314805       -35.7777
  83   2.0000      -1.299974       -35.3741
  84   2.0000      -1.243696       -33.8427
  85   2.0000      -1.156729       -31.4762
  86   2.0000      -1.123746       -30.5787
  87   2.0000      -1.108282       -30.1579
  88   2.0000      -1.079714       -29.3805
  89   2.0000      -1.071126       -29.1468
  90   2.0000      -1.019858       -27.7518
  91   2.0000      -1.012591       -27.5540
  92   2.0000      -1.005010       -27.3477
  93   2.0000      -1.000386       -27.2219
  94   2.0000      -0.998000       -27.1570
  95   2.0000      -0.997094       -27.1323
  96   2.0000      -0.990557       -26.9544
  97   2.0000      -0.987347       -26.8671
  98   2.0000      -0.983146       -26.7528
  99   2.0000      -0.973663       -26.4947
 100   2.0000      -0.966822       -26.3086
 101   2.0000      -0.959783       -26.1170
 102   2.0000      -0.947851       -25.7923
 103   2.0000      -0.943029       -25.6611
 104   2.0000      -0.925606       -25.1870
 105   2.0000      -0.924873       -25.1671
 106   2.0000      -0.913218       -24.8499
 107   2.0000      -0.902726       -24.5644
 108   2.0000      -0.891364       -24.2552
 109   2.0000      -0.889191       -24.1961
 110   2.0000      -0.886034       -24.1102
 111   2.0000      -0.883902       -24.0522
 112   2.0000      -0.882838       -24.0232
 113   2.0000      -0.878424       -23.9031
 114   2.0000      -0.873958       -23.7816
 115   2.0000      -0.866867       -23.5886
 116   2.0000      -0.866559       -23.5803
 117   2.0000      -0.848016       -23.0757
 118   2.0000      -0.837558       -22.7911
 119   2.0000      -0.833260       -22.6742
 120   2.0000      -0.820082       -22.3156
 121   2.0000      -0.808453       -21.9991
 122   2.0000      -0.802868       -21.8471
 123   2.0000      -0.798837       -21.7375
 124   2.0000      -0.788684       -21.4612
 125   2.0000      -0.775471       -21.1016
 126   2.0000      -0.770819       -20.9750
 127   2.0000      -0.764446       -20.8016
 128   2.0000      -0.759893       -20.6777
 129   2.0000      -0.748245       -20.3608
 130   2.0000      -0.742799       -20.2126
 131   2.0000      -0.738752       -20.1025
 132   2.0000      -0.724990       -19.7280
 133   2.0000      -0.721521       -19.6336
 134   2.0000      -0.711020       -19.3479
 135   2.0000      -0.709092       -19.2954
 136   2.0000      -0.707708       -19.2577
 137   2.0000      -0.706094       -19.2138
 138   2.0000      -0.697824       -18.9888
 139   2.0000      -0.695633       -18.9291
 140   2.0000      -0.691809       -18.8251
 141   2.0000      -0.679844       -18.4995
 142   2.0000      -0.675905       -18.3923
 143   2.0000      -0.675737       -18.3877
 144   2.0000      -0.665781       -18.1168
 145   2.0000      -0.662988       -18.0408
 146   2.0000      -0.652770       -17.7628
 147   2.0000      -0.650392       -17.6981
 148   2.0000      -0.647658       -17.6237
 149   2.0000      -0.640010       -17.4156
 150   2.0000      -0.635809       -17.3012
 151   2.0000      -0.629057       -17.1175
 152   2.0000      -0.627601       -17.0779
 153   2.0000      -0.623981       -16.9794
 154   2.0000      -0.614886       -16.7319
 155   2.0000      -0.612845       -16.6764
 156   2.0000      -0.607287       -16.5251
 157   2.0000      -0.606653       -16.5079
 158   2.0000      -0.601969       -16.3804
 159   2.0000      -0.597111       -16.2482
 160   2.0000      -0.592029       -16.1099
 161   2.0000      -0.588318       -16.0089
 162   2.0000      -0.585577       -15.9344
 163   2.0000      -0.581668       -15.8280
 164   2.0000      -0.579629       -15.7725
 165   2.0000      -0.575167       -15.6511
 166   2.0000      -0.570790       -15.5320
 167   2.0000      -0.567031       -15.4297
 168   2.0000      -0.565055       -15.3759
 169   2.0000      -0.561597       -15.2818
 170   2.0000      -0.558725       -15.2037
 171   2.0000      -0.558276       -15.1915
 172   2.0000      -0.553127       -15.0514
 173   2.0000      -0.552708       -15.0399
 174   2.0000      -0.547580       -14.9004
 175   2.0000      -0.546255       -14.8644
 176   2.0000      -0.543287       -14.7836
 177   2.0000      -0.541450       -14.7336
 178   2.0000      -0.539629       -14.6841
 179   2.0000      -0.537102       -14.6153
 180   2.0000      -0.536526       -14.5996
 181   2.0000      -0.530548       -14.4369
 182   2.0000      -0.525836       -14.3087
 183   2.0000      -0.524511       -14.2727
 184   2.0000      -0.523506       -14.2453
 185   2.0000      -0.521930       -14.2024
 186   2.0000      -0.518457       -14.1079
 187   2.0000      -0.516010       -14.0414
 188   2.0000      -0.511805       -13.9269
 189   2.0000      -0.507953       -13.8221
 190   2.0000      -0.505643       -13.7593
 191   2.0000      -0.504475       -13.7275
 192   2.0000      -0.504284       -13.7223
 193   2.0000      -0.501333       -13.6420
 194   2.0000      -0.500422       -13.6172
 195   2.0000      -0.497491       -13.5374
 196   2.0000      -0.493327       -13.4241
 197   2.0000      -0.491249       -13.3676
 198   2.0000      -0.490772       -13.3546
 199   2.0000      -0.488857       -13.3025
 200   2.0000      -0.487786       -13.2733
 201   2.0000      -0.485963       -13.2237
 202   2.0000      -0.483402       -13.1540
 203   2.0000      -0.476852       -12.9758
 204   2.0000      -0.475303       -12.9337
 205   2.0000      -0.472407       -12.8548
 206   2.0000      -0.469883       -12.7862
 207   2.0000      -0.468655       -12.7528
 208   2.0000      -0.465140       -12.6571
 209   2.0000      -0.463896       -12.6232
 210   2.0000      -0.460198       -12.5226
 211   2.0000      -0.458950       -12.4887
 212   2.0000      -0.456861       -12.4318
 213   2.0000      -0.453542       -12.3415
 214   2.0000      -0.450691       -12.2639
 215   2.0000      -0.449540       -12.2326
 216   2.0000      -0.445418       -12.1204
 217   2.0000      -0.441849       -12.0233
 218   2.0000      -0.441292       -12.0082
 219   2.0000      -0.440030       -11.9738
 220   2.0000      -0.439985       -11.9726
 221   2.0000      -0.438651       -11.9363
 222   2.0000      -0.438464       -11.9312
 223   2.0000      -0.436606       -11.8806
 224   2.0000      -0.434666       -11.8279
 225   2.0000      -0.428482       -11.6596
 226   2.0000      -0.425396       -11.5756
 227   2.0000      -0.424903       -11.5622
 228   2.0000      -0.421157       -11.4603
 229   2.0000      -0.420169       -11.4334
 230   2.0000      -0.418358       -11.3841
 231   2.0000      -0.418200       -11.3798
 232   2.0000      -0.416594       -11.3361
 233   2.0000      -0.413983       -11.2651
 234   2.0000      -0.408365       -11.1122
 235   2.0000      -0.405696       -11.0396
 236   2.0000      -0.404067       -10.9952
 237   2.0000      -0.401833       -10.9344
 238   2.0000      -0.399784       -10.8787
 239   2.0000      -0.398651       -10.8478
 240   2.0000      -0.391740       -10.6598
 241   2.0000      -0.380616       -10.3571
 242   2.0000      -0.371899       -10.1199
 243   2.0000      -0.364449        -9.9172
 244   2.0000      -0.363534        -9.8923
 245   2.0000      -0.354628        -9.6499
 246   2.0000      -0.344740        -9.3809
 247   2.0000      -0.337152        -9.1744
 248   2.0000      -0.331875        -9.0308
 249   2.0000      -0.324377        -8.8268
 250   2.0000      -0.312525        -8.5042
 251   2.0000      -0.311150        -8.4668
 252   2.0000      -0.305509        -8.3133
 253   2.0000      -0.294804        -8.0220
 254   2.0000      -0.289415        -7.8754
 255   2.0000      -0.285348        -7.7647
 256   2.0000      -0.283063        -7.7025
 257   2.0000      -0.246522        -6.7082
 258   0.0000      -0.088703        -2.4137
 259   0.0000      -0.077203        -2.1008
 260   0.0000      -0.071447        -1.9442
 261   0.0000      -0.053236        -1.4486
 262   0.0000      -0.048858        -1.3295

MULLIKEN ATOMIC CHARGES
-----------------------
   0 C :   -0.113436
   1 C :    0.243586
   2 F :   -0.173996
   3 C :    0.240733
   4 F :   -0.174892
   5 C :   -0.113742
   6 C :    0.123640
   7 C :    0.117247
   8 C :   -0.091829
   9 C :    0.049193
  10 C :    0.005491
  11 C :   -0.096618
  12 C :    0.155734
  13 O :   -0.169079
  14 C :   -0.109041
  15 C :    0.333779
  16 C :   -0.382526
  17 C :   -0.175108
  18 N :    0.124409
  19 C :   -0.180689
  20 N :    0.135583
  21 C :   -0.010816
  22 C :    0.089025
  23 N :   -0.041801
  24 C :    0.144508
  25 C :   -0.189977
  26 C :    0.122700
  27 N :   -0.036831
  28 C :    0.121218
  29 C :   -0.142270
  30 C :   -0.005176
  31 C :   -0.028346
  32 C :    0.057489
  33 C :   -0.114788
  34 S :    0.133107
  35 C :   -0.149532
  36 C :    0.125703
  37 C :   -0.136501
  38 C :    0.017678
  39 C :    0.037330
  40 C :   -0.123198
  41 C :    0.058777
  42 C :    0.044288
  43 C :    0.121511
  44 C :    0.026031
  45 C :   -0.098565
  46 S :    0.135282
  47 C :   -0.143720
  48 C :   -0.020844
  49 C :   -0.018439
  50 C :    0.234760
  51 C :   -0.136895
  52 C :    0.283347
  53 C :   -0.336690
  54 C :   -0.176124
  55 N :    0.125874
  56 C :   -0.176456
  57 N :    0.130094
  58 C :   -0.151175
  59 C :    0.224764
  60 O :   -0.233673
  61 C :    0.076332
  62 C :    0.015049
  63 C :   -0.013030
  64 C :    0.103358
  65 C :    0.032165
  66 C :   -0.068207
  67 C :    0.093988
  68 C :   -0.226037
  69 C :    0.134891
  70 O :   -0.155512
  71 N :   -0.032673
  72 C :   -0.137816
  73 N :    0.133873
  74 H :    0.004784
  75 H :   -0.004304
  76 H :   -0.008731
  77 H :   -0.017188
  78 H :   -0.029155
  79 H :    0.138808
  80 H :   -0.029569
  81 H :    0.127444
  82 H :    0.001235
  83 H :   -0.020117
  84 H :    0.009899
  85 H :    0.020992
  86 H :    0.017412
  87 H :    0.003434
  88 H :    0.016956
  89 H :    0.019874
  90 H :    0.007470
  91 H :   -0.024979
  92 H :   -0.000501
  93 H :    0.010786
  94 H :    0.015945
  95 H :    0.012360
  96 H :    0.023207
  97 H :    0.043125
  98 H :    0.018287
  99 H :    0.026853
 100 H :    0.026015
 101 H :   -0.005930
 102 H :   -0.022596
 103 H :   -0.005365
 104 H :    0.018833
 105 H :    0.138226
Sum of atomic charges:   -0.0000000

LOEWDIN ATOMIC CHARGES
----------------------
   0 C :   -0.029624
   1 C :    0.064032
   2 F :   -0.052137
   3 C :    0.065863
   4 F :   -0.052754
   5 C :   -0.035428
   6 C :   -0.009545
   7 C :   -0.008434
   8 C :    0.014814
   9 C :   -0.022314
  10 C :   -0.048730
  11 C :    0.022891
  12 C :    0.084066
  13 O :   -0.157810
  14 C :   -0.118145
  15 C :    0.079181
  16 C :   -0.160283
  17 C :   -0.019148
  18 N :   -0.074945
  19 C :   -0.018116
  20 N :   -0.066672
  21 C :    0.050903
  22 C :   -0.014820
  23 N :    0.073639
  24 C :    0.013318
  25 C :   -0.108223
  26 C :    0.028937
  27 N :    0.071490
  28 C :   -0.027253
  29 C :   -0.030493
  30 C :   -0.041131
  31 C :   -0.000889
  32 C :   -0.063677
  33 C :   -0.165347
  34 S :    0.418549
  35 C :   -0.177969
  36 C :   -0.040933
  37 C :   -0.019666
  38 C :   -0.031688
  39 C :   -0.050342
  40 C :   -0.021410
  41 C :   -0.030364
  42 C :   -0.046653
  43 C :   -0.043191
  44 C :   -0.069331
  45 C :   -0.162487
  46 S :    0.419174
  47 C :   -0.177104
  48 C :    0.020926
  49 C :   -0.042799
  50 C :    0.088431
  51 C :   -0.048607
  52 C :    0.055720
  53 C :   -0.176280
  54 C :   -0.029589
  55 N :   -0.070228
  56 C :   -0.030245
  57 N :   -0.067481
  58 C :   -0.053745
  59 C :    0.095951
  60 O :   -0.001666
  61 C :   -0.058924
  62 C :    0.020118
  63 C :   -0.043623
  64 C :    0.060844
  65 C :   -0.058755
  66 C :    0.029681
  67 C :    0.068974
  68 C :   -0.105502
  69 C :    0.073926
  70 O :   -0.179673
  71 N :    0.049044
  72 C :   -0.025604
  73 N :   -0.032665
  74 H :    0.046943
  75 H :    0.043288
  76 H :    0.039221
  77 H :    0.037394
  78 H :    0.042020
  79 H :    0.096463
  80 H :    0.024936
  81 H :    0.092888
  82 H :    0.031706
  83 H :    0.028914
  84 H :    0.031422
  85 H :    0.024100
  86 H :    0.031555
  87 H :    0.027230
  88 H :    0.021677
  89 H :    0.025722
  90 H :    0.023348
  91 H :    0.022667
  92 H :    0.025496
  93 H :    0.023246
  94 H :    0.025027
  95 H :    0.024660
  96 H :    0.026376
  97 H :    0.033071
  98 H :    0.043118
  99 H :    0.050177
 100 H :    0.046465
 101 H :    0.035009
 102 H :    0.035046
 103 H :    0.039660
 104 H :    0.051221
 105 H :    0.101902

  Mayer bond orders larger than 0.100000
B(  0-C ,  1-C ) :   1.4370 B(  0-C ,  5-C ) :   0.1100 B(  0-C ,  7-C ) :   1.1872
B(  0-C , 74-H ) :   1.0081 B(  1-C ,  2-F ) :   1.1325 B(  1-C ,  3-C ) :   1.1953
B(  3-C ,  4-F ) :   1.1309 B(  3-C ,  5-C ) :   1.4386 B(  5-C ,  6-C ) :   1.1910
B(  5-C , 75-H ) :   1.0086 B(  6-C ,  7-C ) :   1.2637 B(  6-C , 11-C ) :   1.1768
B(  7-C ,  8-C ) :   1.2088 B(  8-C ,  9-C ) :   1.4525 B(  8-C , 76-H ) :   0.9900
B(  9-C , 10-C ) :   1.2253 B(  9-C , 15-C ) :   0.9705 B( 10-C , 11-C ) :   1.4740
B( 10-C , 12-C ) :   0.9454 B( 11-C , 77-H ) :   1.0177 B( 12-C , 13-O ) :   2.1609
B( 12-C , 14-C ) :   0.9551 B( 14-C , 15-C ) :   1.1208 B( 14-C , 21-C ) :   1.4781
B( 15-C , 16-C ) :   1.5789 B( 16-C , 17-C ) :   1.1506 B( 16-C , 19-C ) :   1.1539
B( 17-C , 18-N ) :   2.9480 B( 19-C , 20-N ) :   2.9534 B( 21-C , 22-C ) :   1.2458
B( 21-C , 78-H ) :   0.9158 B( 22-C , 23-N ) :   1.1183 B( 22-C , 29-C ) :   1.3207
B( 23-N , 24-C ) :   1.2194 B( 23-N , 79-H ) :   0.9305 B( 24-C , 25-C ) :   1.2442
B( 24-C , 28-C ) :   1.2607 B( 25-C , 26-C ) :   1.4137 B( 25-C , 80-H ) :   1.0331
B( 26-C , 27-N ) :   1.1999 B( 26-C , 30-C ) :   1.0744 B( 27-N , 28-C ) :   1.1356
B( 27-N , 81-H ) :   0.9363 B( 28-C , 29-C ) :   1.2738 B( 29-C , 82-H ) :   1.0295
B( 30-C , 31-C ) :   1.7730 B( 30-C , 83-H ) :   0.9670 B( 31-C , 32-C ) :   1.0071
B( 31-C , 84-H ) :   0.9500 B( 32-C , 33-C ) :   1.6138 B( 32-C , 36-C ) :   1.1562
B( 33-C , 34-S ) :   1.1163 B( 33-C , 85-H ) :   0.9659 B( 34-S , 35-C ) :   1.0793
B( 35-C , 36-C ) :   1.3685 B( 35-C , 47-C ) :   1.3796 B( 36-C , 37-C ) :   1.2613
B( 37-C , 38-C ) :   1.0636 B( 37-C , 40-C ) :   1.5126 B( 38-C , 39-C ) :   1.1126
B( 38-C , 86-H ) :   0.9162 B( 38-C , 87-H ) :   0.9094 B( 39-C , 88-H ) :   0.9566
B( 39-C , 89-H ) :   0.9677 B( 39-C , 90-H ) :   0.9588 B( 40-C , 41-C ) :   1.0777
B( 40-C , 43-C ) :   1.2618 B( 41-C , 42-C ) :   1.1140 B( 41-C , 91-H ) :   0.9026
B( 41-C , 92-H ) :   0.9073 B( 42-C , 93-H ) :   0.9618 B( 42-C , 94-H ) :   0.9671
B( 42-C , 95-H ) :   0.9612 B( 43-C , 44-C ) :   1.1661 B( 43-C , 47-C ) :   1.3693
B( 44-C , 45-C ) :   1.6386 B( 44-C , 48-C ) :   0.9688 B( 45-C , 46-S ) :   1.1164
B( 45-C , 96-H ) :   0.9679 B( 46-S , 47-C ) :   1.0807 B( 48-C , 49-C ) :   1.7863
B( 48-C , 97-H ) :   0.9440 B( 49-C , 50-C ) :   1.0903 B( 49-C , 98-H ) :   0.9724
B( 50-C , 51-C ) :   1.5558 B( 50-C , 60-O ) :   1.1077 B( 51-C , 52-C ) :   1.1068
B( 51-C , 99-H ) :   0.9783 B( 52-C , 53-C ) :   1.5575 B( 52-C , 58-C ) :   1.1153
B( 53-C , 54-C ) :   1.1312 B( 53-C , 56-C ) :   1.1306 B( 54-C , 55-N ) :   3.0038
B( 56-C , 57-N ) :   3.0094 B( 58-C , 59-C ) :   1.5999 B( 58-C ,100-H ) :   0.9649
B( 59-C , 60-O ) :   1.1378 B( 59-C , 61-C ) :   0.9889 B( 61-C , 62-C ) :   1.2959
B( 61-C , 66-C ) :   1.3953 B( 62-C , 63-C ) :   1.4218 B( 62-C ,101-H ) :   0.9937
B( 63-C , 64-C ) :   1.2883 B( 63-C ,102-H ) :   0.9953 B( 64-C , 65-C ) :   1.2902
B( 64-C , 71-N ) :   1.2127 B( 65-C , 66-C ) :   1.2933 B( 65-C , 67-C ) :   1.1205
B( 66-C ,103-H ) :   1.0000 B( 67-C , 68-C ) :   1.6535 B( 67-C ,104-H ) :   0.9864
B( 68-C , 69-C ) :   0.9475 B( 68-C , 72-C ) :   1.1115 B( 69-C , 70-O ) :   2.2511
B( 69-C , 71-N ) :   1.0757 B( 71-N ,105-H ) :   0.9013 B( 72-C , 73-N ) :   3.0435

-----------------------------------------------------------------------------
         ABSORPTION SPECTRUM VIA TRANSITION ELECTRIC DIPOLE MOMENTS
-----------------------------------------------------------------------------
State   Energy  Wavelength   fosc         T2         TX        TY        TZ
        (cm-1)    (nm)                  (au**2)     (au)      (au)      (au)
-----------------------------------------------------------------------------
   0   19096.6    523.7   1.714300112  29.55334  -0.92321  -1.53815   5.13178
   1   25492.9    392.3   0.151838273   1.96082   0.72985  -0.39827   1.12673
   2   28613.1    349.5   0.015035551   0.17299   0.02854   0.29246   0.29436
   3   28789.5    347.3   0.170066301   1.94473   0.48408  -0.22071   1.28906
   4   29020.8    344.6   0.395331966   4.48464  -0.40756  -0.88410  -1.88066
   5   29147.1    343.1   0.264242414   2.98458   0.38978  -1.67131   0.19846
   6   29526.9    338.7   0.000529091   0.00590  -0.02230  -0.01981  -0.07078
   7   30053.4    332.7   0.431790568   4.72994   1.95900  -0.83848   0.43496
   8   30190.6    331.2   0.109308009   1.19195  -0.65729   0.31733  -0.81192
   9   30739.2    325.3   0.499654353   5.35122   1.31364  -1.70699  -0.84365
  10   31030.4    322.3   0.017902591   0.18993   0.41869  -0.07849   0.09203
  11   31716.6    315.3   0.000042580   0.00044  -0.00078   0.00347  -0.02072
  12   32186.5    310.7   0.216681364   2.21627  -0.22481  -0.47671   1.39229
  13   32325.7    309.4   0.062452012   0.63602  -0.03914  -0.63026  -0.48710
  14   32659.9    306.2   0.064150716   0.64664   0.00900  -0.30533   0.74386
  15   32922.5    303.7   0.007993204   0.07993  -0.24494  -0.12115   0.07250
  16   33194.2    301.3   0.001194257   0.01184   0.08493  -0.05213   0.04373
  17   34042.0    293.8   0.139414127   1.34824   0.96753   0.10284   0.63368
  18   34594.8    289.1   0.812888773   7.73563   2.41393  -0.49878   1.28833
  19   34711.9    288.1   0.246418161   2.33706  -1.11938  -0.80750  -0.65726
  20   35193.6    284.1   0.038405103   0.35925  -0.57398   0.17002  -0.02997
  21   35592.2    281.0   0.048101251   0.44491  -0.43871   0.46620   0.18738
  22   36579.4    273.4   0.051537053   0.46383  -0.37996  -0.32316  -0.46371
  23   36824.2    271.6   0.105931704   0.94704  -0.96883   0.08645   0.03061
  24   37004.7    270.2   0.011890302   0.10578  -0.32485  -0.01379   0.00812
  25   37415.8    267.3   0.071069354   0.62532  -0.21186   0.65924   0.38190
  26   37538.3    266.4   0.001057502   0.00927   0.03982   0.06810  -0.05524
  27   37717.4    265.1   0.059151032   0.51629  -0.33883  -0.43657  -0.45923
  28   38085.7    262.6   0.004115622   0.03558  -0.14616   0.02101  -0.11735
  29   38439.1    260.2   0.013953492   0.11950   0.27206   0.00150   0.21327
  30   38903.1    257.0   0.261665776   2.21431   0.58590   0.37264  -1.31612
  31   39419.5    253.7   0.079523564   0.66414  -0.78871  -0.19434   0.06560
  32   39981.5    250.1   0.151969558   1.25133  -0.66232  -0.26642  -0.86121
  33   40125.8    249.2   0.170328415   1.39746   0.73633   0.75010   0.54095
  34   40193.5    248.8   0.161340967   1.32149  -0.56299  -0.22457  -0.97678

FINAL SINGLE POINT ENERGY     -3923.090076541526

DIPOLE MOMENT
-------------
                                X             Y             Z
Electronic contribution:     12.49427      -9.87640      56.85523
Nuclear contribution   :     -9.85959      13.38227     -56.64418
                        -----------------------------------------
Total Dipole Moment    :      2.63468       3.50586       0.21105
                        -----------------------------------------
Magnitude (a.u.)       :      4.39058
Magnitude (Debye)      :     11.15996

Rotational constants in cm-1:     0.001244     0.000179     0.000172
Rotational constants in MHz :    37.295755     5.366762     5.161017

                             ****ORCA TERMINATED NORMALLY****
TOTAL RUN TIME: 0 days 0 hours 10 minutes 8 seconds 679 msec
