                         Program Version 4.2.0 -  RELEASE  -
|  1> # ORCA input file
|  2> # SCF done       -201.981487640227          0.000462467257
|  3> ! CAM-B3LYP def2-SVP def2/J RIJCOSX Grid4 TightSCF
|  4> %maxcore 5000
|  5> %tddft
|  6>     Mode sTDDFT
|  7>     Ethresh 5.0
|  8>     maxcore 5000
|  9> end
| 10>
| 11> %pal
| 12>   nprocs 6
| 13>   end
| 14> * xyz 0 1
| 15>    C        1.52692         1.37225         3.50135
| 16>    O        2.41284         1.71871         2.75072
| 17>    C        0.37740         2.15779         3.93383
| 18>    C       -0.42635         1.44615         4.81438
| 19>    C       -1.54201         2.18861         5.24804
| 20>    C       -1.54590         3.43162         4.68692
| 21>    S       -0.21577         3.73004         3.63080
| 22>    C        0.14495         0.12985         5.01108
| 23>    C       -0.42653        -0.84945         5.78014
| 24>    C       -1.63076        -0.62594         6.48259
| 25>    N       -2.60577        -0.46951         7.06658
| 26>    C        0.05347        -2.16088         5.96990
| 27>    N        0.37055        -3.24737         6.16594
| 28>    C        1.37222         0.07344         4.22262
| 29>    C        2.23167        -0.98711         4.24994
| 30>    C        3.42734        -1.24417         3.54696
| 31>    C        4.06273        -0.60252         2.49144
| 32>    C        5.23055        -1.25022         2.11191
| 33>    C        5.50542        -2.40145         2.88637
| 34>    S        4.31269        -2.69171         4.05860
| 35>    C        6.72461        -2.96410         2.44249
| 36>    C        7.22381        -2.17666         1.38711
| 37>    C        6.29294        -1.08566         1.13381
| 38>    C        6.39570        -0.13605         0.16137
| 39>    C        5.42193         0.86376        -0.05542
| 40>    N        4.64539         1.67694        -0.27642
| 41>    C        7.48870        -0.10469        -0.73164
| 42>    N        8.37541        -0.07555        -1.45804
| 43>    C        8.43412        -2.64788         0.88817
| 44>    C        8.85878        -3.78752         1.55420
| 45>    S        7.74429        -4.28349         2.81538
| 46>    C       10.04521        -4.52349         1.32668
| 47>    C       10.45632        -5.67435         1.97900
| 48>    C       11.69012        -6.11536         1.51846
| 49>    C       12.23471        -5.28932         0.50787
| 50>    S       11.20569        -3.98354         0.12364
| 51>    C       13.51943        -5.76229         0.17569
| 52>    C       13.80291        -6.87837         0.99904
| 53>    C       12.65861        -7.13472         1.86107
| 54>    C       12.56328        -8.09672         2.82408
| 55>    C       11.37232        -8.34166         3.54158
| 56>    N       10.40084        -8.59008         4.09628
| 57>    C       13.66585        -8.90177         3.17635
| 58>    N       14.58224        -9.51408         3.49700
| 59>    C       15.04994        -7.42387         0.77718
| 60>    C       15.76624        -6.74924        -0.21721
| 61>    S       14.81517        -5.40811        -0.87722
| 62>    C       17.05374        -7.00121        -0.70696
| 63>    C       17.96913        -7.88475        -0.17060
| 64>    C       19.26741        -8.18401        -0.64636
| 65>    C       19.97812        -9.05421         0.13730
| 66>    C       19.28154        -9.47452         1.28444
| 67>    S       17.68919        -8.77063         1.31190
| 68>    C       19.64306       -10.22129         2.40157
| 69>    C       20.83393       -10.83876         2.81661
| 70>    C       20.80881       -11.24478         4.12834
| 71>    C       19.61982       -10.91704         4.81280
| 72>    S       18.46653       -10.26658         3.69227
| 73>    C       19.32365       -11.04696         6.17061
| 74>    C       18.28213       -10.43017         6.84964
| 75>    C       17.51328        -9.31902         6.49373
| 76>    C       16.15150        -9.15005         7.04248
| 77>    O       15.62538        -9.78261         7.92928
| 78>    C       15.53712        -8.04861         6.23931
| 79>    C       16.50854        -7.54743         5.35757
| 80>    C       16.18203        -6.57749         4.42990
| 81>    C       14.88694        -6.06062         4.41178
| 82>    C       13.92596        -6.54676         5.31728
| 83>    C       14.25142        -7.55607         6.23515
| 84>    C       12.59972        -6.04588         5.32200
| 85>    N       11.50522        -5.71385         5.40006
| 86>    C       14.47576        -5.01671         3.43127
| 87>    O       13.32086        -4.74061         3.22516
| 88>    O       15.44198        -4.38888         2.74962
| 89>    C       17.77610        -8.22562         5.61770
| 90>    C       19.00178        -7.75330         5.18690
| 91>    C       20.23471        -8.25270         5.63996
| 92>    N       21.26686        -8.60326         6.00190
| 93>    C       19.14986        -6.68519         4.28938
| 94>    N       19.29698        -5.84390         3.51824
| 95>    H       -2.29498         1.83903         5.92937
| 96>    H       -2.27195         4.20664         4.83699
| 97>    H        1.97270        -1.78363         4.93841
| 98>    H        3.67769         0.29756         2.04687
| 99>    H        8.99453        -2.20124         0.08655
|100>    H        9.88877        -6.13876         2.76531
|101>    H       15.41004        -8.29454         1.28867
|102>    H       17.37001        -6.43255        -1.57132
|103>    H       19.64784        -7.74133        -1.55014
|104>    H       20.98238        -9.37645        -0.07181
|105>    H       21.68321       -10.94720         2.16602
|106>    H       21.64303       -11.69540         4.63531
|107>    H       19.95200       -11.72475         6.73358
|108>    H       17.97888       -10.88652         7.78692
|109>    H       16.91549        -6.26338         3.70380
|110>    H       13.50502        -7.93843         6.91495
|111>    H       16.33984        -4.60405         3.04076
|112> *
|113>
|114>                          ****END OF INPUT****

CARTESIAN COORDINATES (ANGSTROEM)
---------------------------------
  C      1.526920    1.372250    3.501350
  O      2.412840    1.718710    2.750720
  C      0.377400    2.157790    3.933830
  C     -0.426350    1.446150    4.814380
  C     -1.542010    2.188610    5.248040
  C     -1.545900    3.431620    4.686920
  S     -0.215770    3.730040    3.630800
  C      0.144950    0.129850    5.011080
  C     -0.426530   -0.849450    5.780140
  C     -1.630760   -0.625940    6.482590
  N     -2.605770   -0.469510    7.066580
  C      0.053470   -2.160880    5.969900
  N      0.370550   -3.247370    6.165940
  C      1.372220    0.073440    4.222620
  C      2.231670   -0.987110    4.249940
  C      3.427340   -1.244170    3.546960
  C      4.062730   -0.602520    2.491440
  C      5.230550   -1.250220    2.111910
  C      5.505420   -2.401450    2.886370
  S      4.312690   -2.691710    4.058600
  C      6.724610   -2.964100    2.442490
  C      7.223810   -2.176660    1.387110
  C      6.292940   -1.085660    1.133810
  C      6.395700   -0.136050    0.161370
  C      5.421930    0.863760   -0.055420
  N      4.645390    1.676940   -0.276420
  C      7.488700   -0.104690   -0.731640
  N      8.375410   -0.075550   -1.458040
  C      8.434120   -2.647880    0.888170
  C      8.858780   -3.787520    1.554200
  S      7.744290   -4.283490    2.815380
  C     10.045210   -4.523490    1.326680
  C     10.456320   -5.674350    1.979000
  C     11.690120   -6.115360    1.518460
  C     12.234710   -5.289320    0.507870
  S     11.205690   -3.983540    0.123640
  C     13.519430   -5.762290    0.175690
  C     13.802910   -6.878370    0.999040
  C     12.658610   -7.134720    1.861070
  C     12.563280   -8.096720    2.824080
  C     11.372320   -8.341660    3.541580
  N     10.400840   -8.590080    4.096280
  C     13.665850   -8.901770    3.176350
  N     14.582240   -9.514080    3.497000
  C     15.049940   -7.423870    0.777180
  C     15.766240   -6.749240   -0.217210
  S     14.815170   -5.408110   -0.877220
  C     17.053740   -7.001210   -0.706960
  C     17.969130   -7.884750   -0.170600
  C     19.267410   -8.184010   -0.646360
  C     19.978120   -9.054210    0.137300
  C     19.281540   -9.474520    1.284440
  S     17.689190   -8.770630    1.311900
  C     19.643060  -10.221290    2.401570
  C     20.833930  -10.838760    2.816610
  C     20.808810  -11.244780    4.128340
  C     19.619820  -10.917040    4.812800
  S     18.466530  -10.266580    3.692270
  C     19.323650  -11.046960    6.170610
  C     18.282130  -10.430170    6.849640
  C     17.513280   -9.319020    6.493730
  C     16.151500   -9.150050    7.042480
  O     15.625380   -9.782610    7.929280
  C     15.537120   -8.048610    6.239310
  C     16.508540   -7.547430    5.357570
  C     16.182030   -6.577490    4.429900
  C     14.886940   -6.060620    4.411780
  C     13.925960   -6.546760    5.317280
  C     14.251420   -7.556070    6.235150
  C     12.599720   -6.045880    5.322000
  N     11.505220   -5.713850    5.400060
  C     14.475760   -5.016710    3.431270
  O     13.320860   -4.740610    3.225160
  O     15.441980   -4.388880    2.749620
  C     17.776100   -8.225620    5.617700
  C     19.001780   -7.753300    5.186900
  C     20.234710   -8.252700    5.639960
  N     21.266860   -8.603260    6.001900
  C     19.149860   -6.685190    4.289380
  N     19.296980   -5.843900    3.518240
  H     -2.294980    1.839030    5.929370
  H     -2.271950    4.206640    4.836990
  H      1.972700   -1.783630    4.938410
  H      3.677690    0.297560    2.046870
  H      8.994530   -2.201240    0.086550
  H      9.888770   -6.138760    2.765310
  H     15.410040   -8.294540    1.288670
  H     17.370010   -6.432550   -1.571320
  H     19.647840   -7.741330   -1.550140
  H     20.982380   -9.376450   -0.071810
  H     21.683210  -10.947200    2.166020
  H     21.643030  -11.695400    4.635310
  H     19.952000  -11.724750    6.733580
  H     17.978880  -10.886520    7.786920
  H     16.915490   -6.263380    3.703800
  H     13.505020   -7.938430    6.914950
  H     16.339840   -4.604050    3.040760

 Total Charge           Charge          ....    0
 Multiplicity           Mult            ....    1
 Number of Electrons    NEL             ....  584
 Basis Dimension        Dim             .... 1233

ORBITAL ENERGIES
----------------

  NO   OCC          E(Eh)            E(eV)
   0   2.0000     -89.002035     -2421.8685
   1   2.0000     -88.997781     -2421.7527
   2   2.0000     -88.996083     -2421.7065
   3   2.0000     -88.995614     -2421.6938
   4   2.0000     -88.988229     -2421.4928
   5   2.0000     -88.977740     -2421.2074
   6   2.0000     -88.970874     -2421.0206
   7   2.0000     -19.281973      -524.6892
   8   2.0000     -19.222971      -523.0836
   9   2.0000     -19.222402      -523.0682
  10   2.0000     -19.211778      -522.7791
  11   2.0000     -14.441247      -392.9663
  12   2.0000     -14.434635      -392.7864
  13   2.0000     -14.431492      -392.7008
  14   2.0000     -14.429962      -392.6592
  15   2.0000     -14.421311      -392.4238
  16   2.0000     -14.417737      -392.3266
  17   2.0000     -14.415962      -392.2783
  18   2.0000     -14.410795      -392.1377
  19   2.0000     -14.410413      -392.1273
  20   2.0000     -10.427539      -283.7478
  21   2.0000     -10.381109      -282.4843
  22   2.0000     -10.371249      -282.2160
  23   2.0000     -10.369442      -282.1669
  24   2.0000     -10.363828      -282.0141
  25   2.0000     -10.358374      -281.8657
  26   2.0000     -10.356180      -281.8060
  27   2.0000     -10.350173      -281.6425
  28   2.0000     -10.349573      -281.6262
  29   2.0000     -10.347424      -281.5677
  30   2.0000     -10.346483      -281.5421
  31   2.0000     -10.345999      -281.5289
  32   2.0000     -10.341827      -281.4154
  33   2.0000     -10.341536      -281.4075
  34   2.0000     -10.339580      -281.3543
  35   2.0000     -10.339195      -281.3438
  36   2.0000     -10.337935      -281.3095
  37   2.0000     -10.337848      -281.3072
  38   2.0000     -10.337271      -281.2915
  39   2.0000     -10.336172      -281.2615
  40   2.0000     -10.335974      -281.2561
  41   2.0000     -10.334855      -281.2257
  42   2.0000     -10.334821      -281.2248
  43   2.0000     -10.332552      -281.1630
  44   2.0000     -10.332278      -281.1556
  45   2.0000     -10.331235      -281.1272
  46   2.0000     -10.329459      -281.0789
  47   2.0000     -10.329328      -281.0753
  48   2.0000     -10.329005      -281.0665
  49   2.0000     -10.328215      -281.0450
  50   2.0000     -10.327320      -281.0207
  51   2.0000     -10.323726      -280.9229
  52   2.0000     -10.323479      -280.9161
  53   2.0000     -10.321638      -280.8661
  54   2.0000     -10.321516      -280.8627
  55   2.0000     -10.320229      -280.8277
  56   2.0000     -10.318724      -280.7867
  57   2.0000     -10.318456      -280.7795
  58   2.0000     -10.318243      -280.7737
  59   2.0000     -10.315960      -280.7115
  60   2.0000     -10.315610      -280.7020
  61   2.0000     -10.315278      -280.6930
  62   2.0000     -10.314607      -280.6747
  63   2.0000     -10.312966      -280.6301
  64   2.0000     -10.312504      -280.6175
  65   2.0000     -10.312266      -280.6110
  66   2.0000     -10.312189      -280.6089
  67   2.0000     -10.311183      -280.5816
  68   2.0000     -10.310473      -280.5622
  69   2.0000     -10.310060      -280.5510
  70   2.0000     -10.308415      -280.5062
  71   2.0000     -10.306618      -280.4573
  72   2.0000     -10.306326      -280.4494
  73   2.0000     -10.305861      -280.4367
  74   2.0000     -10.305658      -280.4312
  75   2.0000     -10.305475      -280.4262
  76   2.0000     -10.298966      -280.2491
  77   2.0000     -10.298627      -280.2399
  78   2.0000     -10.290370      -280.0152
  79   2.0000     -10.285418      -279.8804
  80   2.0000      -8.096619      -220.3202
  81   2.0000      -8.092123      -220.1978
  82   2.0000      -8.090515      -220.1541
  83   2.0000      -8.090323      -220.1489
  84   2.0000      -8.083233      -219.9559
  85   2.0000      -8.073516      -219.6915
  86   2.0000      -8.066282      -219.4947
  87   2.0000      -6.065860      -165.0604
  88   2.0000      -6.061767      -164.9491
  89   2.0000      -6.061433      -164.9400
  90   2.0000      -6.059834      -164.8965
  91   2.0000      -6.059404      -164.8848
  92   2.0000      -6.058880      -164.8705
  93   2.0000      -6.057198      -164.8247
  94   2.0000      -6.055649      -164.7826
  95   2.0000      -6.055270      -164.7723
  96   2.0000      -6.054387      -164.7483
  97   2.0000      -6.052915      -164.7082
  98   2.0000      -6.052738      -164.7034
  99   2.0000      -6.052360      -164.6931
 100   2.0000      -6.047951      -164.5731
 101   2.0000      -6.045999      -164.5200
 102   2.0000      -6.043204      -164.4439
 103   2.0000      -6.038921      -164.3274
 104   2.0000      -6.035715      -164.2402
 105   2.0000      -6.034718      -164.2130
 106   2.0000      -6.031495      -164.1253
 107   2.0000      -6.027960      -164.0291
 108   2.0000      -1.206489       -32.8302
 109   2.0000      -1.139662       -31.0118
 110   2.0000      -1.126388       -30.6506
 111   2.0000      -1.120637       -30.4941
 112   2.0000      -1.054381       -28.6912
 113   2.0000      -1.050889       -28.5961
 114   2.0000      -1.030765       -28.0485
 115   2.0000      -1.028821       -27.9956
 116   2.0000      -1.028312       -27.9818
 117   2.0000      -1.025223       -27.8977
 118   2.0000      -1.021319       -27.7915
 119   2.0000      -1.014073       -27.5943
 120   2.0000      -1.012434       -27.5497
 121   2.0000      -1.011482       -27.5238
 122   2.0000      -1.008866       -27.4526
 123   2.0000      -1.008116       -27.4322
 124   2.0000      -1.002390       -27.2764
 125   2.0000      -0.997692       -27.1486
 126   2.0000      -0.996724       -27.1222
 127   2.0000      -0.992920       -27.0187
 128   2.0000      -0.991291       -26.9744
 129   2.0000      -0.971793       -26.4438
 130   2.0000      -0.965426       -26.2706
 131   2.0000      -0.961064       -26.1519
 132   2.0000      -0.959610       -26.1123
 133   2.0000      -0.933439       -25.4002
 134   2.0000      -0.923495       -25.1296
 135   2.0000      -0.914482       -24.8843
 136   2.0000      -0.905501       -24.6399
 137   2.0000      -0.904456       -24.6115
 138   2.0000      -0.899668       -24.4812
 139   2.0000      -0.886585       -24.1252
 140   2.0000      -0.885356       -24.0918
 141   2.0000      -0.882725       -24.0202
 142   2.0000      -0.877273       -23.8718
 143   2.0000      -0.870695       -23.6928
 144   2.0000      -0.866245       -23.5717
 145   2.0000      -0.860932       -23.4272
 146   2.0000      -0.858593       -23.3635
 147   2.0000      -0.855125       -23.2691
 148   2.0000      -0.844097       -22.9690
 149   2.0000      -0.837461       -22.7885
 150   2.0000      -0.824420       -22.4336
 151   2.0000      -0.804879       -21.9019
 152   2.0000      -0.793718       -21.5982
 153   2.0000      -0.790342       -21.5063
 154   2.0000      -0.785680       -21.3794
 155   2.0000      -0.777674       -21.1616
 156   2.0000      -0.768832       -20.9210
 157   2.0000      -0.764051       -20.7909
 158   2.0000      -0.750204       -20.4141
 159   2.0000      -0.739010       -20.1095
 160   2.0000      -0.730144       -19.8682
 161   2.0000      -0.720925       -19.6174
 162   2.0000      -0.715080       -19.4583
 163   2.0000      -0.709287       -19.3007
 164   2.0000      -0.704782       -19.1781
 165   2.0000      -0.699620       -19.0376
 166   2.0000      -0.697129       -18.9699
 167   2.0000      -0.692920       -18.8553
 168   2.0000      -0.690453       -18.7882
 169   2.0000      -0.688007       -18.7216
 170   2.0000      -0.681246       -18.5376
 171   2.0000      -0.673681       -18.3318
 172   2.0000      -0.668471       -18.1900
 173   2.0000      -0.665483       -18.1087
 174   2.0000      -0.655364       -17.8334
 175   2.0000      -0.651113       -17.7177
 176   2.0000      -0.644984       -17.5509
 177   2.0000      -0.643351       -17.5065
 178   2.0000      -0.637182       -17.3386
 179   2.0000      -0.634923       -17.2771
 180   2.0000      -0.630826       -17.1656
 181   2.0000      -0.628360       -17.0985
 182   2.0000      -0.625722       -17.0268
 183   2.0000      -0.618641       -16.8341
 184   2.0000      -0.614427       -16.7194
 185   2.0000      -0.608458       -16.5570
 186   2.0000      -0.599754       -16.3201
 187   2.0000      -0.597481       -16.2583
 188   2.0000      -0.590490       -16.0681
 189   2.0000      -0.585373       -15.9288
 190   2.0000      -0.583120       -15.8675
 191   2.0000      -0.579361       -15.7652
 192   2.0000      -0.574114       -15.6224
 193   2.0000      -0.566302       -15.4099
 194   2.0000      -0.562021       -15.2934
 195   2.0000      -0.559064       -15.2129
 196   2.0000      -0.555605       -15.1188
 197   2.0000      -0.554339       -15.0843
 198   2.0000      -0.551029       -14.9943
 199   2.0000      -0.547054       -14.8861
 200   2.0000      -0.545729       -14.8500
 201   2.0000      -0.542804       -14.7704
 202   2.0000      -0.540605       -14.7106
 203   2.0000      -0.535632       -14.5753
 204   2.0000      -0.533481       -14.5167
 205   2.0000      -0.531959       -14.4753
 206   2.0000      -0.529622       -14.4117
 207   2.0000      -0.523909       -14.2563
 208   2.0000      -0.523047       -14.2328
 209   2.0000      -0.518785       -14.1169
 210   2.0000      -0.517838       -14.0911
 211   2.0000      -0.514729       -14.0065
 212   2.0000      -0.513025       -13.9601
 213   2.0000      -0.511245       -13.9117
 214   2.0000      -0.509812       -13.8727
 215   2.0000      -0.508915       -13.8483
 216   2.0000      -0.506572       -13.7845
 217   2.0000      -0.506099       -13.7716
 218   2.0000      -0.502334       -13.6692
 219   2.0000      -0.501032       -13.6338
 220   2.0000      -0.499967       -13.6048
 221   2.0000      -0.492586       -13.4040
 222   2.0000      -0.491109       -13.3638
 223   2.0000      -0.488268       -13.2865
 224   2.0000      -0.486357       -13.2344
 225   2.0000      -0.483774       -13.1642
 226   2.0000      -0.483235       -13.1495
 227   2.0000      -0.480840       -13.0843
 228   2.0000      -0.478712       -13.0264
 229   2.0000      -0.476297       -12.9607
 230   2.0000      -0.473222       -12.8770
 231   2.0000      -0.472548       -12.8587
 232   2.0000      -0.472110       -12.8468
 233   2.0000      -0.470249       -12.7961
 234   2.0000      -0.464399       -12.6369
 235   2.0000      -0.463434       -12.6107
 236   2.0000      -0.462241       -12.5782
 237   2.0000      -0.459904       -12.5146
 238   2.0000      -0.457378       -12.4459
 239   2.0000      -0.456617       -12.4252
 240   2.0000      -0.455786       -12.4026
 241   2.0000      -0.453838       -12.3496
 242   2.0000      -0.453416       -12.3381
 243   2.0000      -0.451961       -12.2985
 244   2.0000      -0.449345       -12.2273
 245   2.0000      -0.448089       -12.1931
 246   2.0000      -0.446708       -12.1555
 247   2.0000      -0.445759       -12.1297
 248   2.0000      -0.444709       -12.1011
 249   2.0000      -0.444124       -12.0852
 250   2.0000      -0.443131       -12.0582
 251   2.0000      -0.442804       -12.0493
 252   2.0000      -0.441872       -12.0240
 253   2.0000      -0.440735       -11.9930
 254   2.0000      -0.440004       -11.9731
 255   2.0000      -0.434259       -11.8168
 256   2.0000      -0.432998       -11.7825
 257   2.0000      -0.430732       -11.7208
 258   2.0000      -0.430233       -11.7072
 259   2.0000      -0.429564       -11.6890
 260   2.0000      -0.428866       -11.6700
 261   2.0000      -0.426662       -11.6101
 262   2.0000      -0.426331       -11.6010
 263   2.0000      -0.425418       -11.5762
 264   2.0000      -0.421064       -11.4577
 265   2.0000      -0.416509       -11.3338
 266   2.0000      -0.415504       -11.3065
 267   2.0000      -0.412960       -11.2372
 268   2.0000      -0.410681       -11.1752
 269   2.0000      -0.399879       -10.8813
 270   2.0000      -0.398579       -10.8459
 271   2.0000      -0.395256       -10.7555
 272   2.0000      -0.383177       -10.4268
 273   2.0000      -0.369181       -10.0459
 274   2.0000      -0.367597       -10.0028
 275   2.0000      -0.364873        -9.9287
 276   2.0000      -0.361278        -9.8309
 277   2.0000      -0.357098        -9.7171
 278   2.0000      -0.353998        -9.6328
 279   2.0000      -0.350067        -9.5258
 280   2.0000      -0.348180        -9.4744
 281   2.0000      -0.345946        -9.4137
 282   2.0000      -0.339260        -9.2317
 283   2.0000      -0.336007        -9.1432
 284   2.0000      -0.328973        -8.9518
 285   2.0000      -0.326450        -8.8832
 286   2.0000      -0.319222        -8.6865
 287   2.0000      -0.312538        -8.5046
 288   2.0000      -0.301497        -8.2041
 289   2.0000      -0.290427        -7.9029
 290   2.0000      -0.261216        -7.1081
 291   2.0000      -0.236033        -6.4228
 292   0.0000      -0.128510        -3.4969
 293   0.0000      -0.111473        -3.0333
 294   0.0000      -0.108376        -2.9491
 295   0.0000      -0.084349        -2.2952
 296   0.0000      -0.082915        -2.2562

MULLIKEN ATOMIC CHARGES
-----------------------
   0 C :    0.143140
   1 O :   -0.145168
   2 C :   -0.167976
   3 C :    0.002060
   4 C :    0.023867
   5 C :   -0.058115
   6 S :    0.217228
   7 C :    0.306299
   8 C :   -0.345876
   9 C :   -0.192466
  10 N :    0.155026
  11 C :   -0.175727
  12 N :    0.152129
  13 C :   -0.100947
  14 C :    0.033018
  15 C :   -0.117677
  16 C :   -0.005910
  17 C :   -0.005303
  18 C :   -0.082991
  19 S :    0.210393
  20 C :   -0.103951
  21 C :    0.027951
  22 C :    0.307602
  23 C :   -0.295546
  24 C :   -0.192938
  25 N :    0.195570
  26 C :   -0.191117
  27 N :    0.172682
  28 C :   -0.070314
  29 C :   -0.045901
  30 S :    0.225416
  31 C :   -0.047494
  32 C :   -0.040081
  33 C :    0.071207
  34 C :   -0.098865
  35 S :    0.202396
  36 C :   -0.060804
  37 C :   -0.020759
  38 C :    0.294140
  39 C :   -0.315284
  40 C :   -0.213208
  41 N :    0.208062
  42 C :   -0.180313
  43 N :    0.168020
  44 C :   -0.053797
  45 C :   -0.114196
  46 S :    0.207886
  47 C :    0.078727
  48 C :   -0.047996
  49 C :    0.060746
  50 C :    0.030253
  51 C :    0.018711
  52 S :    0.051742
  53 C :   -0.066196
  54 C :    0.041311
  55 C :    0.074191
  56 C :   -0.077198
  57 S :    0.123018
  58 C :    0.023198
  59 C :    0.035888
  60 C :   -0.161950
  61 C :    0.147678
  62 O :   -0.134054
  63 C :    0.036991
  64 C :    0.047454
  65 C :   -0.116176
  66 C :    0.049444
  67 C :   -0.124815
  68 C :   -0.047025
  69 C :   -0.166957
  70 N :    0.142220
  71 C :    0.188439
  72 O :   -0.175811
  73 O :   -0.142627
  74 C :    0.260539
  75 C :   -0.342830
  76 C :   -0.194185
  77 N :    0.162082
  78 C :   -0.173863
  79 N :    0.116722
  80 H :    0.018175
  81 H :    0.044144
  82 H :    0.003828
  83 H :    0.036103
  84 H :    0.014812
  85 H :    0.023227
  86 H :    0.040659
  87 H :   -0.000070
  88 H :    0.002695
  89 H :   -0.000807
  90 H :   -0.002129
  91 H :    0.000786
  92 H :    0.006966
  93 H :    0.026349
  94 H :   -0.024578
  95 H :    0.014652
  96 H :    0.196144
Sum of atomic charges:   -0.0000000

LOEWDIN ATOMIC CHARGES
----------------------
   0 C :    0.070780
   1 O :   -0.134871
   2 C :   -0.207812
   3 C :   -0.041063
   4 C :   -0.044153
   5 C :   -0.149448
   6 S :    0.507614
   7 C :    0.077283
   8 C :   -0.139103
   9 C :   -0.016624
  10 N :   -0.051792
  11 C :   -0.024341
  12 N :   -0.047919
  13 C :   -0.092795
  14 C :    0.034743
  15 C :   -0.178584
  16 C :    0.015179
  17 C :   -0.075815
  18 C :   -0.159537
  19 S :    0.500034
  20 C :   -0.188615
  21 C :   -0.052473
  22 C :    0.076506
  23 C :   -0.094052
  24 C :   -0.023114
  25 N :   -0.014208
  26 C :   -0.014491
  27 N :   -0.033080
  28 C :   -0.037431
  29 C :   -0.168439
  30 S :    0.505964
  31 C :   -0.166752
  32 C :   -0.017498
  33 C :   -0.041501
  34 C :   -0.180676
  35 S :    0.494143
  36 C :   -0.151988
  37 C :   -0.072157
  38 C :    0.079095
  39 C :   -0.100650
  40 C :   -0.022545
  41 N :   -0.018019
  42 C :   -0.012661
  43 N :   -0.041881
  44 C :   -0.029694
  45 C :   -0.182200
  46 S :    0.485863
  47 C :   -0.025311
  48 C :   -0.164966
  49 C :    0.004004
  50 C :   -0.045332
  51 C :   -0.131250
  52 S :    0.424638
  53 C :   -0.198522
  54 C :   -0.011644
  55 C :   -0.029979
  56 C :   -0.110801
  57 S :    0.477860
  58 C :   -0.074616
  59 C :    0.046295
  60 C :   -0.132347
  61 C :    0.081806
  62 O :   -0.138970
  63 C :   -0.014370
  64 C :    0.018026
  65 C :   -0.010498
  66 C :   -0.054594
  67 C :   -0.040553
  68 C :    0.040764
  69 C :   -0.033439
  70 N :   -0.044156
  71 C :    0.086880
  72 O :   -0.135765
  73 O :   -0.016016
  74 C :    0.038006
  75 C :   -0.170417
  76 C :   -0.018168
  77 N :   -0.054109
  78 C :   -0.015392
  79 N :   -0.090451
  80 H :    0.043689
  81 H :    0.031531
  82 H :    0.042667
  83 H :    0.042872
  84 H :    0.036602
  85 H :    0.040573
  86 H :    0.022189
  87 H :    0.042041
  88 H :    0.039865
  89 H :    0.038293
  90 H :    0.037619
  91 H :    0.039599
  92 H :    0.041740
  93 H :    0.045972
  94 H :    0.027255
  95 H :    0.052044
  96 H :    0.099616

  Mayer bond orders larger than 0.100000
B(  0-C ,  1-O ) :   2.1534 B(  0-C ,  2-C ) :   1.0672 B(  0-C , 13-C ) :   0.9294
B(  2-C ,  3-C ) :   1.4596 B(  2-C ,  6-S ) :   1.1317 B(  3-C ,  4-C ) :   1.2679
B(  3-C ,  7-C ) :   0.9994 B(  4-C ,  5-C ) :   1.5437 B(  4-C , 80-H ) :   0.9959
B(  5-C ,  6-S ) :   1.1859 B(  5-C , 81-H ) :   0.9619 B(  7-C ,  8-C ) :   1.6395
B(  7-C , 13-C ) :   1.0744 B(  8-C ,  9-C ) :   1.1513 B(  8-C , 11-C ) :   1.1317
B(  9-C , 10-N ) :   2.9866 B( 11-C , 12-N ) :   2.9656 B( 13-C , 14-C ) :   1.6394
B( 14-C , 15-C ) :   1.2010 B( 14-C , 82-H ) :   0.9082 B( 15-C , 16-C ) :   1.4094
B( 15-C , 19-S ) :   1.0788 B( 16-C , 17-C ) :   1.3102 B( 16-C , 83-H ) :   0.9710
B( 17-C , 18-C ) :   1.3801 B( 17-C , 22-C ) :   0.9975 B( 18-C , 19-S ) :   1.1675
B( 18-C , 20-C ) :   1.2049 B( 20-C , 21-C ) :   1.4293 B( 20-C , 30-S ) :   1.1177
B( 21-C , 22-C ) :   0.9926 B( 21-C , 28-C ) :   1.3167 B( 22-C , 23-C ) :   1.7152
B( 23-C , 24-C ) :   1.1364 B( 23-C , 26-C ) :   1.1366 B( 24-C , 25-N ) :   2.9986
B( 26-C , 27-N ) :   2.9886 B( 28-C , 29-C ) :   1.4352 B( 28-C , 84-H ) :   0.9864
B( 29-C , 30-S ) :   1.1244 B( 29-C , 31-C ) :   1.1829 B( 31-C , 32-C ) :   1.4410
B( 31-C , 35-S ) :   1.1163 B( 32-C , 33-C ) :   1.3347 B( 32-C , 85-H ) :   0.9798
B( 33-C , 34-C ) :   1.4079 B( 33-C , 38-C ) :   1.0059 B( 34-C , 35-S ) :   1.1096
B( 34-C , 36-C ) :   1.2357 B( 36-C , 37-C ) :   1.3810 B( 36-C , 46-S ) :   1.1435
B( 37-C , 38-C ) :   0.9959 B( 37-C , 44-C ) :   1.3880 B( 38-C , 39-C ) :   1.7149
B( 39-C , 40-C ) :   1.1396 B( 39-C , 42-C ) :   1.1406 B( 40-C , 41-N ) :   2.9975
B( 42-C , 43-N ) :   2.9433 B( 44-C , 45-C ) :   1.3489 B( 44-C , 86-H ) :   0.9613
B( 45-C , 46-S ) :   1.0758 B( 45-C , 47-C ) :   1.2241 B( 47-C , 48-C ) :   1.5384
B( 47-C , 87-H ) :   0.9575 B( 48-C , 49-C ) :   1.1838 B( 48-C , 52-S ) :   1.0323
B( 49-C , 50-C ) :   1.5423 B( 49-C , 88-H ) :   0.9974 B( 50-C , 51-C ) :   1.2300
B( 50-C , 89-H ) :   0.9962 B( 51-C , 52-S ) :   1.0962 B( 51-C , 53-C ) :   1.3934
B( 53-C , 54-C ) :   1.2510 B( 53-C , 57-S ) :   1.0585 B( 54-C , 55-C ) :   1.5122
B( 54-C , 90-H ) :   0.9954 B( 55-C , 56-C ) :   1.2235 B( 55-C , 91-H ) :   0.9955
B( 56-C , 57-S ) :   1.1571 B( 56-C , 58-C ) :   1.3387 B( 58-C , 59-C ) :   1.4218
B( 58-C , 92-H ) :   0.9594 B( 59-C , 60-C ) :   1.3635 B( 59-C , 93-H ) :   0.9414
B( 60-C , 61-C ) :   0.9832 B( 60-C , 74-C ) :   1.1878 B( 61-C , 62-O ) :   2.2752
B( 61-C , 63-C ) :   0.8777 B( 63-C , 64-C ) :   1.3465 B( 63-C , 68-C ) :   1.3627
B( 64-C , 65-C ) :   1.4143 B( 64-C , 74-C ) :   0.9857 B( 65-C , 66-C ) :   1.2610
B( 65-C , 94-H ) :   0.9575 B( 66-C , 67-C ) :   1.3960 B( 66-C , 71-C ) :   0.8936
B( 67-C , 68-C ) :   1.3494 B( 67-C , 69-C ) :   1.0770 B( 68-C , 95-H ) :   1.0180
B( 69-C , 70-N ) :   3.0009 B( 71-C , 72-O ) :   2.0692 B( 71-C , 73-O ) :   1.2774
B( 73-O , 96-H ) :   0.9423 B( 74-C , 75-C ) :   1.5280 B( 75-C , 76-C ) :   1.1895
B( 75-C , 78-C ) :   1.1524 B( 76-C , 77-N ) :   2.9754 B( 78-C , 79-N ) :   2.9568

-----------------------------------------------------------------------------
         ABSORPTION SPECTRUM VIA TRANSITION ELECTRIC DIPOLE MOMENTS
-----------------------------------------------------------------------------
State   Energy  Wavelength   fosc         T2         TX        TY        TZ
        (cm-1)    (nm)                  (au**2)     (au)      (au)      (au)
-----------------------------------------------------------------------------
   0    8667.7   1153.7   0.540230590  20.51866  -3.68743   1.84486  -1.87562
   1   10957.7    912.6   0.069554753   2.08970   0.19595  -0.34629  -1.38974
   2   12977.4    770.6   0.266686431   6.76535   2.05541  -1.13376  -1.12036
   3   15689.5    637.4   0.268385187   5.63152  -1.78837   0.71239   1.38772
   4   16391.8    610.1   0.147473117   2.96183   1.18584  -1.21598   0.27752
   5   19218.4    520.3   0.447780300   7.67051  -2.24955   1.43947   0.73345
   6   19646.2    509.0   0.324835460   5.44329  -1.91970   1.03607   0.82741
   7   20519.2    487.3   0.254136219   4.07739   1.72297  -0.81568  -0.66591
   8   21105.2    473.8   0.369179162   5.75868  -1.92732   1.35697   0.45027
   9   22139.9    451.7   0.233976972   3.47916   1.59814   0.02502  -0.96150
  10   23147.5    432.0   0.137805922   1.95992  -0.93282   1.04153   0.07051
  11   24284.4    411.8   0.223313017   3.02734   1.52684  -0.69831  -0.45660
  12   24643.5    405.8   0.162292675   2.16806   0.98159  -1.09606  -0.05647
  13   25450.5    392.9   0.125649062   1.62532   0.78387  -0.96210   0.29193
  14   25725.9    388.7   0.019114774   0.24461  -0.02389   0.13288  -0.47580
  15   26124.6    382.8   0.092042872   1.15989  -0.87924   0.45259  -0.42660
  16   27146.7    368.4   0.018429785   0.22350  -0.33280  -0.01370   0.33549
  17   27332.5    365.9   0.010907929   0.13138  -0.18306  -0.01580   0.31244
  18   27747.4    360.4   0.017214710   0.20425   0.04833  -0.44934   0.00156
  19   28151.0    355.2   0.072457526   0.84735   0.81715  -0.16461  -0.39054
  20   28266.2    353.8   0.024153889   0.28132   0.18545   0.42084  -0.26424
  21   29026.8    344.5   0.181662528   2.06035  -1.31067   0.09011   0.57825
  22   29202.8    342.4   0.047466208   0.53510  -0.47783   0.53396   0.14718
  23   29727.1    336.4   0.023659682   0.26202  -0.19534  -0.21164   0.42317
  24   30019.9    333.1   0.056118627   0.61542   0.01618  -0.62174   0.47812
  25   30177.4    331.4   0.015190391   0.16572  -0.19803   0.00497   0.35563
  26   30506.2    327.8   0.133770080   1.44360  -0.61901  -0.59006   0.84395
  27   30583.8    327.0   0.055264400   0.59488   0.55805  -0.45722   0.27280
  28   30848.8    324.2   0.036819105   0.39293   0.30418  -0.54764   0.02222
  29   31172.1    320.8   0.042382872   0.44761  -0.46230   0.44361  -0.19261
  30   31213.0    320.4   0.454290327   4.79152   0.76396  -1.46018   1.44075
  31   31540.5    317.1   0.227993847   2.37975  -0.41932   1.08281  -1.01560
  32   31614.3    316.3   0.151457076   1.57718   0.49060  -1.05710   0.46802
  33   31761.2    314.8   0.163063076   1.69019   1.18613  -0.53093  -0.03736
  34   31903.8    313.4   0.022207159   0.22915  -0.11240   0.34044  -0.31720
  35   32232.3    310.2   0.024361024   0.24882  -0.45679   0.15946   0.12138
  36   32253.1    310.0   0.006511442   0.06646   0.24347  -0.01585  -0.08328
  37   32379.8    308.8   0.123169639   1.25229   0.63663   0.57909  -0.71529
  38   32741.8    305.4   0.154806788   1.55655  -0.66932  -0.54078   0.90339
  39   32926.6    303.7   0.116545607   1.16526   0.87323  -0.54321  -0.32810
  40   33151.6    301.6   0.081754587   0.81186   0.66147  -0.58304  -0.18542
  41   33350.5    299.8   0.026935137   0.26588  -0.02749  -0.47450   0.19995
  42   33833.2    295.6   0.043369538   0.42200  -0.11905  -0.34241   0.53906
  43   33962.1    294.4   0.024904463   0.24141   0.07636  -0.48151   0.06106
  44   34085.7    293.4   0.084559727   0.81671   0.33388   0.39551  -0.74081
  45   34177.0    292.6   0.064272640   0.61911  -0.54610   0.56602  -0.02246
  46   34313.2    291.4   0.116308022   1.11590   0.17586   0.72980  -0.74321
  47   34576.5    289.2   0.249773755   2.37816   1.14010   0.21842  -1.01520
  48   34705.1    288.1   0.153040211   1.45174   0.36996   0.82365  -0.79778
  49   35183.4    284.2   0.013072274   0.12232  -0.21352  -0.26880  -0.06686
  50   35263.4    283.6   0.132229058   1.23447  -0.71609  -0.50840   0.68059
  51   35296.8    283.3   0.026316407   0.24545   0.13875  -0.23255   0.41488
  52   35416.4    282.4   0.037287753   0.34661   0.09364   0.44373  -0.37542
  53   35528.4    281.5   0.020549028   0.19041   0.31863  -0.29003  -0.06903
  54   35614.9    280.8   0.083117579   0.76831  -0.71970   0.12972   0.48323
  55   35715.4    280.0   0.009266341   0.08541  -0.08655   0.02705  -0.27783
  56   35936.0    278.3   0.407603749   3.73408   0.52858   1.62659  -0.89939
  57   36062.9    277.3   0.283982131   2.59243  -0.59450  -1.19097   0.90586
  58   36187.2    276.3   0.179990164   1.63745   0.47904   0.53870  -1.05725
  59   36429.8    274.5   0.067318351   0.60835   0.44187  -0.54676   0.33786
  60   36712.8    272.4   0.132219738   1.18564   0.79035   0.25675  -0.70362
  61   36939.9    270.7   0.060679496   0.54078   0.65013  -0.01228  -0.34345
  62   36984.2    270.4   0.069231771   0.61626   0.18491   0.56268  -0.51522
  63   37282.9    268.2   0.020670993   0.18253   0.16778  -0.37430   0.11948
  64   37529.1    266.5   0.054950472   0.48204  -0.32675   0.57745  -0.20451
  65   37618.9    265.8   0.022841628   0.19989  -0.11522   0.37400  -0.21619
  66   37785.7    264.7   0.005593614   0.04873   0.20182   0.03122  -0.08384
  67   37965.3    263.4   0.047035321   0.40786  -0.27651  -0.21951   0.53218
  68   38095.1    262.5   0.001060595   0.00917  -0.01789  -0.09047  -0.02572
  69   38360.6    260.7   0.021444090   0.18403  -0.13354   0.24816  -0.32345
  70   38385.8    260.5   0.000385248   0.00330  -0.04643  -0.00145   0.03385
  71   38539.7    259.5   0.004973773   0.04249  -0.05836  -0.06671  -0.18609
  72   38751.9    258.1   0.008304056   0.07055  -0.08101  -0.23472   0.09429
  73   38965.9    256.6   0.042341542   0.35773  -0.44905   0.38212   0.10035
  74   39264.1    254.7   0.040873109   0.34270   0.48587  -0.28001  -0.16802
  75   39309.2    254.4   0.025147302   0.21061   0.39300   0.10796  -0.21096
  76   39766.5    251.5   0.031959302   0.26458  -0.41386  -0.15833   0.26122
  77   40137.3    249.1   0.057765968   0.47381   0.67771  -0.11949   0.01557
  78   40217.3    248.6   0.040655609   0.33280   0.43496  -0.28752   0.24688

FINAL SINGLE POINT ENERGY     -5872.591116103058

DIPOLE MOMENT
-------------
                                X             Y             Z
Electronic contribution:    -30.32058      15.83007      -4.37942
Nuclear contribution   :     33.33876     -16.35750       1.11490
                        -----------------------------------------
Total Dipole Moment    :      3.01818      -0.52743      -3.26451
                        -----------------------------------------
Magnitude (a.u.)       :      4.47712
Magnitude (Debye)      :     11.37994

Rotational constants in cm-1:     0.001930     0.000230     0.000215
Rotational constants in MHz :    57.854969     6.892121     6.436295

                             ****ORCA TERMINATED NORMALLY****
TOTAL RUN TIME: 0 days 0 hours 14 minutes 31 seconds 266 msec
