                         Program Version 4.2.0 -  RELEASE  -
|  1> # ORCA input file
|  2> # SCF done       -172.496777616593          0.000296732824
|  3> ! CAM-B3LYP def2-SVP def2/J RIJCOSX Grid4 TightSCF
|  4> %maxcore 5000
|  5> %tddft
|  6>     Mode sTDDFT
|  7>     Ethresh 5.0
|  8>     maxcore 5000
|  9> end
| 10>
| 11> %pal
| 12>   nprocs 6
| 13>   end
| 14> * xyz 0 1
| 15>    C       -4.79846        -1.62369        -0.43610
| 16>    C       -4.26328        -2.14070        -1.58237
| 17>    C       -4.13489        -3.52273        -1.84548
| 18>    N       -3.99858        -4.62996        -2.11273
| 19>    C       -3.74619        -1.37255        -2.64881
| 20>    N       -3.31009        -0.81091        -3.54916
| 21>    C       -5.32929        -2.38334         0.68551
| 22>    C       -5.69861        -1.49232         1.72564
| 23>    C       -6.22810        -1.92538         2.91736
| 24>    C       -6.41505        -3.30025         3.08897
| 25>    C       -6.04944        -4.18335         2.04221
| 26>    C       -5.50684        -3.74778         0.84145
| 27>    S       -6.36268        -5.83880         2.46437
| 28>    C       -6.97050        -5.33214         4.01816
| 29>    C       -6.94220        -3.99144         4.21297
| 30>   Br       -7.58381        -6.61790         5.23539
| 31>    C       -5.39695        -0.11077         1.31995
| 32>    O       -5.36913         0.87325         2.01837
| 33>    C       -4.96138        -0.20956        -0.11527
| 34>    C       -4.79507         0.85664        -0.91846
| 35>    C       -5.23049         2.17908        -0.54199
| 36>    C       -6.43303         2.61824        -0.00413
| 37>    C       -7.61650         1.79353         0.24552
| 38>    O       -7.61715         0.58512         0.31425
| 39>    O       -8.74023         2.50797         0.33269
| 40>    C       -6.26816         4.03856         0.03798
| 41>    N       -5.09759         4.36556        -0.44484
| 42>    O       -4.46577         3.23595        -0.81879
| 43>    C       -7.16842         5.06130         0.57838
| 44>    C       -7.80958         4.89926         1.73765
| 45>    C       -7.24896         6.24983        -0.18195
| 46>    C       -7.30902         7.25669        -0.85352
| 47>    C       -7.35000         8.43063        -1.60133
| 48>    C       -8.28204         8.68519        -2.55490
| 49>    C       -8.30104         9.87627        -3.30871
| 50>    C       -9.21208        10.16289        -4.28947
| 51>    C       -9.26824        11.33943        -5.08057
| 52>    C      -10.27809        11.35254        -5.99100
| 53>    C      -11.08110        10.18674        -5.97249
| 54>    S      -10.51272         9.07293        -4.75696
| 55>    C      -12.17071         9.90425        -6.77688
| 56>    C      -12.72763        10.71165        -7.79163
| 57>    C      -13.80241        10.14774        -8.41303
| 58>    C      -14.15060         8.87014        -7.91899
| 59>    S      -13.05805         8.40081        -6.64093
| 60>    C      -15.18263         8.07135        -8.37296
| 61>    C      -15.49586         6.83233        -7.82713
| 62>    C      -16.46385         5.94129        -8.24028
| 63>    C      -17.24008         5.85586        -9.44577
| 64>    C      -16.89932         6.33113       -10.69216
| 65>    C      -17.70446         6.18138       -11.83731
| 66>    N      -18.32863         6.11011       -12.79934
| 67>    C      -15.66169         6.92327       -11.00972
| 68>    N      -14.65702         7.36846       -11.34508
| 69>    C      -18.37290         4.96950        -9.17407
| 70>    C      -18.18386         4.37155        -7.90344
| 71>    C      -16.94895         4.91305        -7.29528
| 72>    O      -16.45832         4.60985        -6.22813
| 73>    C      -19.06322         3.45724        -7.37947
| 74>    C      -20.19002         3.12450        -8.14034
| 75>    C      -20.37637         3.73702        -9.40071
| 76>    C      -19.48107         4.65685        -9.93567
| 77>    S      -21.83817         3.19181       -10.16677
| 78>    C      -22.17152         2.15875        -8.80223
| 79>    C      -21.23954         2.21864        -7.82245
| 80>   Br      -23.72054         1.09996        -8.79944
| 81>    H       -6.49396        -1.22350         3.69187
| 82>    H       -5.24447        -4.45856         0.07564
| 83>    H       -7.27808        -3.50949         5.11288
| 84>    H       -4.35678         0.77342        -1.90376
| 85>    H       -9.50106         1.92016         0.46510
| 86>    H       -7.70139         3.99915         2.31612
| 87>    H       -8.44151         5.67369         2.13538
| 88>    H       -6.57474         9.15710        -1.38824
| 89>    H       -9.04835         7.94873        -2.76022
| 90>    H       -7.54015        10.61933        -3.10550
| 91>    H       -8.55630        12.13505        -4.94883
| 92>    H      -10.46790        12.16115        -6.67325
| 93>    H      -12.32702        11.67850        -8.03742
| 94>    H      -14.35234        10.60453        -9.21618
| 95>    H      -15.77870         8.47079        -9.18034
| 96>    H      -14.98530         6.55042        -6.91045
| 97>    H      -18.88971         3.01132        -6.41268
| 98>    H      -19.66881         5.09966       -10.89967
| 99>    H      -21.28771         1.64926        -6.91220
|100> *
|101>
|102>                          ****END OF INPUT****

CARTESIAN COORDINATES (ANGSTROEM)
---------------------------------
  C     -4.798460   -1.623690   -0.436100
  C     -4.263280   -2.140700   -1.582370
  C     -4.134890   -3.522730   -1.845480
  N     -3.998580   -4.629960   -2.112730
  C     -3.746190   -1.372550   -2.648810
  N     -3.310090   -0.810910   -3.549160
  C     -5.329290   -2.383340    0.685510
  C     -5.698610   -1.492320    1.725640
  C     -6.228100   -1.925380    2.917360
  C     -6.415050   -3.300250    3.088970
  C     -6.049440   -4.183350    2.042210
  C     -5.506840   -3.747780    0.841450
  S     -6.362680   -5.838800    2.464370
  C     -6.970500   -5.332140    4.018160
  C     -6.942200   -3.991440    4.212970
  Br    -7.583810   -6.617900    5.235390
  C     -5.396950   -0.110770    1.319950
  O     -5.369130    0.873250    2.018370
  C     -4.961380   -0.209560   -0.115270
  C     -4.795070    0.856640   -0.918460
  C     -5.230490    2.179080   -0.541990
  C     -6.433030    2.618240   -0.004130
  C     -7.616500    1.793530    0.245520
  O     -7.617150    0.585120    0.314250
  O     -8.740230    2.507970    0.332690
  C     -6.268160    4.038560    0.037980
  N     -5.097590    4.365560   -0.444840
  O     -4.465770    3.235950   -0.818790
  C     -7.168420    5.061300    0.578380
  C     -7.809580    4.899260    1.737650
  C     -7.248960    6.249830   -0.181950
  C     -7.309020    7.256690   -0.853520
  C     -7.350000    8.430630   -1.601330
  C     -8.282040    8.685190   -2.554900
  C     -8.301040    9.876270   -3.308710
  C     -9.212080   10.162890   -4.289470
  C     -9.268240   11.339430   -5.080570
  C    -10.278090   11.352540   -5.991000
  C    -11.081100   10.186740   -5.972490
  S    -10.512720    9.072930   -4.756960
  C    -12.170710    9.904250   -6.776880
  C    -12.727630   10.711650   -7.791630
  C    -13.802410   10.147740   -8.413030
  C    -14.150600    8.870140   -7.918990
  S    -13.058050    8.400810   -6.640930
  C    -15.182630    8.071350   -8.372960
  C    -15.495860    6.832330   -7.827130
  C    -16.463850    5.941290   -8.240280
  C    -17.240080    5.855860   -9.445770
  C    -16.899320    6.331130  -10.692160
  C    -17.704460    6.181380  -11.837310
  N    -18.328630    6.110110  -12.799340
  C    -15.661690    6.923270  -11.009720
  N    -14.657020    7.368460  -11.345080
  C    -18.372900    4.969500   -9.174070
  C    -18.183860    4.371550   -7.903440
  C    -16.948950    4.913050   -7.295280
  O    -16.458320    4.609850   -6.228130
  C    -19.063220    3.457240   -7.379470
  C    -20.190020    3.124500   -8.140340
  C    -20.376370    3.737020   -9.400710
  C    -19.481070    4.656850   -9.935670
  S    -21.838170    3.191810  -10.166770
  C    -22.171520    2.158750   -8.802230
  C    -21.239540    2.218640   -7.822450
  Br   -23.720540    1.099960   -8.799440
  H     -6.493960   -1.223500    3.691870
  H     -5.244470   -4.458560    0.075640
  H     -7.278080   -3.509490    5.112880
  H     -4.356780    0.773420   -1.903760
  H     -9.501060    1.920160    0.465100
  H     -7.701390    3.999150    2.316120
  H     -8.441510    5.673690    2.135380
  H     -6.574740    9.157100   -1.388240
  H     -9.048350    7.948730   -2.760220
  H     -7.540150   10.619330   -3.105500
  H     -8.556300   12.135050   -4.948830
  H    -10.467900   12.161150   -6.673250
  H    -12.327020   11.678500   -8.037420
  H    -14.352340   10.604530   -9.216180
  H    -15.778700    8.470790   -9.180340
  H    -14.985300    6.550420   -6.910450
  H    -18.889710    3.011320   -6.412680
  H    -19.668810    5.099660  -10.899670
  H    -21.287710    1.649260   -6.912200

 Total Charge           Charge          ....    0
 Multiplicity           Mult            ....    1
 Number of Electrons    NEL             ....  528
 Basis Dimension        Dim             .... 1071

ORBITAL ENERGIES
----------------

  NO   OCC          E(Eh)            E(eV)
   0   2.0000    -482.892419    -13140.1708
   1   2.0000    -482.877642    -13139.7687
   2   2.0000     -88.983549     -2421.3655
   3   2.0000     -88.965499     -2420.8743
   4   2.0000     -88.965154     -2420.8649
   5   2.0000     -88.961673     -2420.7702
   6   2.0000     -62.570156     -1702.6205
   7   2.0000     -62.555367     -1702.2181
   8   2.0000     -56.404115     -1534.8340
   9   2.0000     -56.401381     -1534.7596
  10   2.0000     -56.401353     -1534.7588
  11   2.0000     -56.389305     -1534.4310
  12   2.0000     -56.386613     -1534.3577
  13   2.0000     -56.386574     -1534.3567
  14   2.0000     -19.333081      -526.0799
  15   2.0000     -19.280988      -524.6624
  16   2.0000     -19.224451      -523.1239
  17   2.0000     -19.223853      -523.1076
  18   2.0000     -19.198158      -522.4084
  19   2.0000     -14.468674      -393.7126
  20   2.0000     -14.427594      -392.5948
  21   2.0000     -14.427272      -392.5860
  22   2.0000     -14.401340      -391.8804
  23   2.0000     -14.398874      -391.8133
  24   2.0000     -10.429530      -283.8019
  25   2.0000     -10.379868      -282.4506
  26   2.0000     -10.374535      -282.3055
  27   2.0000     -10.367226      -282.1066
  28   2.0000     -10.358089      -281.8579
  29   2.0000     -10.354363      -281.7566
  30   2.0000     -10.349060      -281.6122
  31   2.0000     -10.348845      -281.6064
  32   2.0000     -10.337724      -281.3038
  33   2.0000     -10.334826      -281.2249
  34   2.0000     -10.333056      -281.1767
  35   2.0000     -10.329157      -281.0706
  36   2.0000     -10.328994      -281.0662
  37   2.0000     -10.328940      -281.0648
  38   2.0000     -10.328462      -281.0517
  39   2.0000     -10.326348      -280.9942
  40   2.0000     -10.326226      -280.9909
  41   2.0000     -10.325513      -280.9715
  42   2.0000     -10.324607      -280.9469
  43   2.0000     -10.322527      -280.8902
  44   2.0000     -10.319108      -280.7972
  45   2.0000     -10.317073      -280.7418
  46   2.0000     -10.315431      -280.6972
  47   2.0000     -10.314871      -280.6819
  48   2.0000     -10.314217      -280.6641
  49   2.0000     -10.309453      -280.5345
  50   2.0000     -10.307942      -280.4934
  51   2.0000     -10.307726      -280.4875
  52   2.0000     -10.307517      -280.4818
  53   2.0000     -10.306519      -280.4546
  54   2.0000     -10.306218      -280.4464
  55   2.0000     -10.304981      -280.4128
  56   2.0000     -10.304388      -280.3967
  57   2.0000     -10.304154      -280.3903
  58   2.0000     -10.302404      -280.3427
  59   2.0000     -10.302130      -280.3352
  60   2.0000     -10.300304      -280.2855
  61   2.0000     -10.297958      -280.2217
  62   2.0000     -10.295712      -280.1606
  63   2.0000     -10.295477      -280.1542
  64   2.0000     -10.293963      -280.1130
  65   2.0000     -10.292882      -280.0836
  66   2.0000     -10.291159      -280.0367
  67   2.0000     -10.289106      -279.9808
  68   2.0000     -10.287330      -279.9325
  69   2.0000     -10.282419      -279.7988
  70   2.0000     -10.281991      -279.7872
  71   2.0000     -10.279481      -279.7189
  72   2.0000     -10.279192      -279.7110
  73   2.0000     -10.277132      -279.6550
  74   2.0000      -8.799606      -239.4494
  75   2.0000      -8.784793      -239.0464
  76   2.0000      -8.079471      -219.8536
  77   2.0000      -8.061559      -219.3662
  78   2.0000      -8.061520      -219.3651
  79   2.0000      -8.057939      -219.2677
  80   2.0000      -6.635965      -180.5738
  81   2.0000      -6.621324      -180.1754
  82   2.0000      -6.621097      -180.1692
  83   2.0000      -6.621041      -180.1677
  84   2.0000      -6.606532      -179.7729
  85   2.0000      -6.606384      -179.7688
  86   2.0000      -6.049177      -164.6065
  87   2.0000      -6.044868      -164.4892
  88   2.0000      -6.040711      -164.3761
  89   2.0000      -6.031229      -164.1181
  90   2.0000      -6.031229      -164.1181
  91   2.0000      -6.027557      -164.0182
  92   2.0000      -6.027245      -164.0097
  93   2.0000      -6.026939      -164.0013
  94   2.0000      -6.023542      -163.9089
  95   2.0000      -6.022724      -163.8866
  96   2.0000      -6.022473      -163.8798
  97   2.0000      -6.019034      -163.7862
  98   2.0000      -2.751789       -74.8800
  99   2.0000      -2.747763       -74.7704
 100   2.0000      -2.747541       -74.7644
 101   2.0000      -2.736941       -74.4760
 102   2.0000      -2.735938       -74.4487
 103   2.0000      -2.735907       -74.4478
 104   2.0000      -2.732835       -74.3642
 105   2.0000      -2.732719       -74.3611
 106   2.0000      -2.721211       -74.0479
 107   2.0000      -2.721179       -74.0470
 108   2.0000      -1.272943       -34.6385
 109   2.0000      -1.210826       -32.9483
 110   2.0000      -1.143341       -31.1119
 111   2.0000      -1.112357       -30.2688
 112   2.0000      -1.112301       -30.2672
 113   2.0000      -1.033195       -28.1147
 114   2.0000      -1.023576       -27.8529
 115   2.0000      -1.014343       -27.6017
 116   2.0000      -1.010450       -27.4957
 117   2.0000      -1.005673       -27.3658
 118   2.0000      -1.000990       -27.2383
 119   2.0000      -0.999723       -27.2038
 120   2.0000      -0.992415       -27.0050
 121   2.0000      -0.991663       -26.9845
 122   2.0000      -0.978986       -26.6396
 123   2.0000      -0.975598       -26.5474
 124   2.0000      -0.956390       -26.0247
 125   2.0000      -0.940183       -25.5837
 126   2.0000      -0.933195       -25.3935
 127   2.0000      -0.930101       -25.3093
 128   2.0000      -0.918408       -24.9912
 129   2.0000      -0.909738       -24.7552
 130   2.0000      -0.903079       -24.5740
 131   2.0000      -0.896470       -24.3942
 132   2.0000      -0.895928       -24.3794
 133   2.0000      -0.895092       -24.3567
 134   2.0000      -0.883714       -24.0471
 135   2.0000      -0.874008       -23.7830
 136   2.0000      -0.867213       -23.5981
 137   2.0000      -0.864183       -23.5156
 138   2.0000      -0.859296       -23.3826
 139   2.0000      -0.840670       -22.8758
 140   2.0000      -0.838493       -22.8166
 141   2.0000      -0.838301       -22.8113
 142   2.0000      -0.819387       -22.2967
 143   2.0000      -0.816566       -22.2199
 144   2.0000      -0.800436       -21.7810
 145   2.0000      -0.791918       -21.5492
 146   2.0000      -0.778661       -21.1884
 147   2.0000      -0.768160       -20.9027
 148   2.0000      -0.765698       -20.8357
 149   2.0000      -0.748972       -20.3806
 150   2.0000      -0.743221       -20.2241
 151   2.0000      -0.732938       -19.9443
 152   2.0000      -0.722596       -19.6628
 153   2.0000      -0.710395       -19.3308
 154   2.0000      -0.702422       -19.1139
 155   2.0000      -0.696914       -18.9640
 156   2.0000      -0.691798       -18.8248
 157   2.0000      -0.688506       -18.7352
 158   2.0000      -0.681213       -18.5368
 159   2.0000      -0.675510       -18.3816
 160   2.0000      -0.669933       -18.2298
 161   2.0000      -0.663164       -18.0456
 162   2.0000      -0.660827       -17.9820
 163   2.0000      -0.649605       -17.6766
 164   2.0000      -0.644517       -17.5382
 165   2.0000      -0.639999       -17.4153
 166   2.0000      -0.637365       -17.3436
 167   2.0000      -0.632554       -17.2127
 168   2.0000      -0.629477       -17.1289
 169   2.0000      -0.620614       -16.8878
 170   2.0000      -0.617854       -16.8127
 171   2.0000      -0.610463       -16.6115
 172   2.0000      -0.609561       -16.5870
 173   2.0000      -0.603361       -16.4183
 174   2.0000      -0.591260       -16.0890
 175   2.0000      -0.588305       -16.0086
 176   2.0000      -0.584006       -15.8916
 177   2.0000      -0.583551       -15.8792
 178   2.0000      -0.580752       -15.8031
 179   2.0000      -0.571564       -15.5531
 180   2.0000      -0.567782       -15.4501
 181   2.0000      -0.559587       -15.2271
 182   2.0000      -0.557484       -15.1699
 183   2.0000      -0.556329       -15.1385
 184   2.0000      -0.552038       -15.0217
 185   2.0000      -0.545309       -14.8386
 186   2.0000      -0.543248       -14.7825
 187   2.0000      -0.541047       -14.7226
 188   2.0000      -0.537299       -14.6207
 189   2.0000      -0.534991       -14.5579
 190   2.0000      -0.531944       -14.4749
 191   2.0000      -0.530493       -14.4354
 192   2.0000      -0.524808       -14.2807
 193   2.0000      -0.520294       -14.1579
 194   2.0000      -0.520038       -14.1510
 195   2.0000      -0.517400       -14.0792
 196   2.0000      -0.515075       -14.0159
 197   2.0000      -0.513845       -13.9824
 198   2.0000      -0.511631       -13.9222
 199   2.0000      -0.507644       -13.8137
 200   2.0000      -0.503277       -13.6949
 201   2.0000      -0.499253       -13.5854
 202   2.0000      -0.498367       -13.5613
 203   2.0000      -0.496514       -13.5108
 204   2.0000      -0.492795       -13.4096
 205   2.0000      -0.488410       -13.2903
 206   2.0000      -0.486838       -13.2475
 207   2.0000      -0.485201       -13.2030
 208   2.0000      -0.483770       -13.1640
 209   2.0000      -0.482367       -13.1259
 210   2.0000      -0.478868       -13.0307
 211   2.0000      -0.478074       -13.0091
 212   2.0000      -0.473265       -12.8782
 213   2.0000      -0.470463       -12.8020
 214   2.0000      -0.466896       -12.7049
 215   2.0000      -0.459093       -12.4925
 216   2.0000      -0.458473       -12.4757
 217   2.0000      -0.456605       -12.4249
 218   2.0000      -0.454283       -12.3617
 219   2.0000      -0.450235       -12.2515
 220   2.0000      -0.448327       -12.1996
 221   2.0000      -0.448193       -12.1959
 222   2.0000      -0.444221       -12.0879
 223   2.0000      -0.439590       -11.9618
 224   2.0000      -0.438891       -11.9428
 225   2.0000      -0.437162       -11.8958
 226   2.0000      -0.435067       -11.8388
 227   2.0000      -0.434676       -11.8281
 228   2.0000      -0.434529       -11.8241
 229   2.0000      -0.431878       -11.7520
 230   2.0000      -0.430163       -11.7053
 231   2.0000      -0.427443       -11.6313
 232   2.0000      -0.420626       -11.4458
 233   2.0000      -0.420174       -11.4335
 234   2.0000      -0.415313       -11.3012
 235   2.0000      -0.412060       -11.2127
 236   2.0000      -0.410332       -11.1657
 237   2.0000      -0.407056       -11.0766
 238   2.0000      -0.402105       -10.9418
 239   2.0000      -0.396181       -10.7806
 240   2.0000      -0.394744       -10.7415
 241   2.0000      -0.394257       -10.7283
 242   2.0000      -0.386612       -10.5203
 243   2.0000      -0.382027       -10.3955
 244   2.0000      -0.381421       -10.3790
 245   2.0000      -0.378804       -10.3078
 246   2.0000      -0.373678       -10.1683
 247   2.0000      -0.371710       -10.1147
 248   2.0000      -0.367341        -9.9959
 249   2.0000      -0.367258        -9.9936
 250   2.0000      -0.356218        -9.6932
 251   2.0000      -0.350117        -9.5272
 252   2.0000      -0.345092        -9.3904
 253   2.0000      -0.338999        -9.2246
 254   2.0000      -0.329293        -8.9605
 255   2.0000      -0.324738        -8.8366
 256   2.0000      -0.320964        -8.7339
 257   2.0000      -0.319069        -8.6823
 258   2.0000      -0.311076        -8.4648
 259   2.0000      -0.304026        -8.2730
 260   2.0000      -0.301755        -8.2112
 261   2.0000      -0.288932        -7.8622
 262   2.0000      -0.282209        -7.6793
 263   2.0000      -0.229240        -6.2379
 264   0.0000      -0.109791        -2.9876
 265   0.0000      -0.103975        -2.8293
 266   0.0000      -0.066417        -1.8073
 267   0.0000      -0.060834        -1.6554
 268   0.0000      -0.042408        -1.1540

MULLIKEN ATOMIC CHARGES
-----------------------
   0 C :    0.297734
   1 C :   -0.336170
   2 C :   -0.182446
   3 N :    0.159743
   4 C :   -0.189260
   5 N :    0.169661
   6 C :    0.024556
   7 C :    0.000155
   8 C :   -0.063460
   9 C :    0.115079
  10 C :   -0.089006
  11 C :   -0.021525
  12 S :    0.192301
  13 C :   -0.122454
  14 C :    0.040028
  15 Br:    0.030905
  16 C :    0.153561
  17 O :   -0.139893
  18 C :   -0.020440
  19 C :   -0.054635
  20 C :    0.174317
  21 C :   -0.069693
  22 C :    0.146769
  23 O :   -0.211957
  24 O :   -0.153574
  25 C :   -0.001772
  26 N :    0.028659
  27 O :   -0.146537
  28 C :   -0.077029
  29 C :    0.050739
  30 C :    0.072549
  31 C :   -0.007852
  32 C :   -0.097904
  33 C :    0.027756
  34 C :   -0.008265
  35 C :   -0.020413
  36 C :    0.051197
  37 C :    0.024901
  38 C :   -0.031602
  39 S :    0.103506
  40 C :   -0.063412
  41 C :    0.042186
  42 C :    0.037170
  43 C :   -0.015019
  44 S :    0.111616
  45 C :   -0.004881
  46 C :    0.022657
  47 C :   -0.129237
  48 C :    0.291167
  49 C :   -0.351104
  50 C :   -0.175591
  51 N :    0.134515
  52 C :   -0.221279
  53 N :    0.161098
  54 C :    0.004268
  55 C :   -0.005070
  56 C :    0.136489
  57 O :   -0.156761
  58 C :   -0.075328
  59 C :    0.114475
  60 C :   -0.091593
  61 C :   -0.023268
  62 S :    0.179361
  63 C :   -0.124749
  64 C :    0.038202
  65 Br:    0.014658
  66 H :   -0.009944
  67 H :   -0.004444
  68 H :   -0.001260
  69 H :    0.049121
  70 H :    0.197318
  71 H :    0.028752
  72 H :    0.031022
  73 H :    0.033170
  74 H :    0.019707
  75 H :   -0.001530
  76 H :   -0.000006
  77 H :   -0.003686
  78 H :   -0.004356
  79 H :    0.003341
  80 H :    0.008574
  81 H :    0.014404
  82 H :   -0.015172
  83 H :   -0.007586
  84 H :   -0.006221
Sum of atomic charges:   -0.0000000

LOEWDIN ATOMIC CHARGES
----------------------
   0 C :    0.073823
   1 C :   -0.122188
   2 C :   -0.017573
   3 N :   -0.040312
   4 C :   -0.020285
   5 N :   -0.035874
   6 C :   -0.017399
   7 C :   -0.041811
   8 C :    0.025640
   9 C :   -0.028155
  10 C :   -0.141301
  11 C :   -0.007722
  12 S :    0.436810
  13 C :   -0.268579
  14 C :   -0.070465
  15 Br:    0.142993
  16 C :    0.087881
  17 O :   -0.134175
  18 C :   -0.030786
  19 C :    0.030297
  20 C :    0.075771
  21 C :   -0.121681
  22 C :    0.092366
  23 O :   -0.180233
  24 O :   -0.016018
  25 C :   -0.004722
  26 N :   -0.018832
  27 O :    0.054008
  28 C :   -0.050603
  29 C :    0.020069
  30 C :   -0.007611
  31 C :   -0.029254
  32 C :   -0.018552
  33 C :   -0.012120
  34 C :   -0.029576
  35 C :   -0.147489
  36 C :   -0.012675
  37 C :   -0.033075
  38 C :   -0.149689
  39 S :    0.391160
  40 C :   -0.190466
  41 C :   -0.007127
  42 C :   -0.034908
  43 C :   -0.100238
  44 S :    0.403245
  45 C :   -0.069002
  46 C :    0.052129
  47 C :   -0.107097
  48 C :    0.068703
  49 C :   -0.154002
  50 C :   -0.019596
  51 N :   -0.065160
  52 C :   -0.024580
  53 N :   -0.062168
  54 C :   -0.015829
  55 C :   -0.050802
  56 C :    0.078258
  57 O :   -0.157959
  58 C :    0.018161
  59 C :   -0.036900
  60 C :   -0.144941
  61 C :   -0.015979
  62 S :    0.427113
  63 C :   -0.275222
  64 C :   -0.070895
  65 Br:    0.129652
  66 H :    0.041737
  67 H :    0.041754
  68 H :    0.039638
  69 H :    0.054389
  70 H :    0.106072
  71 H :    0.028948
  72 H :    0.034982
  73 H :    0.045682
  74 H :    0.032134
  75 H :    0.038285
  76 H :    0.038695
  77 H :    0.035599
  78 H :    0.035793
  79 H :    0.040614
  80 H :    0.038203
  81 H :    0.034679
  82 H :    0.039083
  83 H :    0.039739
  84 H :    0.037522

  Mayer bond orders larger than 0.100000
B(  0-C ,  1-C ) :   1.6635 B(  0-C ,  6-C ) :   1.0256 B(  0-C , 18-C ) :   1.0422
B(  1-C ,  2-C ) :   1.1334 B(  1-C ,  4-C ) :   1.1441 B(  2-C ,  3-N ) :   2.9748
B(  4-C ,  5-N ) :   2.9773 B(  6-C ,  7-C ) :   1.2718 B(  6-C , 11-C ) :   1.3910
B(  7-C ,  8-C ) :   1.4223 B(  7-C , 16-C ) :   0.9385 B(  8-C ,  9-C ) :   1.2540
B(  8-C , 66-H ) :   1.0157 B(  9-C , 10-C ) :   1.2925 B(  9-C , 14-C ) :   1.1660
B( 10-C , 11-C ) :   1.3478 B( 10-C , 12-S ) :   1.0875 B( 11-C , 67-H ) :   0.9792
B( 12-S , 13-C ) :   1.0871 B( 13-C , 14-C ) :   1.6157 B( 13-C , 15-Br) :   1.0224
B( 14-C , 68-H ) :   0.9995 B( 16-C , 17-O ) :   2.2520 B( 16-C , 18-C ) :   0.8845
B( 18-C , 19-C ) :   1.7756 B( 19-C , 20-C ) :   1.0298 B( 19-C , 69-H ) :   0.9318
B( 20-C , 21-C ) :   1.5011 B( 20-C , 27-O ) :   1.2027 B( 21-C , 22-C ) :   0.9519
B( 21-C , 25-C ) :   1.1782 B( 22-C , 23-O ) :   2.0565 B( 22-C , 24-O ) :   1.3117
B( 24-O , 70-H ) :   0.9379 B( 25-C , 26-N ) :   1.7312 B( 25-C , 28-C ) :   0.9834
B( 26-N , 27-O ) :   0.9977 B( 28-C , 29-C ) :   1.9672 B( 28-C , 30-C ) :   0.9191
B( 29-C , 71-H ) :   0.9394 B( 29-C , 72-H ) :   0.9418 B( 30-C , 31-C ) :   2.3154
B( 31-C , 32-C ) :   0.9630 B( 32-C , 33-C ) :   1.6889 B( 32-C , 73-H ) :   0.9654
B( 33-C , 34-C ) :   1.1452 B( 33-C , 74-H ) :   0.9757 B( 34-C , 35-C ) :   1.5839
B( 34-C , 75-H ) :   0.9795 B( 35-C , 36-C ) :   1.1375 B( 35-C , 39-S ) :   1.0231
B( 36-C , 37-C ) :   1.5938 B( 36-C , 76-H ) :   0.9991 B( 37-C , 38-C ) :   1.1879
B( 37-C , 77-H ) :   0.9939 B( 38-C , 39-S ) :   1.0759 B( 38-C , 40-C ) :   1.4822
B( 40-C , 41-C ) :   1.2116 B( 40-C , 44-S ) :   1.0417 B( 41-C , 42-C ) :   1.5531
B( 41-C , 78-H ) :   0.9934 B( 42-C , 43-C ) :   1.1758 B( 42-C , 79-H ) :   1.0012
B( 43-C , 44-S ) :   1.0845 B( 43-C , 45-C ) :   1.5023 B( 45-C , 46-C ) :   1.2200
B( 45-C , 80-H ) :   0.9623 B( 46-C , 47-C ) :   1.5264 B( 46-C , 81-H ) :   0.9410
B( 47-C , 48-C ) :   1.0884 B( 47-C , 56-C ) :   0.9685 B( 48-C , 49-C ) :   1.5961
B( 48-C , 54-C ) :   1.0033 B( 49-C , 50-C ) :   1.1337 B( 49-C , 52-C ) :   1.1695
B( 50-C , 51-N ) :   2.9739 B( 52-C , 53-N ) :   3.0118 B( 54-C , 55-C ) :   1.2771
B( 54-C , 61-C ) :   1.4233 B( 55-C , 56-C ) :   0.9188 B( 55-C , 58-C ) :   1.4344
B( 56-C , 57-O ) :   2.2453 B( 58-C , 59-C ) :   1.2436 B( 58-C , 82-H ) :   1.0156
B( 59-C , 60-C ) :   1.3182 B( 59-C , 64-C ) :   1.1612 B( 60-C , 61-C ) :   1.3191
B( 60-C , 62-S ) :   1.0829 B( 61-C , 83-H ) :   0.9809 B( 62-S , 63-C ) :   1.0851
B( 63-C , 64-C ) :   1.6216 B( 63-C , 65-Br) :   1.0133 B( 64-C , 84-H ) :   0.9997

-----------------------------------------------------------------------------
         ABSORPTION SPECTRUM VIA TRANSITION ELECTRIC DIPOLE MOMENTS
-----------------------------------------------------------------------------
State   Energy  Wavelength   fosc         T2         TX        TY        TZ
        (cm-1)    (nm)                  (au**2)     (au)      (au)      (au)
-----------------------------------------------------------------------------
   0   12724.4    785.9   1.514150415  39.17485   4.86342   1.62483   3.58915
   1   18951.1    527.7   0.000892263   0.01550   0.00386   0.12439   0.00368
   2   21799.9    458.7   0.036131682   0.54564  -0.49298   0.40918  -0.36768
   3   23786.3    420.4   0.033231045   0.45993  -0.22640   0.63757  -0.04665
   4   24555.3    407.2   0.088605905   1.18794  -1.07389   0.17290  -0.06931
   5   25406.1    393.6   0.126975759   1.64535   0.13195  -1.26322   0.17948
   6   26208.5    381.6   0.232365454   2.91880   0.81884   0.42912  -1.43672
   7   26929.6    371.3   0.508243926   6.21324   0.37957   2.14298  -1.21524
   8   27366.5    365.4   0.000140837   0.00169  -0.00939  -0.00500   0.03976
   9   27554.9    362.9   0.209001198   2.49704  -0.05180   1.33578  -0.84263
  10   28584.4    349.8   0.003690351   0.04250  -0.09010  -0.10449   0.15318
  11   28628.7    349.3   0.069413961   0.79822   0.41074  -0.08895  -0.78842
  12   29481.5    339.2   0.032446243   0.36232   0.00565  -0.59378   0.09854
  13   29598.7    337.9   0.113683861   1.26445   0.04456   1.09212  -0.26408
  14   30573.6    327.1   0.029540562   0.31809  -0.07784   0.51953  -0.20522
  15   30936.3    323.2   0.012067859   0.12842  -0.07864   0.34914   0.01844
  16   31184.8    320.7   0.029645268   0.31296  -0.10700   0.54894   0.01330
  17   31528.7    317.2   0.175830132   1.83596   0.93059   0.97106  -0.16433
  18   32261.6    310.0   0.548710119   5.59929   1.28552   1.59042  -1.19050
  19   32434.2    308.3   0.196099242   1.99044  -0.15629   1.19334  -0.73617
  20   32668.2    306.1   0.019097225   0.19245   0.28258   0.30179  -0.14670
  21   32964.7    303.4   0.027665392   0.27629  -0.43352  -0.29208   0.05517
  22   33137.7    301.8   0.545944348   5.42377  -1.06999  -0.44585   2.01993
  23   33174.0    301.4   0.029019044   0.28798   0.26532   0.05557  -0.46314
  24   33728.9    296.5   0.117247829   1.14440   0.97171   0.44494   0.04700
  25   35010.5    285.6   0.001426365   0.01341   0.09601   0.00322  -0.06469
  26   35107.1    284.8   0.009848966   0.09236   0.24755   0.13264  -0.11612
  27   35327.7    283.1   0.106393911   0.99146   0.05471  -0.41140   0.90511
  28   35637.2    280.6   0.089690411   0.82855   0.34638  -0.82633   0.16047
  29   35735.2    279.8   0.036736026   0.33843  -0.20845   0.32076  -0.43828
  30   36027.8    277.6   0.030035357   0.27445  -0.19203  -0.19125   0.44833
  31   36580.8    273.4   0.035280524   0.31751  -0.16713   0.42176  -0.33421
  32   36806.3    271.7   0.005159684   0.04615  -0.03922   0.12588  -0.16960
  33   37501.6    266.7   0.001144160   0.01004  -0.00468  -0.09739  -0.02320
  34   37605.0    265.9   0.063519672   0.55608  -0.27644  -0.66222   0.20281
  35   37802.1    264.5   0.228330206   1.98849  -0.16472   1.37684   0.25626
  36   37869.4    264.1   0.000524985   0.00456   0.05912  -0.03267   0.00101
  37   38528.4    259.5   0.271106280   2.31651   0.22055   0.72186  -1.32166
  38   38946.4    256.8   0.008273937   0.06994   0.03874  -0.25169  -0.07134
  39   39189.4    255.2   0.004462240   0.03749   0.00537   0.03177   0.19091
  40   39225.8    254.9   0.084947409   0.71294  -0.47898   0.28294  -0.63519
  41   39660.5    252.1   0.002340323   0.01943   0.06528  -0.11299   0.04897
  42   39837.5    251.0   0.016191147   0.13380  -0.19739   0.21695  -0.21857
  43   39936.5    250.4   0.070119592   0.57802   0.41570  -0.27118   0.57592
  44   40085.9    249.5   0.185819946   1.52608   0.07633   1.16821   0.39437

FINAL SINGLE POINT ENERGY     -9303.386043651033

DIPOLE MOMENT
-------------
                                X             Y             Z
Electronic contribution:    -87.00017    -147.36444      34.52997
Nuclear contribution   :     86.90740     148.97447     -29.81773
                        -----------------------------------------
Total Dipole Moment    :     -0.09276       1.61003       4.71224
                        -----------------------------------------
Magnitude (a.u.)       :      4.98056
Magnitude (Debye)      :     12.65957

Rotational constants in cm-1:     0.000667     0.000221     0.000177
Rotational constants in MHz :    20.005055     6.632741     5.299111

                             ****ORCA TERMINATED NORMALLY****
TOTAL RUN TIME: 0 days 0 hours 7 minutes 33 seconds 729 msec
