                         Program Version 4.2.0 -  RELEASE  -
|  1> # ORCA input file
|  2> # SCF done       -181.759645454610          0.000660979337
|  3> ! CAM-B3LYP def2-SVP def2/J RIJCOSX Grid4 TightSCF
|  4> %maxcore 5000
|  5> %tddft
|  6>     Mode sTDDFT
|  7>     Ethresh 5.0
|  8>     maxcore 5000
|  9> end
| 10>
| 11> %pal
| 12>   nprocs 6
| 13>   end
| 14> * xyz 0 1
| 15>    C      -13.30596         0.61106         3.98247
| 16>    C      -13.72603         1.86412         4.36480
| 17>    C      -14.92029         2.11980         5.06873
| 18>    N      -15.87790         2.40042         5.63716
| 19>    C      -13.06685         3.07253         4.07916
| 20>    N      -12.60271         4.10453         3.87090
| 21>    C      -14.03436        -0.62752         4.23819
| 22>    C      -13.35974        -1.69214         3.59402
| 23>    C      -13.81073        -2.98755         3.63272
| 24>    C      -14.97779        -3.25094         4.35910
| 25>    C      -15.64032        -2.18295         5.00811
| 26>    C      -15.18961        -0.86946         4.95815
| 27>    S      -17.06109        -2.72831         5.84799
| 28>    C      -16.74902        -4.36087         5.32217
| 29>    C      -15.63922        -4.49349         4.55747
| 30>   Br      -17.91828        -5.73645         5.83090
| 31>    C      -12.17061        -1.16311         2.88975
| 32>    O      -11.49429        -1.76569         2.08659
| 33>    C      -12.09824         0.27237         3.26162
| 34>    C      -11.10243         1.15489         2.92912
| 35>    C       -9.81224         0.83286         2.44750
| 36>    C       -8.99990         1.76722         1.81667
| 37>    O       -7.77463         1.44436         1.31787
| 38>    C       -7.36203         0.15573         1.51111
| 39>    C       -8.18542        -0.79258         2.18006
| 40>    C       -7.60999        -2.01697         2.26297
| 41>    S       -6.04858        -2.01883         1.52777
| 42>    C       -6.17542        -0.35676         1.10088
| 43>    O       -9.40292        -0.45253         2.67625
| 44>    C       -9.36297         3.12798         1.57357
| 45>    C       -8.61706         3.94527         0.79213
| 46>    C       -8.99889         5.29032         0.49513
| 47>    C      -10.06267         6.02259         1.07284
| 48>    C      -11.15283         6.22443         2.09874
| 49>    C      -11.43550         7.59354         1.40628
| 50>    C      -10.31698         7.22002         0.47809
| 51>    S       -9.30338         7.55235        -0.86221
| 52>    C       -8.46419         6.04196        -0.55939
| 53>    C       -7.39843         5.69363        -1.46761
| 54>    C       -6.11809         5.37982        -1.08439
| 55>    O       -5.13991         5.03232        -1.99562
| 56>    C       -5.51089         5.10499        -3.30566
| 57>    C       -6.82055         5.50459        -3.69857
| 58>    C       -6.98748         5.52716        -5.04438
| 59>    S       -5.54323         5.05957        -5.85582
| 60>    C       -4.70877         4.83197        -4.36360
| 61>    O       -7.78439         5.80326        -2.77770
| 62>    C       -5.65960         5.51827         0.25526
| 63>    C       -4.33934         5.49927         0.58588
| 64>    C       -3.82258         5.84803         1.85521
| 65>    C       -4.43053         5.81973         3.07792
| 66>    C       -5.58965         5.11771         3.57127
| 67>    C       -6.03315         3.89038         3.14377
| 68>    C       -7.04527         3.16366         3.79249
| 69>    N       -7.87164         2.53209         4.28177
| 70>    C       -5.42690         3.17986         2.08997
| 71>    N       -4.92998         2.55081         1.26835
| 72>    C       -6.01560         5.78308         4.79758
| 73>    C       -5.00676         6.70022         5.18588
| 74>    C       -3.92778         6.68979         4.17427
| 75>    O       -2.88043         7.29416         4.20116
| 76>    C       -5.10292         7.45732         6.32743
| 77>    C       -6.25446         7.31395         7.11019
| 78>    C       -7.26533         6.41204         6.70004
| 79>    C       -7.16309         5.63588         5.55125
| 80>    S       -8.60731         6.41046         7.80330
| 81>    C       -7.80071         7.59896         8.79222
| 82>    C       -6.59001         7.98050         8.32040
| 83>   Br       -8.63356         8.22516        10.35147
| 84>    H      -13.27903        -3.77524         3.12244
| 85>    H      -15.73349        -0.09154         5.46703
| 86>    H      -15.30014        -5.42790         4.14892
| 87>    H      -11.28882         2.20283         3.09420
| 88>    H       -8.01115        -2.90421         2.70480
| 89>    H       -5.38052         0.15310         0.59762
| 90>    H      -10.26154         3.50774         2.02940
| 91>    H       -7.73494         3.55786         0.30232
| 92>    H      -10.80507         6.29717         3.12617
| 93>    H      -11.97472         5.51513         2.05150
| 94>    H      -11.24954         8.47101         2.02217
| 95>    H      -12.41398         7.67868         0.93839
| 96>    H       -7.86735         5.78796        -5.59424
| 97>    H       -3.68861         4.51062        -4.35176
| 98>    H       -6.40736         5.76861         0.99263
| 99>    H       -3.62126         5.33802        -0.20557
|100>    H       -2.83252         6.29437         1.85696
|101>    H       -4.31689         8.13969         6.61001
|102>    H       -7.95831         4.96418         5.27138
|103>    H       -5.95825         8.70270         8.80430
|104> *
|105>
|106>                          ****END OF INPUT****

CARTESIAN COORDINATES (ANGSTROEM)
---------------------------------
  C    -13.305960    0.611060    3.982470
  C    -13.726030    1.864120    4.364800
  C    -14.920290    2.119800    5.068730
  N    -15.877900    2.400420    5.637160
  C    -13.066850    3.072530    4.079160
  N    -12.602710    4.104530    3.870900
  C    -14.034360   -0.627520    4.238190
  C    -13.359740   -1.692140    3.594020
  C    -13.810730   -2.987550    3.632720
  C    -14.977790   -3.250940    4.359100
  C    -15.640320   -2.182950    5.008110
  C    -15.189610   -0.869460    4.958150
  S    -17.061090   -2.728310    5.847990
  C    -16.749020   -4.360870    5.322170
  C    -15.639220   -4.493490    4.557470
  Br   -17.918280   -5.736450    5.830900
  C    -12.170610   -1.163110    2.889750
  O    -11.494290   -1.765690    2.086590
  C    -12.098240    0.272370    3.261620
  C    -11.102430    1.154890    2.929120
  C     -9.812240    0.832860    2.447500
  C     -8.999900    1.767220    1.816670
  O     -7.774630    1.444360    1.317870
  C     -7.362030    0.155730    1.511110
  C     -8.185420   -0.792580    2.180060
  C     -7.609990   -2.016970    2.262970
  S     -6.048580   -2.018830    1.527770
  C     -6.175420   -0.356760    1.100880
  O     -9.402920   -0.452530    2.676250
  C     -9.362970    3.127980    1.573570
  C     -8.617060    3.945270    0.792130
  C     -8.998890    5.290320    0.495130
  C    -10.062670    6.022590    1.072840
  C    -11.152830    6.224430    2.098740
  C    -11.435500    7.593540    1.406280
  C    -10.316980    7.220020    0.478090
  S     -9.303380    7.552350   -0.862210
  C     -8.464190    6.041960   -0.559390
  C     -7.398430    5.693630   -1.467610
  C     -6.118090    5.379820   -1.084390
  O     -5.139910    5.032320   -1.995620
  C     -5.510890    5.104990   -3.305660
  C     -6.820550    5.504590   -3.698570
  C     -6.987480    5.527160   -5.044380
  S     -5.543230    5.059570   -5.855820
  C     -4.708770    4.831970   -4.363600
  O     -7.784390    5.803260   -2.777700
  C     -5.659600    5.518270    0.255260
  C     -4.339340    5.499270    0.585880
  C     -3.822580    5.848030    1.855210
  C     -4.430530    5.819730    3.077920
  C     -5.589650    5.117710    3.571270
  C     -6.033150    3.890380    3.143770
  C     -7.045270    3.163660    3.792490
  N     -7.871640    2.532090    4.281770
  C     -5.426900    3.179860    2.089970
  N     -4.929980    2.550810    1.268350
  C     -6.015600    5.783080    4.797580
  C     -5.006760    6.700220    5.185880
  C     -3.927780    6.689790    4.174270
  O     -2.880430    7.294160    4.201160
  C     -5.102920    7.457320    6.327430
  C     -6.254460    7.313950    7.110190
  C     -7.265330    6.412040    6.700040
  C     -7.163090    5.635880    5.551250
  S     -8.607310    6.410460    7.803300
  C     -7.800710    7.598960    8.792220
  C     -6.590010    7.980500    8.320400
  Br    -8.633560    8.225160   10.351470
  H    -13.279030   -3.775240    3.122440
  H    -15.733490   -0.091540    5.467030
  H    -15.300140   -5.427900    4.148920
  H    -11.288820    2.202830    3.094200
  H     -8.011150   -2.904210    2.704800
  H     -5.380520    0.153100    0.597620
  H    -10.261540    3.507740    2.029400
  H     -7.734940    3.557860    0.302320
  H    -10.805070    6.297170    3.126170
  H    -11.974720    5.515130    2.051500
  H    -11.249540    8.471010    2.022170
  H    -12.413980    7.678680    0.938390
  H     -7.867350    5.787960   -5.594240
  H     -3.688610    4.510620   -4.351760
  H     -6.407360    5.768610    0.992630
  H     -3.621260    5.338020   -0.205570
  H     -2.832520    6.294370    1.856960
  H     -4.316890    8.139690    6.610010
  H     -7.958310    4.964180    5.271380
  H     -5.958250    8.702700    8.804300

 Total Charge           Charge          ....    0
 Multiplicity           Mult            ....    1
 Number of Electrons    NEL             ....  558
 Basis Dimension        Dim             .... 1122

ORBITAL ENERGIES
----------------

  NO   OCC          E(Eh)            E(eV)
   0   2.0000    -482.884948    -13139.9675
   1   2.0000    -482.881364    -13139.8699
   2   2.0000     -88.975405     -2421.1439
   3   2.0000     -88.969971     -2420.9960
   4   2.0000     -88.968674     -2420.9607
   5   2.0000     -88.964330     -2420.8425
   6   2.0000     -88.949597     -2420.4416
   7   2.0000     -62.562659     -1702.4165
   8   2.0000     -62.559095     -1702.3195
   9   2.0000     -56.396613     -1534.6299
  10   2.0000     -56.393892     -1534.5558
  11   2.0000     -56.393860     -1534.5550
  12   2.0000     -56.393040     -1534.5326
  13   2.0000     -56.390334     -1534.4590
  14   2.0000     -56.390298     -1534.4580
  15   2.0000     -19.290969      -524.9339
  16   2.0000     -19.287193      -524.8312
  17   2.0000     -19.280834      -524.6582
  18   2.0000     -19.265302      -524.2355
  19   2.0000     -19.212543      -522.7999
  20   2.0000     -19.200803      -522.4804
  21   2.0000     -14.418220      -392.3397
  22   2.0000     -14.417965      -392.3328
  23   2.0000     -14.415501      -392.2657
  24   2.0000     -14.408647      -392.0792
  25   2.0000     -10.370727      -282.2018
  26   2.0000     -10.368918      -282.1526
  27   2.0000     -10.364231      -282.0251
  28   2.0000     -10.358286      -281.8633
  29   2.0000     -10.356438      -281.8130
  30   2.0000     -10.353878      -281.7433
  31   2.0000     -10.353821      -281.7418
  32   2.0000     -10.349905      -281.6352
  33   2.0000     -10.347794      -281.5778
  34   2.0000     -10.347509      -281.5700
  35   2.0000     -10.342040      -281.4212
  36   2.0000     -10.340675      -281.3841
  37   2.0000     -10.336606      -281.2733
  38   2.0000     -10.333651      -281.1929
  39   2.0000     -10.333553      -281.1903
  40   2.0000     -10.332597      -281.1643
  41   2.0000     -10.325859      -280.9809
  42   2.0000     -10.323746      -280.9234
  43   2.0000     -10.322148      -280.8799
  44   2.0000     -10.318839      -280.7899
  45   2.0000     -10.318029      -280.7678
  46   2.0000     -10.316007      -280.7128
  47   2.0000     -10.313146      -280.6350
  48   2.0000     -10.312788      -280.6252
  49   2.0000     -10.311564      -280.5919
  50   2.0000     -10.308407      -280.5060
  51   2.0000     -10.307242      -280.4743
  52   2.0000     -10.306745      -280.4608
  53   2.0000     -10.306548      -280.4554
  54   2.0000     -10.302396      -280.3424
  55   2.0000     -10.301400      -280.3153
  56   2.0000     -10.301013      -280.3048
  57   2.0000     -10.300708      -280.2965
  58   2.0000     -10.300663      -280.2953
  59   2.0000     -10.299900      -280.2745
  60   2.0000     -10.299267      -280.2573
  61   2.0000     -10.296191      -280.1736
  62   2.0000     -10.294837      -280.1367
  63   2.0000     -10.292968      -280.0859
  64   2.0000     -10.292863      -280.0830
  65   2.0000     -10.292768      -280.0804
  66   2.0000     -10.292457      -280.0720
  67   2.0000     -10.291887      -280.0565
  68   2.0000     -10.291526      -280.0467
  69   2.0000     -10.289966      -280.0042
  70   2.0000     -10.288064      -279.9524
  71   2.0000     -10.286428      -279.9079
  72   2.0000     -10.285911      -279.8939
  73   2.0000     -10.284352      -279.8514
  74   2.0000     -10.283820      -279.8370
  75   2.0000     -10.275795      -279.6186
  76   2.0000     -10.270661      -279.4789
  77   2.0000      -8.792087      -239.2448
  78   2.0000      -8.788531      -239.1481
  79   2.0000      -8.071336      -219.6322
  80   2.0000      -8.065950      -219.4857
  81   2.0000      -8.063119      -219.4086
  82   2.0000      -8.060130      -219.3273
  83   2.0000      -8.045485      -218.9288
  84   2.0000      -6.628396      -180.3678
  85   2.0000      -6.624826      -180.2707
  86   2.0000      -6.613814      -179.9710
  87   2.0000      -6.613616      -179.9657
  88   2.0000      -6.610262      -179.8744
  89   2.0000      -6.610082      -179.8695
  90   2.0000      -6.041036      -164.3849
  91   2.0000      -6.036733      -164.2679
  92   2.0000      -6.035639      -164.2381
  93   2.0000      -6.032586      -164.1550
  94   2.0000      -6.032447      -164.1512
  95   2.0000      -6.031387      -164.1224
  96   2.0000      -6.029644      -164.0750
  97   2.0000      -6.028233      -164.0366
  98   2.0000      -6.027166      -164.0075
  99   2.0000      -6.025423      -163.9601
 100   2.0000      -6.025421      -163.9600
 101   2.0000      -6.021825      -163.8622
 102   2.0000      -6.014948      -163.6751
 103   2.0000      -6.010786      -163.5618
 104   2.0000      -6.007209      -163.4645
 105   2.0000      -2.744267       -74.6753
 106   2.0000      -2.740652       -74.5769
 107   2.0000      -2.740176       -74.5640
 108   2.0000      -2.740026       -74.5599
 109   2.0000      -2.736643       -74.4678
 110   2.0000      -2.736477       -74.4633
 111   2.0000      -2.728438       -74.2446
 112   2.0000      -2.728415       -74.2440
 113   2.0000      -2.724912       -74.1486
 114   2.0000      -2.724891       -74.1480
 115   2.0000      -1.213914       -33.0323
 116   2.0000      -1.208478       -32.8844
 117   2.0000      -1.175452       -31.9857
 118   2.0000      -1.167950       -31.7815
 119   2.0000      -1.127744       -30.6875
 120   2.0000      -1.115519       -30.3548
 121   2.0000      -1.023549       -27.8522
 122   2.0000      -1.018021       -27.7018
 123   2.0000      -1.014184       -27.5974
 124   2.0000      -1.010619       -27.5003
 125   2.0000      -1.007631       -27.4190
 126   2.0000      -0.996741       -27.1227
 127   2.0000      -0.992917       -27.0186
 128   2.0000      -0.992526       -27.0080
 129   2.0000      -0.989718       -26.9316
 130   2.0000      -0.984052       -26.7774
 131   2.0000      -0.980150       -26.6712
 132   2.0000      -0.946326       -25.7508
 133   2.0000      -0.940550       -25.5937
 134   2.0000      -0.938375       -25.5345
 135   2.0000      -0.927447       -25.2371
 136   2.0000      -0.921756       -25.0823
 137   2.0000      -0.908365       -24.7179
 138   2.0000      -0.902866       -24.5682
 139   2.0000      -0.901043       -24.5186
 140   2.0000      -0.895529       -24.3686
 141   2.0000      -0.885895       -24.1064
 142   2.0000      -0.879673       -23.9371
 143   2.0000      -0.874346       -23.7922
 144   2.0000      -0.872604       -23.7448
 145   2.0000      -0.853635       -23.2286
 146   2.0000      -0.851654       -23.1747
 147   2.0000      -0.829608       -22.5748
 148   2.0000      -0.825717       -22.4689
 149   2.0000      -0.824232       -22.4285
 150   2.0000      -0.821006       -22.3407
 151   2.0000      -0.818537       -22.2735
 152   2.0000      -0.812251       -22.1025
 153   2.0000      -0.803234       -21.8571
 154   2.0000      -0.784165       -21.3382
 155   2.0000      -0.767780       -20.8924
 156   2.0000      -0.765422       -20.8282
 157   2.0000      -0.754229       -20.5236
 158   2.0000      -0.751579       -20.4515
 159   2.0000      -0.738543       -20.0968
 160   2.0000      -0.726253       -19.7623
 161   2.0000      -0.723135       -19.6775
 162   2.0000      -0.712371       -19.3846
 163   2.0000      -0.703634       -19.1468
 164   2.0000      -0.696639       -18.9565
 165   2.0000      -0.693876       -18.8813
 166   2.0000      -0.692438       -18.8422
 167   2.0000      -0.688100       -18.7242
 168   2.0000      -0.686599       -18.6833
 169   2.0000      -0.679433       -18.4883
 170   2.0000      -0.676498       -18.4085
 171   2.0000      -0.669265       -18.2116
 172   2.0000      -0.661758       -18.0074
 173   2.0000      -0.658632       -17.9223
 174   2.0000      -0.651015       -17.7150
 175   2.0000      -0.647336       -17.6149
 176   2.0000      -0.638922       -17.3860
 177   2.0000      -0.623650       -16.9704
 178   2.0000      -0.617298       -16.7975
 179   2.0000      -0.611732       -16.6461
 180   2.0000      -0.608031       -16.5454
 181   2.0000      -0.601621       -16.3709
 182   2.0000      -0.596775       -16.2391
 183   2.0000      -0.591869       -16.1056
 184   2.0000      -0.589344       -16.0369
 185   2.0000      -0.585485       -15.9319
 186   2.0000      -0.580276       -15.7901
 187   2.0000      -0.575127       -15.6500
 188   2.0000      -0.573478       -15.6051
 189   2.0000      -0.570250       -15.5173
 190   2.0000      -0.568447       -15.4682
 191   2.0000      -0.561872       -15.2893
 192   2.0000      -0.557574       -15.1724
 193   2.0000      -0.553284       -15.0556
 194   2.0000      -0.552292       -15.0286
 195   2.0000      -0.545332       -14.8392
 196   2.0000      -0.540348       -14.7036
 197   2.0000      -0.538184       -14.6447
 198   2.0000      -0.534547       -14.5458
 199   2.0000      -0.533930       -14.5290
 200   2.0000      -0.531065       -14.4510
 201   2.0000      -0.530409       -14.4332
 202   2.0000      -0.527701       -14.3595
 203   2.0000      -0.524185       -14.2638
 204   2.0000      -0.519203       -14.1282
 205   2.0000      -0.518357       -14.1052
 206   2.0000      -0.513608       -13.9760
 207   2.0000      -0.512967       -13.9585
 208   2.0000      -0.510675       -13.8962
 209   2.0000      -0.509337       -13.8598
 210   2.0000      -0.506699       -13.7880
 211   2.0000      -0.504558       -13.7297
 212   2.0000      -0.502645       -13.6777
 213   2.0000      -0.499636       -13.5958
 214   2.0000      -0.496138       -13.5006
 215   2.0000      -0.493677       -13.4336
 216   2.0000      -0.488113       -13.2822
 217   2.0000      -0.486940       -13.2503
 218   2.0000      -0.485547       -13.2124
 219   2.0000      -0.484629       -13.1874
 220   2.0000      -0.481609       -13.1052
 221   2.0000      -0.479969       -13.0606
 222   2.0000      -0.474121       -12.9015
 223   2.0000      -0.472487       -12.8570
 224   2.0000      -0.469166       -12.7666
 225   2.0000      -0.468400       -12.7458
 226   2.0000      -0.464923       -12.6512
 227   2.0000      -0.460647       -12.5348
 228   2.0000      -0.458355       -12.4725
 229   2.0000      -0.457144       -12.4395
 230   2.0000      -0.454420       -12.3654
 231   2.0000      -0.451639       -12.2897
 232   2.0000      -0.449782       -12.2392
 233   2.0000      -0.446295       -12.1443
 234   2.0000      -0.445831       -12.1317
 235   2.0000      -0.445343       -12.1184
 236   2.0000      -0.443456       -12.0671
 237   2.0000      -0.441339       -12.0094
 238   2.0000      -0.440099       -11.9757
 239   2.0000      -0.439764       -11.9666
 240   2.0000      -0.437907       -11.9161
 241   2.0000      -0.435399       -11.8478
 242   2.0000      -0.433986       -11.8093
 243   2.0000      -0.430609       -11.7175
 244   2.0000      -0.426443       -11.6041
 245   2.0000      -0.424864       -11.5611
 246   2.0000      -0.424570       -11.5531
 247   2.0000      -0.422573       -11.4988
 248   2.0000      -0.420669       -11.4470
 249   2.0000      -0.419767       -11.4224
 250   2.0000      -0.414261       -11.2726
 251   2.0000      -0.409490       -11.1428
 252   2.0000      -0.405851       -11.0438
 253   2.0000      -0.404648       -11.0110
 254   2.0000      -0.396038       -10.7767
 255   2.0000      -0.394075       -10.7233
 256   2.0000      -0.387942       -10.5564
 257   2.0000      -0.386596       -10.5198
 258   2.0000      -0.382924       -10.4199
 259   2.0000      -0.374291       -10.1850
 260   2.0000      -0.373900       -10.1743
 261   2.0000      -0.370884       -10.0923
 262   2.0000      -0.369865       -10.0646
 263   2.0000      -0.353417        -9.6170
 264   2.0000      -0.349155        -9.5010
 265   2.0000      -0.333299        -9.0695
 266   2.0000      -0.323098        -8.7919
 267   2.0000      -0.321127        -8.7383
 268   2.0000      -0.318298        -8.6613
 269   2.0000      -0.314825        -8.5668
 270   2.0000      -0.308254        -8.3880
 271   2.0000      -0.302931        -8.2432
 272   2.0000      -0.301502        -8.2043
 273   2.0000      -0.295263        -8.0345
 274   2.0000      -0.294171        -8.0048
 275   2.0000      -0.290987        -7.9181
 276   2.0000      -0.288245        -7.8436
 277   2.0000      -0.259820        -7.0700
 278   2.0000      -0.243542        -6.6271
 279   0.0000      -0.093728        -2.5505
 280   0.0000      -0.091328        -2.4852
 281   0.0000      -0.059913        -1.6303
 282   0.0000      -0.052392        -1.4257
 283   0.0000      -0.025718        -0.6998

MULLIKEN ATOMIC CHARGES
-----------------------
   0 C :    0.314137
   1 C :   -0.368883
   2 C :   -0.187802
   3 N :    0.144430
   4 C :   -0.164021
   5 N :    0.126091
   6 C :    0.015460
   7 C :   -0.006397
   8 C :   -0.076860
   9 C :    0.120022
  10 C :   -0.093697
  11 C :   -0.021105
  12 S :    0.182096
  13 C :   -0.123286
  14 C :    0.038165
  15 Br:    0.019413
  16 C :    0.124355
  17 O :   -0.132845
  18 C :   -0.062372
  19 C :   -0.079582
  20 C :    0.191010
  21 C :    0.194573
  22 O :   -0.244237
  23 C :    0.195444
  24 C :    0.243760
  25 C :   -0.171440
  26 S :    0.108888
  27 C :   -0.157696
  28 O :   -0.225411
  29 C :   -0.045824
  30 C :    0.013027
  31 C :    0.113570
  32 C :   -0.151687
  33 C :    0.118656
  34 C :    0.120572
  35 C :   -0.169285
  36 S :    0.180403
  37 C :   -0.224523
  38 C :    0.100047
  39 C :    0.171641
  40 O :   -0.258142
  41 C :    0.216653
  42 C :    0.217060
  43 C :   -0.166391
  44 S :    0.118001
  45 C :   -0.166873
  46 O :   -0.230867
  47 C :   -0.016714
  48 C :    0.011141
  49 C :    0.051906
  50 C :   -0.136895
  51 C :    0.254519
  52 C :   -0.337757
  53 C :   -0.151390
  54 N :    0.132831
  55 C :   -0.181012
  56 N :    0.162207
  57 C :   -0.002359
  58 C :    0.009293
  59 C :    0.139228
  60 O :   -0.143121
  61 C :   -0.077128
  62 C :    0.113208
  63 C :   -0.089617
  64 C :   -0.024540
  65 S :    0.188210
  66 C :   -0.124913
  67 C :    0.038809
  68 Br:    0.024753
  69 H :   -0.012580
  70 H :   -0.008606
  71 H :   -0.004842
  72 H :    0.009746
  73 H :    0.025640
  74 H :    0.041222
  75 H :   -0.000719
  76 H :    0.009178
  77 H :    0.020891
  78 H :    0.041117
  79 H :    0.024425
  80 H :    0.024332
  81 H :    0.030339
  82 H :    0.028979
  83 H :    0.036792
  84 H :    0.018172
  85 H :    0.029806
  86 H :   -0.008725
  87 H :   -0.001857
  88 H :   -0.002214
Sum of atomic charges:   -0.0000000

LOEWDIN ATOMIC CHARGES
----------------------
   0 C :    0.083544
   1 C :   -0.157897
   2 C :   -0.019622
   3 N :   -0.062266
   4 C :   -0.003362
   5 N :   -0.068934
   6 C :   -0.023240
   7 C :   -0.045153
   8 C :    0.017528
   9 C :   -0.031987
  10 C :   -0.146585
  11 C :   -0.010237
  12 S :    0.428871
  13 C :   -0.272486
  14 C :   -0.070619
  15 Br:    0.133685
  16 C :    0.073255
  17 O :   -0.134429
  18 C :   -0.094890
  19 C :    0.052170
  20 C :    0.017082
  21 C :    0.078635
  22 O :   -0.020775
  23 C :   -0.015844
  24 C :   -0.000845
  25 C :   -0.205962
  26 S :    0.439829
  27 C :   -0.194724
  28 O :   -0.029015
  29 C :   -0.034749
  30 C :    0.004582
  31 C :   -0.053653
  32 C :   -0.067558
  33 C :    0.002104
  34 C :   -0.006031
  35 C :   -0.191557
  36 S :    0.453497
  37 C :   -0.185980
  38 C :    0.026250
  39 C :    0.013861
  40 O :   -0.054498
  41 C :   -0.005452
  42 C :   -0.011597
  43 C :   -0.202829
  44 S :    0.445158
  45 C :   -0.206404
  46 O :   -0.041958
  47 C :    0.020905
  48 C :   -0.035624
  49 C :    0.071211
  50 C :   -0.098629
  51 C :    0.068943
  52 C :   -0.148530
  53 C :   -0.009773
  54 N :   -0.066954
  55 C :   -0.007797
  56 N :   -0.051563
  57 C :   -0.019203
  58 C :   -0.051440
  59 C :    0.083172
  60 O :   -0.143738
  61 C :    0.022171
  62 C :   -0.033476
  63 C :   -0.144036
  64 C :   -0.013434
  65 S :    0.433801
  66 C :   -0.271964
  67 C :   -0.070511
  68 Br:    0.137478
  69 H :    0.039760
  70 H :    0.040150
  71 H :    0.038252
  72 H :    0.042895
  73 H :    0.030453
  74 H :    0.030933
  75 H :    0.039394
  76 H :    0.033431
  77 H :    0.030098
  78 H :    0.027962
  79 H :    0.031625
  80 H :    0.032608
  81 H :    0.031980
  82 H :    0.031210
  83 H :    0.041330
  84 H :    0.038295
  85 H :    0.048636
  86 H :    0.041530
  87 H :    0.040495
  88 H :    0.039039

  Mayer bond orders larger than 0.100000
B(  0-C ,  1-C ) :   1.5864 B(  0-C ,  6-C ) :   1.0039 B(  0-C , 18-C ) :   1.1054
B(  1-C ,  2-C ) :   1.1444 B(  1-C ,  4-C ) :   1.1584 B(  2-C ,  3-N ) :   2.9683
B(  4-C ,  5-N ) :   2.9231 B(  6-C ,  7-C ) :   1.2748 B(  6-C , 11-C ) :   1.4057
B(  7-C ,  8-C ) :   1.4334 B(  7-C , 16-C ) :   0.9219 B(  8-C ,  9-C ) :   1.2399
B(  8-C , 69-H ) :   1.0169 B(  9-C , 10-C ) :   1.3093 B(  9-C , 14-C ) :   1.1642
B( 10-C , 11-C ) :   1.3330 B( 10-C , 12-S ) :   1.0821 B( 11-C , 70-H ) :   0.9799
B( 12-S , 13-C ) :   1.0875 B( 13-C , 14-C ) :   1.6167 B( 13-C , 15-Br) :   1.0157
B( 14-C , 71-H ) :   1.0007 B( 16-C , 17-O ) :   2.2710 B( 16-C , 18-C ) :   0.9297
B( 18-C , 19-C ) :   1.5285 B( 19-C , 20-C ) :   1.2527 B( 19-C , 72-H ) :   0.9235
B( 20-C , 21-C ) :   1.3583 B( 20-C , 28-O ) :   1.0981 B( 21-C , 22-O ) :   1.1222
B( 21-C , 29-C ) :   1.1667 B( 22-O , 23-C ) :   0.9982 B( 23-C , 24-C ) :   1.2117
B( 23-C , 27-C ) :   1.5845 B( 24-C , 25-C ) :   1.5756 B( 24-C , 28-O ) :   1.0502
B( 25-C , 26-S ) :   1.1365 B( 25-C , 73-H ) :   0.9700 B( 26-S , 27-C ) :   1.1506
B( 27-C , 74-H ) :   0.9592 B( 29-C , 30-C ) :   1.6735 B( 29-C , 75-H ) :   0.9536
B( 30-C , 31-C ) :   1.0844 B( 30-C , 76-H ) :   0.9644 B( 31-C , 32-C ) :   1.1826
B( 31-C , 37-C ) :   1.4654 B( 32-C , 33-C ) :   1.0874 B( 32-C , 35-C ) :   1.6422
B( 33-C , 34-C ) :   1.1610 B( 33-C , 77-H ) :   0.9081 B( 33-C , 78-H ) :   0.8916
B( 34-C , 35-C ) :   1.1200 B( 34-C , 79-H ) :   0.8948 B( 34-C , 80-H ) :   0.8940
B( 35-C , 36-S ) :   1.0779 B( 36-S , 37-C ) :   1.1224 B( 37-C , 38-C ) :   1.0645
B( 38-C , 39-C ) :   1.5001 B( 38-C , 46-O ) :   1.1130 B( 39-C , 40-O ) :   1.0584
B( 39-C , 47-C ) :   1.2289 B( 40-O , 41-C ) :   1.0505 B( 41-C , 42-C ) :   1.2029
B( 41-C , 45-C ) :   1.5785 B( 42-C , 43-C ) :   1.5734 B( 42-C , 46-O ) :   1.0316
B( 43-C , 44-S ) :   1.1510 B( 43-C , 81-H ) :   0.9715 B( 44-S , 45-C ) :   1.1419
B( 45-C , 82-H ) :   0.9713 B( 47-C , 48-C ) :   1.6140 B( 47-C , 83-H ) :   0.9387
B( 48-C , 49-C ) :   1.1537 B( 48-C , 84-H ) :   0.9620 B( 49-C , 50-C ) :   1.6287
B( 49-C , 85-H ) :   0.9341 B( 50-C , 51-C ) :   1.0605 B( 50-C , 59-C ) :   0.9471
B( 51-C , 52-C ) :   1.6248 B( 51-C , 57-C ) :   1.0050 B( 52-C , 53-C ) :   1.1441
B( 52-C , 55-C ) :   1.1894 B( 53-C , 54-N ) :   2.9221 B( 55-C , 56-N ) :   2.9225
B( 57-C , 58-C ) :   1.2757 B( 57-C , 64-C ) :   1.4155 B( 58-C , 59-C ) :   0.9149
B( 58-C , 61-C ) :   1.4264 B( 59-C , 60-O ) :   2.2698 B( 61-C , 62-C ) :   1.2485
B( 61-C , 86-H ) :   1.0170 B( 62-C , 63-C ) :   1.3101 B( 62-C , 67-C ) :   1.1647
B( 63-C , 64-C ) :   1.3232 B( 63-C , 65-S ) :   1.0846 B( 64-C , 87-H ) :   0.9857
B( 65-S , 66-C ) :   1.0871 B( 66-C , 67-C ) :   1.6180 B( 66-C , 68-Br) :   1.0197
B( 67-C , 88-H ) :   1.0001

-----------------------------------------------------------------------------
         ABSORPTION SPECTRUM VIA TRANSITION ELECTRIC DIPOLE MOMENTS
-----------------------------------------------------------------------------
State   Energy  Wavelength   fosc         T2         TX        TY        TZ
        (cm-1)    (nm)                  (au**2)     (au)      (au)      (au)
-----------------------------------------------------------------------------
   0   15616.6    640.3   0.109080759   2.29953   1.16680   0.15185   0.95658
   1   16375.9    610.7   0.635939429  12.78454  -2.72391  -1.74384   1.52443
   2   19197.7    520.9   0.255101515   4.37461   0.43425  -0.15586   2.04004
   3   21518.0    464.7   0.013838752   0.21172  -0.30963  -0.32705  -0.09430
   4   23599.8    423.7   0.043809094   0.61113  -0.12926  -0.76611  -0.08659
   5   24919.9    401.3   0.055742319   0.73640   0.82367   0.21971   0.09848
   6   25926.3    385.7   0.046643645   0.59228   0.04435   0.08238  -0.76389
   7   26186.7    381.9   0.106197827   1.33509   1.00053   0.43066  -0.38544
   8   26838.2    372.6   0.117788074   1.44485  -0.08620   0.87608  -0.81847
   9   27111.9    368.8   0.233651932   2.83717  -0.39376   1.32439   0.96338
  10   27395.5    365.0   0.313531100   3.76770  -0.66424  -1.77770   0.40777
  11   27589.6    362.5   0.121784856   1.45319  -0.83428  -0.71007   0.50297
  12   28176.5    354.9   0.086759743   1.01369   0.89077  -0.34986  -0.31277
  13   28501.0    350.9   0.182045603   2.10279   0.92063   1.10373  -0.19238
  14   28751.1    347.8   0.266806038   3.05504   0.40548   0.20733  -1.68749
  15   29261.4    341.7   0.039357694   0.44280  -0.10879  -0.07924  -0.65168
  16   29382.4    340.3   0.002760393   0.03093   0.05015   0.13666  -0.09868
  17   29694.5    336.8   0.046463260   0.51512   0.00623  -0.71137  -0.09503
  18   30020.3    333.1   0.009010056   0.09881  -0.23102  -0.15116  -0.15030
  19   30180.3    331.3   0.088290484   0.96309   0.28917   0.93272   0.09752
  20   30468.3    328.2   0.180995248   1.95566   0.06171  -0.05397   1.39605
  21   30651.5    326.2   0.032663605   0.35082  -0.28180  -0.50872  -0.11235
  22   31419.9    318.3   0.150467803   1.57658   0.15766   0.76903  -0.97996
  23   32024.6    312.3   0.071101058   0.73092  -0.62390   0.54886  -0.20104
  24   32346.5    309.2   0.085613576   0.87135  -0.14425  -0.84602  -0.36713
  25   32621.1    306.6   0.004950131   0.04996   0.10691   0.19076   0.04623
  26   32884.4    304.1   0.014018622   0.14034  -0.21389   0.24481   0.18618
  27   33377.2    299.6   0.047860125   0.47206   0.38931   0.56022  -0.08157
  28   33754.7    296.3   0.466640711   4.55118   0.67762   1.99961  -0.30588
  29   33798.0    295.9   0.483257240   4.70720   0.01835   1.37902   1.67486
  30   34387.2    290.8   0.055739972   0.53364   0.70784  -0.02300  -0.17909
  31   34692.2    288.2   0.153498441   1.45662   0.79711  -0.53798  -0.72925
  32   34973.6    285.9   0.089460611   0.84211   0.66768  -0.56541  -0.27681
  33   35625.3    280.7   0.073434653   0.67861  -0.63268   0.51098  -0.13123
  34   35812.9    279.2   0.056559867   0.51993  -0.07041  -0.67205  -0.25163
  35   36044.3    277.4   0.007187070   0.06564  -0.17743  -0.02418   0.18324
  36   36269.8    275.7   0.051510926   0.46755  -0.51683  -0.01577   0.44742
  37   36617.4    273.1   0.064709724   0.58178   0.15783   0.33100   0.66881
  38   36761.4    272.0   0.044613956   0.39953   0.11557  -0.40170  -0.47415
  39   37340.5    267.8   0.074374206   0.65572   0.04648  -0.75504   0.28892
  40   37652.8    265.6   0.005664942   0.04953   0.05050   0.15583  -0.15066
  41   37736.1    265.0   0.057243616   0.49940  -0.32588  -0.24818   0.57586
  42   38295.2    261.1   0.034055595   0.29277  -0.41294   0.30883  -0.16391
  43   38384.2    260.5   0.056441210   0.48408   0.33829   0.42772  -0.43208
  44   38561.9    259.3   0.001399029   0.01194   0.03121  -0.09639   0.04098
  45   38652.5    258.7   0.092060192   0.78410   0.10268  -0.85048   0.22413
  46   39054.6    256.1   0.148524411   1.25199  -0.80723   0.45470   0.62738
  47   39063.8    256.0   0.126345032   1.06478   0.77109  -0.55685  -0.40015
  48   40162.0    249.0   0.017063728   0.13987  -0.09671   0.12133   0.34030
  49   40218.5    248.6   0.106393056   0.87089  -0.74654  -0.52254   0.20129

FINAL SINGLE POINT ENERGY     -9798.637537564111

DIPOLE MOMENT
-------------
                                X             Y             Z
Electronic contribution:    -82.82466     -45.66564     109.72272
Nuclear contribution   :     83.33405      46.42362    -110.51087
                        -----------------------------------------
Total Dipole Moment    :      0.50939       0.75799      -0.78815
                        -----------------------------------------
Magnitude (a.u.)       :      1.20632
Magnitude (Debye)      :      3.06622

Rotational constants in cm-1:     0.000822     0.000425     0.000331
Rotational constants in MHz :    24.635265    12.727037     9.910042

                             ****ORCA TERMINATED NORMALLY****
TOTAL RUN TIME: 0 days 0 hours 10 minutes 19 seconds 164 msec
