                         Program Version 4.2.0 -  RELEASE  -
|  1> # ORCA input file
|  2> # SCF done       -159.679687826910          0.000547840260
|  3> ! CAM-B3LYP def2-SVP def2/J RIJCOSX Grid4 TightSCF
|  4> %maxcore 5000
|  5> %tddft
|  6>     Mode sTDDFT
|  7>     Ethresh 5.0
|  8>     maxcore 5000
|  9> end
| 10>
| 11> %pal
| 12>   nprocs 6
| 13>   end
| 14> * xyz 0 1
| 15>    C       -5.80216         3.19587        -5.48759
| 16>    C       -4.51409         3.66141        -5.61102
| 17>    C       -4.07728         4.50243        -6.65174
| 18>    N       -3.67080         5.18687        -7.48019
| 19>    C       -3.48403         3.40217        -4.68512
| 20>    N       -2.60639         3.26534        -3.95635
| 21>    C       -6.92688         3.55881        -6.34187
| 22>    C       -8.10442         2.99349        -5.79445
| 23>    C       -9.34009         3.15835        -6.36851
| 24>    C       -9.41852         3.91809        -7.54195
| 25>    C       -8.23686         4.47436        -8.08333
| 26>    C       -6.98516         4.30851        -7.50065
| 27>    S       -8.55961         5.36725        -9.53922
| 28>    C      -10.25577         4.98795        -9.39987
| 29>    C      -10.56623         4.23170        -8.32064
| 30>   Br      -11.45762         5.62678       -10.69146
| 31>    C       -7.76393         2.23265        -4.57398
| 32>    O       -8.53953         1.59249        -3.88887
| 33>    C       -6.29966         2.34450        -4.43380
| 34>    C       -5.51572         1.55203        -3.62458
| 35>    C       -5.91168         0.79554        -2.50374
| 36>    C       -6.93262         1.11472        -1.62443
| 37>    O       -7.30597         0.29152        -0.60090
| 38>    C       -6.57988        -0.85514        -0.46193
| 39>    C       -5.45975        -1.13819        -1.29567
| 40>    C       -4.84670        -2.30298        -0.97095
| 41>    S       -5.63203        -3.07312         0.35820
| 42>    C       -6.79660        -1.81044         0.47684
| 43>    O       -5.09365        -0.30988        -2.30968
| 44>    C       -7.59911         2.37563        -1.62606
| 45>    C       -8.74457         2.60871        -0.94455
| 46>    C       -9.37482         3.88752        -0.90077
| 47>    C      -10.58261         4.14108        -0.36340
| 48>    C      -11.44544         3.09030         0.26682
| 49>    C      -11.11075         5.55096        -0.28511
| 50>    N      -11.19677         5.97703         1.09724
| 51>    C      -10.12500         6.43635         1.78513
| 52>    C      -10.03314         6.40825         3.14033
| 53>    C       -8.97233         6.96698         3.87484
| 54>    C       -8.85433         6.87302         5.23721
| 55>    C       -7.83775         7.40656         6.06361
| 56>    C       -7.98557         7.13152         7.39049
| 57>    C       -9.12432         6.35427         7.69175
| 58>    S      -10.01798         5.99807         6.23097
| 59>    C       -9.54070         5.88159         8.92178
| 60>    C       -8.96125         6.07164        10.19092
| 61>    C       -9.62446         5.44311        11.20393
| 62>    C      -10.76572         4.70871        10.80198
| 63>    S      -10.96995         4.87574         9.06661
| 64>    C      -11.57348         3.99291        11.65445
| 65>    C      -12.69686         3.19573        11.41273
| 66>    S      -13.49680         2.50566        12.82293
| 67>    C      -14.71818         1.66655        11.91173
| 68>    C      -14.51176         1.90979        10.55552
| 69>    C      -13.39422         2.75582        10.28324
| 70>    N      -13.33382         2.86539         8.93398
| 71>    N      -14.31385         2.17183         8.33905
| 72>    C      -15.02719         1.59496         9.27191
| 73>    C      -15.69899         0.89350        12.59701
| 74>    C      -16.68692         0.20548        12.01603
| 75>    H      -10.21964         2.71572        -5.92795
| 76>    H       -6.11168         4.74686        -7.95375
| 77>    H      -11.56228         3.90539        -8.08302
| 78>    H       -4.48682         1.38118        -3.91858
| 79>    H       -3.98805        -2.74655        -1.42912
| 80>    H       -7.56298        -1.84083         1.22267
| 81>    H       -7.13491         3.16458        -2.19985
| 82>    H       -9.21225         1.78677        -0.42515
| 83>    H       -8.82575         4.70161        -1.35789
| 84>    H      -11.06367         2.81573         1.25146
| 85>    H      -11.46459         2.19121        -0.34439
| 86>    H      -12.46710         3.44695         0.38218
| 87>    H      -12.11357         5.61155        -0.72101
| 88>    H      -10.45447         6.24130        -0.81892
| 89>    H      -11.88570         5.48746         1.65310
| 90>    H       -9.34381         6.88174         1.18465
| 91>    H      -10.82135         5.92763         3.70654
| 92>    H       -8.19539         7.49554         3.33888
| 93>    H       -7.02669         7.97951         5.64921
| 94>    H       -7.30575         7.45900         8.15668
| 95>    H       -8.07438         6.66452        10.32552
| 96>    H       -9.32363         5.47775        12.23632
| 97>    H      -11.29253         4.05753        12.69927
| 98>    H      -12.68085         3.38588         8.37302
| 99>    H      -15.86585         0.98514         9.00561
|100>    H      -15.60219         0.88699        13.67524
|101>    H      -16.81642         0.18546        10.94938
|102>    H      -17.39028        -0.35824        12.60213
|103> *
|104>
|105>                          ****END OF INPUT****

CARTESIAN COORDINATES (ANGSTROEM)
---------------------------------
  C     -5.802160    3.195870   -5.487590
  C     -4.514090    3.661410   -5.611020
  C     -4.077280    4.502430   -6.651740
  N     -3.670800    5.186870   -7.480190
  C     -3.484030    3.402170   -4.685120
  N     -2.606390    3.265340   -3.956350
  C     -6.926880    3.558810   -6.341870
  C     -8.104420    2.993490   -5.794450
  C     -9.340090    3.158350   -6.368510
  C     -9.418520    3.918090   -7.541950
  C     -8.236860    4.474360   -8.083330
  C     -6.985160    4.308510   -7.500650
  S     -8.559610    5.367250   -9.539220
  C    -10.255770    4.987950   -9.399870
  C    -10.566230    4.231700   -8.320640
  Br   -11.457620    5.626780  -10.691460
  C     -7.763930    2.232650   -4.573980
  O     -8.539530    1.592490   -3.888870
  C     -6.299660    2.344500   -4.433800
  C     -5.515720    1.552030   -3.624580
  C     -5.911680    0.795540   -2.503740
  C     -6.932620    1.114720   -1.624430
  O     -7.305970    0.291520   -0.600900
  C     -6.579880   -0.855140   -0.461930
  C     -5.459750   -1.138190   -1.295670
  C     -4.846700   -2.302980   -0.970950
  S     -5.632030   -3.073120    0.358200
  C     -6.796600   -1.810440    0.476840
  O     -5.093650   -0.309880   -2.309680
  C     -7.599110    2.375630   -1.626060
  C     -8.744570    2.608710   -0.944550
  C     -9.374820    3.887520   -0.900770
  C    -10.582610    4.141080   -0.363400
  C    -11.445440    3.090300    0.266820
  C    -11.110750    5.550960   -0.285110
  N    -11.196770    5.977030    1.097240
  C    -10.125000    6.436350    1.785130
  C    -10.033140    6.408250    3.140330
  C     -8.972330    6.966980    3.874840
  C     -8.854330    6.873020    5.237210
  C     -7.837750    7.406560    6.063610
  C     -7.985570    7.131520    7.390490
  C     -9.124320    6.354270    7.691750
  S    -10.017980    5.998070    6.230970
  C     -9.540700    5.881590    8.921780
  C     -8.961250    6.071640   10.190920
  C     -9.624460    5.443110   11.203930
  C    -10.765720    4.708710   10.801980
  S    -10.969950    4.875740    9.066610
  C    -11.573480    3.992910   11.654450
  C    -12.696860    3.195730   11.412730
  S    -13.496800    2.505660   12.822930
  C    -14.718180    1.666550   11.911730
  C    -14.511760    1.909790   10.555520
  C    -13.394220    2.755820   10.283240
  N    -13.333820    2.865390    8.933980
  N    -14.313850    2.171830    8.339050
  C    -15.027190    1.594960    9.271910
  C    -15.698990    0.893500   12.597010
  C    -16.686920    0.205480   12.016030
  H    -10.219640    2.715720   -5.927950
  H     -6.111680    4.746860   -7.953750
  H    -11.562280    3.905390   -8.083020
  H     -4.486820    1.381180   -3.918580
  H     -3.988050   -2.746550   -1.429120
  H     -7.562980   -1.840830    1.222670
  H     -7.134910    3.164580   -2.199850
  H     -9.212250    1.786770   -0.425150
  H     -8.825750    4.701610   -1.357890
  H    -11.063670    2.815730    1.251460
  H    -11.464590    2.191210   -0.344390
  H    -12.467100    3.446950    0.382180
  H    -12.113570    5.611550   -0.721010
  H    -10.454470    6.241300   -0.818920
  H    -11.885700    5.487460    1.653100
  H     -9.343810    6.881740    1.184650
  H    -10.821350    5.927630    3.706540
  H     -8.195390    7.495540    3.338880
  H     -7.026690    7.979510    5.649210
  H     -7.305750    7.459000    8.156680
  H     -8.074380    6.664520   10.325520
  H     -9.323630    5.477750   12.236320
  H    -11.292530    4.057530   12.699270
  H    -12.680850    3.385880    8.373020
  H    -15.865850    0.985140    9.005610
  H    -15.602190    0.886990   13.675240
  H    -16.816420    0.185460   10.949380
  H    -17.390280   -0.358240   12.602130

 Total Charge           Charge          ....    0
 Multiplicity           Mult            ....    1
 Number of Electrons    NEL             ....  478
 Basis Dimension        Dim             .... 1018

ORBITAL ENERGIES
----------------

  NO   OCC          E(Eh)            E(eV)
   0   2.0000    -482.886949    -13140.0219
   1   2.0000     -88.976465     -2421.1727
   2   2.0000     -88.963862     -2420.8298
   3   2.0000     -88.948869     -2420.4218
   4   2.0000     -88.935873     -2420.0681
   5   2.0000     -88.929201     -2419.8866
   6   2.0000     -62.564671     -1702.4712
   7   2.0000     -56.398624     -1534.6846
   8   2.0000     -56.395906     -1534.6106
   9   2.0000     -56.395870     -1534.6096
  10   2.0000     -19.296509      -525.0847
  11   2.0000     -19.277091      -524.5563
  12   2.0000     -19.216229      -522.9002
  13   2.0000     -14.463445      -393.5703
  14   2.0000     -14.440237      -392.9388
  15   2.0000     -14.422763      -392.4633
  16   2.0000     -14.414516      -392.2389
  17   2.0000     -14.412258      -392.1775
  18   2.0000     -10.376081      -282.3475
  19   2.0000     -10.365546      -282.0609
  20   2.0000     -10.360045      -281.9112
  21   2.0000     -10.354479      -281.7597
  22   2.0000     -10.348709      -281.6027
  23   2.0000     -10.346481      -281.5420
  24   2.0000     -10.340807      -281.3877
  25   2.0000     -10.339834      -281.3612
  26   2.0000     -10.325959      -280.9836
  27   2.0000     -10.322155      -280.8801
  28   2.0000     -10.319572      -280.8098
  29   2.0000     -10.317376      -280.7501
  30   2.0000     -10.317222      -280.7459
  31   2.0000     -10.315192      -280.6906
  32   2.0000     -10.308334      -280.5040
  33   2.0000     -10.307824      -280.4901
  34   2.0000     -10.306235      -280.4469
  35   2.0000     -10.303157      -280.3632
  36   2.0000     -10.302589      -280.3477
  37   2.0000     -10.301507      -280.3183
  38   2.0000     -10.299459      -280.2625
  39   2.0000     -10.298427      -280.2345
  40   2.0000     -10.298076      -280.2249
  41   2.0000     -10.296871      -280.1921
  42   2.0000     -10.296660      -280.1864
  43   2.0000     -10.296536      -280.1830
  44   2.0000     -10.295054      -280.1427
  45   2.0000     -10.294594      -280.1302
  46   2.0000     -10.293298      -280.0949
  47   2.0000     -10.293071      -280.0887
  48   2.0000     -10.292388      -280.0701
  49   2.0000     -10.290504      -280.0188
  50   2.0000     -10.286320      -279.9050
  51   2.0000     -10.281995      -279.7873
  52   2.0000     -10.280184      -279.7380
  53   2.0000     -10.280089      -279.7354
  54   2.0000     -10.275550      -279.6119
  55   2.0000     -10.274229      -279.5760
  56   2.0000     -10.273733      -279.5625
  57   2.0000     -10.272712      -279.5347
  58   2.0000     -10.272606      -279.5318
  59   2.0000     -10.270493      -279.4743
  60   2.0000     -10.269421      -279.4452
  61   2.0000     -10.264620      -279.3145
  62   2.0000     -10.258175      -279.1391
  63   2.0000     -10.257768      -279.1280
  64   2.0000      -8.794096      -239.2995
  65   2.0000      -8.072477      -219.6633
  66   2.0000      -8.059624      -219.3135
  67   2.0000      -8.043866      -218.8847
  68   2.0000      -8.032119      -218.5651
  69   2.0000      -8.025559      -218.3866
  70   2.0000      -6.630418      -180.4228
  71   2.0000      -6.615813      -180.0254
  72   2.0000      -6.615633      -180.0205
  73   2.0000      -6.042161      -164.4156
  74   2.0000      -6.037893      -164.2994
  75   2.0000      -6.033691      -164.1851
  76   2.0000      -6.029113      -164.0605
  77   2.0000      -6.024934      -163.9468
  78   2.0000      -6.021338      -163.8489
  79   2.0000      -6.013113      -163.6251
  80   2.0000      -6.009096      -163.5158
  81   2.0000      -6.006106      -163.4345
  82   2.0000      -6.001894      -163.3198
  83   2.0000      -5.998031      -163.2147
  84   2.0000      -5.995312      -163.1407
  85   2.0000      -5.992921      -163.0757
  86   2.0000      -5.991390      -163.0340
  87   2.0000      -5.986375      -162.8975
  88   2.0000      -2.746249       -74.7292
  89   2.0000      -2.742210       -74.6193
  90   2.0000      -2.742041       -74.6147
  91   2.0000      -2.730461       -74.2996
  92   2.0000      -2.730433       -74.2989
  93   2.0000      -1.216494       -33.1025
  94   2.0000      -1.175072       -31.9753
  95   2.0000      -1.129889       -30.7458
  96   2.0000      -1.128066       -30.6962
  97   2.0000      -1.043110       -28.3845
  98   2.0000      -1.023112       -27.8403
  99   2.0000      -1.012404       -27.5489
 100   2.0000      -0.994641       -27.0656
 101   2.0000      -0.991656       -26.9843
 102   2.0000      -0.989179       -26.9169
 103   2.0000      -0.981320       -26.7031
 104   2.0000      -0.969728       -26.3876
 105   2.0000      -0.957571       -26.0568
 106   2.0000      -0.946967       -25.7683
 107   2.0000      -0.936694       -25.4887
 108   2.0000      -0.922542       -25.1037
 109   2.0000      -0.908443       -24.7200
 110   2.0000      -0.906955       -24.6795
 111   2.0000      -0.898584       -24.4517
 112   2.0000      -0.888263       -24.1709
 113   2.0000      -0.886188       -24.1144
 114   2.0000      -0.876721       -23.8568
 115   2.0000      -0.872909       -23.7531
 116   2.0000      -0.859041       -23.3757
 117   2.0000      -0.847859       -23.0714
 118   2.0000      -0.838779       -22.8243
 119   2.0000      -0.834425       -22.7059
 120   2.0000      -0.830270       -22.5928
 121   2.0000      -0.829177       -22.5631
 122   2.0000      -0.824763       -22.4429
 123   2.0000      -0.816220       -22.2105
 124   2.0000      -0.809032       -22.0149
 125   2.0000      -0.798944       -21.7404
 126   2.0000      -0.793931       -21.6039
 127   2.0000      -0.779955       -21.2236
 128   2.0000      -0.768645       -20.9159
 129   2.0000      -0.759100       -20.6561
 130   2.0000      -0.747699       -20.3459
 131   2.0000      -0.734799       -19.9949
 132   2.0000      -0.717672       -19.5289
 133   2.0000      -0.706874       -19.2350
 134   2.0000      -0.701125       -19.0786
 135   2.0000      -0.695327       -18.9208
 136   2.0000      -0.692100       -18.8330
 137   2.0000      -0.689266       -18.7559
 138   2.0000      -0.689022       -18.7492
 139   2.0000      -0.685111       -18.6428
 140   2.0000      -0.677542       -18.4369
 141   2.0000      -0.667887       -18.1741
 142   2.0000      -0.666655       -18.1406
 143   2.0000      -0.659750       -17.9527
 144   2.0000      -0.655211       -17.8292
 145   2.0000      -0.641408       -17.4536
 146   2.0000      -0.629247       -17.1227
 147   2.0000      -0.625074       -17.0091
 148   2.0000      -0.614861       -16.7312
 149   2.0000      -0.613776       -16.7017
 150   2.0000      -0.608508       -16.5583
 151   2.0000      -0.603395       -16.4192
 152   2.0000      -0.600616       -16.3436
 153   2.0000      -0.597898       -16.2696
 154   2.0000      -0.595002       -16.1908
 155   2.0000      -0.588636       -16.0176
 156   2.0000      -0.578861       -15.7516
 157   2.0000      -0.577107       -15.7039
 158   2.0000      -0.574085       -15.6216
 159   2.0000      -0.566457       -15.4141
 160   2.0000      -0.563846       -15.3430
 161   2.0000      -0.562330       -15.3018
 162   2.0000      -0.551469       -15.0062
 163   2.0000      -0.548297       -14.9199
 164   2.0000      -0.542079       -14.7507
 165   2.0000      -0.540029       -14.6949
 166   2.0000      -0.538649       -14.6574
 167   2.0000      -0.534778       -14.5520
 168   2.0000      -0.529640       -14.4122
 169   2.0000      -0.527148       -14.3444
 170   2.0000      -0.526245       -14.3199
 171   2.0000      -0.522332       -14.2134
 172   2.0000      -0.519630       -14.1398
 173   2.0000      -0.516733       -14.0610
 174   2.0000      -0.514665       -14.0047
 175   2.0000      -0.513179       -13.9643
 176   2.0000      -0.509638       -13.8679
 177   2.0000      -0.508298       -13.8315
 178   2.0000      -0.503195       -13.6926
 179   2.0000      -0.502921       -13.6852
 180   2.0000      -0.498803       -13.5731
 181   2.0000      -0.497432       -13.5358
 182   2.0000      -0.492529       -13.4024
 183   2.0000      -0.489077       -13.3085
 184   2.0000      -0.485469       -13.2103
 185   2.0000      -0.483466       -13.1558
 186   2.0000      -0.481167       -13.0932
 187   2.0000      -0.476470       -12.9654
 188   2.0000      -0.474566       -12.9136
 189   2.0000      -0.471033       -12.8175
 190   2.0000      -0.468594       -12.7511
 191   2.0000      -0.463399       -12.6097
 192   2.0000      -0.462803       -12.5935
 193   2.0000      -0.459176       -12.4948
 194   2.0000      -0.457516       -12.4496
 195   2.0000      -0.456535       -12.4230
 196   2.0000      -0.448927       -12.2159
 197   2.0000      -0.447254       -12.1704
 198   2.0000      -0.446636       -12.1536
 199   2.0000      -0.445650       -12.1268
 200   2.0000      -0.442297       -12.0355
 201   2.0000      -0.441939       -12.0258
 202   2.0000      -0.441227       -12.0064
 203   2.0000      -0.439240       -11.9523
 204   2.0000      -0.438628       -11.9357
 205   2.0000      -0.428469       -11.6592
 206   2.0000      -0.427053       -11.6207
 207   2.0000      -0.425833       -11.5875
 208   2.0000      -0.423302       -11.5186
 209   2.0000      -0.422299       -11.4913
 210   2.0000      -0.419743       -11.4218
 211   2.0000      -0.417460       -11.3597
 212   2.0000      -0.416043       -11.3211
 213   2.0000      -0.412931       -11.2364
 214   2.0000      -0.408440       -11.1142
 215   2.0000      -0.405756       -11.0412
 216   2.0000      -0.399774       -10.8784
 217   2.0000      -0.389779       -10.6064
 218   2.0000      -0.386662       -10.5216
 219   2.0000      -0.381092       -10.3701
 220   2.0000      -0.376462       -10.2440
 221   2.0000      -0.370835       -10.0909
 222   2.0000      -0.361890        -9.8475
 223   2.0000      -0.349838        -9.5196
 224   2.0000      -0.346088        -9.4175
 225   2.0000      -0.333965        -9.0876
 226   2.0000      -0.332223        -9.0402
 227   2.0000      -0.324384        -8.8269
 228   2.0000      -0.323961        -8.8154
 229   2.0000      -0.316753        -8.6193
 230   2.0000      -0.310609        -8.4521
 231   2.0000      -0.308962        -8.4073
 232   2.0000      -0.301745        -8.2109
 233   2.0000      -0.296225        -8.0607
 234   2.0000      -0.294060        -8.0018
 235   2.0000      -0.284466        -7.7407
 236   2.0000      -0.258209        -7.0262
 237   2.0000      -0.240974        -6.5572
 238   2.0000      -0.183719        -4.9992
 239   0.0000      -0.095681        -2.6036
 240   0.0000      -0.064032        -1.7424
 241   0.0000      -0.061833        -1.6826
 242   0.0000      -0.022800        -0.6204
 243   0.0000      -0.014980        -0.4076

MULLIKEN ATOMIC CHARGES
-----------------------
   0 C :    0.290616
   1 C :   -0.337404
   2 C :   -0.184233
   3 N :    0.145496
   4 C :   -0.214898
   5 N :    0.167375
   6 C :    0.017019
   7 C :   -0.013405
   8 C :   -0.077492
   9 C :    0.120896
  10 C :   -0.091604
  11 C :   -0.023804
  12 S :    0.185861
  13 C :   -0.123924
  14 C :    0.036444
  15 Br:    0.022240
  16 C :    0.133032
  17 O :   -0.150506
  18 C :   -0.130605
  19 C :   -0.015481
  20 C :    0.152285
  21 C :    0.192294
  22 O :   -0.232091
  23 C :    0.203818
  24 C :    0.227342
  25 C :   -0.170546
  26 S :    0.119203
  27 C :   -0.167008
  28 O :   -0.250645
  29 C :   -0.027359
  30 C :    0.041681
  31 C :    0.006886
  32 C :   -0.176020
  33 C :    0.067166
  34 C :    0.200861
  35 N :   -0.154467
  36 C :    0.059857
  37 C :   -0.026498
  38 C :   -0.003458
  39 C :   -0.038466
  40 C :    0.040397
  41 C :    0.011243
  42 C :   -0.037227
  43 S :    0.038605
  44 C :   -0.040019
  45 C :    0.025247
  46 C :    0.019850
  47 C :   -0.027043
  48 S :    0.007216
  49 C :    0.026818
  50 C :   -0.215996
  51 S :    0.125859
  52 C :   -0.131018
  53 C :    0.008409
  54 C :    0.155972
  55 N :   -0.045053
  56 N :   -0.063436
  57 C :   -0.024858
  58 C :    0.044182
  59 C :   -0.028047
  60 H :   -0.014298
  61 H :   -0.006972
  62 H :   -0.005232
  63 H :    0.044238
  64 H :    0.030157
  65 H :    0.030106
  66 H :    0.014670
  67 H :    0.004663
  68 H :   -0.028403
  69 H :    0.049563
  70 H :    0.045056
  71 H :    0.011553
  72 H :    0.021861
  73 H :    0.012357
  74 H :    0.118516
  75 H :   -0.001736
  76 H :   -0.014677
  77 H :   -0.022053
  78 H :   -0.019752
  79 H :   -0.021001
  80 H :   -0.018603
  81 H :   -0.019167
  82 H :   -0.026399
  83 H :    0.135544
  84 H :   -0.006437
  85 H :   -0.017288
  86 H :    0.008587
  87 H :    0.023589
Sum of atomic charges:   -0.0000000

LOEWDIN ATOMIC CHARGES
----------------------
   0 C :    0.073546
   1 C :   -0.142827
   2 C :   -0.018368
   3 N :   -0.055709
   4 C :   -0.028250
   5 N :   -0.050639
   6 C :   -0.022289
   7 C :   -0.048246
   8 C :    0.017623
   9 C :   -0.033879
  10 C :   -0.145978
  11 C :   -0.009779
  12 S :    0.431951
  13 C :   -0.272196
  14 C :   -0.071332
  15 Br:    0.135455
  16 C :    0.071763
  17 O :   -0.142648
  18 C :   -0.109234
  19 C :    0.058434
  20 C :    0.001536
  21 C :    0.091794
  22 O :   -0.026586
  23 C :   -0.013024
  24 C :   -0.005961
  25 C :   -0.207153
  26 S :    0.445487
  27 C :   -0.202906
  28 O :   -0.060509
  29 C :   -0.030032
  30 C :    0.021634
  31 C :   -0.051266
  32 C :   -0.020530
  33 C :   -0.055664
  34 C :    0.044464
  35 N :   -0.004655
  36 C :    0.045153
  37 C :   -0.118574
  38 C :   -0.037424
  39 C :   -0.172202
  40 C :   -0.030361
  41 C :   -0.050240
  42 C :   -0.174934
  43 S :    0.346152
  44 C :   -0.192761
  45 C :   -0.040274
  46 C :   -0.043536
  47 C :   -0.158036
  48 S :    0.358808
  49 C :   -0.086656
  50 C :   -0.205142
  51 S :    0.448934
  52 C :   -0.178881
  53 C :   -0.089830
  54 C :   -0.023958
  55 N :    0.087589
  56 N :   -0.055793
  57 C :   -0.048600
  58 C :   -0.042880
  59 C :   -0.050246
  60 H :    0.039297
  61 H :    0.040884
  62 H :    0.038011
  63 H :    0.052705
  64 H :    0.031544
  65 H :    0.031238
  66 H :    0.036229
  67 H :    0.031475
  68 H :    0.025160
  69 H :    0.044986
  70 H :    0.042374
  71 H :    0.027409
  72 H :    0.029569
  73 H :    0.029745
  74 H :    0.076290
  75 H :    0.026755
  76 H :    0.016605
  77 H :    0.030332
  78 H :    0.030706
  79 H :    0.028794
  80 H :    0.030519
  81 H :    0.030424
  82 H :    0.032450
  83 H :    0.053379
  84 H :    0.018241
  85 H :    0.028353
  86 H :    0.020916
  87 H :    0.025271

  Mayer bond orders larger than 0.100000
B(  0-C ,  1-C ) :   1.6340 B(  0-C ,  6-C ) :   1.0056 B(  0-C , 18-C ) :   1.0799
B(  1-C ,  2-C ) :   1.1415 B(  1-C ,  4-C ) :   1.1427 B(  2-C ,  3-N ) :   2.9694
B(  4-C ,  5-N ) :   3.0069 B(  6-C ,  7-C ) :   1.2712 B(  6-C , 11-C ) :   1.4124
B(  7-C ,  8-C ) :   1.4322 B(  7-C , 16-C ) :   0.9350 B(  8-C ,  9-C ) :   1.2364
B(  8-C , 60-H ) :   1.0181 B(  9-C , 10-C ) :   1.3126 B(  9-C , 14-C ) :   1.1617
B( 10-C , 11-C ) :   1.3222 B( 10-C , 12-S ) :   1.0842 B( 11-C , 61-H ) :   0.9826
B( 12-S , 13-C ) :   1.0879 B( 13-C , 14-C ) :   1.6186 B( 13-C , 15-Br) :   1.0174
B( 14-C , 62-H ) :   1.0008 B( 16-C , 17-O ) :   2.1947 B( 16-C , 18-C ) :   0.9749
B( 18-C , 19-C ) :   1.5005 B( 19-C , 20-C ) :   1.2493 B( 19-C , 63-H ) :   0.9372
B( 20-C , 21-C ) :   1.4012 B( 20-C , 28-O ) :   1.0419 B( 21-C , 22-O ) :   1.1269
B( 21-C , 29-C ) :   1.1635 B( 22-O , 23-C ) :   1.0283 B( 23-C , 24-C ) :   1.2027
B( 23-C , 27-C ) :   1.5711 B( 24-C , 25-C ) :   1.5768 B( 24-C , 28-O ) :   1.0619
B( 25-C , 26-S ) :   1.1402 B( 25-C , 64-H ) :   0.9708 B( 26-S , 27-C ) :   1.1531
B( 27-C , 65-H ) :   0.9731 B( 29-C , 30-C ) :   1.6685 B( 29-C , 66-H ) :   0.9568
B( 30-C , 31-C ) :   1.1073 B( 30-C , 67-H ) :   0.9695 B( 31-C , 32-C ) :   1.7593
B( 31-C , 68-H ) :   0.9781 B( 32-C , 33-C ) :   1.0655 B( 32-C , 34-C ) :   1.0423
B( 33-C , 69-H ) :   0.9469 B( 33-C , 70-H ) :   0.9452 B( 33-C , 71-H ) :   0.9533
B( 34-C , 35-N ) :   1.0227 B( 34-C , 72-H ) :   0.9329 B( 34-C , 73-H ) :   0.9411
B( 35-N , 36-C ) :   1.2062 B( 35-N , 74-H ) :   0.9385 B( 36-C , 37-C ) :   1.6141
B( 36-C , 75-H ) :   0.9704 B( 37-C , 38-C ) :   1.1684 B( 37-C , 76-H ) :   0.9599
B( 38-C , 39-C ) :   1.5878 B( 38-C , 77-H ) :   0.9789 B( 39-C , 40-C ) :   1.1503
B( 39-C , 43-S ) :   1.0106 B( 40-C , 41-C ) :   1.5831 B( 40-C , 78-H ) :   0.9972
B( 41-C , 42-C ) :   1.1960 B( 41-C , 79-H ) :   0.9936 B( 42-C , 43-S ) :   1.0458
B( 42-C , 44-C ) :   1.4967 B( 44-C , 45-C ) :   1.2060 B( 44-C , 48-S ) :   1.0318
B( 45-C , 46-C ) :   1.5700 B( 45-C , 80-H ) :   0.9915 B( 46-C , 47-C ) :   1.1626
B( 46-C , 81-H ) :   0.9989 B( 47-C , 48-S ) :   1.0127 B( 47-C , 49-C ) :   1.5915
B( 49-C , 50-C ) :   1.2025 B( 49-C , 82-H ) :   0.9303 B( 50-C , 51-S ) :   1.1092
B( 50-C , 52-C ) :   0.1120 B( 50-C , 54-C ) :   1.3302 B( 51-S , 52-C ) :   1.1387
B( 52-C , 53-C ) :   1.3386 B( 52-C , 58-C ) :   1.1420 B( 53-C , 54-C ) :   1.2673
B( 53-C , 57-C ) :   1.1571 B( 54-C , 55-N ) :   1.1549 B( 55-N , 56-N ) :   1.1405
B( 55-N , 83-H ) :   0.9317 B( 56-N , 57-C ) :   1.7323 B( 57-C , 84-H ) :   0.9978
B( 58-C , 59-C ) :   1.9044 B( 58-C , 85-H ) :   0.9498 B( 59-C , 86-H ) :   0.9548
B( 59-C , 87-H ) :   0.9479

-----------------------------------------------------------------------------
         ABSORPTION SPECTRUM VIA TRANSITION ELECTRIC DIPOLE MOMENTS
-----------------------------------------------------------------------------
State   Energy  Wavelength   fosc         T2         TX        TY        TZ
        (cm-1)    (nm)                  (au**2)     (au)      (au)      (au)
-----------------------------------------------------------------------------
   0    9958.7   1004.1   0.071877002   2.37608   0.58798  -0.00194  -1.42491
   1   13918.5    718.5   1.369128120  32.38380  -2.68356  -2.40424   4.40476
   2   17477.7    572.2   0.251484107   4.73699  -0.62271  -0.19723   2.07613
   3   17592.3    568.4   0.094636335   1.77097   0.53917   0.54169  -1.08942
   4   21470.1    465.8   0.023522594   0.36068  -0.01898  -0.10343   0.59129
   5   22325.1    447.9   0.049935681   0.73636   0.16394   0.74449   0.39398
   6   23541.4    424.8   0.012619387   0.17647   0.26627   0.10254   0.30831
   7   25295.0    395.3   0.287353278   3.73988  -0.20796  -1.25009  -1.46079
   8   25520.1    391.8   0.088065962   1.13606  -0.66549  -0.62021  -0.55544
   9   26075.6    383.5   0.502963689   6.35005   1.87539   0.82157   1.46901
  10   26896.9    371.8   0.189452206   2.31886   1.42208   0.04468   0.54271
  11   27979.5    357.4   0.118275252   1.39165   0.48054  -0.28844   1.03805
  12   29420.8    339.9   0.199307854   2.23021   0.24432   0.70582  -1.29319
  13   29566.8    338.2   0.078103895   0.86965   0.53978   0.54441   0.53094
  14   29647.3    337.3   0.064834624   0.71994   0.50712  -0.42904   0.52792
  15   29901.9    334.4   0.045636342   0.50244   0.24764  -0.37954   0.54504
  16   30049.7    332.8   0.000356240   0.00390   0.03075  -0.00620   0.05402
  17   31109.1    321.4   0.021522114   0.22776  -0.44175  -0.14679   0.10521
  18   31536.5    317.1   0.009872874   0.10306   0.29090  -0.09776   0.09427
  19   31892.2    313.6   0.005749934   0.05935   0.10652  -0.20304   0.08236
  20   32609.3    306.7   0.162933911   1.64492  -1.01254  -0.42182  -0.66465
  21   32942.1    303.6   0.257118697   2.56956   1.46561  -0.37897   0.52718
  22   33747.7    296.3   0.001050059   0.01024   0.06908   0.04033   0.06201
  23   34228.1    292.2   0.276641139   2.66078   1.44481  -0.68957   0.31272
  24   34407.1    290.6   0.024771073   0.23701  -0.01403   0.35735   0.33032
  25   34853.5    286.9   0.052393621   0.49489   0.31628   0.10351   0.61979
  26   35211.6    284.0   0.018079769   0.16904   0.13128   0.23202   0.31300
  27   35225.7    283.9   0.000666891   0.00623   0.04742  -0.04585   0.04339
  28   36102.1    277.0   0.262795680   2.39641  -1.29104   0.85415   0.00751
  29   36283.4    275.6   0.177544223   1.61092  -0.53268   0.72085  -0.89864
  30   36940.2    270.7   0.158357997   1.41129  -0.07744   0.07360  -1.18316
  31   37564.7    266.2   0.198113187   1.73624  -1.25602   0.24599  -0.31327
  32   37683.1    265.4   0.029851359   0.26079   0.47998  -0.10460   0.13952
  33   37816.6    264.4   0.001059876   0.00923  -0.09089   0.02023   0.02357
  34   38118.5    262.3   0.035392826   0.30567  -0.02693   0.40458  -0.37585
  35   38326.3    260.9   0.006381118   0.05481   0.10322   0.20270   0.05540
  36   38350.3    260.8   0.244219545   2.09647  -0.22552  -0.91450   1.09968
  37   39061.0    256.0   0.091960924   0.77506   0.50243   0.41693  -0.59059
  38   39351.5    254.1   0.007746414   0.06481  -0.13640  -0.14591  -0.15783
  39   39444.4    253.5   0.000717978   0.00599   0.02348  -0.06658   0.03175
  40   39531.7    253.0   0.013481159   0.11227  -0.26847  -0.13277  -0.15021
  41   39699.3    251.9   0.114547787   0.94990  -0.34498  -0.85135   0.32573

FINAL SINGLE POINT ENERGY     -6830.415467554821

DIPOLE MOMENT
-------------
                                X             Y             Z
Electronic contribution:      3.62246      15.91890    -167.18610
Nuclear contribution   :     -5.39195     -16.21077     166.62260
                        -----------------------------------------
Total Dipole Moment    :     -1.76949      -0.29187      -0.56351
                        -----------------------------------------
Magnitude (a.u.)       :      1.87984
Magnitude (Debye)      :      4.77819

Rotational constants in cm-1:     0.001333     0.000279     0.000264
Rotational constants in MHz :    39.970350     8.355744     7.907206

                             ****ORCA TERMINATED NORMALLY****
TOTAL RUN TIME: 0 days 0 hours 7 minutes 4 seconds 974 msec
