                         Program Version 4.2.0 -  RELEASE  -
|  1> # ORCA input file
|  2> # SCF done       -149.432821598987          0.000609640436
|  3> ! CAM-B3LYP def2-SVP def2/J RIJCOSX Grid4 TightSCF
|  4> %maxcore 5000
|  5> %tddft
|  6>     Mode sTDDFT
|  7>     Ethresh 5.0
|  8>     maxcore 5000
|  9> end
| 10>
| 11> %pal
| 12>   nprocs 6
| 13>   end
| 14> * xyz 0 1
| 15>    C       -5.14884         2.21359        -2.15648
| 16>    C       -6.00294         3.07158        -2.82015
| 17>    C       -5.64734         3.82814        -3.95190
| 18>    N       -5.41954         4.48738        -4.86535
| 19>    C       -7.34979         3.27439        -2.49147
| 20>    N       -8.47275         3.46165        -2.31914
| 21>    C       -3.80659         1.86207        -2.60381
| 22>    C       -3.28568         0.88130        -1.72742
| 23>    C       -2.03950         0.33110        -1.88723
| 24>    C       -1.26945         0.76429        -2.97382
| 25>    C       -1.79773         1.74514        -3.84394
| 26>    C       -3.05876         2.30600        -3.67800
| 27>    S       -0.67849         2.14178        -5.11408
| 28>    C        0.46564         0.99579        -4.46794
| 29>    C        0.03526         0.35025        -3.35846
| 30>   Br        2.12117         0.76026        -5.31913
| 31>    C       -4.26720         0.61446        -0.65036
| 32>    O       -4.05008        -0.03953         0.34732
| 33>    C       -5.44979         1.44484        -0.97807
| 34>    C       -6.57435         1.61238        -0.19379
| 35>    C       -7.01754         0.73770         0.81789
| 36>    C       -7.88543         1.12278         1.83096
| 37>    O       -8.06313         0.35890         2.95328
| 38>    C       -7.37997        -0.82240         3.00262
| 39>    C       -6.59946        -1.27160         1.89964
| 40>    C       -6.01494        -2.47263         2.12565
| 41>    S       -6.41423        -3.07274         3.69350
| 42>    C       -7.37622        -1.68896         4.04667
| 43>    O       -6.49440        -0.53653         0.76492
| 44>    C       -8.64336         2.33653         1.93888
| 45>    C       -9.28710         3.01407         0.96273
| 46>    C      -10.07609         4.17047         1.25764
| 47>    C      -10.93008         4.76847         0.40756
| 48>    C      -11.20506         4.28496        -0.97677
| 49>    C      -11.72654         5.98982         0.80912
| 50>    N      -11.56185         6.42539         2.16700
| 51>    C      -10.63518         7.33134         2.55047
| 52>    C      -10.27730         7.57097         3.83939
| 53>    C       -9.37922         8.58824         4.20927
| 54>    C       -8.97954         8.85450         5.49222
| 55>    C       -8.11439         9.88877         5.92163
| 56>    C       -7.90439         9.92548         7.26670
| 57>    C       -8.58073         8.91304         7.98279
| 58>    S       -9.50743         7.91357         6.88706
| 59>    C       -8.55426         8.68153         9.34560
| 60>    C       -7.88594         9.43069        10.33604
| 61>    C       -8.04895         8.94804        11.60074
| 62>    C       -8.84655         7.78357        11.68352
| 63>    S       -9.39980         7.33231        10.07779
| 64>    C       -9.15950         7.07259        12.81828
| 65>    C       -9.92148         5.89759        12.83668
| 66>    C      -10.21154         5.20333        13.97775
| 67>    C      -10.94965         3.99505        14.06305
| 68>    C      -11.46801         3.28615        13.02895
| 69>    C      -12.19099         2.06449        13.20267
| 70>    C      -12.69628         1.34925        12.19375
| 71>    H       -1.66875        -0.41333        -1.20022
| 72>    H       -3.41339         3.05615        -4.36460
| 73>    H        0.61248        -0.38719        -2.83116
| 74>    H       -7.15565         2.50777        -0.33677
| 75>    H       -5.37760        -3.02747         1.47076
| 76>    H       -7.87787        -1.59450         4.98688
| 77>    H       -8.81828         2.62963         2.96785
| 78>    H       -9.25311         2.68029        -0.06311
| 79>    H       -9.96129         4.56646         2.25878
| 80>    H      -10.27824         4.15505        -1.53218
| 81>    H      -11.84057         4.98395        -1.51392
| 82>    H      -11.70458         3.31735        -0.95001
| 83>    H      -12.78956         5.77830         0.63716
| 84>    H      -11.44744         6.81676         0.14650
| 85>    H      -11.92533         5.81301         2.88304
| 86>    H      -10.20503         7.91519         1.74794
| 87>    H      -10.70155         6.96794         4.63154
| 88>    H       -8.97475         9.21649         3.42614
| 89>    H       -7.67843        10.57777         5.21940
| 90>    H       -7.27853        10.64655         7.76111
| 91>    H       -7.30810        10.30473        10.09360
| 92>    H       -7.61468         9.39039        12.48020
| 93>    H       -8.77330         7.45040        13.75659
| 94>    H      -10.28209         5.53908        11.88193
| 95>    H       -9.84270         5.60566        14.91348
| 96>    H      -11.09828         3.60341        15.06262
| 97>    H      -11.33981         3.63026        12.01246
| 98>    H      -12.32021         1.72032        14.22157
| 99>    H      -12.58303         1.66499        11.16966
|100>    H      -13.23432         0.43196        12.35787
|101> *
|102>
|103>                          ****END OF INPUT****

CARTESIAN COORDINATES (ANGSTROEM)
---------------------------------
  C     -5.148840    2.213590   -2.156480
  C     -6.002940    3.071580   -2.820150
  C     -5.647340    3.828140   -3.951900
  N     -5.419540    4.487380   -4.865350
  C     -7.349790    3.274390   -2.491470
  N     -8.472750    3.461650   -2.319140
  C     -3.806590    1.862070   -2.603810
  C     -3.285680    0.881300   -1.727420
  C     -2.039500    0.331100   -1.887230
  C     -1.269450    0.764290   -2.973820
  C     -1.797730    1.745140   -3.843940
  C     -3.058760    2.306000   -3.678000
  S     -0.678490    2.141780   -5.114080
  C      0.465640    0.995790   -4.467940
  C      0.035260    0.350250   -3.358460
  Br     2.121170    0.760260   -5.319130
  C     -4.267200    0.614460   -0.650360
  O     -4.050080   -0.039530    0.347320
  C     -5.449790    1.444840   -0.978070
  C     -6.574350    1.612380   -0.193790
  C     -7.017540    0.737700    0.817890
  C     -7.885430    1.122780    1.830960
  O     -8.063130    0.358900    2.953280
  C     -7.379970   -0.822400    3.002620
  C     -6.599460   -1.271600    1.899640
  C     -6.014940   -2.472630    2.125650
  S     -6.414230   -3.072740    3.693500
  C     -7.376220   -1.688960    4.046670
  O     -6.494400   -0.536530    0.764920
  C     -8.643360    2.336530    1.938880
  C     -9.287100    3.014070    0.962730
  C    -10.076090    4.170470    1.257640
  C    -10.930080    4.768470    0.407560
  C    -11.205060    4.284960   -0.976770
  C    -11.726540    5.989820    0.809120
  N    -11.561850    6.425390    2.167000
  C    -10.635180    7.331340    2.550470
  C    -10.277300    7.570970    3.839390
  C     -9.379220    8.588240    4.209270
  C     -8.979540    8.854500    5.492220
  C     -8.114390    9.888770    5.921630
  C     -7.904390    9.925480    7.266700
  C     -8.580730    8.913040    7.982790
  S     -9.507430    7.913570    6.887060
  C     -8.554260    8.681530    9.345600
  C     -7.885940    9.430690   10.336040
  C     -8.048950    8.948040   11.600740
  C     -8.846550    7.783570   11.683520
  S     -9.399800    7.332310   10.077790
  C     -9.159500    7.072590   12.818280
  C     -9.921480    5.897590   12.836680
  C    -10.211540    5.203330   13.977750
  C    -10.949650    3.995050   14.063050
  C    -11.468010    3.286150   13.028950
  C    -12.190990    2.064490   13.202670
  C    -12.696280    1.349250   12.193750
  H     -1.668750   -0.413330   -1.200220
  H     -3.413390    3.056150   -4.364600
  H      0.612480   -0.387190   -2.831160
  H     -7.155650    2.507770   -0.336770
  H     -5.377600   -3.027470    1.470760
  H     -7.877870   -1.594500    4.986880
  H     -8.818280    2.629630    2.967850
  H     -9.253110    2.680290   -0.063110
  H     -9.961290    4.566460    2.258780
  H    -10.278240    4.155050   -1.532180
  H    -11.840570    4.983950   -1.513920
  H    -11.704580    3.317350   -0.950010
  H    -12.789560    5.778300    0.637160
  H    -11.447440    6.816760    0.146500
  H    -11.925330    5.813010    2.883040
  H    -10.205030    7.915190    1.747940
  H    -10.701550    6.967940    4.631540
  H     -8.974750    9.216490    3.426140
  H     -7.678430   10.577770    5.219400
  H     -7.278530   10.646550    7.761110
  H     -7.308100   10.304730   10.093600
  H     -7.614680    9.390390   12.480200
  H     -8.773300    7.450400   13.756590
  H    -10.282090    5.539080   11.881930
  H     -9.842700    5.605660   14.913480
  H    -11.098280    3.603410   15.062620
  H    -11.339810    3.630260   12.012460
  H    -12.320210    1.720320   14.221570
  H    -12.583030    1.664990   11.169660
  H    -13.234320    0.431960   12.357870

 Total Charge           Charge          ....    0
 Multiplicity           Mult            ....    1
 Number of Electrons    NEL             ....  444
 Basis Dimension        Dim             ....  968

ORBITAL ENERGIES
----------------

  NO   OCC          E(Eh)            E(eV)
   0   2.0000    -482.883620    -13139.9313
   1   2.0000     -88.972424     -2421.0627
   2   2.0000     -88.960776     -2420.7458
   3   2.0000     -88.927202     -2419.8322
   4   2.0000     -88.924282     -2419.7527
   5   2.0000     -62.561329     -1702.3803
   6   2.0000     -56.395280     -1534.5936
   7   2.0000     -56.392565     -1534.5197
   8   2.0000     -56.392533     -1534.5188
   9   2.0000     -19.298885      -525.1494
  10   2.0000     -19.270356      -524.3730
  11   2.0000     -19.205168      -522.5992
  12   2.0000     -14.441588      -392.9756
  13   2.0000     -14.423047      -392.4711
  14   2.0000     -14.411854      -392.1665
  15   2.0000     -10.383622      -282.5527
  16   2.0000     -10.359037      -281.8837
  17   2.0000     -10.357434      -281.8401
  18   2.0000     -10.356343      -281.8104
  19   2.0000     -10.345539      -281.5164
  20   2.0000     -10.341529      -281.4073
  21   2.0000     -10.339705      -281.3577
  22   2.0000     -10.336083      -281.2591
  23   2.0000     -10.330351      -281.1031
  24   2.0000     -10.324516      -280.9444
  25   2.0000     -10.321548      -280.8636
  26   2.0000     -10.320810      -280.8435
  27   2.0000     -10.319469      -280.8070
  28   2.0000     -10.316014      -280.7130
  29   2.0000     -10.304165      -280.3906
  30   2.0000     -10.303314      -280.3674
  31   2.0000     -10.302370      -280.3417
  32   2.0000     -10.301436      -280.3163
  33   2.0000     -10.301132      -280.3081
  34   2.0000     -10.297299      -280.2037
  35   2.0000     -10.295918      -280.1662
  36   2.0000     -10.295149      -280.1452
  37   2.0000     -10.294010      -280.1143
  38   2.0000     -10.293802      -280.1086
  39   2.0000     -10.293774      -280.1078
  40   2.0000     -10.293393      -280.0975
  41   2.0000     -10.287368      -279.9335
  42   2.0000     -10.286891      -279.9205
  43   2.0000     -10.286541      -279.9110
  44   2.0000     -10.283606      -279.8312
  45   2.0000     -10.274555      -279.5849
  46   2.0000     -10.273795      -279.5642
  47   2.0000     -10.270978      -279.4875
  48   2.0000     -10.269974      -279.4602
  49   2.0000     -10.267684      -279.3979
  50   2.0000     -10.263003      -279.2705
  51   2.0000     -10.260202      -279.1943
  52   2.0000     -10.256895      -279.1043
  53   2.0000     -10.256421      -279.0914
  54   2.0000     -10.255283      -279.0604
  55   2.0000     -10.254520      -279.0397
  56   2.0000     -10.254472      -279.0384
  57   2.0000     -10.251408      -278.9550
  58   2.0000     -10.250811      -278.9388
  59   2.0000     -10.246031      -278.8087
  60   2.0000      -8.790748      -239.2084
  61   2.0000      -8.068453      -219.5538
  62   2.0000      -8.056544      -219.2297
  63   2.0000      -8.023444      -218.3290
  64   2.0000      -8.020452      -218.2476
  65   2.0000      -6.627048      -180.3311
  66   2.0000      -6.612496      -179.9352
  67   2.0000      -6.612274      -179.9291
  68   2.0000      -6.038151      -164.3064
  69   2.0000      -6.033877      -164.1901
  70   2.0000      -6.029651      -164.0752
  71   2.0000      -6.026049      -163.9771
  72   2.0000      -6.021833      -163.8624
  73   2.0000      -6.018269      -163.7654
  74   2.0000      -5.993162      -163.0822
  75   2.0000      -5.990178      -163.0010
  76   2.0000      -5.989274      -162.9764
  77   2.0000      -5.986285      -162.8951
  78   2.0000      -5.984317      -162.8415
  79   2.0000      -5.981324      -162.7601
  80   2.0000      -2.742900       -74.6381
  81   2.0000      -2.738805       -74.5267
  82   2.0000      -2.738720       -74.5244
  83   2.0000      -2.727118       -74.2086
  84   2.0000      -2.727102       -74.2082
  85   2.0000      -1.216944       -33.1147
  86   2.0000      -1.173789       -31.9404
  87   2.0000      -1.119305       -30.4578
  88   2.0000      -1.044504       -28.4224
  89   2.0000      -1.021935       -27.8083
  90   2.0000      -1.014060       -27.5940
  91   2.0000      -0.996273       -27.1100
  92   2.0000      -0.992207       -26.9993
  93   2.0000      -0.985995       -26.8303
  94   2.0000      -0.975715       -26.5505
  95   2.0000      -0.954062       -25.9613
  96   2.0000      -0.944500       -25.7012
  97   2.0000      -0.937325       -25.5059
  98   2.0000      -0.919808       -25.0293
  99   2.0000      -0.905878       -24.6502
 100   2.0000      -0.898965       -24.4621
 101   2.0000      -0.896734       -24.4014
 102   2.0000      -0.886431       -24.1210
 103   2.0000      -0.882539       -24.0151
 104   2.0000      -0.872704       -23.7475
 105   2.0000      -0.868779       -23.6407
 106   2.0000      -0.853264       -23.2185
 107   2.0000      -0.843269       -22.9465
 108   2.0000      -0.829344       -22.5676
 109   2.0000      -0.826912       -22.5014
 110   2.0000      -0.825395       -22.4601
 111   2.0000      -0.822686       -22.3864
 112   2.0000      -0.814573       -22.1657
 113   2.0000      -0.802592       -21.8396
 114   2.0000      -0.794902       -21.6304
 115   2.0000      -0.788506       -21.4563
 116   2.0000      -0.772386       -21.0177
 117   2.0000      -0.767227       -20.8773
 118   2.0000      -0.755404       -20.5556
 119   2.0000      -0.745638       -20.2898
 120   2.0000      -0.738923       -20.1071
 121   2.0000      -0.718497       -19.5513
 122   2.0000      -0.709419       -19.3043
 123   2.0000      -0.697905       -18.9910
 124   2.0000      -0.697452       -18.9786
 125   2.0000      -0.686389       -18.6776
 126   2.0000      -0.683510       -18.5992
 127   2.0000      -0.673983       -18.3400
 128   2.0000      -0.667819       -18.1723
 129   2.0000      -0.664834       -18.0911
 130   2.0000      -0.657508       -17.8917
 131   2.0000      -0.653842       -17.7919
 132   2.0000      -0.632304       -17.2059
 133   2.0000      -0.631080       -17.1726
 134   2.0000      -0.623140       -16.9565
 135   2.0000      -0.620844       -16.8940
 136   2.0000      -0.613952       -16.7065
 137   2.0000      -0.608818       -16.5668
 138   2.0000      -0.606905       -16.5147
 139   2.0000      -0.599012       -16.2999
 140   2.0000      -0.595358       -16.2005
 141   2.0000      -0.593909       -16.1611
 142   2.0000      -0.587877       -15.9969
 143   2.0000      -0.585405       -15.9297
 144   2.0000      -0.579171       -15.7600
 145   2.0000      -0.575238       -15.6530
 146   2.0000      -0.568369       -15.4661
 147   2.0000      -0.562326       -15.3017
 148   2.0000      -0.558178       -15.1888
 149   2.0000      -0.546841       -14.8803
 150   2.0000      -0.544923       -14.8281
 151   2.0000      -0.541375       -14.7316
 152   2.0000      -0.537837       -14.6353
 153   2.0000      -0.535170       -14.5627
 154   2.0000      -0.531904       -14.4739
 155   2.0000      -0.526116       -14.3163
 156   2.0000      -0.522887       -14.2285
 157   2.0000      -0.520013       -14.1503
 158   2.0000      -0.518922       -14.1206
 159   2.0000      -0.516105       -14.0439
 160   2.0000      -0.511695       -13.9239
 161   2.0000      -0.509661       -13.8686
 162   2.0000      -0.504693       -13.7334
 163   2.0000      -0.501532       -13.6474
 164   2.0000      -0.498176       -13.5561
 165   2.0000      -0.492825       -13.4104
 166   2.0000      -0.492293       -13.3960
 167   2.0000      -0.490007       -13.3338
 168   2.0000      -0.487360       -13.2617
 169   2.0000      -0.484007       -13.1705
 170   2.0000      -0.482810       -13.1379
 171   2.0000      -0.479577       -13.0500
 172   2.0000      -0.478769       -13.0280
 173   2.0000      -0.475752       -12.9459
 174   2.0000      -0.472534       -12.8583
 175   2.0000      -0.467573       -12.7233
 176   2.0000      -0.465524       -12.6675
 177   2.0000      -0.464523       -12.6403
 178   2.0000      -0.462250       -12.5785
 179   2.0000      -0.457542       -12.4503
 180   2.0000      -0.455788       -12.4026
 181   2.0000      -0.450838       -12.2679
 182   2.0000      -0.446376       -12.1465
 183   2.0000      -0.444118       -12.0851
 184   2.0000      -0.442497       -12.0410
 185   2.0000      -0.440589       -11.9890
 186   2.0000      -0.436908       -11.8889
 187   2.0000      -0.435354       -11.8466
 188   2.0000      -0.434780       -11.8310
 189   2.0000      -0.434614       -11.8265
 190   2.0000      -0.429881       -11.6977
 191   2.0000      -0.426417       -11.6034
 192   2.0000      -0.424280       -11.5452
 193   2.0000      -0.419576       -11.4172
 194   2.0000      -0.418588       -11.3903
 195   2.0000      -0.415102       -11.2955
 196   2.0000      -0.413249       -11.2451
 197   2.0000      -0.411829       -11.2064
 198   2.0000      -0.409263       -11.1366
 199   2.0000      -0.407834       -11.0977
 200   2.0000      -0.405924       -11.0458
 201   2.0000      -0.400702       -10.9036
 202   2.0000      -0.387438       -10.5427
 203   2.0000      -0.383451       -10.4342
 204   2.0000      -0.379398       -10.3239
 205   2.0000      -0.378825       -10.3083
 206   2.0000      -0.373093       -10.1524
 207   2.0000      -0.358048        -9.7430
 208   2.0000      -0.357205        -9.7200
 209   2.0000      -0.329612        -8.9692
 210   2.0000      -0.325881        -8.8677
 211   2.0000      -0.324624        -8.8335
 212   2.0000      -0.318413        -8.6644
 213   2.0000      -0.311397        -8.4735
 214   2.0000      -0.305419        -8.3109
 215   2.0000      -0.303645        -8.2626
 216   2.0000      -0.297391        -8.0924
 217   2.0000      -0.291520        -7.9327
 218   2.0000      -0.281054        -7.6479
 219   2.0000      -0.256724        -6.9858
 220   2.0000      -0.241876        -6.5818
 221   2.0000      -0.183292        -4.9876
 222   0.0000      -0.095633        -2.6023
 223   0.0000      -0.059465        -1.6181
 224   0.0000      -0.058399        -1.5891
 225   0.0000      -0.022636        -0.6160
 226   0.0000      -0.005569        -0.1515

MULLIKEN ATOMIC CHARGES
-----------------------
   0 C :    0.307585
   1 C :   -0.360314
   2 C :   -0.184505
   3 N :    0.140840
   4 C :   -0.176014
   5 N :    0.145940
   6 C :    0.016535
   7 C :   -0.009787
   8 C :   -0.078390
   9 C :    0.122134
  10 C :   -0.090450
  11 C :   -0.026223
  12 S :    0.182460
  13 C :   -0.121871
  14 C :    0.034436
  15 Br:    0.020663
  16 C :    0.145263
  17 O :   -0.141423
  18 C :   -0.091553
  19 C :   -0.048027
  20 C :    0.140853
  21 C :    0.194361
  22 O :   -0.226437
  23 C :    0.198645
  24 C :    0.231450
  25 C :   -0.162872
  26 S :    0.115657
  27 C :   -0.160995
  28 O :   -0.236163
  29 C :   -0.053752
  30 C :    0.049475
  31 C :   -0.028258
  32 C :   -0.197210
  33 C :    0.084852
  34 C :    0.187638
  35 N :   -0.147293
  36 C :    0.065408
  37 C :   -0.026183
  38 C :   -0.009279
  39 C :   -0.039101
  40 C :    0.041353
  41 C :    0.011530
  42 C :   -0.042008
  43 S :    0.053808
  44 C :   -0.055622
  45 C :    0.024761
  46 C :    0.027416
  47 C :   -0.015945
  48 S :    0.054079
  49 C :   -0.024166
  50 C :    0.022100
  51 C :    0.002418
  52 C :    0.015737
  53 C :    0.010259
  54 C :    0.007551
  55 C :   -0.029874
  56 H :   -0.013667
  57 H :   -0.008656
  58 H :   -0.003936
  59 H :    0.017539
  60 H :    0.028974
  61 H :    0.029319
  62 H :    0.018826
  63 H :    0.022775
  64 H :   -0.020114
  65 H :    0.046147
  66 H :    0.003925
  67 H :    0.032801
  68 H :    0.033639
  69 H :    0.035724
  70 H :    0.123720
  71 H :    0.002456
  72 H :   -0.016553
  73 H :   -0.023617
  74 H :   -0.021106
  75 H :   -0.022285
  76 H :   -0.020456
  77 H :   -0.022552
  78 H :   -0.027282
  79 H :   -0.005197
  80 H :   -0.026343
  81 H :   -0.022958
  82 H :   -0.018434
  83 H :   -0.015827
  84 H :    0.007611
  85 H :    0.014035
Sum of atomic charges:   -0.0000000

LOEWDIN ATOMIC CHARGES
----------------------
   0 C :    0.083278
   1 C :   -0.163101
   2 C :   -0.020390
   3 N :   -0.062674
   4 C :    0.006706
   5 N :   -0.068840
   6 C :   -0.024236
   7 C :   -0.045356
   8 C :    0.018005
   9 C :   -0.032058
  10 C :   -0.146428
  11 C :   -0.010165
  12 S :    0.429181
  13 C :   -0.271875
  14 C :   -0.070915
  15 Br:    0.134349
  16 C :    0.075741
  17 O :   -0.140708
  18 C :   -0.103416
  19 C :    0.055958
  20 C :   -0.001189
  21 C :    0.093592
  22 O :   -0.026233
  23 C :   -0.015898
  24 C :   -0.003366
  25 C :   -0.200889
  26 S :    0.444214
  27 C :   -0.201431
  28 O :   -0.041115
  29 C :   -0.059767
  30 C :    0.030453
  31 C :   -0.073462
  32 C :   -0.001097
  33 C :   -0.061442
  34 C :    0.037603
  35 N :    0.001413
  36 C :    0.048178
  37 C :   -0.123590
  38 C :   -0.034608
  39 C :   -0.176867
  40 C :   -0.028861
  41 C :   -0.052246
  42 C :   -0.169447
  43 S :    0.351887
  44 C :   -0.197761
  45 C :   -0.031178
  46 C :   -0.049796
  47 C :   -0.141275
  48 S :    0.355106
  49 C :   -0.072676
  50 C :   -0.017377
  51 C :   -0.046547
  52 C :   -0.032493
  53 C :   -0.026469
  54 C :   -0.024799
  55 C :   -0.061182
  56 H :    0.039659
  57 H :    0.040275
  58 H :    0.038508
  59 H :    0.045207
  60 H :    0.032297
  61 H :    0.031342
  62 H :    0.040778
  63 H :    0.033450
  64 H :    0.024307
  65 H :    0.037962
  66 H :    0.027071
  67 H :    0.042292
  68 H :    0.036539
  69 H :    0.040681
  70 H :    0.079904
  71 H :    0.028661
  72 H :    0.017716
  73 H :    0.029945
  74 H :    0.030120
  75 H :    0.028131
  76 H :    0.028959
  77 H :    0.029421
  78 H :    0.028572
  79 H :    0.019152
  80 H :    0.023655
  81 H :    0.025209
  82 H :    0.023147
  83 H :    0.026017
  84 H :    0.018268
  85 H :    0.020313

  Mayer bond orders larger than 0.100000
B(  0-C ,  1-C ) :   1.5726 B(  0-C ,  6-C ) :   1.0035 B(  0-C , 18-C ) :   1.1272
B(  1-C ,  2-C ) :   1.1411 B(  1-C ,  4-C ) :   1.1632 B(  2-C ,  3-N ) :   2.9674
B(  4-C ,  5-N ) :   2.9181 B(  5-N , 65-H ) :   0.1238 B(  6-C ,  7-C ) :   1.2759
B(  6-C , 11-C ) :   1.4092 B(  7-C ,  8-C ) :   1.4336 B(  7-C , 16-C ) :   0.9288
B(  8-C ,  9-C ) :   1.2373 B(  8-C , 56-H ) :   1.0181 B(  9-C , 10-C ) :   1.3124
B(  9-C , 14-C ) :   1.1611 B( 10-C , 11-C ) :   1.3273 B( 10-C , 12-S ) :   1.0823
B( 11-C , 57-H ) :   0.9817 B( 12-S , 13-C ) :   1.0873 B( 13-C , 14-C ) :   1.6176
B( 13-C , 15-Br) :   1.0169 B( 14-C , 58-H ) :   1.0014 B( 16-C , 17-O ) :   2.2486
B( 16-C , 18-C ) :   0.9470 B( 18-C , 19-C ) :   1.4806 B( 19-C , 20-C ) :   1.2861
B( 19-C , 59-H ) :   0.9282 B( 20-C , 21-C ) :   1.3812 B( 20-C , 28-O ) :   1.0706
B( 21-C , 22-O ) :   1.1163 B( 21-C , 29-C ) :   1.0898 B( 22-O , 23-C ) :   1.0223
B( 23-C , 24-C ) :   1.2064 B( 23-C , 27-C ) :   1.5707 B( 24-C , 25-C ) :   1.5796
B( 24-C , 28-O ) :   1.0564 B( 25-C , 26-S ) :   1.1372 B( 25-C , 60-H ) :   0.9709
B( 26-S , 27-C ) :   1.1548 B( 27-C , 61-H ) :   0.9721 B( 29-C , 30-C ) :   1.6841
B( 29-C , 62-H ) :   0.9559 B( 30-C , 31-C ) :   1.1284 B( 30-C , 63-H ) :   0.9591
B( 31-C , 32-C ) :   1.7613 B( 31-C , 64-H ) :   0.9670 B( 32-C , 33-C ) :   1.0817
B( 32-C , 34-C ) :   1.0020 B( 33-C , 65-H ) :   0.9084 B( 33-C , 66-H ) :   0.9485
B( 33-C , 67-H ) :   0.9359 B( 34-C , 35-N ) :   1.0552 B( 34-C , 68-H ) :   0.9341
B( 34-C , 69-H ) :   0.9219 B( 35-N , 36-C ) :   1.2055 B( 35-N , 70-H ) :   0.9385
B( 36-C , 37-C ) :   1.6074 B( 36-C , 71-H ) :   0.9669 B( 37-C , 38-C ) :   1.1688
B( 37-C , 72-H ) :   0.9638 B( 38-C , 39-C ) :   1.5855 B( 38-C , 73-H ) :   0.9784
B( 39-C , 40-C ) :   1.1486 B( 39-C , 43-S ) :   1.0067 B( 40-C , 41-C ) :   1.5852
B( 40-C , 74-H ) :   0.9974 B( 41-C , 42-C ) :   1.1945 B( 41-C , 75-H ) :   0.9931
B( 42-C , 43-S ) :   1.0534 B( 42-C , 44-C ) :   1.4973 B( 44-C , 45-C ) :   1.2036
B( 44-C , 48-S ) :   1.0295 B( 45-C , 46-C ) :   1.5729 B( 45-C , 76-H ) :   0.9933
B( 46-C , 47-C ) :   1.1526 B( 46-C , 77-H ) :   0.9993 B( 47-C , 48-S ) :   1.0366
B( 47-C , 49-C ) :   1.5364 B( 49-C , 50-C ) :   1.1845 B( 49-C , 78-H ) :   0.9830
B( 50-C , 51-C ) :   1.6367 B( 50-C , 79-H ) :   0.9624 B( 51-C , 52-C ) :   1.1381
B( 51-C , 80-H ) :   0.9775 B( 52-C , 53-C ) :   1.6865 B( 52-C , 81-H ) :   0.9730
B( 53-C , 54-C ) :   1.1332 B( 53-C , 82-H ) :   0.9671 B( 54-C , 55-C ) :   1.8790
B( 54-C , 83-H ) :   0.9758 B( 55-C , 84-H ) :   0.9575 B( 55-C , 85-H ) :   0.9530

-----------------------------------------------------------------------------
         ABSORPTION SPECTRUM VIA TRANSITION ELECTRIC DIPOLE MOMENTS
-----------------------------------------------------------------------------
State   Energy  Wavelength   fosc         T2         TX        TY        TZ
        (cm-1)    (nm)                  (au**2)     (au)      (au)      (au)
-----------------------------------------------------------------------------
   0    9261.5   1079.7   0.008249709   0.29325   0.19956  -0.15763  -0.47809
   1   14716.6    679.5   1.299853359  29.07779   0.79419   1.70789  -5.05274
   2   17047.1    586.6   0.376272619   7.26653  -2.01100   0.13364   1.79013
   3   17978.8    556.2   0.002351931   0.04307   0.06419   0.16341  -0.11066
   4   21985.2    454.9   0.007054553   0.10564   0.00938  -0.28868   0.14903
   5   22883.9    437.0   0.032064154   0.46128   0.07090   0.13239   0.66236
   6   23930.3    417.9   0.008830021   0.12148  -0.05578  -0.09137   0.33169
   7   24816.6    403.0   0.001546370   0.02051   0.10530   0.03787  -0.08939
   8   25218.8    396.5   0.068685031   0.89663  -0.52379   0.64841   0.44926
   9   26885.3    372.0   0.454210600   5.56183  -1.48191   1.83062   0.12081
  10   27271.1    366.7   0.220178941   2.65796  -0.75434  -1.22115   0.77313
  11   28068.4    356.3   1.145086319  13.43060  -2.14661  -2.52136  -1.57017
  12   28678.1    348.7   0.200335808   2.29977  -1.21531  -0.47971   0.76985
  13   29313.9    341.1   0.024224971   0.27206   0.42003  -0.27171   0.14767
  14   30427.6    328.6   0.012324050   0.13334  -0.33699   0.02661  -0.13808
  15   30611.8    326.7   0.071775820   0.77191  -0.77330   0.41529  -0.03806
  16   30951.2    323.1   0.009572329   0.10182   0.20296   0.20365   0.13838
  17   31093.2    321.6   0.009192565   0.09733   0.18938   0.22905   0.09489
  18   31677.1    315.7   0.000349202   0.00363   0.01677   0.03593  -0.04535
  19   32006.7    312.4   0.000449767   0.00463  -0.02069  -0.06226  -0.01794
  20   32429.2    308.4   0.295662758   3.00148  -1.18201   1.16219  -0.50362
  21   33198.3    301.2   0.184837931   1.83295   1.24425  -0.48568  -0.22114
  22   33391.4    299.5   0.213348414   2.10344   1.38514  -0.13353  -0.40865
  23   33818.9    295.7   0.049080822   0.47778   0.33006   0.58422   0.16592
  24   34290.8    291.6   0.139967887   1.34378   0.59715   0.40438  -0.90756
  25   35726.2    279.9   0.000019391   0.00018   0.00332  -0.00023  -0.01295
  26   35844.8    279.0   0.001577531   0.01449   0.05180  -0.06887  -0.08404
  27   36125.1    276.8   0.022267355   0.20292  -0.36354   0.26600   0.00269
  28   36173.2    276.4   0.052426760   0.47714  -0.63059   0.28195  -0.00028
  29   36955.0    270.6   0.036035897   0.32102   0.11099  -0.43514   0.34548
  30   37294.9    268.1   0.002682867   0.02368  -0.06975  -0.13190   0.03768
  31   38069.7    262.7   0.013144316   0.11367   0.10210   0.24942   0.20256
  32   38273.8    261.3   0.284884517   2.45043  -0.10835  -0.95761   1.23356
  33   38434.6    260.2   0.001764701   0.01512  -0.01263  -0.08593   0.08701
  34   38713.8    258.3   0.000443130   0.00377   0.00526   0.05320  -0.03017
  35   39314.6    254.4   0.081937785   0.68613  -0.00287   0.07557  -0.82487
  36   39633.9    252.3   0.002346816   0.01949  -0.10221   0.09493  -0.00593
  37   39894.8    250.7   0.010521625   0.08682  -0.22999   0.12291   0.13720
  38   39969.1    250.2   0.182396807   1.50234   0.74757  -0.82741   0.50879

FINAL SINGLE POINT ENERGY     -6286.106260740081

DIPOLE MOMENT
-------------
                                X             Y             Z
Electronic contribution:    153.68998     -57.56597    -149.23612
Nuclear contribution   :   -153.59686      57.02611     148.27796
                        -----------------------------------------
Total Dipole Moment    :      0.09312      -0.53986      -0.95816
                        -----------------------------------------
Magnitude (a.u.)       :      1.10372
Magnitude (Debye)      :      2.80542

Rotational constants in cm-1:     0.001399     0.000343     0.000329
Rotational constants in MHz :    41.946752    10.294275     9.849672

                             ****ORCA TERMINATED NORMALLY****
TOTAL RUN TIME: 0 days 0 hours 6 minutes 32 seconds 139 msec
