                         Program Version 4.2.0 -  RELEASE  -
|  1> # ORCA input file
|  2> # SCF done       -198.857190281476          0.000948225944
|  3> ! CAM-B3LYP def2-SVP def2/J RIJCOSX Grid4 TightSCF
|  4> %maxcore 5000
|  5> %tddft
|  6>     Mode sTDDFT
|  7>     Ethresh 5.0
|  8>     maxcore 5000
|  9> end
| 10>
| 11> %pal
| 12>   nprocs 6
| 13>   end
| 14> * xyz 0 1
| 15>    C        5.84402        -6.09914        -9.00656
| 16>    C        5.85893        -5.86807        -7.68787
| 17>    C        5.90006        -4.59727        -7.01932
| 18>    C        5.89707        -4.67374        -5.67234
| 19>    C        5.85322        -6.00364        -5.15903
| 20>    S        5.82331        -7.16028        -6.47711
| 21>    C        5.82314        -6.38833        -3.84446
| 22>    C        5.81587        -5.55092        -2.69316
| 23>    C        5.75372        -6.21905        -1.51994
| 24>    C        5.70520        -7.64263        -1.65349
| 25>    S        5.76936        -8.07667        -3.36656
| 26>    C        5.55165        -8.54723        -0.66252
| 27>    C        5.55696        -9.98698        -0.86725
| 28>    C        6.61670       -10.57240        -1.49065
| 29>    S        6.56073       -12.28875        -1.53996
| 30>    C        5.02993       -12.25712        -0.72412
| 31>    C        4.58218       -10.95957        -0.43076
| 32>    C        3.31422       -10.78813         0.17574
| 33>    C        2.78273        -9.38769         0.32428
| 34>    C        2.32407        -8.85297        -1.03629
| 35>    C        2.55283       -11.89465         0.53598
| 36>    C        1.28357       -11.73258         1.33613
| 37>    C        0.05187       -11.40885         0.48596
| 38>    C        3.00253       -13.20005         0.21518
| 39>    C        2.39348       -14.49428         0.44404
| 40>    C        3.22439       -15.51732         0.07008
| 41>    S        4.70676       -15.01989        -0.62398
| 42>    C        4.25793       -13.35662        -0.39033
| 43>    C        1.04759       -14.76070         0.87679
| 44>    C        0.65649       -15.87793         1.53696
| 45>    C       -0.68699       -16.16111         1.87108
| 46>    S       -1.13081       -17.69170         2.58600
| 47>    C       -2.85192       -17.37144         2.54191
| 48>    C       -3.04560       -16.06104         2.09141
| 49>    C       -1.84844       -15.40458         1.69734
| 50>    N       -2.21997       -14.16860         1.28194
| 51>    N       -3.54214       -13.99498         1.40637
| 52>    C       -4.05975       -15.09697         1.88911
| 53>    C       -3.80115       -18.34217         2.87983
| 54>    C       -5.09933       -18.38591         2.42789
| 55>    C       -5.64530       -17.78822         1.27170
| 56>    C       -7.06231       -17.67030         1.13681
| 57>    C       -7.68013       -17.04409        -0.00255
| 58>    N       -9.01794       -16.95428        -0.07331
| 59>    C       -9.74175       -17.40696         0.92046
| 60>    C       -9.12726       -17.99591         2.06975
| 61>    N       -7.82099       -18.12596         2.13949
| 62>    C       -9.92491       -18.47865         3.13560
| 63>    N      -10.59749       -18.85935         3.98152
| 64>    C      -11.15604       -17.33578         0.83793
| 65>    N      -12.30059       -17.30544         0.80672
| 66>    C       -6.92078       -16.47255        -1.05123
| 67>    C       -5.52777       -16.70897        -0.98611
| 68>    C       -4.90550       -17.37190         0.13255
| 69>    N       -3.60477       -17.56334        -0.07573
| 70>    S       -3.19721       -16.97427        -1.51246
| 71>    N       -4.64766       -16.43665        -1.94996
| 72>    C       -7.55220       -15.79836        -2.12983
| 73>    C       -6.98272       -14.89197        -2.97825
| 74>    C       -5.74978       -14.15352        -2.85135
| 75>    C       -5.20050       -13.73446        -1.66154
| 76>    C       -5.91971       -13.88515        -0.45998
| 77>    N       -6.55625       -13.96181         0.49259
| 78>    C       -3.92924       -13.15966        -1.52498
| 79>    N       -2.85485       -12.78079        -1.36454
| 80>    C       -5.34538       -13.73893        -4.18565
| 81>    C       -6.41308       -14.00612        -5.07985
| 82>    C       -7.51842       -14.66765        -4.34359
| 83>    O       -8.59469       -15.00082        -4.78128
| 84>    C       -6.35188       -13.67879        -6.41153
| 85>    C       -5.18168       -13.07087        -6.88224
| 86>    C       -4.12108       -12.81621        -5.98139
| 87>    C       -4.18545       -13.13596        -4.63055
| 88>    S       -2.77210       -12.06430        -6.77973
| 89>    C       -3.64163       -12.09846        -8.29112
| 90>    C       -4.87677       -12.64525        -8.20484
| 91>   Br       -2.83408       -11.40952        -9.83773
| 92>    H        5.86406        -5.28309        -9.70714
| 93>    H        5.81011        -7.09605        -9.40614
| 94>    H        5.92822        -3.68270        -7.58471
| 95>    H        5.92362        -3.82176        -5.01632
| 96>    H        5.84876        -4.47943        -2.77853
| 97>    H        5.73159        -5.75510        -0.54958
| 98>    H        5.47672        -8.18218         0.35259
| 99>    H        7.47555       -10.07141        -1.89290
|100>    H        3.55392        -8.73323         0.72439
|101>    H        1.94273        -9.35341         1.01370
|102>    H        3.14606        -8.84143        -1.74620
|103>    H        1.94412        -7.83917        -0.93135
|104>    H        1.53620        -9.47890        -1.44814
|105>    H        1.42184       -10.93902         2.07338
|106>    H        1.11511       -12.64904         1.90411
|107>    H        0.13726       -10.42248         0.04093
|108>    H       -0.84341       -11.41155         1.10615
|109>    H       -0.06998       -12.11957        -0.32914
|110>    H        2.99859       -16.56526         0.10356
|111>    H        0.29697       -14.04907         0.57859
|112>    H        1.38798       -16.61159         1.84449
|113>    H       -1.68318       -13.42440         0.86477
|114>    H       -5.11037       -15.16014         2.08364
|115>    H       -3.48439       -19.11178         3.57300
|116>    H       -5.80291       -18.98913         2.98790
|117>    H       -8.57660       -16.08748        -2.33588
|118>    H       -7.17960       -13.88206        -7.07269
|119>    H       -3.35631       -12.92670        -3.97415
|120>    H       -5.54795       -12.74599        -9.03814
|121> *
|122>
|123>                          ****END OF INPUT****

CARTESIAN COORDINATES (ANGSTROEM)
---------------------------------
  C      5.844020   -6.099140   -9.006560
  C      5.858930   -5.868070   -7.687870
  C      5.900060   -4.597270   -7.019320
  C      5.897070   -4.673740   -5.672340
  C      5.853220   -6.003640   -5.159030
  S      5.823310   -7.160280   -6.477110
  C      5.823140   -6.388330   -3.844460
  C      5.815870   -5.550920   -2.693160
  C      5.753720   -6.219050   -1.519940
  C      5.705200   -7.642630   -1.653490
  S      5.769360   -8.076670   -3.366560
  C      5.551650   -8.547230   -0.662520
  C      5.556960   -9.986980   -0.867250
  C      6.616700  -10.572400   -1.490650
  S      6.560730  -12.288750   -1.539960
  C      5.029930  -12.257120   -0.724120
  C      4.582180  -10.959570   -0.430760
  C      3.314220  -10.788130    0.175740
  C      2.782730   -9.387690    0.324280
  C      2.324070   -8.852970   -1.036290
  C      2.552830  -11.894650    0.535980
  C      1.283570  -11.732580    1.336130
  C      0.051870  -11.408850    0.485960
  C      3.002530  -13.200050    0.215180
  C      2.393480  -14.494280    0.444040
  C      3.224390  -15.517320    0.070080
  S      4.706760  -15.019890   -0.623980
  C      4.257930  -13.356620   -0.390330
  C      1.047590  -14.760700    0.876790
  C      0.656490  -15.877930    1.536960
  C     -0.686990  -16.161110    1.871080
  S     -1.130810  -17.691700    2.586000
  C     -2.851920  -17.371440    2.541910
  C     -3.045600  -16.061040    2.091410
  C     -1.848440  -15.404580    1.697340
  N     -2.219970  -14.168600    1.281940
  N     -3.542140  -13.994980    1.406370
  C     -4.059750  -15.096970    1.889110
  C     -3.801150  -18.342170    2.879830
  C     -5.099330  -18.385910    2.427890
  C     -5.645300  -17.788220    1.271700
  C     -7.062310  -17.670300    1.136810
  C     -7.680130  -17.044090   -0.002550
  N     -9.017940  -16.954280   -0.073310
  C     -9.741750  -17.406960    0.920460
  C     -9.127260  -17.995910    2.069750
  N     -7.820990  -18.125960    2.139490
  C     -9.924910  -18.478650    3.135600
  N    -10.597490  -18.859350    3.981520
  C    -11.156040  -17.335780    0.837930
  N    -12.300590  -17.305440    0.806720
  C     -6.920780  -16.472550   -1.051230
  C     -5.527770  -16.708970   -0.986110
  C     -4.905500  -17.371900    0.132550
  N     -3.604770  -17.563340   -0.075730
  S     -3.197210  -16.974270   -1.512460
  N     -4.647660  -16.436650   -1.949960
  C     -7.552200  -15.798360   -2.129830
  C     -6.982720  -14.891970   -2.978250
  C     -5.749780  -14.153520   -2.851350
  C     -5.200500  -13.734460   -1.661540
  C     -5.919710  -13.885150   -0.459980
  N     -6.556250  -13.961810    0.492590
  C     -3.929240  -13.159660   -1.524980
  N     -2.854850  -12.780790   -1.364540
  C     -5.345380  -13.738930   -4.185650
  C     -6.413080  -14.006120   -5.079850
  C     -7.518420  -14.667650   -4.343590
  O     -8.594690  -15.000820   -4.781280
  C     -6.351880  -13.678790   -6.411530
  C     -5.181680  -13.070870   -6.882240
  C     -4.121080  -12.816210   -5.981390
  C     -4.185450  -13.135960   -4.630550
  S     -2.772100  -12.064300   -6.779730
  C     -3.641630  -12.098460   -8.291120
  C     -4.876770  -12.645250   -8.204840
  Br    -2.834080  -11.409520   -9.837730
  H      5.864060   -5.283090   -9.707140
  H      5.810110   -7.096050   -9.406140
  H      5.928220   -3.682700   -7.584710
  H      5.923620   -3.821760   -5.016320
  H      5.848760   -4.479430   -2.778530
  H      5.731590   -5.755100   -0.549580
  H      5.476720   -8.182180    0.352590
  H      7.475550  -10.071410   -1.892900
  H      3.553920   -8.733230    0.724390
  H      1.942730   -9.353410    1.013700
  H      3.146060   -8.841430   -1.746200
  H      1.944120   -7.839170   -0.931350
  H      1.536200   -9.478900   -1.448140
  H      1.421840  -10.939020    2.073380
  H      1.115110  -12.649040    1.904110
  H      0.137260  -10.422480    0.040930
  H     -0.843410  -11.411550    1.106150
  H     -0.069980  -12.119570   -0.329140
  H      2.998590  -16.565260    0.103560
  H      0.296970  -14.049070    0.578590
  H      1.387980  -16.611590    1.844490
  H     -1.683180  -13.424400    0.864770
  H     -5.110370  -15.160140    2.083640
  H     -3.484390  -19.111780    3.573000
  H     -5.802910  -18.989130    2.987900
  H     -8.576600  -16.087480   -2.335880
  H     -7.179600  -13.882060   -7.072690
  H     -3.356310  -12.926700   -3.974150
  H     -5.547950  -12.745990   -9.038140

 Total Charge           Charge          ....    0
 Multiplicity           Mult            ....    1
 Number of Electrons    NEL             ....  602
 Basis Dimension        Dim             .... 1269

ORBITAL ENERGIES
----------------

  NO   OCC          E(Eh)            E(eV)
   0   2.0000    -482.883858    -13139.9378
   1   2.0000     -89.043829     -2423.0058
   2   2.0000     -88.980047     -2421.2702
   3   2.0000     -88.973084     -2421.0807
   4   2.0000     -88.962520     -2420.7932
   5   2.0000     -88.954513     -2420.5754
   6   2.0000     -88.940405     -2420.1915
   7   2.0000     -88.936428     -2420.0832
   8   2.0000     -62.561559     -1702.3866
   9   2.0000     -56.395509     -1534.5998
  10   2.0000     -56.392797     -1534.5260
  11   2.0000     -56.392762     -1534.5251
  12   2.0000     -19.207346      -522.6585
  13   2.0000     -14.493702      -394.3937
  14   2.0000     -14.458871      -393.4459
  15   2.0000     -14.454756      -393.3339
  16   2.0000     -14.453174      -393.2909
  17   2.0000     -14.448892      -393.1743
  18   2.0000     -14.447797      -393.1446
  19   2.0000     -14.424817      -392.5192
  20   2.0000     -14.421859      -392.4387
  21   2.0000     -14.416818      -392.3016
  22   2.0000     -14.405875      -392.0038
  23   2.0000     -10.379099      -282.4296
  24   2.0000     -10.373091      -282.2662
  25   2.0000     -10.358857      -281.8788
  26   2.0000     -10.356231      -281.8074
  27   2.0000     -10.349187      -281.6157
  28   2.0000     -10.345615      -281.5185
  29   2.0000     -10.340050      -281.3671
  30   2.0000     -10.339606      -281.3550
  31   2.0000     -10.335089      -281.2321
  32   2.0000     -10.333681      -281.1937
  33   2.0000     -10.330345      -281.1030
  34   2.0000     -10.327725      -281.0317
  35   2.0000     -10.325773      -280.9786
  36   2.0000     -10.322992      -280.9029
  37   2.0000     -10.322601      -280.8922
  38   2.0000     -10.321260      -280.8558
  39   2.0000     -10.317607      -280.7564
  40   2.0000     -10.315994      -280.7125
  41   2.0000     -10.312472      -280.6166
  42   2.0000     -10.310737      -280.5694
  43   2.0000     -10.308091      -280.4974
  44   2.0000     -10.307213      -280.4735
  45   2.0000     -10.307146      -280.4717
  46   2.0000     -10.306608      -280.4571
  47   2.0000     -10.306442      -280.4525
  48   2.0000     -10.305227      -280.4195
  49   2.0000     -10.304944      -280.4118
  50   2.0000     -10.303982      -280.3856
  51   2.0000     -10.303573      -280.3745
  52   2.0000     -10.303136      -280.3626
  53   2.0000     -10.302620      -280.3485
  54   2.0000     -10.302610      -280.3483
  55   2.0000     -10.302530      -280.3461
  56   2.0000     -10.301228      -280.3107
  57   2.0000     -10.300078      -280.2794
  58   2.0000     -10.296950      -280.1943
  59   2.0000     -10.296904      -280.1930
  60   2.0000     -10.294415      -280.1253
  61   2.0000     -10.294240      -280.1205
  62   2.0000     -10.291937      -280.0579
  63   2.0000     -10.290619      -280.0220
  64   2.0000     -10.289297      -279.9860
  65   2.0000     -10.288985      -279.9775
  66   2.0000     -10.288024      -279.9514
  67   2.0000     -10.287100      -279.9262
  68   2.0000     -10.286275      -279.9038
  69   2.0000     -10.285880      -279.8930
  70   2.0000     -10.284870      -279.8655
  71   2.0000     -10.283838      -279.8375
  72   2.0000     -10.282555      -279.8025
  73   2.0000     -10.281209      -279.7659
  74   2.0000     -10.280364      -279.7429
  75   2.0000     -10.279587      -279.7218
  76   2.0000     -10.272288      -279.5232
  77   2.0000     -10.268409      -279.4176
  78   2.0000     -10.265994      -279.3519
  79   2.0000     -10.264955      -279.3236
  80   2.0000     -10.252111      -278.9741
  81   2.0000      -8.790976      -239.2146
  82   2.0000      -8.134522      -221.3516
  83   2.0000      -8.074920      -219.7297
  84   2.0000      -8.069145      -219.5726
  85   2.0000      -8.058600      -219.2856
  86   2.0000      -8.050851      -219.0748
  87   2.0000      -8.036231      -218.6770
  88   2.0000      -8.033068      -218.5909
  89   2.0000      -6.627259      -180.3369
  90   2.0000      -6.612721      -179.9413
  91   2.0000      -6.612518      -179.9358
  92   2.0000      -6.105650      -166.1432
  93   2.0000      -6.097898      -165.9322
  94   2.0000      -6.097336      -165.9170
  95   2.0000      -6.044240      -164.4721
  96   2.0000      -6.040028      -164.3575
  97   2.0000      -6.038834      -164.3250
  98   2.0000      -6.037184      -164.2801
  99   2.0000      -6.034586      -164.2094
 100   2.0000      -6.030332      -164.0937
 101   2.0000      -6.028045      -164.0314
 102   2.0000      -6.023806      -163.9161
 103   2.0000      -6.020420      -163.8239
 104   2.0000      -6.020352      -163.8221
 105   2.0000      -6.016135      -163.7074
 106   2.0000      -6.012480      -163.6079
 107   2.0000      -6.006091      -163.4340
 108   2.0000      -6.002906      -163.3474
 109   2.0000      -6.002146      -163.3267
 110   2.0000      -5.999023      -163.2417
 111   2.0000      -5.996809      -163.1815
 112   2.0000      -5.993564      -163.0932
 113   2.0000      -2.743140       -74.6446
 114   2.0000      -2.739031       -74.5328
 115   2.0000      -2.738929       -74.5300
 116   2.0000      -2.727351       -74.2150
 117   2.0000      -2.727328       -74.2144
 118   2.0000      -1.155346       -31.4386
 119   2.0000      -1.139810       -31.0158
 120   2.0000      -1.122264       -30.5384
 121   2.0000      -1.116020       -30.3684
 122   2.0000      -1.042370       -28.3643
 123   2.0000      -1.019595       -27.7446
 124   2.0000      -1.011086       -27.5131
 125   2.0000      -1.008863       -27.4526
 126   2.0000      -1.008158       -27.4334
 127   2.0000      -1.002464       -27.2784
 128   2.0000      -0.997600       -27.1461
 129   2.0000      -0.994870       -27.0718
 130   2.0000      -0.990694       -26.9582
 131   2.0000      -0.989875       -26.9359
 132   2.0000      -0.983140       -26.7526
 133   2.0000      -0.978842       -26.6356
 134   2.0000      -0.974632       -26.5211
 135   2.0000      -0.966088       -26.2886
 136   2.0000      -0.938729       -25.5441
 137   2.0000      -0.937118       -25.5003
 138   2.0000      -0.930478       -25.3196
 139   2.0000      -0.915167       -24.9030
 140   2.0000      -0.911941       -24.8152
 141   2.0000      -0.905328       -24.6352
 142   2.0000      -0.903260       -24.5790
 143   2.0000      -0.895823       -24.3766
 144   2.0000      -0.889993       -24.2179
 145   2.0000      -0.882222       -24.0065
 146   2.0000      -0.874800       -23.8045
 147   2.0000      -0.871555       -23.7162
 148   2.0000      -0.868713       -23.6389
 149   2.0000      -0.861798       -23.4507
 150   2.0000      -0.855246       -23.2724
 151   2.0000      -0.848225       -23.0814
 152   2.0000      -0.843800       -22.9610
 153   2.0000      -0.836413       -22.7600
 154   2.0000      -0.827859       -22.5272
 155   2.0000      -0.825356       -22.4591
 156   2.0000      -0.824666       -22.4403
 157   2.0000      -0.815973       -22.2038
 158   2.0000      -0.810242       -22.0478
 159   2.0000      -0.794685       -21.6245
 160   2.0000      -0.791752       -21.5447
 161   2.0000      -0.784576       -21.3494
 162   2.0000      -0.769576       -20.9412
 163   2.0000      -0.764883       -20.8135
 164   2.0000      -0.753097       -20.4928
 165   2.0000      -0.738197       -20.0874
 166   2.0000      -0.731898       -19.9159
 167   2.0000      -0.726471       -19.7683
 168   2.0000      -0.722439       -19.6586
 169   2.0000      -0.716819       -19.5056
 170   2.0000      -0.713679       -19.4202
 171   2.0000      -0.709897       -19.3173
 172   2.0000      -0.704022       -19.1574
 173   2.0000      -0.698978       -19.0202
 174   2.0000      -0.693705       -18.8767
 175   2.0000      -0.693153       -18.8616
 176   2.0000      -0.689813       -18.7708
 177   2.0000      -0.686711       -18.6864
 178   2.0000      -0.678825       -18.4718
 179   2.0000      -0.675413       -18.3789
 180   2.0000      -0.659118       -17.9355
 181   2.0000      -0.653794       -17.7906
 182   2.0000      -0.652800       -17.7636
 183   2.0000      -0.648070       -17.6349
 184   2.0000      -0.645313       -17.5599
 185   2.0000      -0.635575       -17.2949
 186   2.0000      -0.629102       -17.1187
 187   2.0000      -0.624314       -16.9885
 188   2.0000      -0.622023       -16.9261
 189   2.0000      -0.619882       -16.8679
 190   2.0000      -0.615867       -16.7586
 191   2.0000      -0.609497       -16.5853
 192   2.0000      -0.607541       -16.5320
 193   2.0000      -0.604459       -16.4482
 194   2.0000      -0.598282       -16.2801
 195   2.0000      -0.591818       -16.1042
 196   2.0000      -0.589727       -16.0473
 197   2.0000      -0.584528       -15.9058
 198   2.0000      -0.581812       -15.8319
 199   2.0000      -0.575098       -15.6492
 200   2.0000      -0.570393       -15.5212
 201   2.0000      -0.563341       -15.3293
 202   2.0000      -0.561735       -15.2856
 203   2.0000      -0.555632       -15.1195
 204   2.0000      -0.552133       -15.0243
 205   2.0000      -0.549991       -14.9660
 206   2.0000      -0.548024       -14.9125
 207   2.0000      -0.543811       -14.7979
 208   2.0000      -0.543627       -14.7928
 209   2.0000      -0.537678       -14.6309
 210   2.0000      -0.533119       -14.5069
 211   2.0000      -0.532836       -14.4992
 212   2.0000      -0.530562       -14.4373
 213   2.0000      -0.526374       -14.3234
 214   2.0000      -0.521839       -14.2000
 215   2.0000      -0.518692       -14.1143
 216   2.0000      -0.516281       -14.0487
 217   2.0000      -0.512880       -13.9562
 218   2.0000      -0.508967       -13.8497
 219   2.0000      -0.506672       -13.7872
 220   2.0000      -0.504673       -13.7328
 221   2.0000      -0.504051       -13.7159
 222   2.0000      -0.500614       -13.6224
 223   2.0000      -0.497652       -13.5418
 224   2.0000      -0.496380       -13.5072
 225   2.0000      -0.494086       -13.4448
 226   2.0000      -0.492206       -13.3936
 227   2.0000      -0.490483       -13.3467
 228   2.0000      -0.489584       -13.3222
 229   2.0000      -0.487608       -13.2685
 230   2.0000      -0.486415       -13.2360
 231   2.0000      -0.483494       -13.1565
 232   2.0000      -0.482681       -13.1344
 233   2.0000      -0.481441       -13.1007
 234   2.0000      -0.477748       -13.0002
 235   2.0000      -0.476111       -12.9556
 236   2.0000      -0.474109       -12.9012
 237   2.0000      -0.468062       -12.7366
 238   2.0000      -0.466444       -12.6926
 239   2.0000      -0.463784       -12.6202
 240   2.0000      -0.462058       -12.5732
 241   2.0000      -0.460875       -12.5411
 242   2.0000      -0.458368       -12.4728
 243   2.0000      -0.456460       -12.4209
 244   2.0000      -0.454454       -12.3663
 245   2.0000      -0.453511       -12.3407
 246   2.0000      -0.451537       -12.2870
 247   2.0000      -0.450536       -12.2597
 248   2.0000      -0.449733       -12.2379
 249   2.0000      -0.447236       -12.1699
 250   2.0000      -0.445496       -12.1226
 251   2.0000      -0.444896       -12.1062
 252   2.0000      -0.442009       -12.0277
 253   2.0000      -0.440395       -11.9838
 254   2.0000      -0.439760       -11.9665
 255   2.0000      -0.437945       -11.9171
 256   2.0000      -0.435665       -11.8551
 257   2.0000      -0.433840       -11.8054
 258   2.0000      -0.432249       -11.7621
 259   2.0000      -0.430571       -11.7164
 260   2.0000      -0.428683       -11.6651
 261   2.0000      -0.427202       -11.6248
 262   2.0000      -0.423560       -11.5257
 263   2.0000      -0.423430       -11.5221
 264   2.0000      -0.420258       -11.4358
 265   2.0000      -0.418541       -11.3891
 266   2.0000      -0.417917       -11.3721
 267   2.0000      -0.416301       -11.3281
 268   2.0000      -0.411406       -11.1949
 269   2.0000      -0.410119       -11.1599
 270   2.0000      -0.405225       -11.0267
 271   2.0000      -0.404613       -11.0101
 272   2.0000      -0.397856       -10.8262
 273   2.0000      -0.394741       -10.7414
 274   2.0000      -0.392637       -10.6842
 275   2.0000      -0.385590       -10.4924
 276   2.0000      -0.384544       -10.4640
 277   2.0000      -0.381118       -10.3707
 278   2.0000      -0.377126       -10.2621
 279   2.0000      -0.373919       -10.1748
 280   2.0000      -0.373306       -10.1582
 281   2.0000      -0.370104       -10.0710
 282   2.0000      -0.365208        -9.9378
 283   2.0000      -0.358248        -9.7484
 284   2.0000      -0.351487        -9.5644
 285   2.0000      -0.347371        -9.4524
 286   2.0000      -0.342615        -9.3230
 287   2.0000      -0.337244        -9.1769
 288   2.0000      -0.336696        -9.1620
 289   2.0000      -0.331472        -9.0198
 290   2.0000      -0.326836        -8.8936
 291   2.0000      -0.325121        -8.8470
 292   2.0000      -0.320111        -8.7107
 293   2.0000      -0.310604        -8.4520
 294   2.0000      -0.310164        -8.4400
 295   2.0000      -0.292962        -7.9719
 296   2.0000      -0.287793        -7.8313
 297   2.0000      -0.275466        -7.4958
 298   2.0000      -0.273627        -7.4458
 299   2.0000      -0.237894        -6.4734
 300   2.0000      -0.224764        -6.1161
 301   0.0000      -0.131480        -3.5778
 302   0.0000      -0.074997        -2.0408
 303   0.0000      -0.066166        -1.8005
 304   0.0000      -0.055195        -1.5019
 305   0.0000      -0.050977        -1.3872

MULLIKEN ATOMIC CHARGES
-----------------------
   0 C :   -0.031911
   1 C :   -0.063942
   2 C :    0.052814
   3 C :    0.030756
   4 C :   -0.071109
   5 S :    0.075641
   6 C :   -0.057999
   7 C :    0.031767
   8 C :    0.041399
   9 C :   -0.026332
  10 S :    0.080565
  11 C :   -0.076648
  12 C :    0.015015
  13 C :   -0.091476
  14 S :    0.126607
  15 C :   -0.136850
  16 C :    0.119214
  17 C :   -0.126984
  18 C :    0.069017
  19 C :    0.032757
  20 C :   -0.111088
  21 C :    0.005346
  22 C :   -0.000914
  23 C :    0.111797
  24 C :    0.068497
  25 C :   -0.116775
  26 S :    0.143698
  27 C :   -0.155020
  28 C :   -0.015748
  29 C :    0.049685
  30 C :   -0.171805
  31 S :    0.164362
  32 C :   -0.101563
  33 C :    0.027816
  34 C :    0.120309
  35 N :   -0.041071
  36 N :   -0.055977
  37 C :    0.003291
  38 C :    0.082074
  39 C :   -0.094484
  40 C :    0.093684
  41 C :   -0.065724
  42 C :   -0.008521
  43 N :    0.059061
  44 C :   -0.118043
  45 C :   -0.144930
  46 N :    0.054688
  47 C :   -0.205202
  48 N :    0.229579
  49 C :   -0.204899
  50 N :    0.236945
  51 C :    0.024461
  52 C :    0.023613
  53 C :   -0.001697
  54 N :   -0.271210
  55 S :    0.545086
  56 N :   -0.292754
  57 C :   -0.017970
  58 C :   -0.102953
  59 C :    0.310482
  60 C :   -0.362606
  61 C :   -0.158709
  62 N :    0.124834
  63 C :   -0.140621
  64 N :    0.110896
  65 C :    0.009867
  66 C :    0.001735
  67 C :    0.134904
  68 O :   -0.135232
  69 C :   -0.078683
  70 C :    0.113656
  71 C :   -0.085122
  72 C :   -0.035798
  73 S :    0.176880
  74 C :   -0.124625
  75 C :    0.040116
  76 Br:    0.020398
  77 H :    0.019324
  78 H :    0.021296
  79 H :   -0.012382
  80 H :   -0.012854
  81 H :   -0.013244
  82 H :   -0.014535
  83 H :    0.017229
  84 H :    0.028063
  85 H :   -0.012249
  86 H :   -0.008553
  87 H :    0.026658
  88 H :    0.011757
  89 H :    0.009077
  90 H :    0.016852
  91 H :    0.003080
  92 H :    0.017045
  93 H :    0.034728
  94 H :    0.033180
  95 H :    0.022802
  96 H :   -0.029519
  97 H :   -0.021415
  98 H :    0.144759
  99 H :    0.020682
 100 H :    0.009915
 101 H :    0.021229
 102 H :    0.031075
 103 H :   -0.008992
 104 H :   -0.012428
 105 H :   -0.002904
Sum of atomic charges:   -0.0000000

LOEWDIN ATOMIC CHARGES
----------------------
   0 C :   -0.078687
   1 C :   -0.139206
   2 C :   -0.031338
   3 C :   -0.026741
   4 C :   -0.178839
   5 S :    0.347270
   6 C :   -0.184144
   7 C :   -0.027075
   8 C :   -0.035360
   9 C :   -0.138070
  10 S :    0.358407
  11 C :   -0.059328
  12 C :   -0.072066
  13 C :   -0.163535
  14 S :    0.414090
  15 C :   -0.177254
  16 C :   -0.038610
  17 C :   -0.012719
  18 C :   -0.029680
  19 C :   -0.047178
  20 C :   -0.024762
  21 C :   -0.033390
  22 C :   -0.056413
  23 C :   -0.042292
  24 C :   -0.066288
  25 C :   -0.162467
  26 S :    0.428828
  27 C :   -0.177777
  28 C :   -0.000438
  29 C :   -0.051131
  30 C :   -0.168055
  31 S :    0.469339
  32 C :   -0.173303
  33 C :   -0.080245
  34 C :   -0.029472
  35 N :    0.105948
  36 N :   -0.029073
  37 C :   -0.032402
  38 C :    0.008924
  39 C :   -0.034841
  40 C :    0.005201
  41 C :   -0.010687
  42 C :    0.024673
  43 N :   -0.004114
  44 C :   -0.013990
  45 C :   -0.038066
  46 N :    0.005045
  47 C :   -0.037261
  48 N :   -0.011177
  49 C :   -0.032804
  50 N :   -0.000767
  51 C :   -0.067591
  52 C :   -0.031862
  53 C :   -0.051920
  54 N :   -0.257412
  55 S :    0.670787
  56 N :   -0.279151
  57 C :    0.081508
  58 C :   -0.086998
  59 C :    0.085508
  60 C :   -0.156774
  61 C :   -0.003089
  62 N :   -0.070822
  63 C :   -0.003817
  64 N :   -0.093389
  65 C :   -0.013536
  66 C :   -0.048767
  67 C :    0.083784
  68 O :   -0.138695
  69 C :    0.021232
  70 C :   -0.034634
  71 C :   -0.144224
  72 C :   -0.017741
  73 S :    0.425306
  74 C :   -0.273471
  75 C :   -0.069504
  76 Br:    0.134088
  77 H :    0.028214
  78 H :    0.026118
  79 H :    0.033110
  80 H :    0.031593
  81 H :    0.031519
  82 H :    0.032465
  83 H :    0.032280
  84 H :    0.024597
  85 H :    0.024914
  86 H :    0.023357
  87 H :    0.024087
  88 H :    0.024842
  89 H :    0.021519
  90 H :    0.030280
  91 H :    0.025468
  92 H :    0.030161
  93 H :    0.026071
  94 H :    0.022623
  95 H :    0.023038
  96 H :    0.026140
  97 H :    0.030448
  98 H :    0.078562
  99 H :    0.024688
 100 H :    0.039309
 101 H :    0.041566
 102 H :    0.049447
 103 H :    0.041304
 104 H :    0.037820
 105 H :    0.038966

  Mayer bond orders larger than 0.100000
B(  0-C ,  1-C ) :   1.8695 B(  0-C , 77-H ) :   0.9511 B(  0-C , 78-H ) :   0.9419
B(  1-C ,  2-C ) :   1.0752 B(  1-C ,  5-S ) :   1.0067 B(  2-C ,  3-C ) :   1.6731
B(  2-C , 79-H ) :   0.9932 B(  3-C ,  4-C ) :   1.1411 B(  3-C , 80-H ) :   0.9915
B(  4-C ,  5-S ) :   1.0395 B(  4-C ,  6-C ) :   1.5903 B(  6-C ,  7-C ) :   1.1458
B(  6-C , 10-S ) :   1.0239 B(  7-C ,  8-C ) :   1.6488 B(  7-C , 81-H ) :   0.9929
B(  8-C ,  9-C ) :   1.0870 B(  8-C , 82-H ) :   0.9985 B(  9-C , 10-S ) :   1.0220
B(  9-C , 11-C ) :   1.7484 B( 11-C , 12-C ) :   0.9701 B( 11-C , 83-H ) :   0.9571
B( 12-C , 13-C ) :   1.6327 B( 12-C , 16-C ) :   1.1585 B( 13-C , 14-S ) :   1.1142
B( 13-C , 84-H ) :   0.9636 B( 14-S , 15-C ) :   1.0807 B( 15-C , 16-C ) :   1.3710
B( 15-C , 27-C ) :   1.3794 B( 16-C , 17-C ) :   1.2537 B( 17-C , 18-C ) :   1.0880
B( 17-C , 20-C ) :   1.5121 B( 18-C , 19-C ) :   1.1054 B( 18-C , 85-H ) :   0.9094
B( 18-C , 86-H ) :   0.9093 B( 19-C , 87-H ) :   0.9661 B( 19-C , 88-H ) :   0.9660
B( 19-C , 89-H ) :   0.9551 B( 20-C , 21-C ) :   1.0447 B( 20-C , 23-C ) :   1.2697
B( 21-C , 22-C ) :   1.0916 B( 21-C , 90-H ) :   0.9219 B( 21-C , 91-H ) :   0.9225
B( 22-C , 92-H ) :   0.9546 B( 22-C , 93-H ) :   0.9528 B( 22-C , 94-H ) :   0.9549
B( 23-C , 24-C ) :   1.1370 B( 23-C , 27-C ) :   1.3750 B( 24-C , 25-C ) :   1.5810
B( 24-C , 28-C ) :   1.0596 B( 25-C , 26-S ) :   1.1374 B( 25-C , 95-H ) :   0.9621
B( 26-S , 27-C ) :   1.0726 B( 28-C , 29-C ) :   1.6853 B( 28-C , 96-H ) :   0.9489
B( 29-C , 30-C ) :   1.1511 B( 29-C , 97-H ) :   0.9550 B( 30-C , 31-S ) :   1.1414
B( 30-C , 34-C ) :   1.3271 B( 31-S , 32-C ) :   1.0951 B( 32-C , 33-C ) :   1.2643
B( 32-C , 38-C ) :   1.2662 B( 33-C , 34-C ) :   1.2847 B( 33-C , 37-C ) :   1.1682
B( 34-C , 35-N ) :   1.1560 B( 35-N , 36-N ) :   1.1607 B( 35-N , 98-H ) :   0.9184
B( 36-N , 37-C ) :   1.6773 B( 37-C , 99-H ) :   0.9884 B( 38-C , 39-C ) :   1.5150
B( 38-C ,100-H ) :   0.9503 B( 39-C , 40-C ) :   1.3054 B( 39-C ,101-H ) :   0.9369
B( 40-C , 41-C ) :   1.1792 B( 40-C , 51-C ) :   0.1133 B( 40-C , 53-C ) :   1.1458
B( 41-C , 42-C ) :   1.1249 B( 41-C , 46-N ) :   1.5035 B( 42-C , 43-N ) :   1.4807
B( 42-C , 51-C ) :   1.2501 B( 43-N , 44-C ) :   1.7249 B( 44-C , 45-C ) :   1.2284
B( 44-C , 49-C ) :   1.1488 B( 45-C , 46-N ) :   1.7023 B( 45-C , 47-C ) :   1.1515
B( 47-C , 48-N ) :   3.0471 B( 49-C , 50-N ) :   3.0477 B( 51-C , 52-C ) :   1.1834
B( 51-C , 57-C ) :   1.1592 B( 52-C , 53-C ) :   1.1261 B( 52-C , 56-N ) :   1.5100
B( 53-C , 54-N ) :   1.5243 B( 54-N , 55-S ) :   1.2922 B( 54-N , 56-N ) :   0.1441
B( 55-S , 56-N ) :   1.2566 B( 57-C , 58-C ) :   1.5782 B( 57-C ,102-H ) :   0.9477
B( 58-C , 59-C ) :   1.0653 B( 58-C , 67-C ) :   0.9471 B( 59-C , 60-C ) :   1.5855
B( 59-C , 65-C ) :   1.0342 B( 60-C , 61-C ) :   1.1928 B( 60-C , 63-C ) :   1.1611
B( 61-C , 62-N ) :   2.9082 B( 63-C , 64-N ) :   2.9209 B( 65-C , 66-C ) :   1.2752
B( 65-C , 72-C ) :   1.4193 B( 66-C , 67-C ) :   0.9104 B( 66-C , 69-C ) :   1.4269
B( 67-C , 68-O ) :   2.2868 B( 69-C , 70-C ) :   1.2492 B( 69-C ,103-H ) :   1.0159
B( 70-C , 71-C ) :   1.3143 B( 70-C , 75-C ) :   1.1620 B( 71-C , 72-C ) :   1.3185
B( 71-C , 73-S ) :   1.0803 B( 72-C ,104-H ) :   0.9859 B( 73-S , 74-C ) :   1.0846
B( 74-C , 75-C ) :   1.6213 B( 74-C , 76-Br) :   1.0169 B( 75-C ,105-H ) :   1.0004

-----------------------------------------------------------------------------
         ABSORPTION SPECTRUM VIA TRANSITION ELECTRIC DIPOLE MOMENTS
-----------------------------------------------------------------------------
State   Energy  Wavelength   fosc         T2         TX        TY        TZ
        (cm-1)    (nm)                  (au**2)     (au)      (au)      (au)
-----------------------------------------------------------------------------
   0    6976.8   1433.3   0.250870241  11.83769  -3.13152  -0.27830  -1.39779
   1   12862.1    777.5   0.000190868   0.00489  -0.04522  -0.01145   0.05205
   2   16795.6    595.4   0.136823524   2.68189  -0.89706  -1.10971   0.80356
   3   18192.9    549.7   0.157861367   2.85661  -0.09686  -0.91521   1.41761
   4   19156.3    522.0   0.116242046   1.99769   0.05388  -1.00616   0.99118
   5   19927.7    501.8   0.146546659   2.42100   1.20737   0.66345  -0.72325
   6   20766.8    481.5   0.028541086   0.45246   0.60545   0.07984  -0.28197
   7   21647.4    462.0   0.658580584  10.01566   2.18629   1.77419  -1.44501
   8   22754.5    439.5   1.004833853  14.53792   0.04486  -1.59554   3.46268
   9   23189.9    431.2   0.137583085   1.95318   1.37041   0.17519   0.21088
  10   24330.9    411.0   0.001828185   0.02474  -0.04136   0.03315  -0.14808
  11   24826.6    402.8   0.001073369   0.01423  -0.08316  -0.07672   0.03782
  12   25179.9    397.1   0.118238073   1.54589  -0.51598  -0.65937   0.91918
  13   25587.1    390.8   0.016989665   0.21859   0.22791   0.20266  -0.35437
  14   25900.4    386.1   0.087424220   1.11122   0.95274   0.26121  -0.36780
  15   26463.0    377.9   0.001436476   0.01787  -0.10098  -0.08098  -0.03339
  16   26614.4    375.7   0.063667646   0.78755   0.53646   0.19665  -0.67904
  17   27201.9    367.6   0.064633787   0.78223  -0.45025  -0.60220   0.46569
  18   27600.4    362.3   0.023621209   0.28175  -0.07706  -0.00428   0.52516
  19   28039.3    356.6   0.236548922   2.77735  -0.96903  -0.91124   1.00398
  20   28114.4    355.7   0.016154287   0.18916   0.31996   0.15647   0.24960
  21   29111.8    343.5   0.013769103   0.15571   0.33216   0.06519  -0.20280
  22   29287.7    341.4   0.005962805   0.06703  -0.06563  -0.18473  -0.16909
  23   30081.0    332.4   0.667720446   7.30765  -1.76226  -0.39134   2.01220
  24   30379.8    329.2   0.190414816   2.06344  -0.97611  -0.18642  -1.03725
  25   30516.0    327.7   0.034271657   0.36973  -0.16103   0.18058  -0.55784
  26   30812.9    324.5   0.082244516   0.87872  -0.47464   0.28688  -0.75573
  27   30888.2    323.7   0.007391826   0.07878   0.21239   0.10484  -0.15062
  28   30935.1    323.3   0.003363556   0.03579  -0.15538  -0.10787  -0.00418
  29   31006.4    322.5   0.007191736   0.07636   0.00054   0.10285  -0.25648
  30   31591.2    316.5   0.003827022   0.03988   0.08324   0.04563  -0.17570
  31   31791.2    314.6   0.086997316   0.90089   0.39560   0.59722  -0.62267
  32   32323.4    309.4   0.032427275   0.33027  -0.40484  -0.18755  -0.36222
  33   32412.8    308.5   0.082338076   0.83630   0.09411   0.37344   0.82945
  34   32536.6    307.3   0.071112970   0.71954  -0.47785   0.44129   0.54448
  35   33118.6    301.9   0.028100747   0.27933   0.26950   0.16556  -0.42343
  36   33649.4    297.2   0.008349540   0.08169  -0.15343  -0.20769   0.12253
  37   33927.4    294.7   0.019092730   0.18527  -0.04559  -0.16117  -0.39650
  38   33936.9    294.7   0.035177411   0.34125   0.03718  -0.55205  -0.18735
  39   34045.3    293.7   0.025692443   0.24844  -0.44231   0.22785   0.02974
  40   34356.6    291.1   0.092956984   0.89073   0.55924   0.32673  -0.68646
  41   34440.6    290.4   0.014983578   0.14323   0.34651  -0.06727  -0.13648
  42   34540.6    289.5   0.040154796   0.38272   0.14356  -0.18403   0.57292
  43   34559.3    289.4   0.015121744   0.14405  -0.34185  -0.15897  -0.04379
  44   34737.3    287.9   0.113062143   1.07151   0.55336   0.11108  -0.86774
  45   35160.1    284.4   0.008585239   0.08039  -0.14632  -0.07169   0.23203
  46   35195.0    284.1   0.096742234   0.90492  -0.54761   0.03729  -0.77695
  47   35484.0    281.8   0.152631467   1.41608   1.14425   0.07673   0.31762
  48   35649.0    280.5   0.355106247   3.27934   0.67437   0.17737  -1.67126
  49   35946.0    278.2   0.005699185   0.05220   0.07701   0.03290  -0.21256
  50   36084.9    277.1   0.006851739   0.06251   0.08432  -0.21646  -0.09245
  51   36372.6    274.9   0.079941885   0.72356   0.09280   0.84443  -0.04341
  52   37048.2    269.9   0.048463575   0.43065   0.23046   0.60658  -0.09798
  53   37159.6    269.1   0.017068100   0.15121   0.16178   0.10687  -0.33707
  54   37429.4    267.2   0.098070781   0.86259   0.80866   0.34100  -0.30392
  55   37452.9    267.0   0.019923746   0.17513   0.28726  -0.29988  -0.05180
  56   37773.9    264.7   0.118303391   1.03105   0.59287   0.81862  -0.09701
  57   37894.9    263.9   0.115133678   1.00022   0.81279  -0.52352   0.25598
  58   38003.5    263.1   0.009726789   0.08426   0.06351   0.26767  -0.09263
  59   38161.8    262.0   0.016033589   0.13832   0.32596  -0.17062  -0.05438
  60   38475.9    259.9   0.033657856   0.28799   0.30245  -0.36215   0.25564
  61   38761.2    258.0   0.018296425   0.15540  -0.16908   0.08434  -0.34597
  62   38927.3    256.9   0.126195227   1.06724   0.48436   0.78199  -0.47024
  63   39105.4    255.7   0.007581325   0.06382   0.09474  -0.22606   0.06120
  64   39440.0    253.5   0.038456992   0.32101   0.35273  -0.33129  -0.29468
  65   39569.4    252.7   0.126129025   1.04938   0.98760  -0.07938  -0.26023
  66   39828.5    251.1   0.017545942   0.14503  -0.06995  -0.14302  -0.34595
  67   39899.5    250.6   0.049600503   0.40926  -0.06925   0.63516   0.03212
  68   40175.6    248.9   0.019997145   0.16386   0.38506   0.09775  -0.07772
  69   40195.7    248.8   0.017827438   0.14601   0.36682   0.09865   0.04148
  70   40254.3    248.4   0.028590174   0.23382   0.46639   0.01071   0.12720

FINAL SINGLE POINT ENERGY     -8207.003625435274

DIPOLE MOMENT
-------------
                                X             Y             Z
Electronic contribution:    -68.60358     -40.43293     -87.52220
Nuclear contribution   :     74.00089      41.80355      86.34599
                        -----------------------------------------
Total Dipole Moment    :      5.39730       1.37062      -1.17621
                        -----------------------------------------
Magnitude (a.u.)       :      5.69148
Magnitude (Debye)      :     14.46660

Rotational constants in cm-1:     0.000861     0.000345     0.000267
Rotational constants in MHz :    25.802631    10.331603     7.993591

                             ****ORCA TERMINATED NORMALLY****
TOTAL RUN TIME: 0 days 0 hours 24 minutes 17 seconds 507 msec
