                         Program Version 4.2.0 -  RELEASE  -
|  1> # ORCA input file
|  2> # SCF done       -153.491394125311          0.000286165356
|  3> ! CAM-B3LYP def2-SVP def2/J RIJCOSX Grid4 TightSCF
|  4> %maxcore 5000
|  5> %tddft
|  6>     Mode sTDDFT
|  7>     Ethresh 5.0
|  8>     maxcore 5000
|  9> end
| 10>
| 11> %pal
| 12>   nprocs 6
| 13>   end
| 14> * xyz 0 1
| 15>    C        6.91367        -1.36846        -9.90038
| 16>    C        6.10657        -0.92543        -8.92686
| 17>    C        5.61524         0.40851        -8.73134
| 18>    C        4.81283         0.55569        -7.65414
| 19>    C        4.60293        -0.64015        -6.91188
| 20>    S        5.47326        -1.97136        -7.64560
| 21>    C        3.83626        -0.79544        -5.78112
| 22>    C        3.08525         0.18655        -5.09201
| 23>    C        2.41703        -0.29101        -4.00962
| 24>    C        2.59678        -1.67864        -3.76359
| 25>    S        3.66918        -2.34905        -4.98238
| 26>    C        1.91701        -2.37391        -2.79343
| 27>    C        1.94892        -3.73201        -2.43505
| 28>    S        0.49743        -4.38760        -1.73616
| 29>    C        1.11177        -6.01138        -1.67510
| 30>    C        2.45199        -6.02785        -2.09859
| 31>    C        2.92816        -4.74228        -2.51903
| 32>    C        4.28429        -4.57440        -2.84751
| 33>    C        5.11970        -5.65404        -2.82411
| 34>    F        6.41960        -5.50297        -3.13013
| 35>    C        4.64640        -6.92657        -2.44594
| 36>    F        5.50207        -7.96469        -2.41658
| 37>    C        3.34644        -7.11573        -2.07579
| 38>    C        0.20300        -7.01279        -1.25522
| 39>    C        0.32147        -8.36109        -1.32494
| 40>    C       -0.73092        -9.22730        -0.89813
| 41>    C       -0.69838       -10.57189        -0.91270
| 42>    C        0.48317       -11.37417        -1.37013
| 43>    C       -1.88686       -11.36646        -0.45075
| 44>    N       -2.33286       -12.25253        -1.50488
| 45>    C       -3.26640       -13.21228        -1.31515
| 46>    C       -3.79872       -13.94772        -2.32168
| 47>    C       -4.76620       -14.97542        -2.20368
| 48>    S       -4.87689       -16.13610        -3.48663
| 49>    C       -6.13954       -17.04708        -2.69907
| 50>    C       -6.48034       -16.43464        -1.47666
| 51>    C       -5.71592       -15.25674        -1.20379
| 52>    C       -6.03144       -14.49810        -0.06816
| 53>    C       -7.01631       -14.92081         0.79608
| 54>    C       -7.32333       -14.14147         1.93074
| 55>    N       -7.53918       -13.48093         2.84365
| 56>    C       -7.73893       -16.13033         0.55529
| 57>    O       -8.66849       -16.43660         1.49489
| 58>    C       -9.43979       -17.59978         1.32654
| 59>    C       -7.47379       -16.85978        -0.57606
| 60>    C       -6.69345       -18.20461        -3.24685
| 61>    C       -6.37559       -18.81620        -4.43610
| 62>    C       -6.97091       -19.99931        -4.93676
| 63>    C       -6.48044       -20.41594        -6.13522
| 64>    C       -5.46372       -19.58291        -6.65886
| 65>    S       -5.15795       -18.24440        -5.56471
| 66>    C       -4.77279       -19.73157        -7.83884
| 67>    C       -4.92320       -20.76206        -8.80467
| 68>    C       -4.10261       -20.65208        -9.87439
| 69>    C       -3.23102       -19.51423        -9.83866
| 70>    S       -3.53096       -18.60136        -8.35084
| 71>    C       -2.31948       -19.14870       -10.75151
| 72>    H        7.27519        -0.69895       -10.66076
| 73>    H        7.22489        -2.39550        -9.95328
| 74>    H        5.88758         1.19787        -9.40923
| 75>    H        4.35760         1.48444        -7.35896
| 76>    H        3.05600         1.21087        -5.41699
| 77>    H        1.79230         0.30767        -3.37009
| 78>    H        1.15047        -1.79807        -2.28589
| 79>    H        4.68427        -3.60576        -3.08979
| 80>    H        3.04041        -8.08907        -1.73603
| 81>    H       -0.72998        -6.61888        -0.86661
| 82>    H        1.20204        -8.82080        -1.73956
| 83>    H       -1.62502        -8.73569        -0.53452
| 84>    H        0.81337       -11.06340        -2.36012
| 85>    H        0.23548       -12.43173        -1.40473
| 86>    H        1.32030       -11.24111        -0.68461
| 87>    H       -2.69445       -10.68874        -0.13864
| 88>    H       -1.60987       -11.98125         0.41526
| 89>    H       -2.16918       -11.94368        -2.45144
| 90>    H       -3.51285       -13.40280        -0.28178
| 91>    H       -3.41721       -13.78727        -3.32256
| 92>    H       -5.53603       -13.56057         0.12557
| 93>    H      -10.10159       -17.63943         2.18981
| 94>    H       -8.81277       -18.49724         1.30770
| 95>    H      -10.03960       -17.55417         0.41155
| 96>    H       -8.02811       -17.75737        -0.79536
| 97>    H       -7.46725       -18.68778        -2.66448
| 98>    H       -7.74604       -20.50735        -4.38923
| 99>    H       -6.81839       -21.29497        -6.65404
|100>    H       -5.63885       -21.55405        -8.66984
|101>    H       -4.07479       -21.33845       -10.70219
|102>    H       -2.17101       -19.73313       -11.64225
|103>    H       -1.71465       -18.26960       -10.62671
|104> *
|105>
|106>                          ****END OF INPUT****

CARTESIAN COORDINATES (ANGSTROEM)
---------------------------------
  C      6.913670   -1.368460   -9.900380
  C      6.106570   -0.925430   -8.926860
  C      5.615240    0.408510   -8.731340
  C      4.812830    0.555690   -7.654140
  C      4.602930   -0.640150   -6.911880
  S      5.473260   -1.971360   -7.645600
  C      3.836260   -0.795440   -5.781120
  C      3.085250    0.186550   -5.092010
  C      2.417030   -0.291010   -4.009620
  C      2.596780   -1.678640   -3.763590
  S      3.669180   -2.349050   -4.982380
  C      1.917010   -2.373910   -2.793430
  C      1.948920   -3.732010   -2.435050
  S      0.497430   -4.387600   -1.736160
  C      1.111770   -6.011380   -1.675100
  C      2.451990   -6.027850   -2.098590
  C      2.928160   -4.742280   -2.519030
  C      4.284290   -4.574400   -2.847510
  C      5.119700   -5.654040   -2.824110
  F      6.419600   -5.502970   -3.130130
  C      4.646400   -6.926570   -2.445940
  F      5.502070   -7.964690   -2.416580
  C      3.346440   -7.115730   -2.075790
  C      0.203000   -7.012790   -1.255220
  C      0.321470   -8.361090   -1.324940
  C     -0.730920   -9.227300   -0.898130
  C     -0.698380  -10.571890   -0.912700
  C      0.483170  -11.374170   -1.370130
  C     -1.886860  -11.366460   -0.450750
  N     -2.332860  -12.252530   -1.504880
  C     -3.266400  -13.212280   -1.315150
  C     -3.798720  -13.947720   -2.321680
  C     -4.766200  -14.975420   -2.203680
  S     -4.876890  -16.136100   -3.486630
  C     -6.139540  -17.047080   -2.699070
  C     -6.480340  -16.434640   -1.476660
  C     -5.715920  -15.256740   -1.203790
  C     -6.031440  -14.498100   -0.068160
  C     -7.016310  -14.920810    0.796080
  C     -7.323330  -14.141470    1.930740
  N     -7.539180  -13.480930    2.843650
  C     -7.738930  -16.130330    0.555290
  O     -8.668490  -16.436600    1.494890
  C     -9.439790  -17.599780    1.326540
  C     -7.473790  -16.859780   -0.576060
  C     -6.693450  -18.204610   -3.246850
  C     -6.375590  -18.816200   -4.436100
  C     -6.970910  -19.999310   -4.936760
  C     -6.480440  -20.415940   -6.135220
  C     -5.463720  -19.582910   -6.658860
  S     -5.157950  -18.244400   -5.564710
  C     -4.772790  -19.731570   -7.838840
  C     -4.923200  -20.762060   -8.804670
  C     -4.102610  -20.652080   -9.874390
  C     -3.231020  -19.514230   -9.838660
  S     -3.530960  -18.601360   -8.350840
  C     -2.319480  -19.148700  -10.751510
  H      7.275190   -0.698950  -10.660760
  H      7.224890   -2.395500   -9.953280
  H      5.887580    1.197870   -9.409230
  H      4.357600    1.484440   -7.358960
  H      3.056000    1.210870   -5.416990
  H      1.792300    0.307670   -3.370090
  H      1.150470   -1.798070   -2.285890
  H      4.684270   -3.605760   -3.089790
  H      3.040410   -8.089070   -1.736030
  H     -0.729980   -6.618880   -0.866610
  H      1.202040   -8.820800   -1.739560
  H     -1.625020   -8.735690   -0.534520
  H      0.813370  -11.063400   -2.360120
  H      0.235480  -12.431730   -1.404730
  H      1.320300  -11.241110   -0.684610
  H     -2.694450  -10.688740   -0.138640
  H     -1.609870  -11.981250    0.415260
  H     -2.169180  -11.943680   -2.451440
  H     -3.512850  -13.402800   -0.281780
  H     -3.417210  -13.787270   -3.322560
  H     -5.536030  -13.560570    0.125570
  H    -10.101590  -17.639430    2.189810
  H     -8.812770  -18.497240    1.307700
  H    -10.039600  -17.554170    0.411550
  H     -8.028110  -17.757370   -0.795360
  H     -7.467250  -18.687780   -2.664480
  H     -7.746040  -20.507350   -4.389230
  H     -6.818390  -21.294970   -6.654040
  H     -5.638850  -21.554050   -8.669840
  H     -4.074790  -21.338450  -10.702190
  H     -2.171010  -19.733130  -11.642250
  H     -1.714650  -18.269600  -10.626710

 Total Charge           Charge          ....    0
 Multiplicity           Mult            ....    1
 Number of Electrons    NEL             ....  444
 Basis Dimension        Dim             ....  982

ORBITAL ENERGIES
----------------

  NO   OCC          E(Eh)            E(eV)
   0   2.0000     -88.964974     -2420.8600
   1   2.0000     -88.952083     -2420.5092
   2   2.0000     -88.945957     -2420.3425
   3   2.0000     -88.939123     -2420.1566
   4   2.0000     -88.931858     -2419.9589
   5   2.0000     -88.924262     -2419.7522
   6   2.0000     -24.783032      -674.3806
   7   2.0000     -24.780347      -674.3075
   8   2.0000     -19.249255      -523.7989
   9   2.0000     -14.436051      -392.8249
  10   2.0000     -14.384026      -391.4092
  11   2.0000     -10.364098      -282.0214
  12   2.0000     -10.361664      -281.9552
  13   2.0000     -10.340561      -281.3810
  14   2.0000     -10.322980      -280.9026
  15   2.0000     -10.319595      -280.8104
  16   2.0000     -10.313023      -280.6316
  17   2.0000     -10.311619      -280.5934
  18   2.0000     -10.311596      -280.5928
  19   2.0000     -10.310956      -280.5754
  20   2.0000     -10.308597      -280.5112
  21   2.0000     -10.307111      -280.4707
  22   2.0000     -10.306422      -280.4520
  23   2.0000     -10.305546      -280.4282
  24   2.0000     -10.296979      -280.1950
  25   2.0000     -10.295497      -280.1547
  26   2.0000     -10.293330      -280.0958
  27   2.0000     -10.293059      -280.0884
  28   2.0000     -10.292166      -280.0641
  29   2.0000     -10.291745      -280.0526
  30   2.0000     -10.291547      -280.0472
  31   2.0000     -10.290453      -280.0175
  32   2.0000     -10.290066      -280.0069
  33   2.0000     -10.288626      -279.9677
  34   2.0000     -10.288084      -279.9530
  35   2.0000     -10.287343      -279.9328
  36   2.0000     -10.286771      -279.9173
  37   2.0000     -10.286143      -279.9002
  38   2.0000     -10.285982      -279.8958
  39   2.0000     -10.285332      -279.8781
  40   2.0000     -10.284999      -279.8690
  41   2.0000     -10.282644      -279.8050
  42   2.0000     -10.281938      -279.7858
  43   2.0000     -10.280052      -279.7344
  44   2.0000     -10.276454      -279.6365
  45   2.0000     -10.276398      -279.6350
  46   2.0000     -10.275959      -279.6230
  47   2.0000     -10.273937      -279.5680
  48   2.0000     -10.272349      -279.5248
  49   2.0000     -10.271459      -279.5006
  50   2.0000     -10.271218      -279.4941
  51   2.0000     -10.270281      -279.4685
  52   2.0000     -10.269868      -279.4573
  53   2.0000     -10.268711      -279.4258
  54   2.0000     -10.268393      -279.4172
  55   2.0000     -10.263995      -279.2975
  56   2.0000     -10.255272      -279.0601
  57   2.0000      -8.060549      -219.3387
  58   2.0000      -8.047089      -218.9724
  59   2.0000      -8.041993      -218.8338
  60   2.0000      -8.035877      -218.6673
  61   2.0000      -8.027791      -218.4473
  62   2.0000      -8.020951      -218.2612
  63   2.0000      -6.029454      -164.0698
  64   2.0000      -6.025538      -163.9632
  65   2.0000      -6.023244      -163.9008
  66   2.0000      -6.016203      -163.7092
  67   2.0000      -6.012055      -163.5963
  68   2.0000      -6.011780      -163.5889
  69   2.0000      -6.009632      -163.5304
  70   2.0000      -6.007695      -163.4777
  71   2.0000      -6.005704      -163.4235
  72   2.0000      -6.002813      -163.3448
  73   2.0000      -6.001770      -163.3165
  74   2.0000      -5.997626      -163.2037
  75   2.0000      -5.996390      -163.1701
  76   2.0000      -5.993501      -163.0915
  77   2.0000      -5.990789      -163.0177
  78   2.0000      -5.988640      -162.9592
  79   2.0000      -5.986894      -162.9117
  80   2.0000      -5.981452      -162.7636
  81   2.0000      -1.303020       -35.4570
  82   2.0000      -1.288183       -35.0532
  83   2.0000      -1.154208       -31.4076
  84   2.0000      -1.037780       -28.2394
  85   2.0000      -1.001825       -27.2610
  86   2.0000      -0.992431       -27.0054
  87   2.0000      -0.990281       -26.9469
  88   2.0000      -0.977684       -26.6041
  89   2.0000      -0.970124       -26.3984
  90   2.0000      -0.970040       -26.3961
  91   2.0000      -0.955059       -25.9885
  92   2.0000      -0.940876       -25.6025
  93   2.0000      -0.929893       -25.3037
  94   2.0000      -0.923239       -25.1226
  95   2.0000      -0.904107       -24.6020
  96   2.0000      -0.892870       -24.2962
  97   2.0000      -0.880484       -23.9592
  98   2.0000      -0.868389       -23.6301
  99   2.0000      -0.861160       -23.4333
 100   2.0000      -0.850477       -23.1426
 101   2.0000      -0.848514       -23.0892
 102   2.0000      -0.844587       -22.9824
 103   2.0000      -0.842307       -22.9203
 104   2.0000      -0.836249       -22.7555
 105   2.0000      -0.833028       -22.6678
 106   2.0000      -0.830002       -22.5855
 107   2.0000      -0.822883       -22.3918
 108   2.0000      -0.811266       -22.0757
 109   2.0000      -0.807931       -21.9849
 110   2.0000      -0.798180       -21.7196
 111   2.0000      -0.785348       -21.3704
 112   2.0000      -0.784611       -21.3503
 113   2.0000      -0.777793       -21.1648
 114   2.0000      -0.757995       -20.6261
 115   2.0000      -0.747320       -20.3356
 116   2.0000      -0.732188       -19.9238
 117   2.0000      -0.724166       -19.7055
 118   2.0000      -0.722233       -19.6530
 119   2.0000      -0.714178       -19.4338
 120   2.0000      -0.703659       -19.1475
 121   2.0000      -0.694358       -18.8945
 122   2.0000      -0.686947       -18.6928
 123   2.0000      -0.673026       -18.3140
 124   2.0000      -0.667630       -18.1671
 125   2.0000      -0.663183       -18.0461
 126   2.0000      -0.658424       -17.9166
 127   2.0000      -0.650440       -17.6994
 128   2.0000      -0.638427       -17.3725
 129   2.0000      -0.631287       -17.1782
 130   2.0000      -0.626490       -17.0477
 131   2.0000      -0.620800       -16.8928
 132   2.0000      -0.616874       -16.7860
 133   2.0000      -0.614173       -16.7125
 134   2.0000      -0.610968       -16.6253
 135   2.0000      -0.604915       -16.4606
 136   2.0000      -0.601991       -16.3810
 137   2.0000      -0.599475       -16.3125
 138   2.0000      -0.597287       -16.2530
 139   2.0000      -0.592952       -16.1351
 140   2.0000      -0.589588       -16.0435
 141   2.0000      -0.585309       -15.9271
 142   2.0000      -0.581939       -15.8354
 143   2.0000      -0.572267       -15.5722
 144   2.0000      -0.568753       -15.4765
 145   2.0000      -0.566871       -15.4253
 146   2.0000      -0.564856       -15.3705
 147   2.0000      -0.556276       -15.1370
 148   2.0000      -0.554934       -15.1005
 149   2.0000      -0.545652       -14.8479
 150   2.0000      -0.538935       -14.6652
 151   2.0000      -0.536536       -14.5999
 152   2.0000      -0.534775       -14.5520
 153   2.0000      -0.530567       -14.4375
 154   2.0000      -0.527270       -14.3477
 155   2.0000      -0.526506       -14.3269
 156   2.0000      -0.522881       -14.2283
 157   2.0000      -0.517698       -14.0873
 158   2.0000      -0.512975       -13.9588
 159   2.0000      -0.509214       -13.8564
 160   2.0000      -0.503645       -13.7049
 161   2.0000      -0.500852       -13.6289
 162   2.0000      -0.500358       -13.6154
 163   2.0000      -0.497880       -13.5480
 164   2.0000      -0.496264       -13.5040
 165   2.0000      -0.493511       -13.4291
 166   2.0000      -0.492332       -13.3970
 167   2.0000      -0.489938       -13.3319
 168   2.0000      -0.487876       -13.2758
 169   2.0000      -0.486215       -13.2306
 170   2.0000      -0.482402       -13.1268
 171   2.0000      -0.480678       -13.0799
 172   2.0000      -0.479167       -13.0388
 173   2.0000      -0.477343       -12.9892
 174   2.0000      -0.476471       -12.9654
 175   2.0000      -0.467272       -12.7151
 176   2.0000      -0.466056       -12.6820
 177   2.0000      -0.461924       -12.5696
 178   2.0000      -0.460581       -12.5330
 179   2.0000      -0.458616       -12.4796
 180   2.0000      -0.453537       -12.3414
 181   2.0000      -0.452204       -12.3051
 182   2.0000      -0.450584       -12.2610
 183   2.0000      -0.445268       -12.1164
 184   2.0000      -0.443765       -12.0755
 185   2.0000      -0.435860       -11.8603
 186   2.0000      -0.433285       -11.7903
 187   2.0000      -0.429216       -11.6796
 188   2.0000      -0.424939       -11.5632
 189   2.0000      -0.423259       -11.5175
 190   2.0000      -0.422145       -11.4872
 191   2.0000      -0.421133       -11.4596
 192   2.0000      -0.417516       -11.3612
 193   2.0000      -0.417003       -11.3472
 194   2.0000      -0.416216       -11.3258
 195   2.0000      -0.412200       -11.2165
 196   2.0000      -0.411818       -11.2061
 197   2.0000      -0.408104       -11.1051
 198   2.0000      -0.406377       -11.0581
 199   2.0000      -0.398721       -10.8497
 200   2.0000      -0.398491       -10.8435
 201   2.0000      -0.389696       -10.6042
 202   2.0000      -0.389507       -10.5990
 203   2.0000      -0.384952       -10.4751
 204   2.0000      -0.376645       -10.2490
 205   2.0000      -0.370491       -10.0816
 206   2.0000      -0.365221        -9.9382
 207   2.0000      -0.356750        -9.7076
 208   2.0000      -0.338405        -9.2085
 209   2.0000      -0.333525        -9.0757
 210   2.0000      -0.324607        -8.8330
 211   2.0000      -0.320224        -8.7137
 212   2.0000      -0.318041        -8.6543
 213   2.0000      -0.310736        -8.4556
 214   2.0000      -0.306628        -8.3438
 215   2.0000      -0.306062        -8.3284
 216   2.0000      -0.297202        -8.0873
 217   2.0000      -0.285840        -7.7781
 218   2.0000      -0.258326        -7.0294
 219   2.0000      -0.245902        -6.6913
 220   2.0000      -0.209525        -5.7015
 221   2.0000      -0.188676        -5.1341
 222   0.0000      -0.079707        -2.1689
 223   0.0000      -0.061243        -1.6665
 224   0.0000      -0.036180        -0.9845
 225   0.0000      -0.024501        -0.6667
 226   0.0000       0.003105         0.0845

MULLIKEN ATOMIC CHARGES
-----------------------
   0 C :   -0.024975
   1 C :   -0.067440
   2 C :    0.053161
   3 C :    0.030446
   4 C :   -0.067335
   5 S :    0.084464
   6 C :   -0.056430
   7 C :    0.034653
   8 C :    0.028401
   9 C :   -0.028588
  10 S :    0.082661
  11 C :   -0.013097
  12 C :   -0.132882
  13 S :    0.152704
  14 C :   -0.130738
  15 C :    0.125644
  16 C :    0.126182
  17 C :   -0.113994
  18 C :    0.215975
  19 F :   -0.180645
  20 C :    0.227026
  21 F :   -0.181778
  22 C :   -0.123228
  23 C :    0.063937
  24 C :   -0.023875
  25 C :    0.019328
  26 C :   -0.256678
  27 C :    0.088897
  28 C :    0.248203
  29 N :   -0.182131
  30 C :    0.054604
  31 C :   -0.002385
  32 C :   -0.096494
  33 S :    0.126565
  34 C :   -0.115814
  35 C :    0.152776
  36 C :    0.106666
  37 C :   -0.050074
  38 C :   -0.159695
  39 C :   -0.143141
  40 N :    0.105336
  41 C :    0.269855
  42 O :   -0.293032
  43 C :    0.180603
  44 C :   -0.188098
  45 C :   -0.015789
  46 C :   -0.046158
  47 C :    0.025978
  48 C :    0.023286
  49 C :   -0.033145
  50 S :    0.052648
  51 C :   -0.073839
  52 C :    0.027318
  53 C :    0.045183
  54 C :   -0.061214
  55 S :    0.067815
  56 C :   -0.037289
  57 H :    0.021158
  58 H :    0.024061
  59 H :   -0.010458
  60 H :   -0.012040
  61 H :   -0.013974
  62 H :   -0.011451
  63 H :   -0.008954
  64 H :   -0.002220
  65 H :   -0.021587
  66 H :   -0.019826
  67 H :   -0.016410
  68 H :   -0.027324
  69 H :    0.032808
  70 H :    0.018295
  71 H :    0.035001
  72 H :    0.005667
  73 H :    0.020936
  74 H :    0.124167
  75 H :    0.016453
  76 H :   -0.025242
  77 H :   -0.026127
  78 H :    0.044677
  79 H :    0.023653
  80 H :    0.024551
  81 H :   -0.045722
  82 H :   -0.025535
  83 H :   -0.020168
  84 H :   -0.022180
  85 H :   -0.015416
  86 H :   -0.016330
  87 H :    0.013504
  88 H :    0.015704
Sum of atomic charges:   -0.0000000

LOEWDIN ATOMIC CHARGES
----------------------
   0 C :   -0.072396
   1 C :   -0.139912
   2 C :   -0.029034
   3 C :   -0.027011
   4 C :   -0.174757
   5 S :    0.354814
   6 C :   -0.184174
   7 C :   -0.033369
   8 C :   -0.035042
   9 C :   -0.148357
  10 S :    0.389473
  11 C :   -0.090276
  12 C :   -0.173845
  13 S :    0.477459
  14 C :   -0.181390
  15 C :   -0.041737
  16 C :   -0.051364
  17 C :   -0.042315
  18 C :    0.058278
  19 F :   -0.058090
  20 C :    0.064466
  21 F :   -0.060086
  22 C :   -0.044727
  23 C :   -0.039014
  24 C :   -0.037996
  25 C :   -0.039245
  26 C :   -0.049450
  27 C :   -0.056742
  28 C :    0.046695
  29 N :   -0.009394
  30 C :    0.048464
  31 C :   -0.139486
  32 C :   -0.142172
  33 S :    0.461721
  34 C :   -0.207287
  35 C :   -0.021990
  36 C :   -0.078093
  37 C :    0.034412
  38 C :   -0.098041
  39 C :   -0.028476
  40 N :   -0.071232
  41 C :    0.071344
  42 O :   -0.088083
  43 C :    0.078187
  44 C :   -0.081553
  45 C :   -0.067225
  46 C :   -0.171508
  47 C :   -0.033105
  48 C :   -0.050013
  49 C :   -0.176168
  50 S :    0.354855
  51 C :   -0.187692
  52 C :   -0.026905
  53 C :   -0.041567
  54 C :   -0.137932
  55 S :    0.341504
  56 C :   -0.090489
  57 H :    0.029265
  58 H :    0.027366
  59 H :    0.033918
  60 H :    0.032307
  61 H :    0.031685
  62 H :    0.033029
  63 H :    0.034224
  64 H :    0.028191
  65 H :    0.036910
  66 H :    0.027492
  67 H :    0.022380
  68 H :    0.025525
  69 H :    0.035054
  70 H :    0.030179
  71 H :    0.039869
  72 H :    0.018590
  73 H :    0.029494
  74 H :    0.079765
  75 H :    0.028693
  76 H :    0.024108
  77 H :    0.033806
  78 H :    0.032477
  79 H :    0.016198
  80 H :    0.016393
  81 H :    0.026166
  82 H :    0.034935
  83 H :    0.029984
  84 H :    0.028263
  85 H :    0.030727
  86 H :    0.030881
  87 H :    0.025820
  88 H :    0.023374

  Mayer bond orders larger than 0.100000
B(  0-C ,  1-C ) :   1.8652 B(  0-C , 57-H ) :   0.9505 B(  0-C , 58-H ) :   0.9410
B(  1-C ,  2-C ) :   1.0803 B(  1-C ,  5-S ) :   1.0065 B(  2-C ,  3-C ) :   1.6611
B(  2-C , 59-H ) :   0.9928 B(  3-C ,  4-C ) :   1.1532 B(  3-C , 60-H ) :   0.9920
B(  4-C ,  5-S ) :   1.0490 B(  4-C ,  6-C ) :   1.5544 B(  6-C ,  7-C ) :   1.1706
B(  6-C , 10-S ) :   1.0315 B(  7-C ,  8-C ) :   1.6035 B(  7-C , 61-H ) :   0.9921
B(  8-C ,  9-C ) :   1.1378 B(  8-C , 62-H ) :   0.9983 B(  9-C , 10-S ) :   1.0323
B(  9-C , 11-C ) :   1.6109 B( 11-C , 12-C ) :   1.1638 B( 11-C , 63-H ) :   0.9418
B( 12-C , 13-S ) :   1.1583 B( 12-C , 14-C ) :   0.1083 B( 12-C , 16-C ) :   1.3213
B( 13-S , 14-C ) :   1.1479 B( 14-C , 15-C ) :   1.3412 B( 14-C , 23-C ) :   1.1395
B( 15-C , 16-C ) :   1.2143 B( 15-C , 22-C ) :   1.1641 B( 16-C , 17-C ) :   1.1700
B( 17-C , 18-C ) :   1.5113 B( 17-C , 22-C ) :   0.1093 B( 17-C , 64-H ) :   0.9793
B( 18-C , 19-F ) :   1.1237 B( 18-C , 20-C ) :   1.1609 B( 20-C , 21-F ) :   1.1294
B( 20-C , 22-C ) :   1.4990 B( 22-C , 65-H ) :   0.9985 B( 23-C , 24-C ) :   1.6714
B( 23-C , 66-H ) :   0.9511 B( 24-C , 25-C ) :   1.1269 B( 24-C , 67-H ) :   0.9673
B( 25-C , 26-C ) :   1.7549 B( 25-C , 68-H ) :   0.9758 B( 26-C , 27-C ) :   1.0668
B( 26-C , 28-C ) :   1.0553 B( 27-C , 69-H ) :   0.9471 B( 27-C , 70-H ) :   0.9508
B( 27-C , 71-H ) :   0.9470 B( 28-C , 29-N ) :   0.9582 B( 28-C , 72-H ) :   0.9383
B( 28-C , 73-H ) :   0.9250 B( 29-N , 30-C ) :   1.2388 B( 29-N , 74-H ) :   0.9396
B( 30-C , 31-C ) :   1.5913 B( 30-C , 75-H ) :   0.9669 B( 31-C , 32-C ) :   1.1890
B( 31-C , 76-H ) :   0.9405 B( 32-C , 33-S ) :   1.1778 B( 32-C , 36-C ) :   1.2913
B( 33-S , 34-C ) :   1.0713 B( 34-C , 35-C ) :   1.3201 B( 34-C , 45-C ) :   1.2354
B( 35-C , 36-C ) :   1.2064 B( 35-C , 44-C ) :   1.1846 B( 36-C , 37-C ) :   1.1854
B( 37-C , 38-C ) :   1.5542 B( 37-C , 77-H ) :   0.9919 B( 38-C , 39-C ) :   1.0603
B( 38-C , 41-C ) :   1.2067 B( 39-C , 40-N ) :   3.0435 B( 41-C , 42-O ) :   1.2128
B( 41-C , 44-C ) :   1.4327 B( 42-O , 43-C ) :   0.9610 B( 43-C , 78-H ) :   0.9778
B( 43-C , 79-H ) :   0.9679 B( 43-C , 80-H ) :   0.9680 B( 44-C , 81-H ) :   0.9934
B( 45-C , 46-C ) :   1.5534 B( 45-C , 82-H ) :   0.9580 B( 46-C , 47-C ) :   1.1552
B( 46-C , 50-S ) :   1.0206 B( 47-C , 48-C ) :   1.5886 B( 47-C , 83-H ) :   0.9984
B( 48-C , 49-C ) :   1.1777 B( 48-C , 84-H ) :   0.9918 B( 49-C , 50-S ) :   1.0370
B( 49-C , 51-C ) :   1.5487 B( 51-C , 52-C ) :   1.1616 B( 51-C , 55-S ) :   1.0343
B( 52-C , 53-C ) :   1.6517 B( 52-C , 85-H ) :   0.9915 B( 53-C , 54-C ) :   1.0833
B( 53-C , 86-H ) :   0.9926 B( 54-C , 55-S ) :   1.0106 B( 54-C , 56-C ) :   1.8580
B( 56-C , 87-H ) :   0.9499 B( 56-C , 88-H ) :   0.9420

-----------------------------------------------------------------------------
         ABSORPTION SPECTRUM VIA TRANSITION ELECTRIC DIPOLE MOMENTS
-----------------------------------------------------------------------------
State   Energy  Wavelength   fosc         T2         TX        TY        TZ
        (cm-1)    (nm)                  (au**2)     (au)      (au)      (au)
-----------------------------------------------------------------------------
   0   14133.4    707.5   0.988044593  23.01463   1.06380   4.37108   1.66633
   1   15053.4    664.3   1.360526445  29.75417  -2.10413  -1.52510   4.79592
   2   16266.5    614.8   0.001328943   0.02690   0.05229   0.03257  -0.15199
   3   19864.1    503.4   0.312820424   5.18444   1.10817  -0.36691  -1.95493
   4   21642.8    462.0   0.078907059   1.20027   0.33953   0.59332  -0.85613
   5   24914.4    401.4   0.276052587   3.64768   1.39604   0.77513  -1.04782
   6   25058.9    399.1   0.168194504   2.20966  -1.07946  -0.71699   0.72825
   7   25608.5    390.5   0.389038305   5.00132  -0.72354   1.25586   1.70312
   8   25949.7    385.4   0.007097782   0.09005   0.09779  -0.17544  -0.22294
   9   28585.8    349.8   0.000976795   0.01125   0.08778   0.01158  -0.05840
  10   29231.7    342.1   0.232432803   2.61769   1.13352   1.01262  -0.55445
  11   29409.4    340.0   0.102898257   1.15185  -0.50183  -0.94851   0.01879
  12   29659.0    337.2   0.046547103   0.51667   0.64066   0.14993  -0.28938
  13   31501.9    317.4   0.040473655   0.42297  -0.39338  -0.51781   0.01012
  14   31833.4    314.1   0.111653661   1.15469   0.48567   0.90064   0.32812
  15   32686.1    305.9   0.000605829   0.00610   0.00784  -0.05381  -0.05608
  16   32976.0    303.3   0.003793848   0.03788  -0.12699  -0.03833   0.14241
  17   33162.1    301.5   0.142612813   1.41577   1.05859  -0.27217  -0.47019
  18   33194.2    301.3   0.058007507   0.57530   0.62253   0.08676  -0.42454
  19   33249.1    300.8   0.296641914   2.93716  -1.54954  -0.37372   0.62963
  20   33744.4    296.3   0.025739458   0.25112   0.49898   0.02408   0.03946
  21   34126.5    293.0   0.030559087   0.29480   0.34088   0.13627  -0.40004
  22   34492.4    289.9   0.079306743   0.75694   0.62000  -0.60498  -0.08089
  23   34936.0    286.2   0.187035547   1.76249  -0.97593  -0.83773   0.32903
  24   35286.9    283.4   0.014602611   0.13624  -0.02925  -0.36647  -0.03284
  25   35519.6    281.5   0.105441743   0.97728  -0.80173  -0.21319   0.53764
  26   35645.9    280.5   0.025180481   0.23256  -0.34163  -0.18288   0.28705
  27   36750.3    272.1   0.000296108   0.00265   0.00452  -0.05006  -0.01123
  28   37057.3    269.9   0.013641665   0.12119  -0.27901  -0.18777   0.08994
  29   38067.4    262.7   0.139084682   1.20282  -0.53944  -0.50232   0.81210
  30   38446.9    260.1   0.000254471   0.00218   0.02992   0.01572  -0.03220
  31   38546.1    259.4   0.029861464   0.25504   0.29796  -0.06212  -0.40299
  32   38820.4    257.6   0.000073391   0.00062  -0.00729   0.00305  -0.02366
  33   39137.4    255.5   0.215566656   1.81328   0.28630  -0.59428  -1.17394
  34   39418.6    253.7   0.000383744   0.00320  -0.04854  -0.00961  -0.02750
  35   39511.3    253.1   0.090429037   0.75346   0.20337   0.72173   0.43728
  36   39924.6    250.5   0.131006502   1.08026   0.73594  -0.62948  -0.37736

FINAL SINGLE POINT ENERGY     -4542.102546230556

DIPOLE MOMENT
-------------
                                X             Y             Z
Electronic contribution:     28.65133      27.23181      -1.11564
Nuclear contribution   :    -28.38729     -25.85975      -0.16516
                        -----------------------------------------
Total Dipole Moment    :      0.26403       1.37206      -1.28081
                        -----------------------------------------
Magnitude (a.u.)       :      1.89545
Magnitude (Debye)      :      4.81784

Rotational constants in cm-1:     0.001382     0.000278     0.000243
Rotational constants in MHz :    41.444757     8.336735     7.292356

                             ****ORCA TERMINATED NORMALLY****
TOTAL RUN TIME: 0 days 0 hours 6 minutes 5 seconds 64 msec
