                         Program Version 4.2.0 -  RELEASE  -
|  1> # ORCA input file
|  2> # SCF done       -152.416880071057          0.000165438538
|  3> ! CAM-B3LYP def2-SVP def2/J RIJCOSX Grid4 TightSCF
|  4> %maxcore 5000
|  5> %tddft
|  6>     Mode sTDDFT
|  7>     Ethresh 5.0
|  8>     maxcore 5000
|  9> end
| 10>
| 11> %pal
| 12>   nprocs 6
| 13>   end
| 14> * xyz 0 1
| 15>    C       -3.41790        -9.13112         6.10661
| 16>    C       -2.12344        -8.97035         5.80279
| 17>    C       -1.04837        -8.61819         6.68696
| 18>    C        0.16043        -8.52660         6.09210
| 19>    C        0.14402        -8.80184         4.69416
| 20>    S       -1.48116        -9.18167         4.16481
| 21>    C        1.21929        -8.79954         3.83870
| 22>    C        2.56413        -8.48120         4.14901
| 23>    C        3.42037        -8.59534         3.10059
| 24>    C        2.81517        -9.03213         1.89325
| 25>    S        1.08695        -9.24337         2.14614
| 26>    C        3.37437        -9.35494         0.68313
| 27>    C        4.72730        -9.28707         0.31302
| 28>    C        5.31314        -9.86700        -0.80180
| 29>    S        4.65256       -10.80130        -2.10331
| 30>    C        6.25902       -10.98857        -2.79433
| 31>    C        6.41252       -11.76125        -4.05257
| 32>    C        7.22371       -10.38214        -2.06591
| 33>    C        6.71840        -9.72923        -0.90470
| 34>    C        7.26344        -8.98449         0.13773
| 35>    S        5.98182        -8.47639         1.21956
| 36>    C        8.62835        -8.68652         0.38803
| 37>    S        9.87448        -9.64435        -0.36878
| 38>    C       11.12224        -8.71370         0.35928
| 39>    C       10.62615        -7.72643         1.14360
| 40>    C        9.21321        -7.70600         1.17776
| 41>    N        8.51188        -6.69902         1.87412
| 42>    C        8.50741        -5.37958         1.27117
| 43>    C        7.44494        -5.26247         0.18218
| 44>    C        7.79749        -7.00609         2.96329
| 45>    C        6.87085        -6.23477         3.65485
| 46>    S        6.19937        -4.63764         3.45791
| 47>    C        5.12508        -4.89866         4.80929
| 48>    C        4.18815        -3.82145         5.21329
| 49>    C        5.27588        -6.12690         5.36881
| 50>    C        6.26493        -6.90940         4.72599
| 51>    C        6.71778        -8.23654         4.89280
| 52>    S        7.98238        -8.58405         3.70581
| 53>    C        6.14506        -9.11048         5.78930
| 54>    C        6.42490       -10.44898         6.02648
| 55>    C        5.70909       -11.31565         6.91637
| 56>    C        4.54654       -11.03545         7.60471
| 57>    C        3.90029       -11.93988         8.46738
| 58>    N        3.32749       -12.62693         9.18900
| 59>    C        3.82942        -9.83146         7.52492
| 60>    N        3.17824        -8.88158         7.49865
| 61>    C        6.40844       -12.60085         6.93040
| 62>    C        7.50384       -12.52560         6.03417
| 63>    C        7.53277       -11.17484         5.43629
| 64>    O        8.34764       -10.76295         4.61889
| 65>    C        8.35480       -13.57831         5.81432
| 66>    C        8.11603       -14.76693         6.51605
| 67>    C        7.02426       -14.83149         7.40995
| 68>    C        6.15991       -13.76358         7.63054
| 69>    S        6.91401       -16.38934         8.17325
| 70>    C        8.31794       -16.92487         7.28954
| 71>    C        8.84377       -15.98779         6.46631
| 72>   Br        8.95777       -18.67158         7.53678
| 73>    H       -3.76554        -8.99340         7.11533
| 74>    H       -4.14487        -9.40208         5.36306
| 75>    H       -1.23203        -8.45511         7.73400
| 76>    H        1.07591        -8.29751         6.60781
| 77>    H        2.85801        -8.19133         5.14131
| 78>    H        4.47476        -8.40379         3.17276
| 79>    H        2.71985        -9.76642        -0.07527
| 80>    H        5.81252       -11.31971        -4.84788
| 81>    H        6.07306       -12.78743        -3.91284
| 82>    H        7.45539       -11.77335        -4.35954
| 83>    H        8.26178       -10.39376        -2.34281
| 84>    H       12.14541        -8.96162         0.16329
| 85>    H       11.23207        -7.03347         1.69925
| 86>    H        9.49808        -5.21086         0.83976
| 87>    H        8.33514        -4.63522         2.05064
| 88>    H        6.45609        -5.43836         0.59741
| 89>    H        7.62701        -5.99224        -0.60349
| 90>    H        7.47035        -4.26725        -0.25168
| 91>    H        4.73474        -2.91680         5.47926
| 92>    H        3.59782        -4.14219         6.06781
| 93>    H        3.51541        -3.57316         4.39255
| 94>    H        4.69670        -6.45818         6.21179
| 95>    H        5.35460        -8.67127         6.38237
| 96>    H        9.17935       -13.49280         5.12401
| 97>    H        5.34121       -13.86269         8.32362
| 98>    H        9.70857       -16.14833         5.84863
| 99> *
|100>
|101>                          ****END OF INPUT****

CARTESIAN COORDINATES (ANGSTROEM)
---------------------------------
  C     -3.417900   -9.131120    6.106610
  C     -2.123440   -8.970350    5.802790
  C     -1.048370   -8.618190    6.686960
  C      0.160430   -8.526600    6.092100
  C      0.144020   -8.801840    4.694160
  S     -1.481160   -9.181670    4.164810
  C      1.219290   -8.799540    3.838700
  C      2.564130   -8.481200    4.149010
  C      3.420370   -8.595340    3.100590
  C      2.815170   -9.032130    1.893250
  S      1.086950   -9.243370    2.146140
  C      3.374370   -9.354940    0.683130
  C      4.727300   -9.287070    0.313020
  C      5.313140   -9.867000   -0.801800
  S      4.652560  -10.801300   -2.103310
  C      6.259020  -10.988570   -2.794330
  C      6.412520  -11.761250   -4.052570
  C      7.223710  -10.382140   -2.065910
  C      6.718400   -9.729230   -0.904700
  C      7.263440   -8.984490    0.137730
  S      5.981820   -8.476390    1.219560
  C      8.628350   -8.686520    0.388030
  S      9.874480   -9.644350   -0.368780
  C     11.122240   -8.713700    0.359280
  C     10.626150   -7.726430    1.143600
  C      9.213210   -7.706000    1.177760
  N      8.511880   -6.699020    1.874120
  C      8.507410   -5.379580    1.271170
  C      7.444940   -5.262470    0.182180
  C      7.797490   -7.006090    2.963290
  C      6.870850   -6.234770    3.654850
  S      6.199370   -4.637640    3.457910
  C      5.125080   -4.898660    4.809290
  C      4.188150   -3.821450    5.213290
  C      5.275880   -6.126900    5.368810
  C      6.264930   -6.909400    4.725990
  C      6.717780   -8.236540    4.892800
  S      7.982380   -8.584050    3.705810
  C      6.145060   -9.110480    5.789300
  C      6.424900  -10.448980    6.026480
  C      5.709090  -11.315650    6.916370
  C      4.546540  -11.035450    7.604710
  C      3.900290  -11.939880    8.467380
  N      3.327490  -12.626930    9.189000
  C      3.829420   -9.831460    7.524920
  N      3.178240   -8.881580    7.498650
  C      6.408440  -12.600850    6.930400
  C      7.503840  -12.525600    6.034170
  C      7.532770  -11.174840    5.436290
  O      8.347640  -10.762950    4.618890
  C      8.354800  -13.578310    5.814320
  C      8.116030  -14.766930    6.516050
  C      7.024260  -14.831490    7.409950
  C      6.159910  -13.763580    7.630540
  S      6.914010  -16.389340    8.173250
  C      8.317940  -16.924870    7.289540
  C      8.843770  -15.987790    6.466310
  Br     8.957770  -18.671580    7.536780
  H     -3.765540   -8.993400    7.115330
  H     -4.144870   -9.402080    5.363060
  H     -1.232030   -8.455110    7.734000
  H      1.075910   -8.297510    6.607810
  H      2.858010   -8.191330    5.141310
  H      4.474760   -8.403790    3.172760
  H      2.719850   -9.766420   -0.075270
  H      5.812520  -11.319710   -4.847880
  H      6.073060  -12.787430   -3.912840
  H      7.455390  -11.773350   -4.359540
  H      8.261780  -10.393760   -2.342810
  H     12.145410   -8.961620    0.163290
  H     11.232070   -7.033470    1.699250
  H      9.498080   -5.210860    0.839760
  H      8.335140   -4.635220    2.050640
  H      6.456090   -5.438360    0.597410
  H      7.627010   -5.992240   -0.603490
  H      7.470350   -4.267250   -0.251680
  H      4.734740   -2.916800    5.479260
  H      3.597820   -4.142190    6.067810
  H      3.515410   -3.573160    4.392550
  H      4.696700   -6.458180    6.211790
  H      5.354600   -8.671270    6.382370
  H      9.179350  -13.492800    5.124010
  H      5.341210  -13.862690    8.323620
  H      9.708570  -16.148330    5.848630

 Total Charge           Charge          ....    0
 Multiplicity           Mult            ....    1
 Number of Electrons    NEL             ....  488
 Basis Dimension        Dim             ....  992

ORBITAL ENERGIES
----------------

  NO   OCC          E(Eh)            E(eV)
   0   2.0000    -482.875162    -13139.7012
   1   2.0000     -88.962944     -2420.8048
   2   2.0000     -88.962297     -2420.7872
   3   2.0000     -88.961909     -2420.7766
   4   2.0000     -88.955734     -2420.6086
   5   2.0000     -88.955583     -2420.6045
   6   2.0000     -88.941678     -2420.2261
   7   2.0000     -88.930465     -2419.9210
   8   2.0000     -88.928606     -2419.8704
   9   2.0000     -62.552863     -1702.1499
  10   2.0000     -56.386797     -1534.3628
  11   2.0000     -56.384115     -1534.2898
  12   2.0000     -56.384071     -1534.2886
  13   2.0000     -19.200187      -522.4636
  14   2.0000     -14.471616      -393.7927
  15   2.0000     -14.408375      -392.0718
  16   2.0000     -14.393499      -391.6670
  17   2.0000     -10.359996      -281.9098
  18   2.0000     -10.347746      -281.5765
  19   2.0000     -10.345817      -281.5240
  20   2.0000     -10.322130      -280.8794
  21   2.0000     -10.322128      -280.8794
  22   2.0000     -10.320433      -280.8333
  23   2.0000     -10.317792      -280.7614
  24   2.0000     -10.316250      -280.7194
  25   2.0000     -10.315405      -280.6964
  26   2.0000     -10.315114      -280.6885
  27   2.0000     -10.309781      -280.5434
  28   2.0000     -10.303429      -280.3706
  29   2.0000     -10.302645      -280.3492
  30   2.0000     -10.302022      -280.3323
  31   2.0000     -10.301734      -280.3244
  32   2.0000     -10.301148      -280.3085
  33   2.0000     -10.300790      -280.2988
  34   2.0000     -10.300483      -280.2904
  35   2.0000     -10.299677      -280.2685
  36   2.0000     -10.299042      -280.2512
  37   2.0000     -10.298647      -280.2404
  38   2.0000     -10.297319      -280.2043
  39   2.0000     -10.295867      -280.1648
  40   2.0000     -10.295384      -280.1517
  41   2.0000     -10.292038      -280.0606
  42   2.0000     -10.290318      -280.0138
  43   2.0000     -10.289192      -279.9831
  44   2.0000     -10.289103      -279.9807
  45   2.0000     -10.285445      -279.8812
  46   2.0000     -10.284976      -279.8684
  47   2.0000     -10.284504      -279.8556
  48   2.0000     -10.281045      -279.7615
  49   2.0000     -10.280880      -279.7570
  50   2.0000     -10.279902      -279.7304
  51   2.0000     -10.276035      -279.6251
  52   2.0000     -10.275978      -279.6236
  53   2.0000     -10.275307      -279.6053
  54   2.0000     -10.274105      -279.5726
  55   2.0000     -10.270877      -279.4848
  56   2.0000     -10.270093      -279.4634
  57   2.0000     -10.268483      -279.4196
  58   2.0000     -10.267881      -279.4033
  59   2.0000     -10.265969      -279.3512
  60   2.0000     -10.265792      -279.3464
  61   2.0000     -10.260852      -279.2120
  62   2.0000      -8.782276      -238.9779
  63   2.0000      -8.058340      -219.2786
  64   2.0000      -8.058030      -219.2701
  65   2.0000      -8.057412      -219.2533
  66   2.0000      -8.048695      -219.0161
  67   2.0000      -8.047883      -218.9940
  68   2.0000      -8.037821      -218.7202
  69   2.0000      -8.026971      -218.4250
  70   2.0000      -8.025308      -218.3797
  71   2.0000      -6.618507      -180.0987
  72   2.0000      -6.604027      -179.7047
  73   2.0000      -6.603880      -179.7007
  74   2.0000      -6.028035      -164.0312
  75   2.0000      -6.027779      -164.0242
  76   2.0000      -6.026851      -163.9990
  77   2.0000      -6.023759      -163.9148
  78   2.0000      -6.023427      -163.9058
  79   2.0000      -6.022422      -163.8784
  80   2.0000      -6.019553      -163.8004
  81   2.0000      -6.019518      -163.7994
  82   2.0000      -6.019504      -163.7990
  83   2.0000      -6.018286      -163.7659
  84   2.0000      -6.018214      -163.7639
  85   2.0000      -6.013993      -163.6491
  86   2.0000      -6.013128      -163.6255
  87   2.0000      -6.010741      -163.5606
  88   2.0000      -6.008791      -163.5075
  89   2.0000      -6.007580      -163.4746
  90   2.0000      -6.003391      -163.3606
  91   2.0000      -5.998923      -163.2390
  92   2.0000      -5.996768      -163.1804
  93   2.0000      -5.995073      -163.1342
  94   2.0000      -5.992845      -163.0736
  95   2.0000      -5.991228      -163.0296
  96   2.0000      -5.987612      -162.9312
  97   2.0000      -5.985910      -162.8849
  98   2.0000      -2.734393       -74.4066
  99   2.0000      -2.730312       -74.2956
 100   2.0000      -2.730213       -74.2929
 101   2.0000      -2.718700       -73.9796
 102   2.0000      -2.718687       -73.9792
 103   2.0000      -1.113531       -30.3007
 104   2.0000      -1.090905       -29.6850
 105   2.0000      -1.008105       -27.4319
 106   2.0000      -1.006877       -27.3985
 107   2.0000      -1.001193       -27.2439
 108   2.0000      -1.000593       -27.2275
 109   2.0000      -0.981222       -26.7004
 110   2.0000      -0.980397       -26.6779
 111   2.0000      -0.979075       -26.6420
 112   2.0000      -0.972014       -26.4499
 113   2.0000      -0.957674       -26.0596
 114   2.0000      -0.948757       -25.8170
 115   2.0000      -0.938460       -25.5368
 116   2.0000      -0.926624       -25.2147
 117   2.0000      -0.894182       -24.3319
 118   2.0000      -0.891344       -24.2547
 119   2.0000      -0.889801       -24.2127
 120   2.0000      -0.870768       -23.6948
 121   2.0000      -0.870563       -23.6892
 122   2.0000      -0.864924       -23.5358
 123   2.0000      -0.864550       -23.5256
 124   2.0000      -0.848978       -23.1019
 125   2.0000      -0.845666       -23.0117
 126   2.0000      -0.836343       -22.7580
 127   2.0000      -0.833842       -22.6900
 128   2.0000      -0.831044       -22.6139
 129   2.0000      -0.825489       -22.4627
 130   2.0000      -0.822595       -22.3839
 131   2.0000      -0.814598       -22.1664
 132   2.0000      -0.806816       -21.9546
 133   2.0000      -0.789441       -21.4818
 134   2.0000      -0.782858       -21.3027
 135   2.0000      -0.781430       -21.2638
 136   2.0000      -0.767643       -20.8886
 137   2.0000      -0.754243       -20.5240
 138   2.0000      -0.748190       -20.3593
 139   2.0000      -0.742726       -20.2106
 140   2.0000      -0.724861       -19.7245
 141   2.0000      -0.716567       -19.4988
 142   2.0000      -0.702748       -19.1227
 143   2.0000      -0.680217       -18.5096
 144   2.0000      -0.675385       -18.3782
 145   2.0000      -0.674370       -18.3505
 146   2.0000      -0.667479       -18.1630
 147   2.0000      -0.662429       -18.0256
 148   2.0000      -0.654659       -17.8142
 149   2.0000      -0.645036       -17.5523
 150   2.0000      -0.641634       -17.4597
 151   2.0000      -0.631409       -17.1815
 152   2.0000      -0.628583       -17.1046
 153   2.0000      -0.623893       -16.9770
 154   2.0000      -0.620539       -16.8857
 155   2.0000      -0.614145       -16.7117
 156   2.0000      -0.607274       -16.5248
 157   2.0000      -0.606711       -16.5094
 158   2.0000      -0.597727       -16.2650
 159   2.0000      -0.593331       -16.1454
 160   2.0000      -0.585640       -15.9361
 161   2.0000      -0.583398       -15.8751
 162   2.0000      -0.580214       -15.7884
 163   2.0000      -0.575833       -15.6692
 164   2.0000      -0.561312       -15.2741
 165   2.0000      -0.549695       -14.9580
 166   2.0000      -0.546057       -14.8590
 167   2.0000      -0.543974       -14.8023
 168   2.0000      -0.541865       -14.7449
 169   2.0000      -0.533075       -14.5057
 170   2.0000      -0.528322       -14.3764
 171   2.0000      -0.523961       -14.2577
 172   2.0000      -0.522852       -14.2275
 173   2.0000      -0.522430       -14.2160
 174   2.0000      -0.519792       -14.1442
 175   2.0000      -0.517245       -14.0749
 176   2.0000      -0.515812       -14.0360
 177   2.0000      -0.511102       -13.9078
 178   2.0000      -0.507763       -13.8169
 179   2.0000      -0.506446       -13.7811
 180   2.0000      -0.504459       -13.7270
 181   2.0000      -0.497178       -13.5289
 182   2.0000      -0.495311       -13.4781
 183   2.0000      -0.494653       -13.4602
 184   2.0000      -0.493720       -13.4348
 185   2.0000      -0.491724       -13.3805
 186   2.0000      -0.489120       -13.3096
 187   2.0000      -0.483322       -13.1519
 188   2.0000      -0.482494       -13.1293
 189   2.0000      -0.481625       -13.1057
 190   2.0000      -0.478724       -13.0267
 191   2.0000      -0.476705       -12.9718
 192   2.0000      -0.474268       -12.9055
 193   2.0000      -0.471834       -12.8393
 194   2.0000      -0.469846       -12.7852
 195   2.0000      -0.468281       -12.7426
 196   2.0000      -0.465441       -12.6653
 197   2.0000      -0.458447       -12.4750
 198   2.0000      -0.453747       -12.3471
 199   2.0000      -0.450448       -12.2573
 200   2.0000      -0.450112       -12.2482
 201   2.0000      -0.448490       -12.2040
 202   2.0000      -0.445887       -12.1332
 203   2.0000      -0.444843       -12.1048
 204   2.0000      -0.443151       -12.0588
 205   2.0000      -0.436054       -11.8656
 206   2.0000      -0.433628       -11.7996
 207   2.0000      -0.427827       -11.6418
 208   2.0000      -0.427111       -11.6223
 209   2.0000      -0.425718       -11.5844
 210   2.0000      -0.424579       -11.5534
 211   2.0000      -0.420794       -11.4504
 212   2.0000      -0.417506       -11.3609
 213   2.0000      -0.416698       -11.3389
 214   2.0000      -0.413576       -11.2540
 215   2.0000      -0.411647       -11.2015
 216   2.0000      -0.409360       -11.1392
 217   2.0000      -0.406850       -11.0710
 218   2.0000      -0.403940       -10.9918
 219   2.0000      -0.395876       -10.7723
 220   2.0000      -0.394078       -10.7234
 221   2.0000      -0.392406       -10.6779
 222   2.0000      -0.390663       -10.6305
 223   2.0000      -0.387901       -10.5553
 224   2.0000      -0.383414       -10.4332
 225   2.0000      -0.372809       -10.1447
 226   2.0000      -0.364809        -9.9270
 227   2.0000      -0.359941        -9.7945
 228   2.0000      -0.355163        -9.6645
 229   2.0000      -0.339337        -9.2338
 230   2.0000      -0.327046        -8.8994
 231   2.0000      -0.323756        -8.8099
 232   2.0000      -0.319767        -8.7013
 233   2.0000      -0.318601        -8.6696
 234   2.0000      -0.316628        -8.6159
 235   2.0000      -0.314150        -8.5485
 236   2.0000      -0.307786        -8.3753
 237   2.0000      -0.302761        -8.2386
 238   2.0000      -0.300463        -8.1760
 239   2.0000      -0.287298        -7.8178
 240   2.0000      -0.280460        -7.6317
 241   2.0000      -0.254978        -6.9383
 242   2.0000      -0.235586        -6.4106
 243   2.0000      -0.201400        -5.4804
 244   0.0000      -0.072516        -1.9733
 245   0.0000      -0.064606        -1.7580
 246   0.0000      -0.044255        -1.2042
 247   0.0000      -0.017959        -0.4887
 248   0.0000      -0.004168        -0.1134

MULLIKEN ATOMIC CHARGES
-----------------------
   0 C :   -0.027020
   1 C :   -0.065338
   2 C :    0.050136
   3 C :    0.037648
   4 C :   -0.064510
   5 S :    0.076640
   6 C :   -0.051293
   7 C :    0.034368
   8 C :    0.018909
   9 C :   -0.055931
  10 S :    0.080603
  11 C :   -0.000424
  12 C :   -0.089026
  13 C :   -0.043290
  14 S :    0.102063
  15 C :   -0.201162
  16 C :    0.115981
  17 C :   -0.012203
  18 C :    0.097292
  19 C :   -0.097932
  20 S :    0.072540
  21 C :   -0.093158
  22 S :    0.124893
  23 C :   -0.051137
  24 C :    0.040044
  25 C :    0.034156
  26 N :   -0.206567
  27 C :    0.104206
  28 C :    0.001521
  29 C :   -0.091211
  30 C :   -0.022141
  31 S :    0.117160
  32 C :   -0.192961
  33 C :    0.117493
  34 C :   -0.013603
  35 C :    0.092502
  36 C :   -0.050839
  37 S :    0.190170
  38 C :   -0.062554
  39 C :   -0.127042
  40 C :    0.337814
  41 C :   -0.385023
  42 C :   -0.190769
  43 N :    0.132759
  44 C :   -0.144646
  45 N :    0.096333
  46 C :    0.008816
  47 C :   -0.004083
  48 C :    0.169810
  49 O :   -0.207926
  50 C :   -0.084430
  51 C :    0.118529
  52 C :   -0.091246
  53 C :   -0.029324
  54 S :    0.178208
  55 C :   -0.123054
  56 C :    0.034982
  57 Br:    0.011150
  58 H :    0.019842
  59 H :    0.020047
  60 H :   -0.010719
  61 H :   -0.007845
  62 H :   -0.022989
  63 H :   -0.000525
  64 H :   -0.017965
  65 H :    0.035637
  66 H :    0.037966
  67 H :    0.021527
  68 H :   -0.021603
  69 H :    0.028077
  70 H :   -0.017478
  71 H :    0.025932
  72 H :    0.032434
  73 H :    0.030853
  74 H :    0.037996
  75 H :    0.020685
  76 H :    0.039588
  77 H :    0.032998
  78 H :    0.044278
  79 H :    0.003484
  80 H :   -0.016325
  81 H :   -0.015871
  82 H :   -0.008692
  83 H :   -0.008217
Sum of atomic charges:   -0.0000000

LOEWDIN ATOMIC CHARGES
----------------------
   0 C :   -0.075666
   1 C :   -0.138020
   2 C :   -0.029847
   3 C :   -0.020946
   4 C :   -0.165208
   5 S :    0.350170
   6 C :   -0.186631
   7 C :   -0.010272
   8 C :   -0.061179
   9 C :   -0.136145
  10 S :    0.362664
  11 C :   -0.096309
  12 C :   -0.178307
  13 C :   -0.197975
  14 S :    0.375786
  15 C :   -0.137618
  16 C :   -0.059229
  17 C :   -0.087006
  18 C :   -0.066221
  19 C :   -0.217999
  20 S :    0.471686
  21 C :   -0.173124
  22 S :    0.459296
  23 C :   -0.185117
  24 C :   -0.061543
  25 C :   -0.068256
  26 N :    0.000317
  27 C :    0.043113
  28 C :   -0.064605
  29 C :   -0.108727
  30 C :   -0.253656
  31 S :    0.403917
  32 C :   -0.128859
  33 C :   -0.057021
  34 C :   -0.070863
  35 C :   -0.022245
  36 C :   -0.205752
  37 S :    0.481244
  38 C :    0.042684
  39 C :   -0.147066
  40 C :    0.084887
  41 C :   -0.179473
  42 C :   -0.021484
  43 N :   -0.076285
  44 C :    0.010584
  45 N :   -0.098373
  46 C :   -0.017848
  47 C :   -0.045399
  48 C :    0.085360
  49 O :   -0.189055
  50 C :    0.015787
  51 C :   -0.037279
  52 C :   -0.147697
  53 C :   -0.012612
  54 S :    0.426964
  55 C :   -0.276337
  56 C :   -0.071144
  57 Br:    0.127316
  58 H :    0.028742
  59 H :    0.025520
  60 H :    0.034251
  61 H :    0.032278
  62 H :    0.029265
  63 H :    0.016308
  64 H :    0.031266
  65 H :    0.038919
  66 H :    0.040069
  67 H :    0.038342
  68 H :    0.016906
  69 H :    0.025562
  70 H :    0.032718
  71 H :    0.031246
  72 H :    0.016433
  73 H :    0.019080
  74 H :    0.031916
  75 H :    0.030386
  76 H :    0.041723
  77 H :    0.043806
  78 H :    0.043901
  79 H :    0.035049
  80 H :    0.043432
  81 H :    0.038482
  82 H :    0.040248
  83 H :    0.036768

  Mayer bond orders larger than 0.100000
B(  0-C ,  1-C ) :   1.8675 B(  0-C , 58-H ) :   0.9500 B(  0-C , 59-H ) :   0.9410
B(  1-C ,  2-C ) :   1.0732 B(  1-C ,  5-S ) :   1.0042 B(  2-C ,  3-C ) :   1.6636
B(  2-C , 60-H ) :   0.9942 B(  3-C ,  4-C ) :   1.1474 B(  3-C , 61-H ) :   0.9795
B(  4-C ,  5-S ) :   1.0501 B(  4-C ,  6-C ) :   1.5485 B(  6-C ,  7-C ) :   1.1853
B(  6-C , 10-S ) :   1.0321 B(  7-C ,  8-C ) :   1.6153 B(  7-C , 62-H ) :   0.9835
B(  8-C ,  9-C ) :   1.1459 B(  8-C , 63-H ) :   0.9813 B(  9-C , 10-S ) :   1.0410
B(  9-C , 11-C ) :   1.5661 B( 11-C , 12-C ) :   1.2142 B( 11-C , 64-H ) :   0.9476
B( 12-C , 13-C ) :   1.4527 B( 12-C , 20-S ) :   1.1242 B( 13-C , 14-S ) :   1.0328
B( 13-C , 18-C ) :   1.2724 B( 14-S , 15-C ) :   1.0817 B( 15-C , 16-C ) :   1.0713
B( 15-C , 17-C ) :   1.6838 B( 16-C , 65-H ) :   0.9484 B( 16-C , 66-H ) :   0.9481
B( 16-C , 67-H ) :   0.9570 B( 17-C , 18-C ) :   1.1288 B( 17-C , 68-H ) :   0.9832
B( 18-C , 19-C ) :   1.3922 B( 19-C , 20-S ) :   1.0877 B( 19-C , 21-C ) :   1.1716
B( 21-C , 22-S ) :   1.1543 B( 21-C , 25-C ) :   1.4926 B( 22-S , 23-C ) :   1.1428
B( 23-C , 24-C ) :   1.5651 B( 23-C , 69-H ) :   0.9669 B( 24-C , 25-C ) :   1.2755
B( 24-C , 70-H ) :   0.9955 B( 25-C , 26-N ) :   0.9786 B( 26-N , 27-C ) :   0.9478
B( 26-N , 29-C ) :   1.2633 B( 27-C , 28-C ) :   1.1171 B( 27-C , 71-H ) :   0.9420
B( 27-C , 72-H ) :   0.9404 B( 28-C , 73-H ) :   0.9598 B( 28-C , 74-H ) :   0.9636
B( 28-C , 75-H ) :   0.9626 B( 29-C , 30-C ) :   1.2911 B( 29-C , 37-S ) :   1.1328
B( 30-C , 31-S ) :   1.0140 B( 30-C , 35-C ) :   1.3570 B( 31-S , 32-C ) :   1.1168
B( 32-C , 33-C ) :   1.0684 B( 32-C , 34-C ) :   1.6182 B( 33-C , 76-H ) :   0.9483
B( 33-C , 77-H ) :   0.9563 B( 33-C , 78-H ) :   0.9468 B( 34-C , 35-C ) :   1.1964
B( 34-C , 79-H ) :   0.9894 B( 35-C , 36-C ) :   1.2154 B( 36-C , 37-S ) :   0.9865
B( 36-C , 38-C ) :   1.4640 B( 37-S , 49-O ) :   0.1006 B( 38-C , 39-C ) :   1.3255
B( 38-C , 80-H ) :   0.9417 B( 39-C , 40-C ) :   1.1620 B( 39-C , 48-C ) :   1.0244
B( 40-C , 41-C ) :   1.5383 B( 40-C , 46-C ) :   0.9830 B( 41-C , 42-C ) :   1.1501
B( 41-C , 44-C ) :   1.1861 B( 42-C , 43-N ) :   2.9634 B( 44-C , 45-N ) :   2.8555
B( 46-C , 47-C ) :   1.2780 B( 46-C , 53-C ) :   1.4305 B( 47-C , 48-C ) :   0.9486
B( 47-C , 50-C ) :   1.4371 B( 48-C , 49-O ) :   2.0798 B( 50-C , 51-C ) :   1.2279
B( 50-C , 81-H ) :   1.0176 B( 51-C , 52-C ) :   1.3260 B( 51-C , 56-C ) :   1.1611
B( 52-C , 53-C ) :   1.3080 B( 52-C , 54-S ) :   1.0820 B( 53-C , 82-H ) :   0.9809
B( 54-S , 55-C ) :   1.0876 B( 55-C , 56-C ) :   1.6186 B( 55-C , 57-Br) :   1.0114
B( 56-C , 83-H ) :   1.0008

-----------------------------------------------------------------------------
         ABSORPTION SPECTRUM VIA TRANSITION ELECTRIC DIPOLE MOMENTS
-----------------------------------------------------------------------------
State   Energy  Wavelength   fosc         T2         TX        TY        TZ
        (cm-1)    (nm)                  (au**2)     (au)      (au)      (au)
-----------------------------------------------------------------------------
   0   13156.8    760.1   0.033912667   0.84857   0.80224  -0.34360   0.29482
   1   15739.2    635.4   0.904417534  18.91739  -3.97337   0.80832   1.57363
   2   18964.9    527.3   1.299876990  22.56460   2.35243   2.70952  -3.11275
   3   20146.3    496.4   0.005777317   0.09441  -0.01864  -0.14423   0.27066
   4   21168.6    472.4   0.032214749   0.50100  -0.11260   0.69640   0.05792
   5   23209.6    430.9   0.204225666   2.89679  -0.28457   1.50432  -0.74354
   6   24189.7    413.4   0.034115441   0.46430  -0.22743  -0.30758  -0.56389
   7   25097.0    398.5   0.045605268   0.59823   0.17521  -0.68662  -0.30997
   8   27434.9    364.5   0.252225992   3.02665  -0.04117   0.68282   1.59960
   9   29504.6    338.9   0.301980290   3.36949   0.95480  -1.56654   0.06152
  10   29669.5    337.0   0.211301116   2.34460   0.86225  -1.25936   0.12309
  11   30146.6    331.7   0.041185759   0.44976  -0.02747  -0.48116   0.46636
  12   31096.3    321.6   0.032816117   0.34742  -0.32073   0.48641  -0.08918
  13   31269.8    319.8   0.063722538   0.67088   0.14464  -0.54019  -0.59845
  14   31484.2    317.6   0.025473299   0.26636  -0.38518   0.16009   0.30392
  15   31613.2    316.3   0.030574418   0.31839  -0.11953   0.09461   0.54328
  16   31711.9    315.3   0.018083082   0.18773   0.19728  -0.37953   0.06901
  17   32161.0    310.9   0.016055778   0.16435   0.31882  -0.23848  -0.07638
  18   32974.8    303.3   0.017473324   0.17445   0.08018  -0.17308  -0.37157
  19   33544.9    298.1   0.086137153   0.84536   0.75963   0.30714   0.41712
  20   33773.0    296.1   0.004962672   0.04837  -0.21430   0.02874   0.04029
  21   34155.2    292.8   0.011895217   0.11465   0.06373   0.15565   0.29388
  22   34386.9    290.8   0.030829269   0.29515   0.37894  -0.24238  -0.30464
  23   34754.4    287.7   0.053222842   0.50415   0.45824  -0.46870  -0.27293
  24   34979.0    285.9   0.496941183   4.67707  -1.74171   0.98076   0.82562
  25   35730.7    279.9   0.036102570   0.33264   0.10169  -0.31568  -0.47185
  26   35878.3    278.7   0.092506430   0.84882   0.48873   0.49026   0.60795
  27   35922.2    278.4   0.014677931   0.13452  -0.15882   0.21575   0.25049
  28   36349.0    275.1   0.015300070   0.13857   0.12806  -0.08548   0.33892
  29   36425.8    274.5   0.065187818   0.58916   0.21304  -0.59594   0.43431
  30   36914.4    270.9   0.138445485   1.23469   0.37707   0.61839   0.84268
  31   37436.7    267.1   0.011000672   0.09674   0.03784   0.30001  -0.07279
  32   37700.9    265.2   0.003687854   0.03220  -0.01435  -0.15674  -0.08619
  33   38075.2    262.6   0.048874772   0.42259   0.55409   0.21627   0.26229
  34   38316.9    261.0   0.032592385   0.28003   0.25222  -0.41084   0.21823
  35   38640.0    258.8   0.119100300   1.01473   0.95293  -0.05745  -0.32148
  36   39001.5    256.4   0.028468012   0.24030  -0.30341  -0.00949   0.38490
  37   39164.1    255.3   0.018319848   0.15400  -0.35723  -0.00579   0.16233
  38   39426.8    253.6   0.028457267   0.23762   0.40498   0.25593  -0.09006
  39   39689.9    252.0   0.129241950   1.07201   0.60088   0.60636  -0.58590
  40   40037.3    249.8   0.083747411   0.68862   0.33300   0.59809  -0.46907
  41   40100.8    249.4   0.076109218   0.62483   0.61993  -0.22472  -0.43590
  42   40203.7    248.7   0.116195944   0.95148  -0.92563   0.12179   0.28259
  43   40256.7    248.4   0.020208205   0.16526  -0.21387   0.06044   0.34039

FINAL SINGLE POINT ENERGY     -7725.845418160985

DIPOLE MOMENT
-------------
                                X             Y             Z
Electronic contribution:     41.77258    -122.97190      58.31171
Nuclear contribution   :    -39.46524     125.02905     -60.54558
                        -----------------------------------------
Total Dipole Moment    :      2.30734       2.05715      -2.23387
                        -----------------------------------------
Magnitude (a.u.)       :      3.81390
Magnitude (Debye)      :      9.69417

Rotational constants in cm-1:     0.001061     0.000744     0.000576
Rotational constants in MHz :    31.797071    22.318140    17.262804

                             ****ORCA TERMINATED NORMALLY****
TOTAL RUN TIME: 0 days 0 hours 8 minutes 20 seconds 816 msec
