                         Program Version 4.2.0 -  RELEASE  -
|  1> # ORCA input file
|  2> # SCF done       -196.443267611944          0.000449443537
|  3> ! CAM-B3LYP def2-SVP def2/J RIJCOSX Grid4 TightSCF
|  4> %maxcore 5000
|  5> %tddft
|  6>     Mode sTDDFT
|  7>     Ethresh 5.0
|  8>     maxcore 5000
|  9> end
| 10>
| 11> %pal
| 12>   nprocs 6
| 13>   end
| 14> * xyz 0 1
| 15>    C      -10.27096        -7.47578        -0.30341
| 16>    C       -9.54736        -8.65852        -0.28342
| 17>    C       -8.25672        -8.73214         0.35633
| 18>    N       -7.57855        -9.87602         0.36641
| 19>    C       -8.08552       -10.94493        -0.21199
| 20>    C       -9.36700       -10.86963        -0.85185
| 21>    N      -10.05761        -9.76147        -0.87635
| 22>    C       -9.89734       -12.02937        -1.47747
| 23>    N      -10.29242       -12.98321        -1.97213
| 24>    C       -7.35172       -12.15201        -0.19329
| 25>    N       -6.77362       -13.14204        -0.19221
| 26>    C       -7.64974        -7.61154         0.99145
| 27>    C       -8.40870        -6.41467         0.96458
| 28>    C       -9.70571        -6.36587         0.31806
| 29>    N      -10.25412        -5.14910         0.40195
| 30>    S       -9.26811        -4.17580         1.19705
| 31>    N       -8.08071        -5.23236         1.48617
| 32>    C       -6.37665        -7.75685         1.57179
| 33>    S       -5.52725        -9.28701         1.53120
| 34>    C       -4.10675        -8.65626         2.35091
| 35>    C       -4.30092        -7.30127         2.66074
| 36>    C       -5.56510        -6.81968         2.22525
| 37>    N       -5.62655        -5.52413         2.58608
| 38>    N       -4.51370        -5.14116         3.21744
| 39>    C       -3.70673        -6.17490         3.27795
| 40>    C       -3.01158        -9.49566         2.56208
| 41>    C       -1.80253        -9.08429         3.06150
| 42>    C       -0.69120        -9.91262         3.24146
| 43>    S       -0.69042       -11.64111         2.96194
| 44>    C        0.99918       -11.83895         3.35778
| 45>    C        1.55024       -10.59363         3.69619
| 46>    C        0.59823        -9.54129         3.63911
| 47>    N        1.25283        -8.41146         3.98804
| 48>    N        2.54089        -8.66528         4.25820
| 49>    C        2.74959        -9.94701         4.09503
| 50>    C        1.57871       -13.11812         3.30653
| 51>    C        2.90875       -13.32776         3.50670
| 52>    C        3.62474       -14.55744         3.43787
| 53>    C        3.15401       -15.86730         3.72165
| 54>    C        1.85729       -16.15783         4.36620
| 55>    O        1.06656       -15.39432         4.83486
| 56>    S        1.61628       -17.93689         4.45296
| 57>    C        3.21880       -18.28359         3.73754
| 58>    O        3.57017       -19.38544         3.44480
| 59>    C        3.94274       -17.00550         3.53474
| 60>    C        5.28285       -16.95259         3.10810
| 61>    C        5.75298       -15.65648         2.86441
| 62>    C        4.97896       -14.52076         3.03829
| 63>    C        5.83849       -13.35833         2.72454
| 64>    O        5.60040       -12.18881         2.75510
| 65>    O        7.07585       -13.84671         2.37359
| 66>    C        7.10344       -15.21762         2.43929
| 67>    O        8.07374       -15.86090         2.18740
| 68>    C        6.17561       -18.08110         2.96587
| 69>    C        6.33923       -19.04017         3.89781
| 70>    C        7.29089       -20.08576         3.72825
| 71>    C        7.64451       -20.96624         4.70149
| 72>    C        8.59069       -22.06753         4.58406
| 73>    C        9.18481       -22.51740         3.43599
| 74>    C       10.08588       -23.60348         3.38482
| 75>    N       10.82361       -24.47597         3.27815
| 76>    C        8.97868       -21.99198         2.14148
| 77>    N        8.86470       -21.63490         1.05670
| 78>    C        8.76824       -22.64152         5.91165
| 79>    C        7.91940       -21.96544         6.82295
| 80>    C        7.17330       -20.90992         6.11465
| 81>    O        6.37107       -20.14452         6.60245
| 82>    C        7.86449       -22.28084         8.15958
| 83>    C        8.68950       -23.31038         8.62205
| 84>    C        9.53695       -23.97966         7.70514
| 85>    C        9.58995       -23.66313         6.35405
| 86>    S       10.47801       -25.21210         8.48767
| 87>    C        9.73253       -24.81794        10.01415
| 88>    C        8.82418       -23.81544         9.94374
| 89>   Br       10.22554       -25.76412        11.55535
| 90>    H      -11.23222        -7.42380        -0.78328
| 91>    H       -6.40766        -4.90180         2.41149
| 92>    H       -2.75497        -6.07694         3.75912
| 93>    H       -3.13132       -10.53272         2.27643
| 94>    H       -1.66700        -8.04177         3.31256
| 95>    H        0.90668        -7.46908         4.05903
| 96>    H        3.72841       -10.35003         4.25392
| 97>    H        0.91300       -13.93173         3.06137
| 98>    H        3.53643       -12.45734         3.62409
| 99>    H        6.82477       -18.05813         2.09911
|100>    H        5.77501       -19.02262         4.81821
|101>    H        7.75705       -20.15348         2.75387
|102>    H        7.20692       -21.74643         8.82716
|103>    H       10.25491       -24.19995         5.69861
|104>    H        8.27222       -23.44561        10.78842
|105> *
|106>
|107>                          ****END OF INPUT****

CARTESIAN COORDINATES (ANGSTROEM)
---------------------------------
  C    -10.270960   -7.475780   -0.303410
  C     -9.547360   -8.658520   -0.283420
  C     -8.256720   -8.732140    0.356330
  N     -7.578550   -9.876020    0.366410
  C     -8.085520  -10.944930   -0.211990
  C     -9.367000  -10.869630   -0.851850
  N    -10.057610   -9.761470   -0.876350
  C     -9.897340  -12.029370   -1.477470
  N    -10.292420  -12.983210   -1.972130
  C     -7.351720  -12.152010   -0.193290
  N     -6.773620  -13.142040   -0.192210
  C     -7.649740   -7.611540    0.991450
  C     -8.408700   -6.414670    0.964580
  C     -9.705710   -6.365870    0.318060
  N    -10.254120   -5.149100    0.401950
  S     -9.268110   -4.175800    1.197050
  N     -8.080710   -5.232360    1.486170
  C     -6.376650   -7.756850    1.571790
  S     -5.527250   -9.287010    1.531200
  C     -4.106750   -8.656260    2.350910
  C     -4.300920   -7.301270    2.660740
  C     -5.565100   -6.819680    2.225250
  N     -5.626550   -5.524130    2.586080
  N     -4.513700   -5.141160    3.217440
  C     -3.706730   -6.174900    3.277950
  C     -3.011580   -9.495660    2.562080
  C     -1.802530   -9.084290    3.061500
  C     -0.691200   -9.912620    3.241460
  S     -0.690420  -11.641110    2.961940
  C      0.999180  -11.838950    3.357780
  C      1.550240  -10.593630    3.696190
  C      0.598230   -9.541290    3.639110
  N      1.252830   -8.411460    3.988040
  N      2.540890   -8.665280    4.258200
  C      2.749590   -9.947010    4.095030
  C      1.578710  -13.118120    3.306530
  C      2.908750  -13.327760    3.506700
  C      3.624740  -14.557440    3.437870
  C      3.154010  -15.867300    3.721650
  C      1.857290  -16.157830    4.366200
  O      1.066560  -15.394320    4.834860
  S      1.616280  -17.936890    4.452960
  C      3.218800  -18.283590    3.737540
  O      3.570170  -19.385440    3.444800
  C      3.942740  -17.005500    3.534740
  C      5.282850  -16.952590    3.108100
  C      5.752980  -15.656480    2.864410
  C      4.978960  -14.520760    3.038290
  C      5.838490  -13.358330    2.724540
  O      5.600400  -12.188810    2.755100
  O      7.075850  -13.846710    2.373590
  C      7.103440  -15.217620    2.439290
  O      8.073740  -15.860900    2.187400
  C      6.175610  -18.081100    2.965870
  C      6.339230  -19.040170    3.897810
  C      7.290890  -20.085760    3.728250
  C      7.644510  -20.966240    4.701490
  C      8.590690  -22.067530    4.584060
  C      9.184810  -22.517400    3.435990
  C     10.085880  -23.603480    3.384820
  N     10.823610  -24.475970    3.278150
  C      8.978680  -21.991980    2.141480
  N      8.864700  -21.634900    1.056700
  C      8.768240  -22.641520    5.911650
  C      7.919400  -21.965440    6.822950
  C      7.173300  -20.909920    6.114650
  O      6.371070  -20.144520    6.602450
  C      7.864490  -22.280840    8.159580
  C      8.689500  -23.310380    8.622050
  C      9.536950  -23.979660    7.705140
  C      9.589950  -23.663130    6.354050
  S     10.478010  -25.212100    8.487670
  C      9.732530  -24.817940   10.014150
  C      8.824180  -23.815440    9.943740
  Br    10.225540  -25.764120   11.555350
  H    -11.232220   -7.423800   -0.783280
  H     -6.407660   -4.901800    2.411490
  H     -2.754970   -6.076940    3.759120
  H     -3.131320  -10.532720    2.276430
  H     -1.667000   -8.041770    3.312560
  H      0.906680   -7.469080    4.059030
  H      3.728410  -10.350030    4.253920
  H      0.913000  -13.931730    3.061370
  H      3.536430  -12.457340    3.624090
  H      6.824770  -18.058130    2.099110
  H      5.775010  -19.022620    4.818210
  H      7.757050  -20.153480    2.753870
  H      7.206920  -21.746430    8.827160
  H     10.254910  -24.199950    5.698610
  H      8.272220  -23.445610   10.788420

 Total Charge           Charge          ....    0
 Multiplicity           Mult            ....    1
 Number of Electrons    NEL             ....  568
 Basis Dimension        Dim             .... 1163

ORBITAL ENERGIES
----------------

  NO   OCC          E(Eh)            E(eV)
   0   2.0000    -482.889994    -13140.1048
   1   2.0000     -89.045419     -2423.0490
   2   2.0000     -88.988692     -2421.5054
   3   2.0000     -88.980935     -2421.2943
   4   2.0000     -88.974928     -2421.1309
   5   2.0000     -88.961583     -2420.7677
   6   2.0000     -62.567713     -1702.5540
   7   2.0000     -56.401671     -1534.7675
   8   2.0000     -56.398940     -1534.6932
   9   2.0000     -56.398912     -1534.6924
  10   2.0000     -19.305387      -525.3263
  11   2.0000     -19.254806      -523.9499
  12   2.0000     -19.253818      -523.9230
  13   2.0000     -19.253311      -523.9092
  14   2.0000     -19.252283      -523.8812
  15   2.0000     -19.226535      -523.1806
  16   2.0000     -14.505360      -394.7109
  17   2.0000     -14.487734      -394.2313
  18   2.0000     -14.465427      -393.6243
  19   2.0000     -14.464148      -393.5895
  20   2.0000     -14.456199      -393.3732
  21   2.0000     -14.451870      -393.2554
  22   2.0000     -14.449805      -393.1992
  23   2.0000     -14.445183      -393.0734
  24   2.0000     -14.425357      -392.5339
  25   2.0000     -14.424405      -392.5080
  26   2.0000     -14.422024      -392.4432
  27   2.0000     -14.421506      -392.4291
  28   2.0000     -10.447911      -284.3021
  29   2.0000     -10.446051      -284.2515
  30   2.0000     -10.418272      -283.4956
  31   2.0000     -10.416419      -283.4452
  32   2.0000     -10.378293      -282.4077
  33   2.0000     -10.377093      -282.3751
  34   2.0000     -10.373089      -282.2661
  35   2.0000     -10.364286      -282.0266
  36   2.0000     -10.351036      -281.6660
  37   2.0000     -10.350830      -281.6604
  38   2.0000     -10.350589      -281.6539
  39   2.0000     -10.348324      -281.5922
  40   2.0000     -10.346210      -281.5347
  41   2.0000     -10.344592      -281.4906
  42   2.0000     -10.343037      -281.4483
  43   2.0000     -10.342535      -281.4347
  44   2.0000     -10.341968      -281.4193
  45   2.0000     -10.341466      -281.4056
  46   2.0000     -10.341204      -281.3985
  47   2.0000     -10.340166      -281.3702
  48   2.0000     -10.338627      -281.3284
  49   2.0000     -10.338346      -281.3207
  50   2.0000     -10.335438      -281.2416
  51   2.0000     -10.332803      -281.1699
  52   2.0000     -10.332338      -281.1572
  53   2.0000     -10.331920      -281.1458
  54   2.0000     -10.330483      -281.1067
  55   2.0000     -10.325982      -280.9843
  56   2.0000     -10.324099      -280.9330
  57   2.0000     -10.323811      -280.9252
  58   2.0000     -10.321550      -280.8637
  59   2.0000     -10.321084      -280.8510
  60   2.0000     -10.319577      -280.8100
  61   2.0000     -10.318460      -280.7796
  62   2.0000     -10.318378      -280.7773
  63   2.0000     -10.315230      -280.6917
  64   2.0000     -10.313973      -280.6575
  65   2.0000     -10.313668      -280.6492
  66   2.0000     -10.313508      -280.6448
  67   2.0000     -10.311786      -280.5980
  68   2.0000     -10.309623      -280.5391
  69   2.0000     -10.309136      -280.5258
  70   2.0000     -10.307668      -280.4859
  71   2.0000     -10.306439      -280.4525
  72   2.0000     -10.303139      -280.3627
  73   2.0000     -10.302800      -280.3534
  74   2.0000     -10.301790      -280.3260
  75   2.0000     -10.299951      -280.2759
  76   2.0000     -10.299249      -280.2568
  77   2.0000     -10.290816      -280.0273
  78   2.0000     -10.286151      -279.9004
  79   2.0000      -8.797146      -239.3825
  80   2.0000      -8.136841      -221.4147
  81   2.0000      -8.083345      -219.9590
  82   2.0000      -8.076925      -219.7843
  83   2.0000      -8.067370      -219.5243
  84   2.0000      -8.060913      -219.3486
  85   2.0000      -6.633489      -180.5064
  86   2.0000      -6.618866      -180.1085
  87   2.0000      -6.618645      -180.1025
  88   2.0000      -6.107972      -166.2064
  89   2.0000      -6.100260      -165.9965
  90   2.0000      -6.099432      -165.9740
  91   2.0000      -6.052627      -164.7004
  92   2.0000      -6.048462      -164.5870
  93   2.0000      -6.046629      -164.5371
  94   2.0000      -6.045615      -164.5096
  95   2.0000      -6.042319      -164.4199
  96   2.0000      -6.038144      -164.3063
  97   2.0000      -6.037246      -164.2818
  98   2.0000      -6.032221      -164.1451
  99   2.0000      -6.029749      -164.0778
 100   2.0000      -6.029351      -164.0670
 101   2.0000      -6.026478      -163.9888
 102   2.0000      -6.021987      -163.8666
 103   2.0000      -2.749343       -74.8134
 104   2.0000      -2.745274       -74.7027
 105   2.0000      -2.745077       -74.6973
 106   2.0000      -2.733479       -74.3817
 107   2.0000      -2.733457       -74.3811
 108   2.0000      -1.255099       -34.1530
 109   2.0000      -1.181220       -32.1426
 110   2.0000      -1.179890       -32.1064
 111   2.0000      -1.175500       -31.9870
 112   2.0000      -1.166050       -31.7298
 113   2.0000      -1.155964       -31.4554
 114   2.0000      -1.143473       -31.1155
 115   2.0000      -1.143161       -31.1070
 116   2.0000      -1.141618       -31.0650
 117   2.0000      -1.117190       -30.4003
 118   2.0000      -1.044927       -28.4339
 119   2.0000      -1.030145       -28.0317
 120   2.0000      -1.029162       -28.0049
 121   2.0000      -1.019474       -27.7413
 122   2.0000      -1.011207       -27.5163
 123   2.0000      -1.010148       -27.4875
 124   2.0000      -1.003618       -27.3098
 125   2.0000      -1.000220       -27.2174
 126   2.0000      -0.998115       -27.1601
 127   2.0000      -0.996173       -27.1073
 128   2.0000      -0.993439       -27.0329
 129   2.0000      -0.970742       -26.4152
 130   2.0000      -0.966024       -26.2869
 131   2.0000      -0.957705       -26.0605
 132   2.0000      -0.950078       -25.8529
 133   2.0000      -0.943835       -25.6830
 134   2.0000      -0.932479       -25.3740
 135   2.0000      -0.924751       -25.1637
 136   2.0000      -0.915434       -24.9102
 137   2.0000      -0.914479       -24.8842
 138   2.0000      -0.904705       -24.6183
 139   2.0000      -0.902637       -24.5620
 140   2.0000      -0.892068       -24.2744
 141   2.0000      -0.891350       -24.2549
 142   2.0000      -0.885528       -24.0964
 143   2.0000      -0.880364       -23.9559
 144   2.0000      -0.870074       -23.6759
 145   2.0000      -0.860142       -23.4057
 146   2.0000      -0.847595       -23.0642
 147   2.0000      -0.837109       -22.7789
 148   2.0000      -0.834479       -22.7073
 149   2.0000      -0.830340       -22.5947
 150   2.0000      -0.811939       -22.0940
 151   2.0000      -0.809354       -22.0236
 152   2.0000      -0.798630       -21.7318
 153   2.0000      -0.785378       -21.3712
 154   2.0000      -0.778942       -21.1961
 155   2.0000      -0.772372       -21.0173
 156   2.0000      -0.764627       -20.8066
 157   2.0000      -0.754610       -20.5340
 158   2.0000      -0.739763       -20.1300
 159   2.0000      -0.734943       -19.9988
 160   2.0000      -0.727889       -19.8069
 161   2.0000      -0.723045       -19.6750
 162   2.0000      -0.720233       -19.5985
 163   2.0000      -0.718959       -19.5639
 164   2.0000      -0.708613       -19.2823
 165   2.0000      -0.703118       -19.1328
 166   2.0000      -0.701141       -19.0790
 167   2.0000      -0.699173       -19.0255
 168   2.0000      -0.696823       -18.9615
 169   2.0000      -0.693315       -18.8661
 170   2.0000      -0.675407       -18.3788
 171   2.0000      -0.670174       -18.2364
 172   2.0000      -0.666168       -18.1274
 173   2.0000      -0.663575       -18.0568
 174   2.0000      -0.654965       -17.8225
 175   2.0000      -0.652970       -17.7682
 176   2.0000      -0.645629       -17.5685
 177   2.0000      -0.640537       -17.4299
 178   2.0000      -0.635121       -17.2825
 179   2.0000      -0.632130       -17.2011
 180   2.0000      -0.630656       -17.1610
 181   2.0000      -0.629743       -17.1362
 182   2.0000      -0.621079       -16.9004
 183   2.0000      -0.616147       -16.7662
 184   2.0000      -0.614164       -16.7123
 185   2.0000      -0.610643       -16.6164
 186   2.0000      -0.602821       -16.4036
 187   2.0000      -0.593958       -16.1624
 188   2.0000      -0.586473       -15.9587
 189   2.0000      -0.585986       -15.9455
 190   2.0000      -0.578854       -15.7514
 191   2.0000      -0.578363       -15.7381
 192   2.0000      -0.573611       -15.6088
 193   2.0000      -0.568646       -15.4736
 194   2.0000      -0.567417       -15.4402
 195   2.0000      -0.565440       -15.3864
 196   2.0000      -0.563233       -15.3263
 197   2.0000      -0.558315       -15.1925
 198   2.0000      -0.558007       -15.1841
 199   2.0000      -0.554942       -15.1007
 200   2.0000      -0.554294       -15.0831
 201   2.0000      -0.550926       -14.9915
 202   2.0000      -0.549426       -14.9507
 203   2.0000      -0.547813       -14.9068
 204   2.0000      -0.547114       -14.8877
 205   2.0000      -0.544363       -14.8129
 206   2.0000      -0.537827       -14.6350
 207   2.0000      -0.535982       -14.5848
 208   2.0000      -0.531357       -14.4590
 209   2.0000      -0.530097       -14.4247
 210   2.0000      -0.526478       -14.3262
 211   2.0000      -0.525789       -14.3074
 212   2.0000      -0.521474       -14.1900
 213   2.0000      -0.520035       -14.1509
 214   2.0000      -0.518100       -14.0982
 215   2.0000      -0.514699       -14.0057
 216   2.0000      -0.511722       -13.9247
 217   2.0000      -0.506698       -13.7880
 218   2.0000      -0.503581       -13.7031
 219   2.0000      -0.501524       -13.6472
 220   2.0000      -0.500272       -13.6131
 221   2.0000      -0.498257       -13.5583
 222   2.0000      -0.495962       -13.4958
 223   2.0000      -0.492260       -13.3951
 224   2.0000      -0.489785       -13.3277
 225   2.0000      -0.486623       -13.2417
 226   2.0000      -0.485856       -13.2208
 227   2.0000      -0.480204       -13.0670
 228   2.0000      -0.477603       -12.9962
 229   2.0000      -0.476020       -12.9532
 230   2.0000      -0.475018       -12.9259
 231   2.0000      -0.472392       -12.8544
 232   2.0000      -0.470945       -12.8151
 233   2.0000      -0.467145       -12.7117
 234   2.0000      -0.466510       -12.6944
 235   2.0000      -0.463483       -12.6120
 236   2.0000      -0.454445       -12.3661
 237   2.0000      -0.454080       -12.3561
 238   2.0000      -0.451729       -12.2922
 239   2.0000      -0.451341       -12.2816
 240   2.0000      -0.449904       -12.2425
 241   2.0000      -0.449710       -12.2372
 242   2.0000      -0.449188       -12.2230
 243   2.0000      -0.444610       -12.0985
 244   2.0000      -0.440756       -11.9936
 245   2.0000      -0.439870       -11.9695
 246   2.0000      -0.434469       -11.8225
 247   2.0000      -0.431847       -11.7511
 248   2.0000      -0.429736       -11.6937
 249   2.0000      -0.428233       -11.6528
 250   2.0000      -0.426698       -11.6110
 251   2.0000      -0.423373       -11.5206
 252   2.0000      -0.419849       -11.4247
 253   2.0000      -0.415617       -11.3095
 254   2.0000      -0.414001       -11.2655
 255   2.0000      -0.412417       -11.2224
 256   2.0000      -0.408147       -11.1062
 257   2.0000      -0.400234       -10.8909
 258   2.0000      -0.397503       -10.8166
 259   2.0000      -0.393027       -10.6948
 260   2.0000      -0.389745       -10.6055
 261   2.0000      -0.389371       -10.5953
 262   2.0000      -0.388497       -10.5715
 263   2.0000      -0.385420       -10.4878
 264   2.0000      -0.382116       -10.3979
 265   2.0000      -0.379902       -10.3376
 266   2.0000      -0.379240       -10.3196
 267   2.0000      -0.374461       -10.1896
 268   2.0000      -0.372398       -10.1335
 269   2.0000      -0.360809        -9.8181
 270   2.0000      -0.357919        -9.7395
 271   2.0000      -0.353548        -9.6205
 272   2.0000      -0.347582        -9.4582
 273   2.0000      -0.344746        -9.3810
 274   2.0000      -0.344620        -9.3776
 275   2.0000      -0.343060        -9.3351
 276   2.0000      -0.338448        -9.2096
 277   2.0000      -0.329317        -8.9612
 278   2.0000      -0.326209        -8.8766
 279   2.0000      -0.321527        -8.7492
 280   2.0000      -0.308304        -8.3894
 281   2.0000      -0.298112        -8.1120
 282   2.0000      -0.279323        -7.6008
 283   2.0000      -0.232751        -6.3335
 284   0.0000      -0.131586        -3.5806
 285   0.0000      -0.107743        -2.9318
 286   0.0000      -0.106370        -2.8945
 287   0.0000      -0.089249        -2.4286
 288   0.0000      -0.068831        -1.8730

MULLIKEN ATOMIC CHARGES
-----------------------
   0 C :   -0.119775
   1 C :    0.038908
   2 C :   -0.071715
   3 N :   -0.014076
   4 C :   -0.102607
   5 C :   -0.150264
   6 N :    0.054058
   7 C :   -0.212798
   8 N :    0.235998
   9 C :   -0.236602
  10 N :    0.230746
  11 C :    0.209563
  12 C :   -0.019628
  13 C :    0.108479
  14 N :   -0.268222
  15 S :    0.531621
  16 N :   -0.358144
  17 C :   -0.281126
  18 S :    0.197095
  19 C :   -0.063937
  20 C :   -0.010571
  21 C :    0.163455
  22 N :   -0.007105
  23 N :   -0.051927
  24 C :   -0.021019
  25 C :    0.023187
  26 C :    0.006519
  27 C :   -0.132875
  28 S :    0.172325
  29 C :   -0.142979
  30 C :    0.023245
  31 C :    0.140673
  32 N :   -0.035605
  33 N :   -0.046247
  34 C :   -0.005435
  35 C :    0.129798
  36 C :   -0.081299
  37 C :    0.088347
  38 C :    0.010591
  39 C :    0.030732
  40 O :   -0.124825
  41 S :    0.032630
  42 C :    0.035976
  43 O :   -0.111434
  44 C :    0.030311
  45 C :    0.020744
  46 C :   -0.062562
  47 C :   -0.080361
  48 C :    0.244622
  49 O :   -0.110403
  50 O :   -0.228002
  51 C :    0.240769
  52 O :   -0.096731
  53 C :   -0.026046
  54 C :    0.061164
  55 C :   -0.055713
  56 C :   -0.050582
  57 C :    0.320733
  58 C :   -0.339285
  59 C :   -0.185222
  60 N :    0.156423
  61 C :   -0.194484
  62 N :    0.158212
  63 C :    0.015859
  64 C :   -0.017281
  65 C :    0.150500
  66 O :   -0.147165
  67 C :   -0.066516
  68 C :    0.117089
  69 C :   -0.089812
  70 C :   -0.019180
  71 S :    0.190920
  72 C :   -0.122781
  73 C :    0.040027
  74 Br:    0.028905
  75 H :   -0.028372
  76 H :    0.138327
  77 H :   -0.007189
  78 H :   -0.005258
  79 H :   -0.027083
  80 H :    0.142010
  81 H :    0.025855
  82 H :   -0.008084
  83 H :    0.008494
  84 H :    0.042130
  85 H :    0.032992
  86 H :    0.022005
  87 H :   -0.008060
  88 H :   -0.004147
  89 H :   -0.001501
Sum of atomic charges:    0.0000000

LOEWDIN ATOMIC CHARGES
----------------------
   0 C :   -0.053549
   1 C :   -0.002250
   2 C :   -0.026755
   3 N :   -0.020325
   4 C :   -0.046490
   5 C :   -0.021160
   6 N :   -0.009907
   7 C :   -0.033258
   8 N :   -0.006283
   9 C :   -0.041432
  10 N :   -0.018687
  11 C :   -0.023168
  12 C :   -0.040490
  13 C :   -0.038565
  14 N :   -0.286645
  15 S :    0.658199
  16 N :   -0.287652
  17 C :   -0.199294
  18 S :    0.498124
  19 C :   -0.131589
  20 C :   -0.108315
  21 C :    0.001002
  22 N :    0.115858
  23 N :   -0.057207
  24 C :   -0.041423
  25 C :   -0.054530
  26 C :   -0.011858
  27 C :   -0.197201
  28 S :    0.479266
  29 C :   -0.154142
  30 C :   -0.082928
  31 C :   -0.010874
  32 N :    0.097220
  33 N :   -0.042075
  34 C :   -0.030090
  35 C :    0.011835
  36 C :   -0.041174
  37 C :    0.032504
  38 C :   -0.057635
  39 C :   -0.045252
  40 O :   -0.110844
  41 S :    0.315108
  42 C :   -0.047764
  43 O :   -0.100275
  44 C :   -0.040926
  45 C :    0.015863
  46 C :   -0.038018
  47 C :   -0.048788
  48 C :    0.112479
  49 O :   -0.101927
  50 O :   -0.052669
  51 C :    0.107596
  52 O :   -0.090662
  53 C :    0.015561
  54 C :    0.008296
  55 C :    0.071239
  56 C :   -0.077017
  57 C :    0.073378
  58 C :   -0.130073
  59 C :   -0.017381
  60 N :   -0.046744
  61 C :   -0.021571
  62 N :   -0.042594
  63 C :   -0.020361
  64 C :   -0.051921
  65 C :    0.087756
  66 O :   -0.139207
  67 C :    0.024375
  68 C :   -0.030869
  69 C :   -0.141972
  70 C :   -0.008389
  71 S :    0.436324
  72 C :   -0.269784
  73 C :   -0.069936
  74 Br:    0.141142
  75 H :    0.044376
  76 H :    0.060981
  77 H :    0.016339
  78 H :    0.028610
  79 H :    0.034519
  80 H :    0.090386
  81 H :    0.028872
  82 H :    0.031734
  83 H :    0.036835
  84 H :    0.044242
  85 H :    0.032954
  86 H :    0.045743
  87 H :    0.041835
  88 H :    0.041705
  89 H :    0.039641

  Mayer bond orders larger than 0.100000
B(  0-C ,  1-C ) :   1.3208 B(  0-C , 11-C ) :   0.1005 B(  0-C , 13-C ) :   1.1587
B(  0-C , 75-H ) :   1.0610 B(  1-C ,  2-C ) :   1.1285 B(  1-C ,  6-N ) :   1.3354
B(  2-C ,  3-N ) :   1.4405 B(  2-C , 11-C ) :   1.1839 B(  3-N ,  4-C ) :   1.6389
B(  4-C ,  5-C ) :   1.2151 B(  4-C ,  9-C ) :   1.1618 B(  5-C ,  6-N ) :   1.7735
B(  5-C ,  7-C ) :   1.1621 B(  7-C ,  8-N ) :   3.0547 B(  9-C , 10-N ) :   3.0326
B( 11-C , 12-C ) :   1.1675 B( 11-C , 17-C ) :   1.3171 B( 12-C , 13-C ) :   1.1283
B( 12-C , 16-N ) :   1.4736 B( 13-C , 14-N ) :   1.4792 B( 14-N , 15-S ) :   1.2899
B( 14-N , 16-N ) :   0.1448 B( 15-S , 16-N ) :   1.2376 B( 16-N , 76-H ) :   0.1036
B( 17-C , 18-S ) :   1.0939 B( 17-C , 21-C ) :   1.2835 B( 18-S , 19-C ) :   1.0856
B( 19-C , 20-C ) :   1.2522 B( 19-C , 25-C ) :   1.2474 B( 20-C , 21-C ) :   1.2769
B( 20-C , 24-C ) :   1.1716 B( 21-C , 22-N ) :   1.2378 B( 22-N , 23-N ) :   1.1367
B( 22-N , 76-H ) :   0.8990 B( 23-N , 24-C ) :   1.7200 B( 24-C , 77-H ) :   0.9934
B( 25-C , 26-C ) :   1.5272 B( 25-C , 78-H ) :   0.9594 B( 26-C , 27-C ) :   1.2633
B( 26-C , 79-H ) :   0.9747 B( 27-C , 28-S ) :   1.0928 B( 27-C , 31-C ) :   1.3093
B( 28-S , 29-C ) :   1.1438 B( 29-C , 30-C ) :   1.2774 B( 29-C , 35-C ) :   1.2243
B( 30-C , 31-C ) :   1.2717 B( 30-C , 34-C ) :   1.1670 B( 31-C , 32-N ) :   1.1726
B( 32-N , 33-N ) :   1.1393 B( 32-N , 80-H ) :   0.9473 B( 33-N , 34-C ) :   1.7362
B( 34-C , 81-H ) :   0.9902 B( 35-C , 36-C ) :   1.6104 B( 35-C , 82-H ) :   0.9469
B( 36-C , 37-C ) :   1.1697 B( 36-C , 83-H ) :   0.9462 B( 37-C , 38-C ) :   1.3000
B( 37-C , 47-C ) :   1.2948 B( 38-C , 39-C ) :   0.8498 B( 38-C , 44-C ) :   1.3427
B( 39-C , 40-O ) :   2.1784 B( 39-C , 41-S ) :   1.0292 B( 40-O , 41-S ) :   0.1048
B( 41-S , 42-C ) :   1.0279 B( 41-S , 43-O ) :   0.1085 B( 42-C , 43-O ) :   2.1976
B( 42-C , 44-C ) :   0.8359 B( 44-C , 45-C ) :   1.3737 B( 45-C , 46-C ) :   1.3506
B( 45-C , 53-C ) :   1.0403 B( 46-C , 47-C ) :   1.3682 B( 46-C , 51-C ) :   0.9023
B( 47-C , 48-C ) :   0.9202 B( 48-C , 49-O ) :   2.2085 B( 48-C , 50-O ) :   1.0591
B( 50-O , 51-C ) :   1.0576 B( 51-C , 52-O ) :   2.2495 B( 53-C , 54-C ) :   1.6769
B( 53-C , 84-H ) :   0.9494 B( 54-C , 55-C ) :   1.1390 B( 54-C , 85-H ) :   0.9692
B( 55-C , 56-C ) :   1.6060 B( 55-C , 86-H ) :   0.9607 B( 56-C , 57-C ) :   1.0452
B( 56-C , 65-C ) :   0.9327 B( 57-C , 58-C ) :   1.6478 B( 57-C , 63-C ) :   1.0094
B( 58-C , 59-C ) :   1.1392 B( 58-C , 61-C ) :   1.1442 B( 59-C , 60-N ) :   2.9713
B( 61-C , 62-N ) :   2.9701 B( 63-C , 64-C ) :   1.2721 B( 63-C , 70-C ) :   1.4036
B( 64-C , 65-C ) :   0.9494 B( 64-C , 67-C ) :   1.4198 B( 65-C , 66-O ) :   2.2004
B( 67-C , 68-C ) :   1.2505 B( 67-C , 87-H ) :   1.0163 B( 68-C , 69-C ) :   1.2981
B( 68-C , 73-C ) :   1.1650 B( 69-C , 70-C ) :   1.3376 B( 69-C , 71-S ) :   1.0884
B( 70-C , 88-H ) :   0.9793 B( 71-S , 72-C ) :   1.0866 B( 72-C , 73-C ) :   1.6157
B( 72-C , 74-Br) :   1.0218 B( 73-C , 89-H ) :   1.0003

-----------------------------------------------------------------------------
         ABSORPTION SPECTRUM VIA TRANSITION ELECTRIC DIPOLE MOMENTS
-----------------------------------------------------------------------------
State   Energy  Wavelength   fosc         T2         TX        TY        TZ
        (cm-1)    (nm)                  (au**2)     (au)      (au)      (au)
-----------------------------------------------------------------------------
   0    8311.1   1203.2   0.913355858  36.17899   5.35453  -2.07558   1.78885
   1   15022.0    665.7   0.092683481   2.03118   0.22967  -1.40063   0.12912
   2   15755.0    634.7   0.579215365  12.10313   2.17259  -2.71672   0.04948
   3   18279.9    547.0   0.376419465   6.77911   1.55359  -2.08782   0.08050
   4   20873.5    479.1   0.030624741   0.48301   0.58464   0.37450   0.03083
   5   23615.1    423.5   0.042518280   0.59274   0.74554  -0.15465  -0.11396
   6   24063.2    415.6   0.009217765   0.12611  -0.19760   0.29503  -0.00431
   7   24197.4    413.3   0.097418739   1.32541  -0.29561  -1.04856  -0.37221
   8   24859.1    402.3   0.119530158   1.58295   0.10002  -1.25377  -0.03166
   9   24987.0    400.2   0.001964978   0.02589   0.11461   0.03010  -0.10885
  10   25165.2    397.4   0.024367047   0.31877  -0.28180   0.46625  -0.14824
  11   25303.8    395.2   0.210719950   2.74154  -0.86608   1.40992   0.05984
  12   25922.9    385.8   0.042622771   0.54129   0.58586   0.10919  -0.43145
  13   26372.8    379.2   0.432550314   5.39954  -1.16177   1.45817  -1.38693
  14   27199.2    367.7   0.086429472   1.04612   0.16503  -0.66510   0.75929
  15   27619.3    362.1   0.019145139   0.22820   0.05200   0.45591   0.13285
  16   27828.7    359.3   0.001387051   0.01641   0.05215  -0.10481   0.05200
  17   28368.3    352.5   0.030157379   0.34997  -0.23012   0.08419  -0.53845
  18   28954.5    345.4   0.003069656   0.03490  -0.17605   0.05872   0.02148
  19   29031.1    344.5   0.014329137   0.16249   0.25752  -0.28470   0.12298
  20   29362.6    340.6   0.040914320   0.45873  -0.54168   0.40524   0.03304
  21   30043.1    332.9   0.027176941   0.29780   0.14411   0.43820   0.29158
  22   30666.4    326.1   0.025950018   0.27858   0.28950   0.26639   0.35186
  23   30904.6    323.6   0.017781976   0.18942  -0.23955  -0.00060   0.36337
  24   31559.3    316.9   0.121615554   1.26864   0.34791   0.95297   0.48932
  25   31784.2    314.6   0.098525537   1.02050   0.47611  -0.16860  -0.87487
  26   31862.6    313.8   0.492174936   5.08527  -0.62357   2.16712   0.00441
  27   32146.4    311.1   0.128540937   1.31639   0.37019  -1.06097  -0.23173
  28   32270.8    309.9   0.218186691   2.22584  -0.13278   0.39762  -1.43182
  29   32442.6    308.2   0.465401511   4.72267   0.29354  -0.64083   2.05569
  30   32780.5    305.1   0.043187538   0.43373   0.06705   0.14072  -0.63987
  31   32882.1    304.1   0.015961006   0.15980  -0.04091  -0.33275  -0.21772
  32   33322.2    300.1   0.025670153   0.25361  -0.46384   0.18873   0.05336
  33   33354.2    299.8   0.026226574   0.25886  -0.37009   0.29547  -0.18600
  34   33501.9    298.5   0.023405133   0.22999  -0.13376   0.44073   0.13365
  35   33878.7    295.2   0.059738480   0.58050   0.58217  -0.48662  -0.06913
  36   34377.9    290.9   0.000518906   0.00497  -0.04328   0.05338  -0.01571
  37   34410.3    290.6   0.007361893   0.07043  -0.08197   0.21754  -0.12803
  38   34768.3    287.6   0.049799659   0.47154  -0.25470  -0.60973  -0.18680
  39   34973.6    285.9   0.039252047   0.36949   0.24384  -0.52791  -0.17702
  40   35307.0    283.2   0.021972161   0.20487   0.37147  -0.07402  -0.24780
  41   35414.3    282.4   0.076803068   0.71396  -0.25497   0.69841  -0.40147
  42   35579.0    281.1   0.006924753   0.06407  -0.08901   0.15232   0.18153
  43   35677.2    280.3   0.004507516   0.04159  -0.19001  -0.01710  -0.07209
  44   35719.2    280.0   0.010060266   0.09272  -0.12026   0.26940   0.07541
  45   35978.5    277.9   0.037769141   0.34560   0.46584   0.18140  -0.30933
  46   36290.3    275.6   0.092159664   0.83604   0.35904   0.28601  -0.79077
  47   36387.6    274.8   0.023428381   0.21197   0.26247   0.37808  -0.01143
  48   36719.6    272.3   0.034890655   0.31281   0.09088   0.29562   0.46601
  49   37423.8    267.2   0.028074967   0.24697  -0.48604  -0.05101  -0.09021
  50   37651.8    265.6   0.024725556   0.21619  -0.39547   0.15709  -0.18738
  51   37750.2    264.9   0.005906032   0.05151  -0.00711   0.20726  -0.09219
  52   37840.9    264.3   0.033898641   0.29492   0.34204  -0.38956  -0.16177
  53   38008.0    263.1   0.163317191   1.41459   0.27126  -1.08731  -0.39845
  54   38257.3    261.4   0.032672338   0.28115  -0.34335   0.40130  -0.04709
  55   38421.0    260.3   0.018717964   0.16039   0.16206  -0.34406   0.12549
  56   38657.7    258.7   0.089671221   0.76365   0.39577  -0.70388   0.33401
  57   38998.3    256.4   0.101417102   0.85613  -0.59205   0.62707   0.33524
  58   39265.3    254.7   0.002103160   0.01763  -0.06077   0.11239  -0.03617
  59   39318.0    254.3   0.031269529   0.26182  -0.02996   0.50432   0.08116
  60   39387.4    253.9   0.118982545   0.99449  -0.40219   0.91234  -0.01945
  61   39414.5    253.7   0.045118616   0.37686   0.24305  -0.56310   0.02649
  62   39715.6    251.8   0.023011302   0.19075   0.02063   0.41800   0.12488
  63   40098.6    249.4   0.001832658   0.01505  -0.03426  -0.11778  -0.00120
  64   40199.4    248.8   0.061659278   0.50496  -0.17813  -0.68786  -0.00903
  65   40323.6    248.0   0.024559479   0.20051   0.06827  -0.37000  -0.24280

FINAL SINGLE POINT ENERGY     -7621.224686444159

DIPOLE MOMENT
-------------
                                X             Y             Z
Electronic contribution:     73.38601    -112.95211      71.37682
Nuclear contribution   :    -73.43668     115.84962     -68.29303
                        -----------------------------------------
Total Dipole Moment    :     -0.05067       2.89751       3.08380
                        -----------------------------------------
Magnitude (a.u.)       :      4.23178
Magnitude (Debye)      :     10.75633

Rotational constants in cm-1:     0.001548     0.000151     0.000148
Rotational constants in MHz :    46.418640     4.520178     4.425705

                             ****ORCA TERMINATED NORMALLY****
TOTAL RUN TIME: 0 days 0 hours 8 minutes 43 seconds 733 msec
