                         Program Version 4.2.0 -  RELEASE  -
|  1> # ORCA input file
|  2> # SCF done       -180.994376823796          0.000553205949
|  3> ! CAM-B3LYP def2-SVP def2/J RIJCOSX Grid4 TightSCF
|  4> %maxcore 5000
|  5> %tddft
|  6>     Mode sTDDFT
|  7>     Ethresh 5.0
|  8>     maxcore 5000
|  9> end
| 10>
| 11> %pal
| 12>   nprocs 6
| 13>   end
| 14> * xyz 0 1
| 15>    C        0.29551        -5.76003        10.40287
| 16>    C       -0.54014        -5.19442         9.44533
| 17>    C       -0.54587        -5.66593         8.08128
| 18>    N       -1.41815        -5.15698         7.18999
| 19>    C       -2.18980        -4.17265         7.56354
| 20>    C       -2.12960        -3.64615         8.90474
| 21>    N       -1.34832        -4.17395         9.80484
| 22>    C       -2.95940        -2.54992         9.25586
| 23>    N       -3.64602        -1.66646         9.49945
| 24>    C       -3.11197        -3.63067         6.63343
| 25>    N       -3.86581        -3.17375         5.90202
| 26>    C        0.32437        -6.68143         7.65993
| 27>    C        1.18241        -7.22591         8.61896
| 28>    C        1.15153        -6.77430         9.99605
| 29>    N        2.04902        -7.43161        10.74504
| 30>    S        2.83139        -8.47036         9.82103
| 31>    N        2.11359        -8.16733         8.42373
| 32>    C        0.35318        -7.09725         6.26681
| 33>    C        0.26114        -8.42359         5.84834
| 34>    C        0.00785        -9.51343         6.80930
| 35>    O       -0.37028        -9.43243         7.94174
| 36>    S        0.27269       -11.06690         5.98146
| 37>    C        0.50182       -10.27240         4.38524
| 38>    O        0.78976       -10.95488         3.42660
| 39>    C        0.35007        -8.82947         4.50337
| 40>    C        0.36979        -7.85968         3.44140
| 41>    C        0.50072        -6.52497         3.89955
| 42>    C        0.51271        -6.16283         5.23578
| 43>    C        0.76211        -4.70847         5.31361
| 44>    O        0.93626        -3.99954         6.25876
| 45>    O        0.82216        -4.24565         4.02462
| 46>    C        0.67316        -5.27457         3.12182
| 47>    O        0.70844        -5.08312         1.94453
| 48>    C        0.25654        -8.06408         2.04446
| 49>    C       -0.09151        -9.22297         1.41045
| 50>    C       -0.18590        -9.36969         0.01312
| 51>    C       -0.26514       -10.63014        -0.59239
| 52>    O       -0.48044       -10.77819        -1.93900
| 53>    C       -0.54384        -9.62177        -2.66051
| 54>    C       -0.37186        -8.34424        -2.05326
| 55>    C       -0.44271        -7.32428        -2.94579
| 56>    S       -0.72332        -7.91096        -4.54040
| 57>    C       -0.74439        -9.54632        -4.00026
| 58>    O       -0.17849        -8.20524        -0.71433
| 59>    C       -0.04449       -11.82375         0.11697
| 60>    C       -0.08497       -13.07400        -0.45334
| 61>    C        0.22146       -14.25047         0.22443
| 62>    S        0.14039       -15.78892        -0.61904
| 63>    C        0.67779       -16.73473         0.75371
| 64>    C        0.89438       -15.86737         1.84263
| 65>    C        0.64381       -14.50029         1.54424
| 66>    N        0.91155       -13.80924         2.67433
| 67>    N        1.30292       -14.62712         3.65687
| 68>    C        1.30249       -15.85459         3.19528
| 69>    C        0.84738       -18.10742         0.62076
| 70>    C        1.32381       -18.94559         1.60909
| 71>    C        1.52340       -20.30493         1.40578
| 72>    C        2.04146       -21.18406         2.34150
| 73>    C        2.45144       -20.94522         3.67150
| 74>    C        2.94198       -22.04516         4.31169
| 75>    C        2.94923       -23.21476         3.51985
| 76>    S        2.29549       -22.86741         1.93367
| 77>    C        3.40003       -24.47212         3.86873
| 78>    C        3.95313       -24.87101         5.11635
| 79>    C        4.32542       -26.17031         5.16924
| 80>    C        4.09239       -26.90099         3.95765
| 81>    S        3.36436       -25.81977         2.75815
| 82>    C        4.36260       -28.19034         3.70901
| 83>    H        0.28377        -5.40033        11.41787
| 84>    H        0.44292        -7.19442         1.43138
| 85>    H       -0.32654       -10.09483         1.98740
| 86>    H       -0.34700        -6.27632        -2.75373
| 87>    H       -0.89991       -10.34921        -4.68993
| 88>    H        0.22343       -11.74084         1.15335
| 89>    H       -0.35346       -13.16509        -1.49638
| 90>    H        0.86742       -12.81556         2.87249
| 91>    H        1.58518       -16.66402         3.83633
| 92>    H        0.60545       -18.53522        -0.34335
| 93>    H        1.56896       -18.51955         2.56889
| 94>    H        1.27314       -20.71223         0.43500
| 95>    H        2.37757       -19.97441         4.12672
| 96>    H        3.29941       -22.04120         5.32561
| 97>    H        4.05615       -24.17746         5.93164
| 98>    H        4.76319       -26.65146         6.02550
| 99>    H        4.80773       -28.81349         4.46440
|100>    H        4.14709       -28.63991         2.75712
|101> *
|102>
|103>                          ****END OF INPUT****

CARTESIAN COORDINATES (ANGSTROEM)
---------------------------------
  C      0.295510   -5.760030   10.402870
  C     -0.540140   -5.194420    9.445330
  C     -0.545870   -5.665930    8.081280
  N     -1.418150   -5.156980    7.189990
  C     -2.189800   -4.172650    7.563540
  C     -2.129600   -3.646150    8.904740
  N     -1.348320   -4.173950    9.804840
  C     -2.959400   -2.549920    9.255860
  N     -3.646020   -1.666460    9.499450
  C     -3.111970   -3.630670    6.633430
  N     -3.865810   -3.173750    5.902020
  C      0.324370   -6.681430    7.659930
  C      1.182410   -7.225910    8.618960
  C      1.151530   -6.774300    9.996050
  N      2.049020   -7.431610   10.745040
  S      2.831390   -8.470360    9.821030
  N      2.113590   -8.167330    8.423730
  C      0.353180   -7.097250    6.266810
  C      0.261140   -8.423590    5.848340
  C      0.007850   -9.513430    6.809300
  O     -0.370280   -9.432430    7.941740
  S      0.272690  -11.066900    5.981460
  C      0.501820  -10.272400    4.385240
  O      0.789760  -10.954880    3.426600
  C      0.350070   -8.829470    4.503370
  C      0.369790   -7.859680    3.441400
  C      0.500720   -6.524970    3.899550
  C      0.512710   -6.162830    5.235780
  C      0.762110   -4.708470    5.313610
  O      0.936260   -3.999540    6.258760
  O      0.822160   -4.245650    4.024620
  C      0.673160   -5.274570    3.121820
  O      0.708440   -5.083120    1.944530
  C      0.256540   -8.064080    2.044460
  C     -0.091510   -9.222970    1.410450
  C     -0.185900   -9.369690    0.013120
  C     -0.265140  -10.630140   -0.592390
  O     -0.480440  -10.778190   -1.939000
  C     -0.543840   -9.621770   -2.660510
  C     -0.371860   -8.344240   -2.053260
  C     -0.442710   -7.324280   -2.945790
  S     -0.723320   -7.910960   -4.540400
  C     -0.744390   -9.546320   -4.000260
  O     -0.178490   -8.205240   -0.714330
  C     -0.044490  -11.823750    0.116970
  C     -0.084970  -13.074000   -0.453340
  C      0.221460  -14.250470    0.224430
  S      0.140390  -15.788920   -0.619040
  C      0.677790  -16.734730    0.753710
  C      0.894380  -15.867370    1.842630
  C      0.643810  -14.500290    1.544240
  N      0.911550  -13.809240    2.674330
  N      1.302920  -14.627120    3.656870
  C      1.302490  -15.854590    3.195280
  C      0.847380  -18.107420    0.620760
  C      1.323810  -18.945590    1.609090
  C      1.523400  -20.304930    1.405780
  C      2.041460  -21.184060    2.341500
  C      2.451440  -20.945220    3.671500
  C      2.941980  -22.045160    4.311690
  C      2.949230  -23.214760    3.519850
  S      2.295490  -22.867410    1.933670
  C      3.400030  -24.472120    3.868730
  C      3.953130  -24.871010    5.116350
  C      4.325420  -26.170310    5.169240
  C      4.092390  -26.900990    3.957650
  S      3.364360  -25.819770    2.758150
  C      4.362600  -28.190340    3.709010
  H      0.283770   -5.400330   11.417870
  H      0.442920   -7.194420    1.431380
  H     -0.326540  -10.094830    1.987400
  H     -0.347000   -6.276320   -2.753730
  H     -0.899910  -10.349210   -4.689930
  H      0.223430  -11.740840    1.153350
  H     -0.353460  -13.165090   -1.496380
  H      0.867420  -12.815560    2.872490
  H      1.585180  -16.664020    3.836330
  H      0.605450  -18.535220   -0.343350
  H      1.568960  -18.519550    2.568890
  H      1.273140  -20.712230    0.435000
  H      2.377570  -19.974410    4.126720
  H      3.299410  -22.041200    5.325610
  H      4.056150  -24.177460    5.931640
  H      4.763190  -26.651460    6.025500
  H      4.807730  -28.813490    4.464400
  H      4.147090  -28.639910    2.757120

 Total Charge           Charge          ....    0
 Multiplicity           Mult            ....    1
 Number of Electrons    NEL             ....  508
 Basis Dimension        Dim             .... 1066

ORBITAL ENERGIES
----------------

  NO   OCC          E(Eh)            E(eV)
   0   2.0000     -89.050643     -2423.1912
   1   2.0000     -88.965254     -2420.8676
   2   2.0000     -88.958156     -2420.6745
   3   2.0000     -88.956043     -2420.6170
   4   2.0000     -88.953117     -2420.5374
   5   2.0000     -88.950524     -2420.4668
   6   2.0000     -19.289097      -524.8830
   7   2.0000     -19.285660      -524.7895
   8   2.0000     -19.272023      -524.4184
   9   2.0000     -19.253322      -523.9095
  10   2.0000     -19.245025      -523.6837
  11   2.0000     -19.239028      -523.5206
  12   2.0000     -19.235975      -523.4375
  13   2.0000     -14.479004      -393.9937
  14   2.0000     -14.462724      -393.5507
  15   2.0000     -14.460563      -393.4919
  16   2.0000     -14.454469      -393.3261
  17   2.0000     -14.454210      -393.3191
  18   2.0000     -14.434143      -392.7730
  19   2.0000     -14.428675      -392.6242
  20   2.0000     -14.426546      -392.5663
  21   2.0000     -10.432975      -283.8957
  22   2.0000     -10.429589      -283.8035
  23   2.0000     -10.415754      -283.4271
  24   2.0000     -10.407460      -283.2014
  25   2.0000     -10.382225      -282.5147
  26   2.0000     -10.380572      -282.4697
  27   2.0000     -10.363273      -281.9990
  28   2.0000     -10.348518      -281.5975
  29   2.0000     -10.346621      -281.5459
  30   2.0000     -10.344218      -281.4805
  31   2.0000     -10.342887      -281.4443
  32   2.0000     -10.342872      -281.4439
  33   2.0000     -10.341814      -281.4151
  34   2.0000     -10.340414      -281.3770
  35   2.0000     -10.334967      -281.2287
  36   2.0000     -10.331259      -281.1278
  37   2.0000     -10.329371      -281.0765
  38   2.0000     -10.327723      -281.0316
  39   2.0000     -10.324646      -280.9479
  40   2.0000     -10.323814      -280.9253
  41   2.0000     -10.323195      -280.9084
  42   2.0000     -10.323062      -280.9048
  43   2.0000     -10.321480      -280.8617
  44   2.0000     -10.320513      -280.8354
  45   2.0000     -10.320343      -280.8308
  46   2.0000     -10.319544      -280.8091
  47   2.0000     -10.319344      -280.8036
  48   2.0000     -10.317812      -280.7619
  49   2.0000     -10.317108      -280.7428
  50   2.0000     -10.310201      -280.5548
  51   2.0000     -10.308588      -280.5109
  52   2.0000     -10.300233      -280.2836
  53   2.0000     -10.299748      -280.2704
  54   2.0000     -10.298458      -280.2353
  55   2.0000     -10.296922      -280.1935
  56   2.0000     -10.296337      -280.1776
  57   2.0000     -10.296313      -280.1769
  58   2.0000     -10.293011      -280.0871
  59   2.0000     -10.292465      -280.0722
  60   2.0000     -10.292403      -280.0705
  61   2.0000     -10.291243      -280.0390
  62   2.0000     -10.287975      -279.9500
  63   2.0000     -10.286247      -279.9030
  64   2.0000     -10.282561      -279.8027
  65   2.0000     -10.280473      -279.7459
  66   2.0000     -10.279571      -279.7213
  67   2.0000     -10.273036      -279.5435
  68   2.0000      -8.141781      -221.5491
  69   2.0000      -8.060368      -219.3338
  70   2.0000      -8.055387      -219.1982
  71   2.0000      -8.053990      -219.1602
  72   2.0000      -8.049622      -219.0414
  73   2.0000      -8.047261      -218.9771
  74   2.0000      -6.112571      -166.3315
  75   2.0000      -6.105185      -166.1305
  76   2.0000      -6.104794      -166.1199
  77   2.0000      -6.029715      -164.0769
  78   2.0000      -6.025638      -163.9659
  79   2.0000      -6.024299      -163.9295
  80   2.0000      -6.023485      -163.9074
  81   2.0000      -6.022386      -163.8775
  82   2.0000      -6.020975      -163.8391
  83   2.0000      -6.019374      -163.7955
  84   2.0000      -6.019292      -163.7933
  85   2.0000      -6.017023      -163.7315
  86   2.0000      -6.016353      -163.7133
  87   2.0000      -6.015696      -163.6954
  88   2.0000      -6.015323      -163.6853
  89   2.0000      -6.013143      -163.6259
  90   2.0000      -6.010495      -163.5539
  91   2.0000      -6.007865      -163.4823
  92   2.0000      -1.239492       -33.7283
  93   2.0000      -1.207118       -32.8474
  94   2.0000      -1.172978       -31.9184
  95   2.0000      -1.169268       -31.8174
  96   2.0000      -1.167530       -31.7701
  97   2.0000      -1.164930       -31.6994
  98   2.0000      -1.144093       -31.1324
  99   2.0000      -1.143779       -31.1238
 100   2.0000      -1.126926       -30.6652
 101   2.0000      -1.118851       -30.4455
 102   2.0000      -1.047220       -28.4963
 103   2.0000      -1.017567       -27.6894
 104   2.0000      -1.010578       -27.4992
 105   2.0000      -1.003680       -27.3115
 106   2.0000      -1.001290       -27.2465
 107   2.0000      -0.995421       -27.0868
 108   2.0000      -0.988631       -26.9020
 109   2.0000      -0.986129       -26.8339
 110   2.0000      -0.980730       -26.6870
 111   2.0000      -0.977482       -26.5986
 112   2.0000      -0.954875       -25.9835
 113   2.0000      -0.934768       -25.4363
 114   2.0000      -0.928249       -25.2589
 115   2.0000      -0.916766       -24.9465
 116   2.0000      -0.910259       -24.7694
 117   2.0000      -0.905802       -24.6481
 118   2.0000      -0.895277       -24.3617
 119   2.0000      -0.886184       -24.1143
 120   2.0000      -0.878746       -23.9119
 121   2.0000      -0.868002       -23.6195
 122   2.0000      -0.859322       -23.3834
 123   2.0000      -0.854981       -23.2652
 124   2.0000      -0.854652       -23.2563
 125   2.0000      -0.841246       -22.8915
 126   2.0000      -0.834224       -22.7004
 127   2.0000      -0.828389       -22.5416
 128   2.0000      -0.825403       -22.4604
 129   2.0000      -0.816534       -22.2190
 130   2.0000      -0.806609       -21.9490
 131   2.0000      -0.800960       -21.7952
 132   2.0000      -0.794572       -21.6214
 133   2.0000      -0.783681       -21.3251
 134   2.0000      -0.770896       -20.9772
 135   2.0000      -0.763946       -20.7880
 136   2.0000      -0.748362       -20.3640
 137   2.0000      -0.743467       -20.2308
 138   2.0000      -0.731179       -19.8964
 139   2.0000      -0.721985       -19.6462
 140   2.0000      -0.711485       -19.3605
 141   2.0000      -0.703835       -19.1523
 142   2.0000      -0.703271       -19.1370
 143   2.0000      -0.700906       -19.0726
 144   2.0000      -0.697508       -18.9802
 145   2.0000      -0.691562       -18.8184
 146   2.0000      -0.690535       -18.7904
 147   2.0000      -0.689313       -18.7571
 148   2.0000      -0.681700       -18.5500
 149   2.0000      -0.677878       -18.4460
 150   2.0000      -0.668155       -18.1814
 151   2.0000      -0.651400       -17.7255
 152   2.0000      -0.644706       -17.5433
 153   2.0000      -0.639675       -17.4064
 154   2.0000      -0.637382       -17.3440
 155   2.0000      -0.635135       -17.2829
 156   2.0000      -0.628521       -17.1029
 157   2.0000      -0.625249       -17.0139
 158   2.0000      -0.622991       -16.9525
 159   2.0000      -0.616503       -16.7759
 160   2.0000      -0.615520       -16.7492
 161   2.0000      -0.607927       -16.5425
 162   2.0000      -0.601936       -16.3795
 163   2.0000      -0.596523       -16.2322
 164   2.0000      -0.592935       -16.1346
 165   2.0000      -0.588862       -16.0237
 166   2.0000      -0.584750       -15.9118
 167   2.0000      -0.578678       -15.7466
 168   2.0000      -0.574590       -15.6354
 169   2.0000      -0.572254       -15.5718
 170   2.0000      -0.571428       -15.5494
 171   2.0000      -0.563606       -15.3365
 172   2.0000      -0.561351       -15.2751
 173   2.0000      -0.556025       -15.1302
 174   2.0000      -0.554261       -15.0822
 175   2.0000      -0.553286       -15.0557
 176   2.0000      -0.548571       -14.9274
 177   2.0000      -0.546558       -14.8726
 178   2.0000      -0.545227       -14.8364
 179   2.0000      -0.542644       -14.7661
 180   2.0000      -0.538283       -14.6474
 181   2.0000      -0.536462       -14.5979
 182   2.0000      -0.532885       -14.5005
 183   2.0000      -0.529118       -14.3980
 184   2.0000      -0.526672       -14.3315
 185   2.0000      -0.522811       -14.2264
 186   2.0000      -0.520162       -14.1543
 187   2.0000      -0.514423       -13.9982
 188   2.0000      -0.511879       -13.9289
 189   2.0000      -0.508984       -13.8502
 190   2.0000      -0.507120       -13.7994
 191   2.0000      -0.505551       -13.7567
 192   2.0000      -0.504739       -13.7347
 193   2.0000      -0.501094       -13.6355
 194   2.0000      -0.500172       -13.6104
 195   2.0000      -0.494622       -13.4594
 196   2.0000      -0.491015       -13.3612
 197   2.0000      -0.487659       -13.2699
 198   2.0000      -0.486066       -13.2265
 199   2.0000      -0.483134       -13.1467
 200   2.0000      -0.482139       -13.1197
 201   2.0000      -0.480713       -13.0809
 202   2.0000      -0.478310       -13.0155
 203   2.0000      -0.476221       -12.9586
 204   2.0000      -0.474787       -12.9196
 205   2.0000      -0.473762       -12.8917
 206   2.0000      -0.469137       -12.7659
 207   2.0000      -0.462905       -12.5963
 208   2.0000      -0.462516       -12.5857
 209   2.0000      -0.457155       -12.4398
 210   2.0000      -0.453600       -12.3431
 211   2.0000      -0.450936       -12.2706
 212   2.0000      -0.450513       -12.2591
 213   2.0000      -0.444331       -12.0909
 214   2.0000      -0.442110       -12.0304
 215   2.0000      -0.439120       -11.9491
 216   2.0000      -0.438262       -11.9257
 217   2.0000      -0.437110       -11.8944
 218   2.0000      -0.434951       -11.8356
 219   2.0000      -0.432804       -11.7772
 220   2.0000      -0.432661       -11.7733
 221   2.0000      -0.430382       -11.7113
 222   2.0000      -0.421815       -11.4782
 223   2.0000      -0.419209       -11.4073
 224   2.0000      -0.416856       -11.3432
 225   2.0000      -0.413410       -11.2494
 226   2.0000      -0.412424       -11.2226
 227   2.0000      -0.410057       -11.1582
 228   2.0000      -0.408718       -11.1218
 229   2.0000      -0.405537       -11.0352
 230   2.0000      -0.401967       -10.9381
 231   2.0000      -0.394076       -10.7234
 232   2.0000      -0.386856       -10.5269
 233   2.0000      -0.378663       -10.3039
 234   2.0000      -0.376531       -10.2459
 235   2.0000      -0.375889       -10.2285
 236   2.0000      -0.368985       -10.0406
 237   2.0000      -0.363217        -9.8836
 238   2.0000      -0.362762        -9.8712
 239   2.0000      -0.361103        -9.8261
 240   2.0000      -0.354717        -9.6523
 241   2.0000      -0.350317        -9.5326
 242   2.0000      -0.347260        -9.4494
 243   2.0000      -0.343037        -9.3345
 244   2.0000      -0.342183        -9.3113
 245   2.0000      -0.336918        -9.1680
 246   2.0000      -0.319981        -8.7071
 247   2.0000      -0.318113        -8.6563
 248   2.0000      -0.308129        -8.3846
 249   2.0000      -0.305061        -8.3011
 250   2.0000      -0.294128        -8.0036
 251   2.0000      -0.274723        -7.4756
 252   2.0000      -0.242916        -6.6101
 253   2.0000      -0.205133        -5.5820
 254   0.0000      -0.118410        -3.2221
 255   0.0000      -0.105146        -2.8612
 256   0.0000      -0.093947        -2.5564
 257   0.0000      -0.069197        -1.8830
 258   0.0000      -0.045905        -1.2491

MULLIKEN ATOMIC CHARGES
-----------------------
   0 C :   -0.084453
   1 C :    0.015925
   2 C :   -0.036158
   3 N :    0.047152
   4 C :   -0.118103
   5 C :   -0.140245
   6 N :    0.061177
   7 C :   -0.198980
   8 N :    0.231343
   9 C :   -0.205905
  10 N :    0.241946
  11 C :    0.067002
  12 C :   -0.011788
  13 C :    0.116466
  14 N :   -0.264766
  15 S :    0.559909
  16 N :   -0.273673
  17 C :   -0.026240
  18 C :    0.039900
  19 C :    0.049926
  20 O :   -0.132683
  21 S :    0.041100
  22 C :    0.045583
  23 O :   -0.203917
  24 C :    0.016656
  25 C :    0.114326
  26 C :   -0.089254
  27 C :   -0.045266
  28 C :    0.239573
  29 O :   -0.114437
  30 O :   -0.227078
  31 C :    0.238338
  32 O :   -0.102687
  33 C :   -0.078996
  34 C :   -0.005387
  35 C :    0.124258
  36 C :    0.217824
  37 O :   -0.245328
  38 C :    0.208865
  39 C :    0.223505
  40 C :   -0.172588
  41 S :    0.114774
  42 C :   -0.168131
  43 O :   -0.240641
  44 C :   -0.111596
  45 C :    0.091679
  46 C :   -0.188165
  47 S :    0.144124
  48 C :   -0.076341
  49 C :   -0.002835
  50 C :    0.164089
  51 N :   -0.040212
  52 N :   -0.061255
  53 C :   -0.023985
  54 C :    0.019352
  55 C :    0.023853
  56 C :    0.030355
  57 C :   -0.045786
  58 C :    0.022782
  59 C :    0.028324
  60 C :   -0.053583
  61 S :    0.102344
  62 C :   -0.059882
  63 C :    0.027518
  64 C :    0.059053
  65 C :   -0.070882
  66 S :    0.091472
  67 C :   -0.019682
  68 H :   -0.013401
  69 H :    0.017994
  70 H :    0.008034
  71 H :    0.034482
  72 H :    0.025569
  73 H :   -0.024107
  74 H :   -0.009137
  75 H :    0.133500
  76 H :   -0.004243
  77 H :   -0.022866
  78 H :   -0.024112
  79 H :   -0.016244
  80 H :   -0.012097
  81 H :   -0.011284
  82 H :   -0.007712
  83 H :   -0.006721
  84 H :    0.025524
  85 H :    0.027233
Sum of atomic charges:   -0.0000000

LOEWDIN ATOMIC CHARGES
----------------------
   0 C :    0.014436
   1 C :   -0.007951
   2 C :    0.004474
   3 N :   -0.000072
   4 C :   -0.019797
   5 C :   -0.024516
   6 N :    0.005942
   7 C :   -0.034651
   8 N :   -0.002228
   9 C :   -0.036504
  10 N :   -0.000436
  11 C :   -0.011585
  12 C :   -0.035344
  13 C :   -0.044801
  14 N :   -0.282239
  15 S :    0.704150
  16 N :   -0.294191
  17 C :    0.007490
  18 C :   -0.027323
  19 C :   -0.044073
  20 O :   -0.117710
  21 S :    0.323311
  22 C :   -0.022979
  23 O :   -0.155068
  24 C :   -0.081932
  25 C :    0.042416
  26 C :   -0.050663
  27 C :   -0.024765
  28 C :    0.109121
  29 O :   -0.110720
  30 O :   -0.052583
  31 C :    0.112704
  32 O :   -0.095837
  33 C :   -0.067499
  34 C :    0.019059
  35 C :   -0.005230
  36 C :    0.069779
  37 O :   -0.041987
  38 C :   -0.011415
  39 C :   -0.006552
  40 C :   -0.207512
  41 S :    0.443043
  42 C :   -0.208750
  43 O :   -0.046904
  44 C :   -0.082609
  45 C :   -0.002599
  46 C :   -0.214554
  47 S :    0.448240
  48 C :   -0.138690
  49 C :   -0.102197
  50 C :   -0.006138
  51 N :    0.102889
  52 N :   -0.055716
  53 C :   -0.044082
  54 C :   -0.060454
  55 C :   -0.002123
  56 C :   -0.063014
  57 C :   -0.136474
  58 C :   -0.044166
  59 C :   -0.018469
  60 C :   -0.187956
  61 S :    0.384000
  62 C :   -0.167768
  63 C :   -0.027816
  64 C :   -0.023968
  65 C :   -0.140776
  66 S :    0.363481
  67 C :   -0.063034
  68 H :    0.050632
  69 H :    0.035540
  70 H :    0.028311
  71 H :    0.033148
  72 H :    0.029502
  73 H :    0.028135
  74 H :    0.034185
  75 H :    0.063219
  76 H :    0.017850
  77 H :    0.029232
  78 H :    0.027608
  79 H :    0.030162
  80 H :    0.031924
  81 H :    0.033236
  82 H :    0.033669
  83 H :    0.035486
  84 H :    0.031235
  85 H :    0.028810

  Mayer bond orders larger than 0.100000
B(  0-C ,  1-C ) :   1.2879 B(  0-C , 11-C ) :   0.1502 B(  0-C , 13-C ) :   1.1686
B(  0-C , 68-H ) :   1.0640 B(  1-C ,  2-C ) :   1.1277 B(  1-C ,  6-N ) :   1.3374
B(  2-C ,  3-N ) :   1.4167 B(  2-C , 11-C ) :   1.3753 B(  3-N ,  4-C ) :   1.7458
B(  4-C ,  5-C ) :   1.1740 B(  4-C ,  9-C ) :   1.1496 B(  5-C ,  6-N ) :   1.7928
B(  5-C ,  7-C ) :   1.1480 B(  7-C ,  8-N ) :   3.0497 B(  9-C , 10-N ) :   3.0502
B( 11-C , 12-C ) :   1.3086 B( 11-C , 17-C ) :   0.9338 B( 12-C , 13-C ) :   1.1184
B( 12-C , 16-N ) :   1.4981 B( 13-C , 14-N ) :   1.4434 B( 14-N , 15-S ) :   1.3305
B( 14-N , 16-N ) :   0.1630 B( 15-S , 16-N ) :   1.2973 B( 17-C , 18-C ) :   1.4746
B( 17-C , 27-C ) :   1.3618 B( 18-C , 19-C ) :   0.8383 B( 18-C , 24-C ) :   1.3071
B( 19-C , 20-O ) :   2.1746 B( 19-C , 21-S ) :   1.0232 B( 20-O , 21-S ) :   0.1047
B( 21-S , 22-C ) :   1.0490 B( 22-C , 23-O ) :   1.9673 B( 22-C , 24-C ) :   0.9229
B( 23-O , 75-H ) :   0.1047 B( 24-C , 25-C ) :   1.2045 B( 25-C , 26-C ) :   1.2441
B( 25-C , 33-C ) :   1.2387 B( 26-C , 27-C ) :   1.4115 B( 26-C , 31-C ) :   0.9206
B( 27-C , 28-C ) :   0.8880 B( 28-C , 29-O ) :   2.2402 B( 28-C , 30-O ) :   1.0700
B( 30-O , 31-C ) :   1.0471 B( 31-C , 32-O ) :   2.2152 B( 33-C , 34-C ) :   1.4825
B( 33-C , 69-H ) :   0.9627 B( 34-C , 35-C ) :   1.2958 B( 34-C , 70-H ) :   0.9392
B( 35-C , 36-C ) :   1.3137 B( 35-C , 43-O ) :   1.0603 B( 36-C , 37-O ) :   1.1001
B( 36-C , 44-C ) :   1.2847 B( 37-O , 38-C ) :   1.0352 B( 38-C , 39-C ) :   1.2033
B( 38-C , 42-C ) :   1.5679 B( 39-C , 40-C ) :   1.5683 B( 39-C , 43-O ) :   1.0602
B( 40-C , 41-S ) :   1.1433 B( 40-C , 71-H ) :   0.9721 B( 41-S , 42-C ) :   1.1486
B( 42-C , 72-H ) :   0.9729 B( 44-C , 45-C ) :   1.5091 B( 44-C , 73-H ) :   0.9462
B( 45-C , 46-C ) :   1.2521 B( 45-C , 74-H ) :   0.9556 B( 46-C , 47-S ) :   1.0652
B( 46-C , 50-C ) :   1.2793 B( 47-S , 48-C ) :   1.1471 B( 48-C , 49-C ) :   1.2474
B( 48-C , 54-C ) :   1.2271 B( 49-C , 50-C ) :   1.2851 B( 49-C , 53-C ) :   1.1809
B( 50-C , 51-N ) :   1.1979 B( 51-N , 52-N ) :   1.1479 B( 51-N , 75-H ) :   0.9045
B( 52-N , 53-C ) :   1.7246 B( 53-C , 76-H ) :   0.9940 B( 54-C , 55-C ) :   1.5339
B( 54-C , 77-H ) :   0.9653 B( 55-C , 56-C ) :   1.2713 B( 55-C , 78-H ) :   0.9692
B( 56-C , 57-C ) :   1.4656 B( 56-C , 79-H ) :   0.9692 B( 57-C , 58-C ) :   1.1792
B( 57-C , 61-S ) :   1.0569 B( 58-C , 59-C ) :   1.5877 B( 58-C , 80-H ) :   0.9904
B( 59-C , 60-C ) :   1.1961 B( 59-C , 81-H ) :   0.9918 B( 60-C , 61-S ) :   1.0442
B( 60-C , 62-C ) :   1.5159 B( 62-C , 63-C ) :   1.1629 B( 62-C , 66-S ) :   1.0611
B( 63-C , 64-C ) :   1.6531 B( 63-C , 82-H ) :   0.9920 B( 64-C , 65-C ) :   1.0827
B( 64-C , 83-H ) :   0.9928 B( 65-C , 66-S ) :   1.0063 B( 65-C , 67-C ) :   1.8593
B( 67-C , 84-H ) :   0.9510 B( 67-C , 85-H ) :   0.9419

-----------------------------------------------------------------------------
         ABSORPTION SPECTRUM VIA TRANSITION ELECTRIC DIPOLE MOMENTS
-----------------------------------------------------------------------------
State   Energy  Wavelength   fosc         T2         TX        TY        TZ
        (cm-1)    (nm)                  (au**2)     (au)      (au)      (au)
-----------------------------------------------------------------------------
   0    8249.7   1212.2   0.978671545  39.05491  -1.04424   6.03353   1.24941
   1    9021.3   1108.5   0.014960435   0.54595   0.02344  -0.60641  -0.42151
   2   12020.4    831.9   1.031906561  28.26166  -1.11114   5.02712  -1.32480
   3   16830.3    594.2   0.261391300   5.11299  -0.57543   1.02251  -1.93296
   4   17173.3    582.3   0.388237083   7.44249   0.96943  -1.36129   2.15629
   5   17904.8    558.5   0.050583747   0.93007  -0.33967   0.82065  -0.37581
   6   20147.5    496.3   0.012018091   0.19638   0.41875  -0.07265   0.12548
   7   22474.1    445.0   0.129783122   1.90112   0.05089   0.53383   1.27026
   8   22613.9    442.2   0.009542380   0.13892  -0.15210   0.19779   0.27688
   9   24128.1    414.5   0.022023142   0.30049   0.12185   0.27149  -0.46037
  10   24429.6    409.3   0.021497896   0.28970   0.16679  -0.12261  -0.49684
  11   25107.4    398.3   0.015206468   0.19939  -0.11372  -0.07028   0.42605
  12   25597.3    390.7   0.011382713   0.14640   0.00634   0.02981  -0.38140
  13   26001.3    384.6   0.003091610   0.03914  -0.05697  -0.00806   0.18930
  14   26251.1    380.9   0.011420540   0.14322  -0.05348  -0.33938  -0.15871
  15   26629.4    375.5   0.058636859   0.72491  -0.02728   0.07019  -0.84808
  16   26889.9    371.9   0.031185480   0.38180   0.06893  -0.01300  -0.61391
  17   27303.9    366.2   0.024057733   0.29007   0.07961   0.35219   0.39962
  18   27557.2    362.9   0.001725397   0.02061   0.00948  -0.13762  -0.03979
  19   27652.5    361.6   0.017139611   0.20405   0.10417  -0.27797  -0.34049
  20   29363.8    340.6   0.207221405   2.32326  -0.89199   0.42420  -1.16089
  21   29374.4    340.4   0.060880861   0.68232   0.71231  -0.36565  -0.20305
  22   29486.6    339.1   0.059621080   0.66566  -0.21764   0.55653   0.55548
  23   30202.1    331.1   0.154137933   1.68015   0.72426  -1.06406  -0.15286
  24   30487.1    328.0   0.046270375   0.49965   0.13089  -0.67689  -0.15600
  25   31116.7    321.4   0.070980998   0.75097   0.26494  -0.19425   0.80190
  26   31670.4    315.8   0.017412743   0.18100   0.22800  -0.35735  -0.03631
  27   31730.3    315.2   0.080679575   0.83708   0.10263  -0.80659   0.41947
  28   31770.9    314.8   0.010530833   0.10912  -0.24225   0.22041   0.04308
  29   32000.5    312.5   0.024472939   0.25177  -0.04100  -0.33125   0.37465
  30   32230.0    310.3   0.002068821   0.02113  -0.11571  -0.03525  -0.08062
  31   32294.6    309.6   0.028541921   0.29096  -0.24756   0.06205  -0.47521
  32   32754.0    305.3   0.007090986   0.07127  -0.10744  -0.11091   0.21778
  33   33093.1    302.2   0.001153709   0.01148   0.04679   0.09242   0.02733
  34   33219.6    301.0   0.033469437   0.33169  -0.23278   0.21774  -0.47967
  35   33637.9    297.3   0.009049450   0.08857  -0.14380  -0.17963  -0.18873
  36   33748.4    296.3   0.000070772   0.00069  -0.01349  -0.01894   0.01223
  37   33867.7    295.3   0.008532801   0.08294  -0.17628  -0.19113  -0.12384
  38   34132.3    293.0   0.007176297   0.06922  -0.24364  -0.09928  -0.00036
  39   34273.0    291.8   0.008260656   0.07935   0.26972  -0.04635  -0.06670
  40   34376.1    290.9   0.029741757   0.28483   0.02490  -0.51938   0.12025
  41   34422.6    290.5   0.048612738   0.46492  -0.38813   0.55322  -0.09068
  42   34745.1    287.8   0.022670100   0.21480   0.28810  -0.10260   0.34824
  43   35142.8    284.6   0.008898851   0.08336   0.05530  -0.24591   0.14082
  44   35413.6    282.4   0.019341863   0.17981   0.01357  -0.39114  -0.16318
  45   35665.7    280.4   0.032051852   0.29585  -0.06836  -0.01805  -0.53931
  46   35708.5    280.0   0.018018845   0.16612   0.14339  -0.04318   0.37908
  47   35864.8    278.8   0.037908686   0.34797   0.07573  -0.45608   0.36637
  48   35923.3    278.4   0.016984732   0.15565   0.18793  -0.30855  -0.15853
  49   36062.2    277.3   0.026761510   0.24431   0.05551   0.32124   0.37152
  50   36332.0    275.2   0.004377663   0.03967   0.05057  -0.07030  -0.17935
  51   36504.7    273.9   0.000905190   0.00816   0.04554  -0.05817  -0.05202
  52   36786.7    271.8   0.006266043   0.05608  -0.14369  -0.09382   0.16317
  53   36950.0    270.6   0.002350358   0.02094  -0.08411   0.11726  -0.01073
  54   37431.7    267.2   0.039484740   0.34727  -0.13456   0.07642  -0.56861
  55   37601.7    265.9   0.019205519   0.16815   0.01623  -0.16503   0.37503
  56   37773.9    264.7   0.043782295   0.38158  -0.48497   0.38249   0.00879
  57   37903.4    263.8   0.002915183   0.02532   0.00879  -0.15829  -0.01369
  58   38166.4    262.0   0.011468861   0.09893   0.06398  -0.29861  -0.07527
  59   38397.8    260.4   0.033364480   0.28606  -0.21301   0.48849  -0.04541
  60   38568.4    259.3   0.019671332   0.16791   0.27211  -0.08519   0.29429
  61   38722.8    258.2   0.032948732   0.28012   0.08287  -0.22222   0.47315
  62   38897.0    257.1   0.065512976   0.55448  -0.33771   0.64895   0.13891
  63   39022.5    256.3   0.009126757   0.07700   0.05199   0.17086   0.21237
  64   39411.0    253.7   0.063100927   0.52710  -0.52202   0.46483  -0.19629
  65   39577.5    252.7   0.128520268   1.06905  -0.90922   0.38600   0.30558
  66   39729.9    251.7   0.456778836   3.78498  -1.27014   1.24164  -0.79376
  67   39779.9    251.4   0.253849230   2.10082  -1.11848   0.90367  -0.18222
  68   40194.7    248.8   0.017784939   0.14567   0.06113   0.30415  -0.22232

FINAL SINGLE POINT ENERGY     -5151.275832684890

DIPOLE MOMENT
-------------
                                X             Y             Z
Electronic contribution:    -13.11571      75.94876      20.94619
Nuclear contribution   :     15.48136     -82.02067     -21.04915
                        -----------------------------------------
Total Dipole Moment    :      2.36565      -6.07191      -0.10296
                        -----------------------------------------
Magnitude (a.u.)       :      6.51729
Magnitude (Debye)      :     16.56563

Rotational constants in cm-1:     0.001148     0.000312     0.000252
Rotational constants in MHz :    34.404053     9.345097     7.567928

                             ****ORCA TERMINATED NORMALLY****
TOTAL RUN TIME: 0 days 0 hours 9 minutes 16 seconds 878 msec
