                         Program Version 4.2.0 -  RELEASE  -
|  1> # ORCA input file
|  2> # SCF done       -197.900074523602          0.000350602359
|  3> ! CAM-B3LYP def2-SVP def2/J RIJCOSX Grid4 TightSCF
|  4> %maxcore 5000
|  5> %tddft
|  6>     Mode sTDDFT
|  7>     Ethresh 5.0
|  8>     maxcore 5000
|  9> end
| 10>
| 11> %pal
| 12>   nprocs 6
| 13>   end
| 14> * xyz 0 1
| 15>    C        2.24078         2.04549         0.33840
| 16>    N        3.62700         1.77910         0.60698
| 17>    C        4.62475         2.69672         0.42686
| 18>    O        4.43239         3.80503        -0.02994
| 19>    C        5.91583         2.02789         0.81188
| 20>    C        7.14443         2.62876         0.77603
| 21>    C        8.45593         1.89789         0.78017
| 22>    O        8.68319         0.70618         0.75461
| 23>    N        9.44522         2.84594         0.73579
| 24>    C       10.84660         2.53091         0.70882
| 25>    C        8.90938         4.11558         0.71965
| 26>    C        9.58166         5.31390         0.73115
| 27>    C        8.83620         6.50079         0.74069
| 28>    C        9.51231         7.77484         0.74841
| 29>    C        8.98774         9.03079         0.59090
| 30>    C        9.94272        10.05952         0.67657
| 31>    C        9.53471        11.49054         0.57797
| 32>    F        8.20893        11.64392         0.70639
| 33>    F       10.09036        12.26876         1.52651
| 34>    F        9.85444        12.05864        -0.60500
| 35>    C       11.23387         9.61076         0.91007
| 36>    C       12.45285        10.34222         1.01332
| 37>    S       12.67063        11.83137         0.15316
| 38>    C       14.26722        12.00560         0.70102
| 39>    C       14.65802        10.97216         1.52966
| 40>    C       15.91263        10.79298         2.18011
| 41>    O       16.92545        11.68395         2.03252
| 42>    C       16.09461         9.69522         2.97825
| 43>    C       15.06026         8.76260         3.16887
| 44>    C       13.84591         8.89640         2.55924
| 45>    C       13.61774         9.99963         1.71174
| 46>    S       11.23221         7.87446         1.00624
| 47>    C        7.43822         6.42684         0.75507
| 48>    C        6.77160         5.21721         0.74378
| 49>    C        7.49697         4.03127         0.71166
| 50>    C        5.54055         0.68280         1.19372
| 51>    C        6.23051        -0.41373         1.69847
| 52>    C        5.52716        -1.54833         2.05907
| 53>    C        4.13530        -1.63213         1.95171
| 54>    C        3.47605        -2.85958         2.36393
| 55>    C        2.15995        -3.02253         2.49524
| 56>    C        2.22656        -6.26068         1.07163
| 57>    C        2.80811        -6.31622         2.43519
| 58>    O        3.55623        -7.14797         2.86141
| 59>    O        2.38167        -5.33647         3.26902
| 60>    C        1.48212        -4.27022         2.98194
| 61>    C        0.18239        -4.67809         2.20975
| 62>    O       -0.91430        -4.31700         3.06608
| 63>    C       -1.60486        -3.27279         2.61553
| 64>    O       -2.50444        -2.75645         3.20992
| 65>    C       -1.05785        -2.85898         1.24808
| 66>    C       -2.14935        -2.43585         0.32935
| 67>    S       -2.80775        -3.51758        -0.85141
| 68>    C       -3.98577        -2.35638        -1.31807
| 69>    C       -3.88573        -1.20271        -0.61254
| 70>    C       -2.82761        -1.24525         0.33767
| 71>    C       -2.50786        -0.07975         1.23941
| 72>    N       -1.18205         0.40107         0.76950
| 73>    O       -1.13004         1.10875        -0.20367
| 74>    O       -0.20584        -0.00816         1.36786
| 75>    C       -3.52910         1.05900         1.15415
| 76>    C       -4.90471         0.58660         0.69820
| 77>    C       -4.79589        -0.02393        -0.69721
| 78>    C       -0.22975        -4.07682         0.82904
| 79>    C        0.76314        -3.68117        -0.26906
| 80>    C        1.57733        -4.84487        -0.85641
| 81>    C        2.47316        -5.24795         0.25723
| 82>    C        3.42597        -0.53228         1.45106
| 83>    C        4.13261         0.59005         1.08809
| 84>    H        2.15939         3.08341         0.01915
| 85>    H        1.64306         1.88845         1.23753
| 86>    H        1.86810         1.39534        -0.45513
| 87>    H       10.93596         1.44508         0.70604
| 88>    H       11.34966         2.93603         1.58940
| 89>    H       11.31313         2.93627        -0.19105
| 90>    H       10.66044         5.35205         0.73229
| 91>    H        7.94682         9.22905         0.41507
| 92>    H       14.82682        12.86327         0.37905
| 93>    H       16.65699        12.40690         1.45502
| 94>    H       17.04435         9.56374         3.47043
| 95>    H       15.24127         7.92276         3.82196
| 96>    H       13.06384         8.17615         2.73247
| 97>    H        6.86024         7.33590         0.78336
| 98>    H        5.69632         5.20357         0.74054
| 99>    H        7.30182        -0.39625         1.79077
|100>    H        6.06989        -2.39837         2.44523
|101>    H        4.13448        -3.69008         2.58602
|102>    H        1.48606        -2.18913         2.36927
|103>    H        1.51372        -7.03612         0.82595
|104>    H        1.10948        -4.03239         3.99411
|105>    H        0.16188        -5.77015         2.17844
|106>    H       -0.39234        -2.00586         1.42935
|107>    H       -4.69178        -2.60561        -2.08422
|108>    H       -2.37216        -0.43954         2.26353
|109>    H       -3.16372         1.79308         0.43068
|110>    H       -3.60383         1.54467         2.12780
|111>    H       -5.29404        -0.15744         1.39558
|112>    H       -5.58853         1.43552         0.68528
|113>    H       -4.38412         0.71560        -1.39005
|114>    H       -5.77275        -0.33025        -1.07240
|115>    H       -0.91590        -4.81572         0.39343
|116>    H        1.45274        -2.92051         0.09875
|117>    H        0.16628        -3.23400        -1.06820
|118>    H        2.13482        -4.48883        -1.72238
|119>    H        0.91832        -5.65743        -1.16263
|120>    H        3.24698        -4.53416         0.50071
|121>    H        2.35263        -0.54738         1.35622
|122> *
|123>
|124>                          ****END OF INPUT****

CARTESIAN COORDINATES (ANGSTROEM)
---------------------------------
  C      2.240780    2.045490    0.338400
  N      3.627000    1.779100    0.606980
  C      4.624750    2.696720    0.426860
  O      4.432390    3.805030   -0.029940
  C      5.915830    2.027890    0.811880
  C      7.144430    2.628760    0.776030
  C      8.455930    1.897890    0.780170
  O      8.683190    0.706180    0.754610
  N      9.445220    2.845940    0.735790
  C     10.846600    2.530910    0.708820
  C      8.909380    4.115580    0.719650
  C      9.581660    5.313900    0.731150
  C      8.836200    6.500790    0.740690
  C      9.512310    7.774840    0.748410
  C      8.987740    9.030790    0.590900
  C      9.942720   10.059520    0.676570
  C      9.534710   11.490540    0.577970
  F      8.208930   11.643920    0.706390
  F     10.090360   12.268760    1.526510
  F      9.854440   12.058640   -0.605000
  C     11.233870    9.610760    0.910070
  C     12.452850   10.342220    1.013320
  S     12.670630   11.831370    0.153160
  C     14.267220   12.005600    0.701020
  C     14.658020   10.972160    1.529660
  C     15.912630   10.792980    2.180110
  O     16.925450   11.683950    2.032520
  C     16.094610    9.695220    2.978250
  C     15.060260    8.762600    3.168870
  C     13.845910    8.896400    2.559240
  C     13.617740    9.999630    1.711740
  S     11.232210    7.874460    1.006240
  C      7.438220    6.426840    0.755070
  C      6.771600    5.217210    0.743780
  C      7.496970    4.031270    0.711660
  C      5.540550    0.682800    1.193720
  C      6.230510   -0.413730    1.698470
  C      5.527160   -1.548330    2.059070
  C      4.135300   -1.632130    1.951710
  C      3.476050   -2.859580    2.363930
  C      2.159950   -3.022530    2.495240
  C      2.226560   -6.260680    1.071630
  C      2.808110   -6.316220    2.435190
  O      3.556230   -7.147970    2.861410
  O      2.381670   -5.336470    3.269020
  C      1.482120   -4.270220    2.981940
  C      0.182390   -4.678090    2.209750
  O     -0.914300   -4.317000    3.066080
  C     -1.604860   -3.272790    2.615530
  O     -2.504440   -2.756450    3.209920
  C     -1.057850   -2.858980    1.248080
  C     -2.149350   -2.435850    0.329350
  S     -2.807750   -3.517580   -0.851410
  C     -3.985770   -2.356380   -1.318070
  C     -3.885730   -1.202710   -0.612540
  C     -2.827610   -1.245250    0.337670
  C     -2.507860   -0.079750    1.239410
  N     -1.182050    0.401070    0.769500
  O     -1.130040    1.108750   -0.203670
  O     -0.205840   -0.008160    1.367860
  C     -3.529100    1.059000    1.154150
  C     -4.904710    0.586600    0.698200
  C     -4.795890   -0.023930   -0.697210
  C     -0.229750   -4.076820    0.829040
  C      0.763140   -3.681170   -0.269060
  C      1.577330   -4.844870   -0.856410
  C      2.473160   -5.247950    0.257230
  C      3.425970   -0.532280    1.451060
  C      4.132610    0.590050    1.088090
  H      2.159390    3.083410    0.019150
  H      1.643060    1.888450    1.237530
  H      1.868100    1.395340   -0.455130
  H     10.935960    1.445080    0.706040
  H     11.349660    2.936030    1.589400
  H     11.313130    2.936270   -0.191050
  H     10.660440    5.352050    0.732290
  H      7.946820    9.229050    0.415070
  H     14.826820   12.863270    0.379050
  H     16.656990   12.406900    1.455020
  H     17.044350    9.563740    3.470430
  H     15.241270    7.922760    3.821960
  H     13.063840    8.176150    2.732470
  H      6.860240    7.335900    0.783360
  H      5.696320    5.203570    0.740540
  H      7.301820   -0.396250    1.790770
  H      6.069890   -2.398370    2.445230
  H      4.134480   -3.690080    2.586020
  H      1.486060   -2.189130    2.369270
  H      1.513720   -7.036120    0.825950
  H      1.109480   -4.032390    3.994110
  H      0.161880   -5.770150    2.178440
  H     -0.392340   -2.005860    1.429350
  H     -4.691780   -2.605610   -2.084220
  H     -2.372160   -0.439540    2.263530
  H     -3.163720    1.793080    0.430680
  H     -3.603830    1.544670    2.127800
  H     -5.294040   -0.157440    1.395580
  H     -5.588530    1.435520    0.685280
  H     -4.384120    0.715600   -1.390050
  H     -5.772750   -0.330250   -1.072400
  H     -0.915900   -4.815720    0.393430
  H      1.452740   -2.920510    0.098750
  H      0.166280   -3.234000   -1.068200
  H      2.134820   -4.488830   -1.722380
  H      0.918320   -5.657430   -1.162630
  H      3.246980   -4.534160    0.500710
  H      2.352630   -0.547380    1.356220

 Total Charge           Charge          ....    0
 Multiplicity           Mult            ....    1
 Number of Electrons    NEL             ....  512
 Basis Dimension        Dim             .... 1168

ORBITAL ENERGIES
----------------

  NO   OCC          E(Eh)            E(eV)
   0   2.0000     -88.970959     -2421.0229
   1   2.0000     -88.968657     -2420.9602
   2   2.0000     -88.965255     -2420.8677
   3   2.0000     -24.794383      -674.6895
   4   2.0000     -24.789880      -674.5669
   5   2.0000     -24.789752      -674.5634
   6   2.0000     -19.272895      -524.4421
   7   2.0000     -19.269014      -524.3365
   8   2.0000     -19.266995      -524.2816
   9   2.0000     -19.255634      -523.9724
  10   2.0000     -19.248479      -523.7777
  11   2.0000     -19.211303      -522.7661
  12   2.0000     -19.195589      -522.3385
  13   2.0000     -19.194147      -522.2993
  14   2.0000     -19.190714      -522.2059
  15   2.0000     -14.661194      -398.9514
  16   2.0000     -14.448904      -393.1747
  17   2.0000     -14.444097      -393.0439
  18   2.0000     -10.512729      -286.0659
  19   2.0000     -10.407792      -283.2104
  20   2.0000     -10.399432      -282.9829
  21   2.0000     -10.377123      -282.3759
  22   2.0000     -10.373863      -282.2872
  23   2.0000     -10.358102      -281.8583
  24   2.0000     -10.352444      -281.7043
  25   2.0000     -10.341093      -281.3954
  26   2.0000     -10.335257      -281.2367
  27   2.0000     -10.324615      -280.9470
  28   2.0000     -10.317164      -280.7443
  29   2.0000     -10.314956      -280.6842
  30   2.0000     -10.310650      -280.5671
  31   2.0000     -10.308314      -280.5035
  32   2.0000     -10.307898      -280.4922
  33   2.0000     -10.305409      -280.4244
  34   2.0000     -10.305225      -280.4194
  35   2.0000     -10.305139      -280.4171
  36   2.0000     -10.304964      -280.4123
  37   2.0000     -10.300562      -280.2925
  38   2.0000     -10.299988      -280.2769
  39   2.0000     -10.297574      -280.2112
  40   2.0000     -10.293218      -280.0927
  41   2.0000     -10.292807      -280.0815
  42   2.0000     -10.292537      -280.0742
  43   2.0000     -10.292253      -280.0664
  44   2.0000     -10.289401      -279.9888
  45   2.0000     -10.287497      -279.9370
  46   2.0000     -10.287171      -279.9282
  47   2.0000     -10.286609      -279.9129
  48   2.0000     -10.285280      -279.8767
  49   2.0000     -10.284906      -279.8665
  50   2.0000     -10.284524      -279.8561
  51   2.0000     -10.284173      -279.8466
  52   2.0000     -10.283029      -279.8154
  53   2.0000     -10.282739      -279.8075
  54   2.0000     -10.282558      -279.8026
  55   2.0000     -10.280688      -279.7518
  56   2.0000     -10.279663      -279.7239
  57   2.0000     -10.279279      -279.7134
  58   2.0000     -10.274651      -279.5875
  59   2.0000     -10.274097      -279.5724
  60   2.0000     -10.273426      -279.5541
  61   2.0000     -10.270175      -279.4657
  62   2.0000     -10.267372      -279.3894
  63   2.0000     -10.266900      -279.3766
  64   2.0000     -10.264825      -279.3201
  65   2.0000     -10.263503      -279.2841
  66   2.0000     -10.261077      -279.2181
  67   2.0000     -10.259836      -279.1843
  68   2.0000     -10.257212      -279.1129
  69   2.0000      -8.066035      -219.4880
  70   2.0000      -8.064144      -219.4365
  71   2.0000      -8.060204      -219.3293
  72   2.0000      -6.035031      -164.2215
  73   2.0000      -6.033373      -164.1764
  74   2.0000      -6.030561      -164.0999
  75   2.0000      -6.029462      -164.0700
  76   2.0000      -6.029096      -164.0600
  77   2.0000      -6.029073      -164.0594
  78   2.0000      -6.026593      -163.9919
  79   2.0000      -6.025298      -163.9567
  80   2.0000      -6.022456      -163.8793
  81   2.0000      -1.381311       -37.5874
  82   2.0000      -1.345172       -36.6040
  83   2.0000      -1.284657       -34.9573
  84   2.0000      -1.280494       -34.8440
  85   2.0000      -1.209489       -32.9119
  86   2.0000      -1.181803       -32.1585
  87   2.0000      -1.164272       -31.6814
  88   2.0000      -1.143684       -31.1212
  89   2.0000      -1.136599       -30.9284
  90   2.0000      -1.132510       -30.8172
  91   2.0000      -1.118882       -30.4463
  92   2.0000      -1.097387       -29.8614
  93   2.0000      -1.059019       -28.8174
  94   2.0000      -1.055015       -28.7084
  95   2.0000      -1.006806       -27.3966
  96   2.0000      -1.006581       -27.3905
  97   2.0000      -0.986430       -26.8421
  98   2.0000      -0.955033       -25.9878
  99   2.0000      -0.950869       -25.8745
 100   2.0000      -0.946844       -25.7649
 101   2.0000      -0.943123       -25.6637
 102   2.0000      -0.924327       -25.1522
 103   2.0000      -0.921445       -25.0738
 104   2.0000      -0.914366       -24.8812
 105   2.0000      -0.904784       -24.6204
 106   2.0000      -0.894139       -24.3307
 107   2.0000      -0.886519       -24.1234
 108   2.0000      -0.871532       -23.7156
 109   2.0000      -0.868985       -23.6463
 110   2.0000      -0.857565       -23.3355
 111   2.0000      -0.848480       -23.0883
 112   2.0000      -0.839870       -22.8540
 113   2.0000      -0.838522       -22.8173
 114   2.0000      -0.833815       -22.6893
 115   2.0000      -0.831417       -22.6240
 116   2.0000      -0.829854       -22.5815
 117   2.0000      -0.822520       -22.3819
 118   2.0000      -0.808989       -22.0137
 119   2.0000      -0.804553       -21.8930
 120   2.0000      -0.800467       -21.7818
 121   2.0000      -0.785536       -21.3755
 122   2.0000      -0.781355       -21.2617
 123   2.0000      -0.770393       -20.9635
 124   2.0000      -0.762096       -20.7377
 125   2.0000      -0.750901       -20.4331
 126   2.0000      -0.742014       -20.1912
 127   2.0000      -0.718793       -19.5594
 128   2.0000      -0.713088       -19.4041
 129   2.0000      -0.708719       -19.2852
 130   2.0000      -0.705245       -19.1907
 131   2.0000      -0.703728       -19.1494
 132   2.0000      -0.702682       -19.1210
 133   2.0000      -0.695274       -18.9194
 134   2.0000      -0.692563       -18.8456
 135   2.0000      -0.689236       -18.7551
 136   2.0000      -0.683702       -18.6045
 137   2.0000      -0.680862       -18.5272
 138   2.0000      -0.675404       -18.3787
 139   2.0000      -0.668468       -18.1899
 140   2.0000      -0.664406       -18.0794
 141   2.0000      -0.663747       -18.0615
 142   2.0000      -0.656218       -17.8566
 143   2.0000      -0.652295       -17.7499
 144   2.0000      -0.650236       -17.6938
 145   2.0000      -0.648061       -17.6346
 146   2.0000      -0.644962       -17.5503
 147   2.0000      -0.643542       -17.5117
 148   2.0000      -0.634828       -17.2746
 149   2.0000      -0.624276       -16.9874
 150   2.0000      -0.619612       -16.8605
 151   2.0000      -0.614977       -16.7344
 152   2.0000      -0.613088       -16.6830
 153   2.0000      -0.610061       -16.6006
 154   2.0000      -0.605569       -16.4784
 155   2.0000      -0.595616       -16.2075
 156   2.0000      -0.593692       -16.1552
 157   2.0000      -0.589031       -16.0283
 158   2.0000      -0.582291       -15.8449
 159   2.0000      -0.576663       -15.6918
 160   2.0000      -0.571292       -15.5456
 161   2.0000      -0.569111       -15.4863
 162   2.0000      -0.567183       -15.4338
 163   2.0000      -0.564504       -15.3609
 164   2.0000      -0.563432       -15.3318
 165   2.0000      -0.557611       -15.1734
 166   2.0000      -0.554783       -15.0964
 167   2.0000      -0.551377       -15.0037
 168   2.0000      -0.549786       -14.9604
 169   2.0000      -0.547166       -14.8892
 170   2.0000      -0.544389       -14.8136
 171   2.0000      -0.543696       -14.7947
 172   2.0000      -0.540595       -14.7104
 173   2.0000      -0.539582       -14.6828
 174   2.0000      -0.538073       -14.6417
 175   2.0000      -0.530813       -14.4442
 176   2.0000      -0.529607       -14.4113
 177   2.0000      -0.527544       -14.3552
 178   2.0000      -0.525924       -14.3111
 179   2.0000      -0.523611       -14.2482
 180   2.0000      -0.520818       -14.1722
 181   2.0000      -0.519611       -14.1393
 182   2.0000      -0.515010       -14.0141
 183   2.0000      -0.514531       -14.0011
 184   2.0000      -0.511857       -13.9283
 185   2.0000      -0.509426       -13.8622
 186   2.0000      -0.507714       -13.8156
 187   2.0000      -0.502877       -13.6840
 188   2.0000      -0.501723       -13.6526
 189   2.0000      -0.499162       -13.5829
 190   2.0000      -0.498838       -13.5741
 191   2.0000      -0.496974       -13.5234
 192   2.0000      -0.495456       -13.4821
 193   2.0000      -0.494602       -13.4588
 194   2.0000      -0.493650       -13.4329
 195   2.0000      -0.488674       -13.2975
 196   2.0000      -0.484223       -13.1764
 197   2.0000      -0.483175       -13.1479
 198   2.0000      -0.479673       -13.0526
 199   2.0000      -0.478886       -13.0311
 200   2.0000      -0.478521       -13.0212
 201   2.0000      -0.475005       -12.9255
 202   2.0000      -0.472458       -12.8562
 203   2.0000      -0.471247       -12.8233
 204   2.0000      -0.469662       -12.7802
 205   2.0000      -0.468184       -12.7399
 206   2.0000      -0.464975       -12.6526
 207   2.0000      -0.462067       -12.5735
 208   2.0000      -0.460666       -12.5353
 209   2.0000      -0.459618       -12.5068
 210   2.0000      -0.457151       -12.4397
 211   2.0000      -0.456759       -12.4291
 212   2.0000      -0.456597       -12.4246
 213   2.0000      -0.449166       -12.2224
 214   2.0000      -0.447984       -12.1903
 215   2.0000      -0.447107       -12.1664
 216   2.0000      -0.441746       -12.0205
 217   2.0000      -0.440745       -11.9933
 218   2.0000      -0.437116       -11.8945
 219   2.0000      -0.435455       -11.8493
 220   2.0000      -0.430552       -11.7159
 221   2.0000      -0.426718       -11.6116
 222   2.0000      -0.425085       -11.5671
 223   2.0000      -0.423949       -11.5362
 224   2.0000      -0.417905       -11.3718
 225   2.0000      -0.417741       -11.3673
 226   2.0000      -0.415925       -11.3179
 227   2.0000      -0.414858       -11.2889
 228   2.0000      -0.409869       -11.1531
 229   2.0000      -0.407432       -11.0868
 230   2.0000      -0.400166       -10.8891
 231   2.0000      -0.398902       -10.8547
 232   2.0000      -0.397779       -10.8241
 233   2.0000      -0.396633       -10.7929
 234   2.0000      -0.392512       -10.6808
 235   2.0000      -0.389688       -10.6040
 236   2.0000      -0.384582       -10.4650
 237   2.0000      -0.380242       -10.3469
 238   2.0000      -0.367018        -9.9871
 239   2.0000      -0.365461        -9.9447
 240   2.0000      -0.358865        -9.7652
 241   2.0000      -0.353050        -9.6070
 242   2.0000      -0.347588        -9.4584
 243   2.0000      -0.344085        -9.3630
 244   2.0000      -0.335325        -9.1246
 245   2.0000      -0.331065        -9.0087
 246   2.0000      -0.329196        -8.9579
 247   2.0000      -0.325751        -8.8641
 248   2.0000      -0.320746        -8.7279
 249   2.0000      -0.314817        -8.5666
 250   2.0000      -0.306117        -8.3299
 251   2.0000      -0.298822        -8.1314
 252   2.0000      -0.290870        -7.9150
 253   2.0000      -0.277931        -7.5629
 254   2.0000      -0.257464        -7.0060
 255   2.0000      -0.236086        -6.4242
 256   0.0000      -0.078444        -2.1346
 257   0.0000      -0.044225        -1.2034
 258   0.0000      -0.040138        -1.0922
 259   0.0000      -0.002778        -0.0756
 260   0.0000       0.000619         0.0169

MULLIKEN ATOMIC CHARGES
-----------------------
   0 C :    0.134959
   1 N :   -0.229399
   2 C :    0.161269
   3 O :   -0.200141
   4 C :   -0.051296
   5 C :   -0.043412
   6 C :    0.164695
   7 O :   -0.198806
   8 N :   -0.231438
   9 C :    0.122535
  10 C :    0.179563
  11 C :   -0.176871
  12 C :    0.189770
  13 C :   -0.062506
  14 C :   -0.029769
  15 C :   -0.082905
  16 C :    0.517211
  17 F :   -0.156457
  18 F :   -0.165883
  19 F :   -0.171968
  20 C :   -0.081209
  21 C :   -0.177800
  22 S :    0.200127
  23 C :   -0.183539
  24 C :    0.059083
  25 C :    0.138249
  26 O :   -0.174209
  27 C :   -0.065226
  28 C :    0.040047
  29 C :   -0.048945
  30 C :    0.144561
  31 S :    0.128144
  32 C :   -0.049743
  33 C :   -0.029010
  34 C :    0.056633
  35 C :    0.054802
  36 C :   -0.036250
  37 C :   -0.035187
  38 C :    0.128177
  39 C :    0.006329
  40 C :   -0.115672
  41 C :   -0.107515
  42 C :    0.211396
  43 O :   -0.167653
  44 O :   -0.286172
  45 C :    0.305749
  46 C :    0.102873
  47 O :   -0.258830
  48 C :    0.223441
  49 O :   -0.167318
  50 C :   -0.112218
  51 C :   -0.195055
  52 S :    0.109825
  53 C :   -0.132588
  54 C :   -0.043197
  55 C :   -0.009874
  56 C :    0.159879
  57 N :    0.212385
  58 O :   -0.206705
  59 O :   -0.241867
  60 C :    0.048265
  61 C :   -0.003680
  62 C :    0.147058
  63 C :   -0.062316
  64 C :    0.059286
  65 C :    0.147484
  66 C :   -0.058235
  67 C :   -0.146204
  68 C :    0.177947
  69 H :    0.048238
  70 H :    0.028881
  71 H :    0.030366
  72 H :    0.057613
  73 H :    0.032921
  74 H :    0.034466
  75 H :   -0.031397
  76 H :   -0.003477
  77 H :    0.015193
  78 H :    0.175708
  79 H :   -0.023546
  80 H :   -0.013681
  81 H :   -0.027295
  82 H :   -0.030399
  83 H :   -0.001260
  84 H :   -0.000481
  85 H :   -0.027064
  86 H :    0.010310
  87 H :    0.015609
  88 H :    0.037206
  89 H :    0.052825
  90 H :    0.025551
  91 H :    0.059720
  92 H :    0.015072
  93 H :    0.034129
  94 H :    0.027964
  95 H :    0.022218
  96 H :    0.027463
  97 H :    0.013600
  98 H :    0.021895
  99 H :    0.002750
 100 H :    0.015726
 101 H :    0.014503
 102 H :    0.011383
 103 H :    0.015851
 104 H :    0.001076
 105 H :    0.023073
 106 H :   -0.047382
Sum of atomic charges:   -0.0000000

LOEWDIN ATOMIC CHARGES
----------------------
   0 C :    0.032306
   1 N :   -0.009603
   2 C :    0.085391
   3 O :   -0.183386
   4 C :   -0.016408
   5 C :   -0.019873
   6 C :    0.087870
   7 O :   -0.181190
   8 N :   -0.012569
   9 C :    0.033743
  10 C :    0.048114
  11 C :   -0.074570
  12 C :   -0.014865
  13 C :   -0.163073
  14 C :   -0.036657
  15 C :   -0.133044
  16 C :    0.163517
  17 F :   -0.055510
  18 F :   -0.066801
  19 F :   -0.074037
  20 C :   -0.157206
  21 C :   -0.219420
  22 S :    0.524192
  23 C :   -0.211521
  24 C :   -0.079537
  25 C :    0.063485
  26 O :   -0.044939
  27 C :   -0.075098
  28 C :   -0.006689
  29 C :   -0.063031
  30 C :   -0.032501
  31 S :    0.474122
  32 C :   -0.038968
  33 C :    0.019696
  34 C :   -0.051959
  35 C :   -0.051041
  36 C :    0.016241
  37 C :   -0.042038
  38 C :   -0.008868
  39 C :   -0.019138
  40 C :   -0.043370
  41 C :   -0.086613
  42 C :    0.081422
  43 O :   -0.140463
  44 O :   -0.087170
  45 C :    0.067546
  46 C :    0.075162
  47 O :   -0.064351
  48 C :    0.082675
  49 O :   -0.153915
  50 C :   -0.084775
  51 C :   -0.159446
  52 S :    0.447356
  53 C :   -0.193283
  54 C :   -0.050881
  55 C :   -0.078584
  56 C :    0.024824
  57 N :    0.287957
  58 O :   -0.177135
  59 O :   -0.207452
  60 C :   -0.031614
  61 C :   -0.023360
  62 C :   -0.021498
  63 C :   -0.031584
  64 C :   -0.019869
  65 C :   -0.021889
  66 C :    0.008883
  67 C :   -0.064073
  68 C :    0.048775
  69 H :    0.037810
  70 H :    0.022699
  71 H :    0.025350
  72 H :    0.040830
  73 H :    0.026807
  74 H :    0.027899
  75 H :    0.018290
  76 H :    0.034114
  77 H :    0.017799
  78 H :    0.090048
  79 H :    0.032133
  80 H :    0.030732
  81 H :    0.012459
  82 H :    0.026840
  83 H :    0.032775
  84 H :    0.031977
  85 H :    0.027317
  86 H :    0.032696
  87 H :    0.027176
  88 H :    0.036855
  89 H :    0.053089
  90 H :    0.031585
  91 H :    0.039799
  92 H :    0.023903
  93 H :    0.042259
  94 H :    0.030592
  95 H :    0.033503
  96 H :    0.029000
  97 H :    0.029794
  98 H :    0.035846
  99 H :    0.032145
 100 H :    0.023079
 101 H :    0.029862
 102 H :    0.027305
 103 H :    0.034042
 104 H :    0.025886
 105 H :    0.033067
 106 H :    0.024228

  Mayer bond orders larger than 0.100000
B(  0-C ,  1-N ) :   0.9560 B(  0-C , 69-H ) :   0.9551 B(  0-C , 70-H ) :   0.9681
B(  0-C , 71-H ) :   0.9719 B(  1-N ,  2-C ) :   1.1410 B(  1-N , 68-C ) :   1.0708
B(  2-C ,  3-O ) :   2.0735 B(  2-C ,  4-C ) :   0.9008 B(  4-C ,  5-C ) :   1.6416
B(  4-C , 35-C ) :   1.0892 B(  5-C ,  6-C ) :   0.9055 B(  5-C , 34-C ) :   1.0944
B(  6-C ,  7-O ) :   2.0753 B(  6-C ,  8-N ) :   1.1302 B(  8-N ,  9-C ) :   0.9670
B(  8-N , 10-C ) :   1.0700 B(  9-C , 72-H ) :   0.9563 B(  9-C , 73-H ) :   0.9722
B(  9-C , 74-H ) :   0.9729 B( 10-C , 11-C ) :   1.3926 B( 10-C , 34-C ) :   1.2751
B( 11-C , 12-C ) :   1.2568 B( 11-C , 75-H ) :   0.9919 B( 12-C , 13-C ) :   1.0625
B( 12-C , 32-C ) :   1.3535 B( 13-C , 14-C ) :   1.5274 B( 13-C , 20-C ) :   0.1015
B( 13-C , 31-S ) :   1.1079 B( 14-C , 15-C ) :   1.2493 B( 14-C , 76-H ) :   0.9982
B( 15-C , 16-C ) :   0.9627 B( 15-C , 20-C ) :   1.5106 B( 16-C , 17-F ) :   1.1670
B( 16-C , 18-F ) :   1.1573 B( 16-C , 19-F ) :   1.1463 B( 20-C , 21-C ) :   1.1033
B( 20-C , 31-S ) :   1.1584 B( 21-C , 22-S ) :   1.1953 B( 21-C , 23-C ) :   0.1244
B( 21-C , 30-C ) :   1.3539 B( 22-S , 23-C ) :   1.2290 B( 23-C , 24-C ) :   1.3820
B( 23-C , 77-H ) :   0.9711 B( 24-C , 25-C ) :   1.0995 B( 24-C , 30-C ) :   1.2134
B( 25-C , 26-O ) :   1.2586 B( 25-C , 27-C ) :   1.5377 B( 26-O , 78-H ) :   0.9643
B( 27-C , 28-C ) :   1.2004 B( 27-C , 79-H ) :   0.9913 B( 28-C , 29-C ) :   1.5471
B( 28-C , 80-H ) :   0.9847 B( 29-C , 30-C ) :   1.1945 B( 29-C , 81-H ) :   0.9789
B( 32-C , 33-C ) :   1.3791 B( 32-C , 82-H ) :   0.9926 B( 33-C , 34-C ) :   1.3620
B( 33-C , 83-H ) :   0.9780 B( 35-C , 36-C ) :   1.3734 B( 35-C , 68-C ) :   1.2653
B( 36-C , 37-C ) :   1.3510 B( 36-C , 84-H ) :   0.9814 B( 37-C , 38-C ) :   1.3514
B( 37-C , 85-H ) :   0.9993 B( 38-C , 39-C ) :   1.0615 B( 38-C , 67-C ) :   1.2686
B( 39-C , 40-C ) :   1.8095 B( 39-C , 86-H ) :   0.9739 B( 40-C , 45-C ) :   0.9875
B( 40-C , 87-H ) :   0.9427 B( 41-C , 42-C ) :   0.9441 B( 41-C , 66-C ) :   1.9137
B( 41-C , 88-H ) :   0.9494 B( 42-C , 43-O ) :   2.1933 B( 42-C , 44-O ) :   1.0836
B( 44-O , 45-C ) :   0.9796 B( 45-C , 46-C ) :   0.9547 B( 45-C , 89-H ) :   0.9017
B( 46-C , 47-O ) :   0.9276 B( 46-C , 63-C ) :   1.0003 B( 46-C , 90-H ) :   0.9217
B( 47-O , 48-C ) :   1.1657 B( 48-C , 49-O ) :   2.1885 B( 48-C , 50-C ) :   0.8959
B( 50-C , 51-C ) :   1.0332 B( 50-C , 63-C ) :   0.9972 B( 50-C , 91-H ) :   0.8351
B( 51-C , 52-S ) :   1.1761 B( 51-C , 55-C ) :   1.5808 B( 52-S , 53-C ) :   1.1329
B( 53-C , 54-C ) :   1.6098 B( 53-C , 92-H ) :   0.9713 B( 54-C , 55-C ) :   1.2755
B( 54-C , 62-C ) :   1.0362 B( 55-C , 56-C ) :   1.0260 B( 56-C , 57-N ) :   0.8239
B( 56-C , 60-C ) :   1.0380 B( 56-C , 93-H ) :   0.8746 B( 57-N , 58-O ) :   1.5962
B( 57-N , 59-O ) :   1.4871 B( 58-O , 59-O ) :   0.2492 B( 60-C , 61-C ) :   1.1083
B( 60-C , 94-H ) :   0.9086 B( 60-C , 95-H ) :   0.9292 B( 61-C , 62-C ) :   1.0796
B( 61-C , 96-H ) :   0.9481 B( 61-C , 97-H ) :   0.9355 B( 62-C , 98-H ) :   0.9125
B( 62-C , 99-H ) :   0.9210 B( 63-C , 64-C ) :   1.0447 B( 63-C ,100-H ) :   0.8983
B( 64-C , 65-C ) :   1.0776 B( 64-C ,101-H ) :   0.9254 B( 64-C ,102-H ) :   0.9165
B( 65-C , 66-C ) :   1.0588 B( 65-C ,103-H ) :   0.9179 B( 65-C ,104-H ) :   0.9385
B( 66-C ,105-H ) :   0.9564 B( 67-C , 68-C ) :   1.3887 B( 67-C ,106-H ) :   0.9931

-----------------------------------------------------------------------------
         ABSORPTION SPECTRUM VIA TRANSITION ELECTRIC DIPOLE MOMENTS
-----------------------------------------------------------------------------
State   Energy  Wavelength   fosc         T2         TX        TY        TZ
        (cm-1)    (nm)                  (au**2)     (au)      (au)      (au)
-----------------------------------------------------------------------------
   0   19170.5    521.6   1.038620481  17.83605   3.09763   2.86988  -0.06739
   1   22340.7    447.6   0.036549007   0.53859  -0.38162  -0.62118  -0.08418
   2   24006.9    416.5   0.228327300   3.13110   1.22989   1.24245   0.27347
   3   26631.7    375.5   0.094150837   1.16386  -1.05163   0.06681  -0.23125
   4   27446.2    364.3   0.361175195   4.33223   1.02719   1.78591  -0.29602
   5   29838.8    335.1   0.245793488   2.71185   0.86984   1.38503  -0.19217
   6   30872.5    323.9   0.004490519   0.04789   0.17430   0.13228   0.00260
   7   31645.3    316.0   0.012906253   0.13427   0.01666  -0.34266  -0.12873
   8   32290.4    309.7   0.008339699   0.08503   0.22333  -0.07773  -0.17061
   9   32999.7    303.0   0.006221169   0.06206   0.16261   0.07385   0.17369
  10   34385.8    290.8   0.033309182   0.31890  -0.19212  -0.51439  -0.13189
  11   35151.3    284.5   0.002777077   0.02601   0.15530   0.01304   0.04147
  12   35576.2    281.1   0.041590944   0.38487  -0.15146  -0.52047  -0.30174
  13   37398.2    267.4   0.017646739   0.15534   0.31276   0.19829   0.13493
  14   37763.1    264.8   0.125881795   1.09742   0.55297   0.85272  -0.25397
  15   37945.6    263.5   0.002504261   0.02173   0.04007   0.14164   0.00762
  16   38490.7    259.8   0.016833915   0.14398  -0.22503  -0.21836  -0.21369
  17   38865.4    257.3   0.244792474   2.07353   0.95747   1.05338  -0.21719
  18   39119.4    255.6   0.003837607   0.03230   0.04678  -0.12868   0.11640
  19   39382.1    253.9   0.001741686   0.01456  -0.03973   0.08712  -0.07342
  20   39469.2    253.4   0.100474338   0.83805   0.25387  -0.63518   0.60840
  21   39732.7    251.7   0.193442646   1.60280   0.21576   1.20896  -0.30766

FINAL SINGLE POINT ENERGY     -4297.527124265863

DIPOLE MOMENT
-------------
                                X             Y             Z
Electronic contribution:     64.68827      85.24908       0.45044
Nuclear contribution   :    -66.22435     -84.68982      -2.09514
                        -----------------------------------------
Total Dipole Moment    :     -1.53608       0.55926      -1.64471
                        -----------------------------------------
Magnitude (a.u.)       :      2.31892
Magnitude (Debye)      :      5.89422

Rotational constants in cm-1:     0.002126     0.000264     0.000241
Rotational constants in MHz :    63.725053     7.913823     7.221053

                             ****ORCA TERMINATED NORMALLY****
TOTAL RUN TIME: 0 days 0 hours 10 minutes 7 seconds 882 msec
