                         Program Version 4.2.0 -  RELEASE  -
|  1> # ORCA input file
|  2> # SCF done       -144.809679929428          0.000670888681
|  3> ! CAM-B3LYP def2-SVP def2/J RIJCOSX Grid4 TightSCF
|  4> %maxcore 5000
|  5> %tddft
|  6>     Mode sTDDFT
|  7>     Ethresh 5.0
|  8>     maxcore 5000
|  9> end
| 10>
| 11> %pal
| 12>   nprocs 6
| 13>   end
| 14> * xyz 0 1
| 15>    O       18.32584         2.69734         1.61789
| 16>    C       17.26117         2.42453         2.10188
| 17>    O       16.90152         1.15155         2.32857
| 18>    C       16.28869         3.46542         2.47640
| 19>    C       16.48834         4.81183         2.32014
| 20>    C       15.38417         5.54926         2.76783
| 21>    S       14.99445         7.23273         2.84627
| 22>    C       13.46241         6.86149         3.53205
| 23>    C       13.21865         5.51902         3.70759
| 24>    C       12.01898         4.96311         4.26238
| 25>    S       11.99578         3.29331         4.82186
| 26>    C       10.35144         3.41242         5.33664
| 27>    C        9.85268         4.64478         5.09196
| 28>    C       10.78985         5.53864         4.47480
| 29>    C       10.11973         6.78060         4.23627
| 30>    C        8.82730         6.71683         4.69027
| 31>    C        7.87300         7.76681         4.61868
| 32>    C        6.61086         7.69179         5.10786
| 33>    C        5.66457         8.73881         5.04043
| 34>    S        6.00171        10.28690         4.25590
| 35>    C        4.43261        10.90454         4.63240
| 36>    C        3.69299         9.99463         5.30699
| 37>    C        4.38223         8.76092         5.54742
| 38>    C        3.52886         7.89367         6.29537
| 39>    C        2.33562         8.52294         6.52996
| 40>    C        1.20652         8.15660         7.31065
| 41>    C        1.14496         7.17000         8.23274
| 42>    C        0.07895         7.02496         9.17255
| 43>    S       -0.19617         5.44086         9.87368
| 44>    C       -1.52424         6.04388        10.79600
| 45>    C       -2.41726         5.49364        11.72085
| 46>    C       -3.29727         6.43238        12.19706
| 47>    C       -4.35625         6.16593        13.17984
| 48>    O       -4.53933         5.06905        13.63529
| 49>    O       -5.11758         7.21040        13.54984
| 50>    S       -3.02489         8.02130        11.49887
| 51>    C       -1.71851         7.40551        10.55634
| 52>    C       -0.80620         7.98346         9.65274
| 53>    C       -0.77640         9.41540         9.33652
| 54>    C       -1.95197        10.10478         9.04558
| 55>    C       -1.92052        11.44645         8.69748
| 56>    C       -0.71691        12.11887         8.60932
| 57>    C        0.45329        11.43340         8.91554
| 58>    N        1.72563        12.09495         8.77524
| 59>    O        1.72542        13.29535         8.62127
| 60>    O        2.72295        11.40325         8.81349
| 61>    C        0.43112        10.10771         9.31171
| 62>    C        2.35603         9.89445         5.91834
| 63>    O        1.46975        10.71614         5.96731
| 64>    C        8.57109         5.35766         5.27365
| 65>    O        7.55492         4.93595         5.77330
| 66>    C       14.34458         4.76976         3.26657
| 67>    S       14.72494         3.09524         3.18197
| 68>    H       16.02289         1.06415         2.72246
| 69>    H       17.38863         5.22245         1.90274
| 70>    H       12.81432         7.67041         3.80100
| 71>    H        9.87413         2.56079         5.77980
| 72>    H       10.55452         7.63880         3.75607
| 73>    H        8.19966         8.68430         4.14128
| 74>    H        6.27906         6.78358         5.59113
| 75>    H        4.17245        11.89962         4.32878
| 76>    H        3.79597         6.90161         6.61300
| 77>    H        0.36553         8.82698         7.19263
| 78>    H        1.94116         6.44129         8.30428
| 79>    H       -2.43569         4.46867        12.04108
| 80>    H       -4.86790         8.03785        13.11685
| 81>    H       -2.89547         9.58005         9.06717
| 82>    H       -2.84147        11.96006         8.46932
| 83>    H       -0.66082        13.14932         8.29618
| 84>    H        1.35844         9.61847         9.56693
| 85> *
| 86>
| 87>                          ****END OF INPUT****

CARTESIAN COORDINATES (ANGSTROEM)
---------------------------------
  O     18.325840    2.697340    1.617890
  C     17.261170    2.424530    2.101880
  O     16.901520    1.151550    2.328570
  C     16.288690    3.465420    2.476400
  C     16.488340    4.811830    2.320140
  C     15.384170    5.549260    2.767830
  S     14.994450    7.232730    2.846270
  C     13.462410    6.861490    3.532050
  C     13.218650    5.519020    3.707590
  C     12.018980    4.963110    4.262380
  S     11.995780    3.293310    4.821860
  C     10.351440    3.412420    5.336640
  C      9.852680    4.644780    5.091960
  C     10.789850    5.538640    4.474800
  C     10.119730    6.780600    4.236270
  C      8.827300    6.716830    4.690270
  C      7.873000    7.766810    4.618680
  C      6.610860    7.691790    5.107860
  C      5.664570    8.738810    5.040430
  S      6.001710   10.286900    4.255900
  C      4.432610   10.904540    4.632400
  C      3.692990    9.994630    5.306990
  C      4.382230    8.760920    5.547420
  C      3.528860    7.893670    6.295370
  C      2.335620    8.522940    6.529960
  C      1.206520    8.156600    7.310650
  C      1.144960    7.170000    8.232740
  C      0.078950    7.024960    9.172550
  S     -0.196170    5.440860    9.873680
  C     -1.524240    6.043880   10.796000
  C     -2.417260    5.493640   11.720850
  C     -3.297270    6.432380   12.197060
  C     -4.356250    6.165930   13.179840
  O     -4.539330    5.069050   13.635290
  O     -5.117580    7.210400   13.549840
  S     -3.024890    8.021300   11.498870
  C     -1.718510    7.405510   10.556340
  C     -0.806200    7.983460    9.652740
  C     -0.776400    9.415400    9.336520
  C     -1.951970   10.104780    9.045580
  C     -1.920520   11.446450    8.697480
  C     -0.716910   12.118870    8.609320
  C      0.453290   11.433400    8.915540
  N      1.725630   12.094950    8.775240
  O      1.725420   13.295350    8.621270
  O      2.722950   11.403250    8.813490
  C      0.431120   10.107710    9.311710
  C      2.356030    9.894450    5.918340
  O      1.469750   10.716140    5.967310
  C      8.571090    5.357660    5.273650
  O      7.554920    4.935950    5.773300
  C     14.344580    4.769760    3.266570
  S     14.724940    3.095240    3.181970
  H     16.022890    1.064150    2.722460
  H     17.388630    5.222450    1.902740
  H     12.814320    7.670410    3.801000
  H      9.874130    2.560790    5.779800
  H     10.554520    7.638800    3.756070
  H      8.199660    8.684300    4.141280
  H      6.279060    6.783580    5.591130
  H      4.172450   11.899620    4.328780
  H      3.795970    6.901610    6.613000
  H      0.365530    8.826980    7.192630
  H      1.941160    6.441290    8.304280
  H     -2.435690    4.468670   12.041080
  H     -4.867900    8.037850   13.116850
  H     -2.895470    9.580050    9.067170
  H     -2.841470   11.960060    8.469320
  H     -0.660820   13.149320    8.296180
  H      1.358440    9.618470    9.566930

 Total Charge           Charge          ....    0
 Multiplicity           Mult            ....    1
 Number of Electrons    NEL             ....  412
 Basis Dimension        Dim             ....  851

ORBITAL ENERGIES
----------------

  NO   OCC          E(Eh)            E(eV)
   0   2.0000     -88.984881     -2421.4017
   1   2.0000     -88.980373     -2421.2790
   2   2.0000     -88.978388     -2421.2250
   3   2.0000     -88.976955     -2421.1860
   4   2.0000     -88.969877     -2420.9934
   5   2.0000     -88.964795     -2420.8551
   6   2.0000     -19.265634      -524.2445
   7   2.0000     -19.260477      -524.1042
   8   2.0000     -19.238609      -523.5092
   9   2.0000     -19.237549      -523.4803
  10   2.0000     -19.228403      -523.2314
  11   2.0000     -19.218246      -522.9551
  12   2.0000     -19.199358      -522.4411
  13   2.0000     -19.194177      -522.3001
  14   2.0000     -14.642545      -398.4439
  15   2.0000     -10.410589      -283.2865
  16   2.0000     -10.405321      -283.1432
  17   2.0000     -10.376518      -282.3594
  18   2.0000     -10.365022      -282.0466
  19   2.0000     -10.330410      -281.1048
  20   2.0000     -10.325829      -280.9801
  21   2.0000     -10.325475      -280.9705
  22   2.0000     -10.325183      -280.9625
  23   2.0000     -10.322601      -280.8923
  24   2.0000     -10.322285      -280.8837
  25   2.0000     -10.319986      -280.8211
  26   2.0000     -10.319391      -280.8049
  27   2.0000     -10.319320      -280.8030
  28   2.0000     -10.318776      -280.7882
  29   2.0000     -10.318360      -280.7768
  30   2.0000     -10.316321      -280.7214
  31   2.0000     -10.314399      -280.6691
  32   2.0000     -10.312738      -280.6239
  33   2.0000     -10.309116      -280.5253
  34   2.0000     -10.306555      -280.4556
  35   2.0000     -10.304141      -280.3899
  36   2.0000     -10.303976      -280.3854
  37   2.0000     -10.303305      -280.3672
  38   2.0000     -10.301237      -280.3109
  39   2.0000     -10.298199      -280.2282
  40   2.0000     -10.298075      -280.2249
  41   2.0000     -10.294900      -280.1385
  42   2.0000     -10.294786      -280.1354
  43   2.0000     -10.294470      -280.1268
  44   2.0000     -10.293739      -280.1069
  45   2.0000     -10.291666      -280.0505
  46   2.0000     -10.290941      -280.0308
  47   2.0000     -10.290698      -280.0241
  48   2.0000     -10.290224      -280.0112
  49   2.0000     -10.288414      -279.9620
  50   2.0000     -10.287999      -279.9507
  51   2.0000     -10.285967      -279.8954
  52   2.0000     -10.278622      -279.6955
  53   2.0000      -8.079983      -219.8675
  54   2.0000      -8.076013      -219.7595
  55   2.0000      -8.073555      -219.6926
  56   2.0000      -8.072587      -219.6663
  57   2.0000      -8.065475      -219.4727
  58   2.0000      -8.060446      -219.3359
  59   2.0000      -6.049485      -164.6149
  60   2.0000      -6.045463      -164.5054
  61   2.0000      -6.045433      -164.5046
  62   2.0000      -6.043029      -164.4392
  63   2.0000      -6.042156      -164.4154
  64   2.0000      -6.041680      -164.4025
  65   2.0000      -6.041258      -164.3910
  66   2.0000      -6.039059      -164.3311
  67   2.0000      -6.037832      -164.2978
  68   2.0000      -6.037604      -164.2916
  69   2.0000      -6.035250      -164.2275
  70   2.0000      -6.034929      -164.2188
  71   2.0000      -6.034498      -164.2070
  72   2.0000      -6.030951      -164.1105
  73   2.0000      -6.029922      -164.0825
  74   2.0000      -6.027040      -164.0041
  75   2.0000      -6.025567      -163.9640
  76   2.0000      -6.022363      -163.8768
  77   2.0000      -1.318303       -35.8728
  78   2.0000      -1.187899       -32.3244
  79   2.0000      -1.182181       -32.1688
  80   2.0000      -1.141384       -31.0586
  81   2.0000      -1.137295       -30.9474
  82   2.0000      -1.130032       -30.7497
  83   2.0000      -1.100543       -29.9473
  84   2.0000      -1.095015       -29.7969
  85   2.0000      -1.032662       -28.1002
  86   2.0000      -1.023940       -27.8628
  87   2.0000      -1.011444       -27.5228
  88   2.0000      -1.004259       -27.3273
  89   2.0000      -0.984428       -26.7877
  90   2.0000      -0.964194       -26.2371
  91   2.0000      -0.961422       -26.1616
  92   2.0000      -0.952092       -25.9077
  93   2.0000      -0.941958       -25.6320
  94   2.0000      -0.909291       -24.7431
  95   2.0000      -0.903597       -24.5881
  96   2.0000      -0.896392       -24.3921
  97   2.0000      -0.891624       -24.2623
  98   2.0000      -0.878838       -23.9144
  99   2.0000      -0.852845       -23.2071
 100   2.0000      -0.851575       -23.1725
 101   2.0000      -0.845561       -23.0089
 102   2.0000      -0.833888       -22.6912
 103   2.0000      -0.831212       -22.6184
 104   2.0000      -0.812121       -22.0989
 105   2.0000      -0.808943       -22.0125
 106   2.0000      -0.799521       -21.7561
 107   2.0000      -0.796005       -21.6604
 108   2.0000      -0.785275       -21.3684
 109   2.0000      -0.758640       -20.6436
 110   2.0000      -0.755383       -20.5550
 111   2.0000      -0.740695       -20.1553
 112   2.0000      -0.738714       -20.1014
 113   2.0000      -0.725114       -19.7314
 114   2.0000      -0.721816       -19.6416
 115   2.0000      -0.708393       -19.2763
 116   2.0000      -0.702777       -19.1235
 117   2.0000      -0.694725       -18.9044
 118   2.0000      -0.688599       -18.7377
 119   2.0000      -0.674970       -18.3669
 120   2.0000      -0.662290       -18.0218
 121   2.0000      -0.654921       -17.8213
 122   2.0000      -0.648338       -17.6422
 123   2.0000      -0.644846       -17.5472
 124   2.0000      -0.640520       -17.4294
 125   2.0000      -0.632557       -17.2127
 126   2.0000      -0.630406       -17.1542
 127   2.0000      -0.627013       -17.0619
 128   2.0000      -0.625174       -17.0118
 129   2.0000      -0.613667       -16.6987
 130   2.0000      -0.608986       -16.5714
 131   2.0000      -0.606273       -16.4975
 132   2.0000      -0.590871       -16.0784
 133   2.0000      -0.589800       -16.0493
 134   2.0000      -0.587267       -15.9803
 135   2.0000      -0.585970       -15.9450
 136   2.0000      -0.578980       -15.7548
 137   2.0000      -0.568859       -15.4794
 138   2.0000      -0.557137       -15.1605
 139   2.0000      -0.555952       -15.1282
 140   2.0000      -0.549840       -14.9619
 141   2.0000      -0.546248       -14.8642
 142   2.0000      -0.540497       -14.7077
 143   2.0000      -0.539801       -14.6887
 144   2.0000      -0.539121       -14.6702
 145   2.0000      -0.535182       -14.5630
 146   2.0000      -0.530736       -14.4421
 147   2.0000      -0.528105       -14.3705
 148   2.0000      -0.527204       -14.3459
 149   2.0000      -0.522466       -14.2170
 150   2.0000      -0.518752       -14.1160
 151   2.0000      -0.517934       -14.0937
 152   2.0000      -0.516571       -14.0566
 153   2.0000      -0.510141       -13.8816
 154   2.0000      -0.508506       -13.8371
 155   2.0000      -0.508264       -13.8306
 156   2.0000      -0.505993       -13.7688
 157   2.0000      -0.501305       -13.6412
 158   2.0000      -0.495645       -13.4872
 159   2.0000      -0.494165       -13.4469
 160   2.0000      -0.489577       -13.3221
 161   2.0000      -0.483993       -13.1701
 162   2.0000      -0.479792       -13.0558
 163   2.0000      -0.477869       -13.0035
 164   2.0000      -0.473299       -12.8791
 165   2.0000      -0.470461       -12.8019
 166   2.0000      -0.467401       -12.7186
 167   2.0000      -0.465341       -12.6626
 168   2.0000      -0.463863       -12.6224
 169   2.0000      -0.461804       -12.5663
 170   2.0000      -0.457693       -12.4544
 171   2.0000      -0.456407       -12.4195
 172   2.0000      -0.453587       -12.3427
 173   2.0000      -0.449238       -12.2244
 174   2.0000      -0.444203       -12.0874
 175   2.0000      -0.443661       -12.0726
 176   2.0000      -0.436660       -11.8821
 177   2.0000      -0.434699       -11.8288
 178   2.0000      -0.426206       -11.5977
 179   2.0000      -0.425546       -11.5797
 180   2.0000      -0.424430       -11.5493
 181   2.0000      -0.421928       -11.4812
 182   2.0000      -0.409574       -11.1451
 183   2.0000      -0.398226       -10.8363
 184   2.0000      -0.392759       -10.6875
 185   2.0000      -0.389858       -10.6086
 186   2.0000      -0.384236       -10.4556
 187   2.0000      -0.384124       -10.4525
 188   2.0000      -0.379598       -10.3294
 189   2.0000      -0.377136       -10.2624
 190   2.0000      -0.367301        -9.9948
 191   2.0000      -0.365394        -9.9429
 192   2.0000      -0.355953        -9.6860
 193   2.0000      -0.351146        -9.5552
 194   2.0000      -0.345203        -9.3935
 195   2.0000      -0.340797        -9.2736
 196   2.0000      -0.337549        -9.1852
 197   2.0000      -0.334307        -9.0970
 198   2.0000      -0.333150        -9.0655
 199   2.0000      -0.330286        -8.9875
 200   2.0000      -0.317278        -8.6336
 201   2.0000      -0.314882        -8.5684
 202   2.0000      -0.302388        -8.2284
 203   2.0000      -0.294180        -8.0050
 204   2.0000      -0.270296        -7.3551
 205   2.0000      -0.247195        -6.7265
 206   0.0000      -0.090273        -2.4565
 207   0.0000      -0.065109        -1.7717
 208   0.0000      -0.046613        -1.2684
 209   0.0000      -0.042624        -1.1599
 210   0.0000      -0.039072        -1.0632

MULLIKEN ATOMIC CHARGES
-----------------------
   0 O :   -0.167373
   1 C :    0.178664
   2 O :   -0.155240
   3 C :   -0.166891
   4 C :   -0.005714
   5 C :   -0.029845
   6 S :    0.167463
   7 C :   -0.143629
   8 C :    0.112312
   9 C :   -0.151475
  10 S :    0.113181
  11 C :   -0.111580
  12 C :    0.014397
  13 C :    0.116477
  14 C :   -0.038290
  15 C :    0.003328
  16 C :   -0.040110
  17 C :   -0.006428
  18 C :   -0.090305
  19 S :    0.105676
  20 C :   -0.105877
  21 C :    0.033459
  22 C :    0.080311
  23 C :    0.003469
  24 C :   -0.064982
  25 C :    0.039442
  26 C :    0.019163
  27 C :   -0.143548
  28 S :    0.156473
  29 C :   -0.012961
  30 C :    0.000504
  31 C :   -0.178077
  32 C :    0.180306
  33 O :   -0.171697
  34 O :   -0.160501
  35 S :    0.105531
  36 C :   -0.084890
  37 C :    0.124892
  38 C :   -0.032963
  39 C :    0.019098
  40 C :    0.025689
  41 C :    0.002541
  42 C :    0.165671
  43 N :    0.253501
  44 O :   -0.231890
  45 O :   -0.242849
  46 C :   -0.039743
  47 C :    0.161093
  48 O :   -0.146566
  49 C :    0.166700
  50 O :   -0.135225
  51 C :   -0.092130
  52 S :    0.110365
  53 H :    0.180637
  54 H :    0.015422
  55 H :    0.024444
  56 H :    0.037586
  57 H :   -0.014054
  58 H :   -0.017198
  59 H :    0.014999
  60 H :    0.037730
  61 H :   -0.001974
  62 H :    0.020925
  63 H :   -0.006401
  64 H :    0.013597
  65 H :    0.179076
  66 H :   -0.011089
  67 H :   -0.002355
  68 H :    0.008555
  69 H :    0.011170
Sum of atomic charges:   -0.0000000

LOEWDIN ATOMIC CHARGES
----------------------
   0 O :   -0.157104
   1 C :    0.062550
   2 O :   -0.030832
   3 C :   -0.229544
   4 C :   -0.014141
   5 C :   -0.204596
   6 S :    0.454794
   7 C :   -0.165573
   8 C :   -0.088661
   9 C :   -0.157359
  10 S :    0.425403
  11 C :   -0.125337
  12 C :   -0.094446
  13 C :   -0.056989
  14 C :    0.017475
  15 C :   -0.053140
  16 C :   -0.031398
  17 C :   -0.019792
  18 C :   -0.154407
  19 S :    0.421752
  20 C :   -0.114036
  21 C :   -0.098009
  22 C :   -0.048767
  23 C :    0.037463
  24 C :   -0.062114
  25 C :   -0.001844
  26 C :   -0.041639
  27 C :   -0.147118
  28 S :    0.437011
  29 C :   -0.205718
  30 C :   -0.014468
  31 C :   -0.231744
  32 C :    0.062293
  33 O :   -0.160338
  34 O :   -0.034384
  35 S :    0.410158
  36 C :   -0.180980
  37 C :   -0.067655
  38 C :   -0.027199
  39 C :   -0.004851
  40 C :   -0.012735
  41 C :    0.008024
  42 C :   -0.025431
  43 N :    0.289356
  44 O :   -0.196420
  45 O :   -0.209540
  46 C :    0.015529
  47 C :    0.092806
  48 O :   -0.136820
  49 C :    0.095544
  50 O :   -0.123619
  51 C :   -0.194653
  52 S :    0.412029
  53 H :    0.079175
  54 H :    0.047077
  55 H :    0.024070
  56 H :    0.035646
  57 H :    0.027291
  58 H :    0.023562
  59 H :    0.038416
  60 H :    0.035796
  61 H :    0.032398
  62 H :    0.038562
  63 H :    0.028299
  64 H :    0.046436
  65 H :    0.077880
  66 H :    0.027530
  67 H :    0.035369
  68 H :    0.042147
  69 H :    0.041560

  Mayer bond orders larger than 0.100000
B(  0-O ,  1-C ) :   2.2053 B(  1-C ,  2-O ) :   1.2408 B(  1-C ,  3-C ) :   0.9366
B(  2-O , 53-H ) :   0.9497 B(  3-C ,  4-C ) :   1.5806 B(  3-C , 52-S ) :   1.0617
B(  4-C ,  5-C ) :   1.2216 B(  4-C , 54-H ) :   1.0123 B(  5-C ,  6-S ) :   1.0824
B(  5-C , 51-C ) :   1.4466 B(  6-S ,  7-C ) :   1.1561 B(  7-C ,  8-C ) :   1.5507
B(  7-C , 55-H ) :   0.9569 B(  8-C ,  9-C ) :   1.0830 B(  8-C , 51-C ) :   1.2160
B(  9-C , 10-S ) :   1.0984 B(  9-C , 13-C ) :   1.5177 B( 10-S , 11-C ) :   1.1404
B( 11-C , 12-C ) :   1.6059 B( 11-C , 56-H ) :   0.9693 B( 12-C , 13-C ) :   1.2011
B( 12-C , 49-C ) :   0.9227 B( 13-C , 14-C ) :   1.0282 B( 14-C , 15-C ) :   1.5882
B( 14-C , 57-H ) :   1.0139 B( 15-C , 16-C ) :   1.1349 B( 15-C , 49-C ) :   0.9402
B( 16-C , 17-C ) :   1.6353 B( 16-C , 58-H ) :   0.9790 B( 17-C , 18-C ) :   1.1456
B( 17-C , 59-H ) :   0.9650 B( 18-C , 19-S ) :   1.0693 B( 18-C , 22-C ) :   1.4579
B( 19-S , 20-C ) :   1.1482 B( 20-C , 21-C ) :   1.6019 B( 20-C , 60-H ) :   0.9684
B( 21-C , 22-C ) :   1.1924 B( 21-C , 47-C ) :   0.9223 B( 22-C , 23-C ) :   1.0729
B( 23-C , 24-C ) :   1.6046 B( 23-C , 61-H ) :   1.0056 B( 24-C , 25-C ) :   1.1423
B( 24-C , 47-C ) :   0.9512 B( 25-C , 26-C ) :   1.7070 B( 25-C , 62-H ) :   0.9348
B( 26-C , 27-C ) :   1.1047 B( 26-C , 63-H ) :   0.9517 B( 27-C , 28-S ) :   1.1030
B( 27-C , 37-C ) :   1.5281 B( 28-S , 29-C ) :   1.0663 B( 29-C , 30-C ) :   1.2273
B( 29-C , 36-C ) :   1.4270 B( 30-C , 31-C ) :   1.5663 B( 30-C , 64-H ) :   1.0118
B( 31-C , 32-C ) :   0.9424 B( 31-C , 35-S ) :   1.0602 B( 32-C , 33-O ) :   2.2019
B( 32-C , 34-O ) :   1.2338 B( 34-O , 65-H ) :   0.9508 B( 35-S , 36-C ) :   1.1016
B( 36-C , 37-C ) :   1.2815 B( 37-C , 38-C ) :   0.9464 B( 38-C , 39-C ) :   1.4037
B( 38-C , 46-C ) :   1.3520 B( 39-C , 40-C ) :   1.3630 B( 39-C , 66-H ) :   0.9919
B( 40-C , 41-C ) :   1.3724 B( 40-C , 67-H ) :   0.9868 B( 41-C , 42-C ) :   1.3905
B( 41-C , 68-H ) :   0.9867 B( 42-C , 43-N ) :   0.8747 B( 42-C , 46-C ) :   1.3938
B( 43-N , 44-O ) :   1.5750 B( 43-N , 45-O ) :   1.5582 B( 44-O , 45-O ) :   0.2665
B( 46-C , 69-H ) :   0.9742 B( 47-C , 48-O ) :   2.2068 B( 49-C , 50-O ) :   2.2061
B( 51-C , 52-S ) :   1.1115

-----------------------------------------------------------------------------
         ABSORPTION SPECTRUM VIA TRANSITION ELECTRIC DIPOLE MOMENTS
-----------------------------------------------------------------------------
State   Energy  Wavelength   fosc         T2         TX        TY        TZ
        (cm-1)    (nm)                  (au**2)     (au)      (au)      (au)
-----------------------------------------------------------------------------
   0   18707.3    534.5   1.413431763  24.87360  -4.48869   0.64796   2.07494
   1   22454.8    445.3   0.084964717   1.24568   0.11286  -0.76145   0.80817
   2   24358.4    410.5   0.097839308   1.32233  -1.02406   0.52259   0.02337
   3   26500.9    377.3   0.201649047   2.50502  -1.37492   0.40921   0.66870
   4   27540.1    363.1   0.308349882   3.68599  -1.56627  -0.01793   1.11016
   5   28277.6    353.6   0.068651294   0.79925   0.36652   0.44767  -0.68155
   6   28538.4    350.4   0.004314415   0.04977  -0.08035   0.18551  -0.09434
   7   28653.4    349.0   0.003053665   0.03508   0.13759  -0.12641  -0.01320
   8   29470.6    339.3   0.113996091   1.27344  -1.02841   0.31986  -0.33688
   9   29975.7    333.6   0.082008802   0.90067  -0.23593   0.89572  -0.20664
  10   30978.4    322.8   0.075597545   0.80339   0.88961   0.01831  -0.10793
  11   32524.7    307.5   0.065865713   0.66669  -0.32738   0.74076  -0.10387
  12   33262.2    300.6   0.165574798   1.63877  -0.35961  -1.01773   0.68824
  13   33959.2    294.5   0.245322475   2.37824  -1.38000   0.57895   0.37238
  14   34303.4    291.5   0.093904430   0.90121  -0.78983   0.47645   0.22443
  15   35022.9    285.5   0.090459177   0.85031  -0.23828   0.79424  -0.40339
  16   35169.6    284.3   0.219867972   2.05811  -1.02978  -0.62112   0.78222
  17   35683.4    280.2   0.002143576   0.01978   0.02566   0.09611   0.09940
  18   36017.4    277.6   0.101758856   0.93011  -0.78263   0.23681   0.51139
  19   36375.6    274.9   0.038158059   0.34534   0.53270  -0.03885  -0.24509
  20   37407.2    267.3   0.005202854   0.04579  -0.12662   0.12075  -0.12319
  21   37532.7    266.4   0.045783868   0.40159   0.47072   0.27645  -0.32184
  22   37778.5    264.7   0.094836170   0.82643  -0.71391  -0.19396   0.52833
  23   37990.4    263.2   0.020539281   0.17799  -0.33477  -0.25477   0.03176
  24   38303.6    261.1   0.057293958   0.49243  -0.33491   0.61544   0.03874
  25   38537.5    259.5   0.005794042   0.04950  -0.16947   0.14246  -0.02192
  26   38735.9    258.2   0.004907476   0.04171   0.07996  -0.16150   0.09608
  27   39138.7    255.5   0.327020668   2.75071   0.79262  -1.45453  -0.08243
  28   39361.3    254.1   0.023712898   0.19833  -0.30949  -0.15789   0.27860
  29   40037.0    249.8   0.039516742   0.32493  -0.46547  -0.29813   0.13927
  30   40117.8    249.3   0.030772889   0.25253  -0.39453  -0.29027   0.11232

FINAL SINGLE POINT ENERGY     -4500.533963524696

DIPOLE MOMENT
-------------
                                X             Y             Z
Electronic contribution:     16.89092      -8.69190      -3.03000
Nuclear contribution   :    -16.60571       9.38836       1.86835
                        -----------------------------------------
Total Dipole Moment    :      0.28521       0.69646      -1.16165
                        -----------------------------------------
Magnitude (a.u.)       :      1.38414
Magnitude (Debye)      :      3.51820

Rotational constants in cm-1:     0.003097     0.000343     0.000314
Rotational constants in MHz :    92.831180    10.274623     9.410248

                             ****ORCA TERMINATED NORMALLY****
TOTAL RUN TIME: 0 days 0 hours 5 minutes 21 seconds 696 msec
