                         Program Version 4.2.0 -  RELEASE  -
|  1> # ORCA input file
|  2> # SCF done       -136.009271024451          0.000716268884
|  3> ! CAM-B3LYP def2-SVP def2/J RIJCOSX Grid4 TightSCF
|  4> %maxcore 5000
|  5> %tddft
|  6>     Mode sTDDFT
|  7>     Ethresh 5.0
|  8>     maxcore 5000
|  9> end
| 10>
| 11> %pal
| 12>   nprocs 6
| 13>   end
| 14> * xyz 0 1
| 15>    C        9.73685        -7.91317        -4.37871
| 16>    N        9.52413        -6.57486        -4.86525
| 17>    C       10.33089        -6.00672        -5.80025
| 18>    S       11.64823        -6.69615        -6.47117
| 19>    S        9.77495        -4.38354        -6.16693
| 20>    C        8.41597        -4.53774        -5.05131
| 21>    C        7.57203        -3.49389        -4.87398
| 22>    C        6.35617        -3.46359        -4.10828
| 23>    C        5.85796        -2.32316        -3.50913
| 24>    S        4.40109        -2.64206        -2.68906
| 25>    C        4.51529        -4.31421        -3.23729
| 26>    C        3.47047        -5.24650        -2.96317
| 27>    C        3.53868        -6.53618        -3.34287
| 28>    C        2.46334        -7.48739        -3.23612
| 29>    C        1.45768        -7.47483        -2.28349
| 30>    C        1.29722        -6.57942        -1.22232
| 31>    N        1.14469        -5.85494        -0.34535
| 32>    S        0.34027        -8.78526        -2.46112
| 33>    C        1.21198        -9.35043        -3.83458
| 34>    C        0.68801       -10.53310        -4.57388
| 35>    F       -0.60131       -10.76360        -4.29116
| 36>    F        0.76369       -10.37987        -5.90706
| 37>    F        1.34297       -11.67280        -4.28682
| 38>    C        2.31585        -8.58756        -4.14077
| 39>    C        3.20814        -8.84875        -5.25562
| 40>    S        3.88364       -10.43897        -5.48313
| 41>    C        4.76857        -9.92990        -6.88337
| 42>    C        5.64245       -10.83904        -7.57461
| 43>    C        5.83487       -12.16091        -7.25784
| 44>    S        6.97674       -12.87808        -8.31062
| 45>    C        7.12085       -11.34522        -9.11056
| 46>    N        6.38873       -10.41007        -8.63512
| 47>    C        4.51837        -8.61078        -7.16173
| 48>    C        3.64508        -7.99633        -6.23434
| 49>    C        3.37980        -6.54205        -6.44746
| 50>    C        4.75163        -5.85959        -6.55553
| 51>    N        4.59943        -4.39681        -6.78189
| 52>    O        3.61481        -3.87386        -6.32623
| 53>    O        5.49342        -3.82599        -7.35646
| 54>    C        5.68493        -6.49340        -7.59076
| 55>    N        6.92323        -6.97320        -6.93237
| 56>    O        7.97051        -6.76802        -7.49275
| 57>    O        6.79441        -7.57633        -5.89219
| 58>    C        5.08750        -7.75611        -8.24311
| 59>    N        5.56854        -4.55337        -3.94865
| 60>    C        8.48511        -5.82532        -4.39743
| 61>    S        7.54720        -6.35623        -3.15317
| 62>    H       10.50988        -8.38397        -4.98160
| 63>    H        8.79921        -8.46564        -4.45556
| 64>    H       10.04364        -7.88396        -3.33197
| 65>    H        7.82960        -2.56454        -5.36308
| 66>    H        6.29614        -1.34575        -3.50660
| 67>    H        2.59071        -4.84583        -2.48184
| 68>    H        4.44282        -6.90410        -3.80763
| 69>    H        5.36856       -12.72382        -6.47495
| 70>    H        7.78372       -11.21465        -9.94227
| 71>    H        2.80381        -6.09877        -5.63863
| 72>    H        2.82419        -6.40288        -7.37963
| 73>    H        5.22911        -5.90979        -5.55914
| 74>    H        5.99689        -5.76508        -8.34745
| 75>    H        5.84871        -8.29897        -8.80529
| 76>    H        4.29803        -7.45414        -8.93521
| 77> *
| 78>
| 79>                          ****END OF INPUT****

CARTESIAN COORDINATES (ANGSTROEM)
---------------------------------
  C      9.736850   -7.913170   -4.378710
  N      9.524130   -6.574860   -4.865250
  C     10.330890   -6.006720   -5.800250
  S     11.648230   -6.696150   -6.471170
  S      9.774950   -4.383540   -6.166930
  C      8.415970   -4.537740   -5.051310
  C      7.572030   -3.493890   -4.873980
  C      6.356170   -3.463590   -4.108280
  C      5.857960   -2.323160   -3.509130
  S      4.401090   -2.642060   -2.689060
  C      4.515290   -4.314210   -3.237290
  C      3.470470   -5.246500   -2.963170
  C      3.538680   -6.536180   -3.342870
  C      2.463340   -7.487390   -3.236120
  C      1.457680   -7.474830   -2.283490
  C      1.297220   -6.579420   -1.222320
  N      1.144690   -5.854940   -0.345350
  S      0.340270   -8.785260   -2.461120
  C      1.211980   -9.350430   -3.834580
  C      0.688010  -10.533100   -4.573880
  F     -0.601310  -10.763600   -4.291160
  F      0.763690  -10.379870   -5.907060
  F      1.342970  -11.672800   -4.286820
  C      2.315850   -8.587560   -4.140770
  C      3.208140   -8.848750   -5.255620
  S      3.883640  -10.438970   -5.483130
  C      4.768570   -9.929900   -6.883370
  C      5.642450  -10.839040   -7.574610
  C      5.834870  -12.160910   -7.257840
  S      6.976740  -12.878080   -8.310620
  C      7.120850  -11.345220   -9.110560
  N      6.388730  -10.410070   -8.635120
  C      4.518370   -8.610780   -7.161730
  C      3.645080   -7.996330   -6.234340
  C      3.379800   -6.542050   -6.447460
  C      4.751630   -5.859590   -6.555530
  N      4.599430   -4.396810   -6.781890
  O      3.614810   -3.873860   -6.326230
  O      5.493420   -3.825990   -7.356460
  C      5.684930   -6.493400   -7.590760
  N      6.923230   -6.973200   -6.932370
  O      7.970510   -6.768020   -7.492750
  O      6.794410   -7.576330   -5.892190
  C      5.087500   -7.756110   -8.243110
  N      5.568540   -4.553370   -3.948650
  C      8.485110   -5.825320   -4.397430
  S      7.547200   -6.356230   -3.153170
  H     10.509880   -8.383970   -4.981600
  H      8.799210   -8.465640   -4.455560
  H     10.043640   -7.883960   -3.331970
  H      7.829600   -2.564540   -5.363080
  H      6.296140   -1.345750   -3.506600
  H      2.590710   -4.845830   -2.481840
  H      4.442820   -6.904100   -3.807630
  H      5.368560  -12.723820   -6.474950
  H      7.783720  -11.214650   -9.942270
  H      2.803810   -6.098770   -5.638630
  H      2.824190   -6.402880   -7.379630
  H      5.229110   -5.909790   -5.559140
  H      5.996890   -5.765080   -8.347450
  H      5.848710   -8.298970   -8.805290
  H      4.298030   -7.454140   -8.935210

 Total Charge           Charge          ....    0
 Multiplicity           Mult            ....    1
 Number of Electrons    NEL             ....  390
 Basis Dimension        Dim             ....  761

ORBITAL ENERGIES
----------------

  NO   OCC          E(Eh)            E(eV)
   0   2.0000     -89.000881     -2421.8371
   1   2.0000     -88.976620     -2421.1769
   2   2.0000     -88.974275     -2421.1131
   3   2.0000     -88.965670     -2420.8790
   4   2.0000     -88.952593     -2420.5231
   5   2.0000     -88.878597     -2418.5096
   6   2.0000     -88.876815     -2418.4611
   7   2.0000     -24.815165      -675.2550
   8   2.0000     -24.808886      -675.0841
   9   2.0000     -24.808709      -675.0793
  10   2.0000     -19.257482      -524.0227
  11   2.0000     -19.257461      -524.0221
  12   2.0000     -19.257435      -524.0214
  13   2.0000     -19.254963      -523.9542
  14   2.0000     -14.655209      -398.7885
  15   2.0000     -14.649853      -398.6428
  16   2.0000     -14.477332      -393.9482
  17   2.0000     -14.424324      -392.5058
  18   2.0000     -14.423940      -392.4954
  19   2.0000     -14.419426      -392.3725
  20   2.0000     -10.538179      -286.7584
  21   2.0000     -10.372800      -282.2582
  22   2.0000     -10.360199      -281.9153
  23   2.0000     -10.351254      -281.6719
  24   2.0000     -10.344224      -281.4807
  25   2.0000     -10.343921      -281.4724
  26   2.0000     -10.341644      -281.4104
  27   2.0000     -10.340165      -281.3702
  28   2.0000     -10.339459      -281.3510
  29   2.0000     -10.328595      -281.0554
  30   2.0000     -10.326257      -280.9917
  31   2.0000     -10.326169      -280.9893
  32   2.0000     -10.325255      -280.9645
  33   2.0000     -10.322622      -280.8928
  34   2.0000     -10.322394      -280.8866
  35   2.0000     -10.318692      -280.7859
  36   2.0000     -10.313352      -280.6406
  37   2.0000     -10.312109      -280.6068
  38   2.0000     -10.309894      -280.5465
  39   2.0000     -10.306039      -280.4416
  40   2.0000     -10.302439      -280.3436
  41   2.0000     -10.301138      -280.3082
  42   2.0000     -10.299104      -280.2529
  43   2.0000     -10.294540      -280.1287
  44   2.0000     -10.294031      -280.1148
  45   2.0000     -10.288810      -279.9728
  46   2.0000     -10.287814      -279.9457
  47   2.0000      -8.095912      -220.3010
  48   2.0000      -8.073420      -219.6889
  49   2.0000      -8.070703      -219.6150
  50   2.0000      -8.061049      -219.3523
  51   2.0000      -8.049541      -219.0391
  52   2.0000      -7.975115      -217.0139
  53   2.0000      -7.974186      -216.9886
  54   2.0000      -6.065281      -165.0447
  55   2.0000      -6.060908      -164.9257
  56   2.0000      -6.058031      -164.8474
  57   2.0000      -6.042373      -164.4213
  58   2.0000      -6.039649      -164.3472
  59   2.0000      -6.038186      -164.3074
  60   2.0000      -6.035993      -164.2477
  61   2.0000      -6.035594      -164.2369
  62   2.0000      -6.033215      -164.1721
  63   2.0000      -6.030426      -164.0962
  64   2.0000      -6.026246      -163.9825
  65   2.0000      -6.022970      -163.8934
  66   2.0000      -6.019483      -163.7985
  67   2.0000      -6.015378      -163.6867
  68   2.0000      -6.009806      -163.5351
  69   2.0000      -5.944633      -161.7617
  70   2.0000      -5.944020      -161.7450
  71   2.0000      -5.942299      -161.6982
  72   2.0000      -5.940538      -161.6503
  73   2.0000      -5.934762      -161.4931
  74   2.0000      -5.934319      -161.4810
  75   2.0000      -1.402200       -38.1558
  76   2.0000      -1.338913       -36.4337
  77   2.0000      -1.335835       -36.3499
  78   2.0000      -1.305846       -35.5339
  79   2.0000      -1.300407       -35.3859
  80   2.0000      -1.159635       -31.5553
  81   2.0000      -1.156293       -31.4643
  82   2.0000      -1.106475       -30.1087
  83   2.0000      -1.078832       -29.3565
  84   2.0000      -1.077382       -29.3170
  85   2.0000      -1.035790       -28.1853
  86   2.0000      -1.010371       -27.4936
  87   2.0000      -1.001263       -27.2458
  88   2.0000      -0.973385       -26.4872
  89   2.0000      -0.946667       -25.7601
  90   2.0000      -0.931053       -25.3352
  91   2.0000      -0.914847       -24.8943
  92   2.0000      -0.911287       -24.7974
  93   2.0000      -0.906379       -24.6638
  94   2.0000      -0.904585       -24.6150
  95   2.0000      -0.897685       -24.4273
  96   2.0000      -0.890546       -24.2330
  97   2.0000      -0.882675       -24.0188
  98   2.0000      -0.864610       -23.5272
  99   2.0000      -0.852293       -23.1921
 100   2.0000      -0.824220       -22.4282
 101   2.0000      -0.816027       -22.2052
 102   2.0000      -0.811321       -22.0772
 103   2.0000      -0.802072       -21.8255
 104   2.0000      -0.784264       -21.3409
 105   2.0000      -0.776892       -21.1403
 106   2.0000      -0.774967       -21.0879
 107   2.0000      -0.750508       -20.4224
 108   2.0000      -0.732606       -19.9352
 109   2.0000      -0.722208       -19.6523
 110   2.0000      -0.708083       -19.2679
 111   2.0000      -0.704200       -19.1622
 112   2.0000      -0.695864       -18.9354
 113   2.0000      -0.692017       -18.8307
 114   2.0000      -0.690695       -18.7948
 115   2.0000      -0.684219       -18.6185
 116   2.0000      -0.680886       -18.5279
 117   2.0000      -0.680107       -18.5066
 118   2.0000      -0.666133       -18.1264
 119   2.0000      -0.656447       -17.8628
 120   2.0000      -0.651260       -17.7217
 121   2.0000      -0.649664       -17.6783
 122   2.0000      -0.639610       -17.4047
 123   2.0000      -0.632668       -17.2158
 124   2.0000      -0.623997       -16.9798
 125   2.0000      -0.620699       -16.8901
 126   2.0000      -0.611439       -16.6381
 127   2.0000      -0.603726       -16.4282
 128   2.0000      -0.602030       -16.3821
 129   2.0000      -0.598631       -16.2896
 130   2.0000      -0.597259       -16.2522
 131   2.0000      -0.594206       -16.1692
 132   2.0000      -0.580435       -15.7944
 133   2.0000      -0.564158       -15.3515
 134   2.0000      -0.562904       -15.3174
 135   2.0000      -0.562550       -15.3078
 136   2.0000      -0.560606       -15.2549
 137   2.0000      -0.556610       -15.1461
 138   2.0000      -0.549300       -14.9472
 139   2.0000      -0.543093       -14.7783
 140   2.0000      -0.540018       -14.6946
 141   2.0000      -0.531878       -14.4731
 142   2.0000      -0.529596       -14.4110
 143   2.0000      -0.525080       -14.2882
 144   2.0000      -0.520485       -14.1631
 145   2.0000      -0.517157       -14.0726
 146   2.0000      -0.512431       -13.9440
 147   2.0000      -0.511813       -13.9272
 148   2.0000      -0.506262       -13.7761
 149   2.0000      -0.504349       -13.7240
 150   2.0000      -0.500314       -13.6142
 151   2.0000      -0.496664       -13.5149
 152   2.0000      -0.495882       -13.4936
 153   2.0000      -0.493434       -13.4270
 154   2.0000      -0.490726       -13.3533
 155   2.0000      -0.486628       -13.2418
 156   2.0000      -0.483697       -13.1621
 157   2.0000      -0.477005       -12.9800
 158   2.0000      -0.470313       -12.7979
 159   2.0000      -0.466720       -12.7001
 160   2.0000      -0.465074       -12.6553
 161   2.0000      -0.459701       -12.5091
 162   2.0000      -0.457576       -12.4513
 163   2.0000      -0.452665       -12.3176
 164   2.0000      -0.452241       -12.3061
 165   2.0000      -0.450548       -12.2600
 166   2.0000      -0.443514       -12.0686
 167   2.0000      -0.440539       -11.9877
 168   2.0000      -0.435632       -11.8541
 169   2.0000      -0.423812       -11.5325
 170   2.0000      -0.423608       -11.5270
 171   2.0000      -0.420174       -11.4335
 172   2.0000      -0.418484       -11.3875
 173   2.0000      -0.408294       -11.1102
 174   2.0000      -0.401649       -10.9294
 175   2.0000      -0.396710       -10.7950
 176   2.0000      -0.394650       -10.7390
 177   2.0000      -0.390700       -10.6315
 178   2.0000      -0.379967       -10.3394
 179   2.0000      -0.378480       -10.2990
 180   2.0000      -0.375978       -10.2309
 181   2.0000      -0.375660       -10.2222
 182   2.0000      -0.369355       -10.0507
 183   2.0000      -0.366935        -9.9848
 184   2.0000      -0.362038        -9.8516
 185   2.0000      -0.358648        -9.7593
 186   2.0000      -0.351199        -9.5566
 187   2.0000      -0.338650        -9.2151
 188   2.0000      -0.319481        -8.6935
 189   2.0000      -0.304828        -8.2948
 190   2.0000      -0.287388        -7.8202
 191   2.0000      -0.281133        -7.6500
 192   2.0000      -0.279910        -7.6167
 193   2.0000      -0.267872        -7.2892
 194   2.0000      -0.262681        -7.1479
 195   0.0000      -0.072011        -1.9595
 196   0.0000      -0.066898        -1.8204
 197   0.0000      -0.040048        -1.0898
 198   0.0000      -0.029680        -0.8076
 199   0.0000      -0.022275        -0.6061

MULLIKEN ATOMIC CHARGES
-----------------------
   0 C :    0.144206
   1 N :   -0.154382
   2 C :   -0.006027
   3 S :   -0.165733
   4 S :    0.139573
   5 C :   -0.103029
   6 C :    0.022159
   7 C :    0.070001
   8 C :   -0.081772
   9 S :    0.155665
  10 C :   -0.110010
  11 C :    0.085042
  12 C :   -0.065558
  13 C :    0.208755
  14 C :   -0.330405
  15 C :   -0.186203
  16 N :    0.143398
  17 S :    0.264294
  18 C :   -0.298960
  19 C :    0.556841
  20 F :   -0.155495
  21 F :   -0.153890
  22 F :   -0.156308
  23 C :    0.106602
  24 C :   -0.256330
  25 S :    0.159471
  26 C :   -0.068729
  27 C :    0.037715
  28 C :   -0.138908
  29 S :    0.118408
  30 C :    0.010901
  31 N :   -0.084847
  32 C :   -0.168290
  33 C :   -0.023542
  34 C :    0.260427
  35 C :   -0.024592
  36 N :    0.226732
  37 O :   -0.220920
  38 O :   -0.224098
  39 C :   -0.015055
  40 N :    0.205875
  41 O :   -0.215790
  42 O :   -0.209396
  43 C :    0.305713
  44 N :   -0.079482
  45 C :    0.062762
  46 S :   -0.144863
  47 H :    0.046290
  48 H :    0.048743
  49 H :    0.035322
  50 H :    0.013409
  51 H :    0.028479
  52 H :    0.011720
  53 H :    0.051958
  54 H :    0.034712
  55 H :    0.048149
  56 H :    0.035943
  57 H :    0.007667
  58 H :    0.096670
  59 H :    0.049530
  60 H :    0.029976
  61 H :    0.019509
Sum of atomic charges:    0.0000000

LOEWDIN ATOMIC CHARGES
----------------------
   0 C :    0.023078
   1 N :    0.012134
   2 C :   -0.246823
   3 S :   -0.029260
   4 S :    0.386948
   5 C :   -0.183171
   6 C :   -0.013698
   7 C :   -0.051939
   8 C :   -0.176020
   9 S :    0.452417
  10 C :   -0.127616
  11 C :   -0.027037
  12 C :   -0.003530
  13 C :   -0.016228
  14 C :   -0.216710
  15 C :   -0.055098
  16 N :   -0.040670
  17 S :    0.524996
  18 C :   -0.234430
  19 C :    0.145534
  20 F :   -0.056865
  21 F :   -0.055416
  22 F :   -0.061675
  23 C :   -0.044314
  24 C :   -0.184048
  25 S :    0.455784
  26 C :   -0.168661
  27 C :   -0.055969
  28 C :   -0.204784
  29 S :    0.439860
  30 C :   -0.117611
  31 N :   -0.086453
  32 C :   -0.059304
  33 C :   -0.046715
  34 C :   -0.017719
  35 C :   -0.002175
  36 N :    0.278300
  37 O :   -0.187401
  38 O :   -0.194606
  39 C :    0.009125
  40 N :    0.276618
  41 O :   -0.184238
  42 O :   -0.184930
  43 C :   -0.012761
  44 N :   -0.085805
  45 C :   -0.131633
  46 S :    0.032454
  47 H :    0.020834
  48 H :    0.029397
  49 H :    0.028878
  50 H :    0.041528
  51 H :    0.030998
  52 H :    0.036898
  53 H :    0.042297
  54 H :    0.026826
  55 H :    0.022917
  56 H :    0.038979
  57 H :    0.038711
  58 H :    0.046598
  59 H :    0.042525
  60 H :    0.037807
  61 H :    0.042872

  Mayer bond orders larger than 0.100000
B(  0-C ,  1-N ) :   0.9472 B(  0-C , 47-H ) :   0.9439 B(  0-C , 48-H ) :   0.9571
B(  0-C , 49-H ) :   0.9652 B(  1-N ,  2-C ) :   1.1395 B(  1-N , 45-C ) :   1.1585
B(  2-C ,  3-S ) :   1.6801 B(  2-C ,  4-S ) :   1.0547 B(  4-S ,  5-C ) :   1.0450
B(  5-C ,  6-C ) :   1.7351 B(  5-C , 45-C ) :   1.0224 B(  6-C ,  7-C ) :   1.0949
B(  6-C , 50-H ) :   0.9460 B(  7-C ,  8-C ) :   1.4833 B(  7-C , 44-N ) :   1.3100
B(  8-C ,  9-S ) :   1.1900 B(  8-C , 51-H ) :   0.9708 B(  9-S , 10-C ) :   1.1077
B( 10-C , 11-C ) :   1.0874 B( 10-C , 44-N ) :   1.6571 B( 11-C , 12-C ) :   1.7371
B( 11-C , 52-H ) :   0.9472 B( 12-C , 13-C ) :   1.0869 B( 12-C , 53-H ) :   0.9385
B( 13-C , 14-C ) :   1.4721 B( 13-C , 23-C ) :   1.2461 B( 14-C , 15-C ) :   1.2124
B( 14-C , 17-S ) :   1.1570 B( 14-C , 18-C ) :   0.1196 B( 15-C , 16-N ) :   2.9826
B( 17-S , 18-C ) :   1.1350 B( 18-C , 19-C ) :   0.9504 B( 18-C , 23-C ) :   1.5652
B( 19-C , 20-F ) :   1.1690 B( 19-C , 21-F ) :   1.1679 B( 19-C , 22-F ) :   1.1754
B( 23-C , 24-C ) :   0.9781 B( 24-C , 25-S ) :   1.1354 B( 24-C , 26-C ) :   0.1209
B( 24-C , 33-C ) :   1.6025 B( 25-S , 26-C ) :   1.1326 B( 26-C , 27-C ) :   1.0715
B( 26-C , 32-C ) :   1.5858 B( 27-C , 28-C ) :   1.5598 B( 27-C , 31-N ) :   1.3703
B( 28-C , 29-S ) :   1.1638 B( 28-C , 54-H ) :   0.9567 B( 29-S , 30-C ) :   1.1742
B( 30-C , 31-N ) :   1.7049 B( 30-C , 55-H ) :   0.9659 B( 32-C , 33-C ) :   1.2403
B( 32-C , 43-C ) :   1.0574 B( 33-C , 34-C ) :   1.0913 B( 34-C , 35-C ) :   1.0910
B( 34-C , 56-H ) :   0.8749 B( 34-C , 57-H ) :   0.8538 B( 35-C , 36-N ) :   0.8274
B( 35-C , 39-C ) :   0.9553 B( 35-C , 58-H ) :   0.8457 B( 36-N , 37-O ) :   1.5759
B( 36-N , 38-O ) :   1.5731 B( 37-O , 38-O ) :   0.2622 B( 39-C , 40-N ) :   0.8300
B( 39-C , 43-C ) :   1.0781 B( 39-C , 59-H ) :   0.9009 B( 40-N , 41-O ) :   1.5558
B( 40-N , 42-O ) :   1.5421 B( 41-O , 42-O ) :   0.2609 B( 43-C , 60-H ) :   0.8705
B( 43-C , 61-H ) :   0.8703 B( 44-N , 58-H ) :   0.1002 B( 45-C , 46-S ) :   1.6846

-----------------------------------------------------------------------------
         ABSORPTION SPECTRUM VIA TRANSITION ELECTRIC DIPOLE MOMENTS
-----------------------------------------------------------------------------
State   Energy  Wavelength   fosc         T2         TX        TY        TZ
        (cm-1)    (nm)                  (au**2)     (au)      (au)      (au)
-----------------------------------------------------------------------------
   0   16886.2    592.2   0.001176327   0.02293  -0.08689  -0.12206  -0.02203
   1   23441.6    426.6   0.013267009   0.18632  -0.38068   0.19999   0.03749
   2   24318.1    411.2   0.000683157   0.00925  -0.06248  -0.01788   0.07088
   3   25468.5    392.6   0.465002275   6.01072   2.36993  -0.21350  -0.59041
   4   28071.5    356.2   0.266545658   3.12594   0.05844   1.76520   0.08120
   5   28834.3    346.8   0.007824083   0.08933  -0.27687   0.07976   0.07947
   6   29098.5    343.7   0.001331465   0.01506   0.09510   0.00267  -0.07754
   7   30667.6    326.1   0.133564401   1.43379   0.97746   0.41507  -0.55325
   8   31010.0    322.5   0.042553588   0.45176   0.62920  -0.15512  -0.17835
   9   31591.6    316.5   0.016434350   0.17126   0.15257   0.18984  -0.33458
  10   31953.6    313.0   0.039757054   0.40961   0.11881  -0.62838  -0.02511
  11   32271.6    309.9   0.009247346   0.09433   0.09366   0.28825   0.04972
  12   32479.7    307.9   0.015902462   0.16119  -0.05009   0.02647   0.39746
  13   32699.4    305.8   0.013018757   0.13107  -0.13041  -0.25405  -0.22254
  14   33208.8    301.1   0.004646142   0.04606   0.00815   0.07410   0.20125
  15   34019.8    293.9   0.282492731   2.73370   0.83442  -1.16100  -0.83037
  16   34078.1    293.4   0.202818146   1.95933   0.56111  -0.77962  -1.01818
  17   34313.2    291.4   0.078599195   0.75411  -0.62142   0.05466   0.60411
  18   34583.0    289.2   0.179934501   1.71288   0.00617  -1.24268  -0.41061
  19   35242.2    283.8   0.006131488   0.05728   0.20215  -0.12252  -0.03745
  20   35585.3    281.0   0.008482561   0.07848  -0.10273   0.00580   0.26055
  21   36092.1    277.1   0.324363343   2.95866   1.37688   0.60478  -0.83493
  22   36296.4    275.5   0.026371966   0.23920   0.29492   0.37679  -0.10124
  23   37216.0    268.7   0.065923883   0.58316   0.66322  -0.20400  -0.31889
  24   38064.8    262.7   0.009688366   0.08379  -0.21623  -0.00945   0.19222
  25   38553.2    259.4   0.009428290   0.08051  -0.25522   0.11413   0.04847
  26   38617.9    258.9   0.006168336   0.05258  -0.22368  -0.01171   0.04912
  27   38698.4    258.4   0.004918185   0.04184   0.12733   0.12852  -0.09544
  28   39158.7    255.4   0.001761796   0.01481  -0.01016   0.11765  -0.02945
  29   39327.5    254.3   0.002002002   0.01676  -0.02839   0.11602  -0.04991
  30   39432.8    253.6   0.005116965   0.04272  -0.16307  -0.00789   0.12675
  31   40063.3    249.6   0.016684392   0.13710   0.03630  -0.23699  -0.28217
  32   40215.1    248.7   0.079232907   0.64862  -0.66692  -0.21320   0.39798

FINAL SINGLE POINT ENERGY     -4750.792631052943

DIPOLE MOMENT
-------------
                                X             Y             Z
Electronic contribution:    -25.74934     -16.48019      10.16207
Nuclear contribution   :     24.92871      15.76292     -11.10504
                        -----------------------------------------
Total Dipole Moment    :     -0.82063      -0.71726      -0.94296
                        -----------------------------------------
Magnitude (a.u.)       :      1.44121
Magnitude (Debye)      :      3.66326

Rotational constants in cm-1:     0.002202     0.001649     0.001109
Rotational constants in MHz :    66.002595    49.446434    33.234404

                             ****ORCA TERMINATED NORMALLY****
TOTAL RUN TIME: 0 days 0 hours 5 minutes 21 seconds 985 msec
