                         Program Version 4.2.0 -  RELEASE  -
|  1> # ORCA input file
|  2> # SCF done       -161.045346867645          0.000726330760
|  3> ! CAM-B3LYP def2-SVP def2/J RIJCOSX Grid4 TightSCF
|  4> %maxcore 5000
|  5> %tddft
|  6>     Mode sTDDFT
|  7>     Ethresh 5.0
|  8>     maxcore 5000
|  9> end
| 10>
| 11> %pal
| 12>   nprocs 6
| 13>   end
| 14> * xyz 0 1
| 15>    O        2.15704         0.17842         0.56415
| 16>    C        3.24048        -0.28991         0.43445
| 17>    C        4.59957         0.28973         0.03085
| 18>    C        5.17302         1.34285         0.90737
| 19>    C        5.81596         2.47119         0.39503
| 20>    N        6.01171         2.76895        -0.89591
| 21>    S        6.79059         4.15947        -0.98934
| 22>    N        6.93117         4.48100         0.56758
| 23>    C        6.36126         3.49143         1.26982
| 24>    C        6.25589         3.38558         2.65170
| 25>    C        5.61466         2.26657         3.16348
| 26>    N        5.48404         2.13538         4.51074
| 27>    C        4.88480         1.09494         4.97180
| 28>    F        4.75771         0.97381         6.28843
| 29>    C        4.36545         0.07703         4.10991
| 30>    F        3.76833        -0.99682         4.61789
| 31>    N        4.46625         0.15897         2.82862
| 32>    C        5.08176         1.24651         2.29732
| 33>    C        5.15980        -1.13232         0.17080
| 34>    O        6.23796        -1.60446         0.01800
| 35>    C        3.80176        -1.71050         0.58424
| 36>    C        3.20922        -2.76827        -0.27200
| 37>    C        2.80803        -4.00342         0.24214
| 38>    N        2.90159        -4.41508         1.51312
| 39>    S        2.31799        -5.89724         1.62222
| 40>    N        1.91092        -6.12164         0.09474
| 41>    C        2.21697        -5.02028        -0.60311
| 42>    C        2.01654        -4.80882        -1.96909
| 43>    C        1.40971        -5.83931        -2.84843
| 44>    C        0.15601        -5.44555        -3.63837
| 45>    O       -0.92640        -5.07449        -3.32334
| 46>    C        0.82916        -5.71295        -4.99082
| 47>    C        0.22346        -6.75443        -5.85943
| 48>    C       -0.28012        -6.46599        -7.12918
| 49>    N       -0.29783        -5.27203        -7.73546
| 50>    S       -0.97177        -5.43676        -9.17349
| 51>    N       -1.28188        -7.00184        -9.13498
| 52>    C       -0.86438        -7.49962        -7.96223
| 53>    C       -0.93642        -8.81801        -7.52805
| 54>    C       -0.43377        -9.10790        -6.26759
| 55>    N       -0.47863       -10.38934        -5.81450
| 56>    C       -0.00813       -10.64446        -4.64489
| 57>    F       -0.05163       -11.89851        -4.20930
| 58>    C        0.54696        -9.62046        -3.81258
| 59>    F        1.00590        -9.91230        -2.59924
| 60>    N        0.61055        -8.39402        -4.20011
| 61>    C        0.13638        -8.08115        -5.43356
| 62>    C        2.08422        -6.09975        -4.20183
| 63>    O        3.17282        -6.45336        -4.51781
| 64>    C        2.41773        -3.57140        -2.47780
| 65>    N        2.23413        -3.32267        -3.79913
| 66>    C        2.61024        -2.18473        -4.27175
| 67>    F        2.41789        -1.95626        -5.56690
| 68>    C        3.21184        -1.18957        -3.44201
| 69>    F        3.59883        -0.02682        -3.95671
| 70>    N        3.39856        -1.38164        -2.18185
| 71>    C        3.01397        -2.56491        -1.64000
| 72>    H        4.62797         0.63739        -1.00480
| 73>    H        6.64866         4.14067         3.31026
| 74>    H        3.79939        -2.05582         1.62104
| 75>    H        1.26070        -6.75324        -2.26829
| 76>    H        0.95367        -4.79618        -5.57225
| 77>    H       -1.35991        -9.59488        -8.14076
| 78> *
| 79>
| 80>                          ****END OF INPUT****

CARTESIAN COORDINATES (ANGSTROEM)
---------------------------------
  O      2.157040    0.178420    0.564150
  C      3.240480   -0.289910    0.434450
  C      4.599570    0.289730    0.030850
  C      5.173020    1.342850    0.907370
  C      5.815960    2.471190    0.395030
  N      6.011710    2.768950   -0.895910
  S      6.790590    4.159470   -0.989340
  N      6.931170    4.481000    0.567580
  C      6.361260    3.491430    1.269820
  C      6.255890    3.385580    2.651700
  C      5.614660    2.266570    3.163480
  N      5.484040    2.135380    4.510740
  C      4.884800    1.094940    4.971800
  F      4.757710    0.973810    6.288430
  C      4.365450    0.077030    4.109910
  F      3.768330   -0.996820    4.617890
  N      4.466250    0.158970    2.828620
  C      5.081760    1.246510    2.297320
  C      5.159800   -1.132320    0.170800
  O      6.237960   -1.604460    0.018000
  C      3.801760   -1.710500    0.584240
  C      3.209220   -2.768270   -0.272000
  C      2.808030   -4.003420    0.242140
  N      2.901590   -4.415080    1.513120
  S      2.317990   -5.897240    1.622220
  N      1.910920   -6.121640    0.094740
  C      2.216970   -5.020280   -0.603110
  C      2.016540   -4.808820   -1.969090
  C      1.409710   -5.839310   -2.848430
  C      0.156010   -5.445550   -3.638370
  O     -0.926400   -5.074490   -3.323340
  C      0.829160   -5.712950   -4.990820
  C      0.223460   -6.754430   -5.859430
  C     -0.280120   -6.465990   -7.129180
  N     -0.297830   -5.272030   -7.735460
  S     -0.971770   -5.436760   -9.173490
  N     -1.281880   -7.001840   -9.134980
  C     -0.864380   -7.499620   -7.962230
  C     -0.936420   -8.818010   -7.528050
  C     -0.433770   -9.107900   -6.267590
  N     -0.478630  -10.389340   -5.814500
  C     -0.008130  -10.644460   -4.644890
  F     -0.051630  -11.898510   -4.209300
  C      0.546960   -9.620460   -3.812580
  F      1.005900   -9.912300   -2.599240
  N      0.610550   -8.394020   -4.200110
  C      0.136380   -8.081150   -5.433560
  C      2.084220   -6.099750   -4.201830
  O      3.172820   -6.453360   -4.517810
  C      2.417730   -3.571400   -2.477800
  N      2.234130   -3.322670   -3.799130
  C      2.610240   -2.184730   -4.271750
  F      2.417890   -1.956260   -5.566900
  C      3.211840   -1.189570   -3.442010
  F      3.598830   -0.026820   -3.956710
  N      3.398560   -1.381640   -2.181850
  C      3.013970   -2.564910   -1.640000
  H      4.627970    0.637390   -1.004800
  H      6.648660    4.140670    3.310260
  H      3.799390   -2.055820    1.621040
  H      1.260700   -6.753240   -2.268290
  H      0.953670   -4.796180   -5.572250
  H     -1.359910   -9.594880   -8.140760

 Total Charge           Charge          ....    0
 Multiplicity           Mult            ....    1
 Number of Electrons    NEL             ....  416
 Basis Dimension        Dim             ....  840

ORBITAL ENERGIES
----------------

  NO   OCC          E(Eh)            E(eV)
   0   2.0000     -89.045301     -2423.0458
   1   2.0000     -89.041490     -2422.9421
   2   2.0000     -89.041449     -2422.9410
   3   2.0000     -24.823134      -675.4718
   4   2.0000     -24.822973      -675.4674
   5   2.0000     -24.819440      -675.3713
   6   2.0000     -24.819404      -675.3703
   7   2.0000     -24.814354      -675.2329
   8   2.0000     -24.814333      -675.2323
   9   2.0000     -19.227578      -523.2090
  10   2.0000     -19.227063      -523.1950
  11   2.0000     -19.221266      -523.0372
  12   2.0000     -19.220681      -523.0213
  13   2.0000     -14.463932      -393.5836
  14   2.0000     -14.463788      -393.5797
  15   2.0000     -14.459061      -393.4510
  16   2.0000     -14.459021      -393.4500
  17   2.0000     -14.452563      -393.2742
  18   2.0000     -14.452563      -393.2742
  19   2.0000     -14.450476      -393.2174
  20   2.0000     -14.450389      -393.2151
  21   2.0000     -14.447618      -393.1397
  22   2.0000     -14.447587      -393.1388
  23   2.0000     -14.445934      -393.0939
  24   2.0000     -14.445885      -393.0925
  25   2.0000     -10.439586      -284.0756
  26   2.0000     -10.439324      -284.0684
  27   2.0000     -10.434892      -283.9479
  28   2.0000     -10.434862      -283.9470
  29   2.0000     -10.430972      -283.8412
  30   2.0000     -10.430939      -283.8403
  31   2.0000     -10.372546      -282.2513
  32   2.0000     -10.372419      -282.2479
  33   2.0000     -10.370030      -282.1829
  34   2.0000     -10.369812      -282.1769
  35   2.0000     -10.347102      -281.5590
  36   2.0000     -10.346838      -281.5518
  37   2.0000     -10.343620      -281.4642
  38   2.0000     -10.343562      -281.4626
  39   2.0000     -10.342847      -281.4432
  40   2.0000     -10.342841      -281.4430
  41   2.0000     -10.338441      -281.3233
  42   2.0000     -10.338212      -281.3171
  43   2.0000     -10.335267      -281.2369
  44   2.0000     -10.335251      -281.2365
  45   2.0000     -10.335027      -281.2304
  46   2.0000     -10.335010      -281.2299
  47   2.0000     -10.315420      -280.6968
  48   2.0000     -10.315256      -280.6924
  49   2.0000     -10.314443      -280.6703
  50   2.0000     -10.314399      -280.6691
  51   2.0000     -10.299861      -280.2735
  52   2.0000     -10.299821      -280.2724
  53   2.0000     -10.288915      -279.9756
  54   2.0000     -10.288842      -279.9736
  55   2.0000     -10.288749      -279.9711
  56   2.0000     -10.288739      -279.9708
  57   2.0000      -8.136504      -221.4055
  58   2.0000      -8.132920      -221.3080
  59   2.0000      -8.132893      -221.3073
  60   2.0000      -6.107364      -166.1898
  61   2.0000      -6.103750      -166.0915
  62   2.0000      -6.103736      -166.0911
  63   2.0000      -6.099703      -165.9814
  64   2.0000      -6.099632      -165.9794
  65   2.0000      -6.096148      -165.8846
  66   2.0000      -6.096112      -165.8836
  67   2.0000      -6.096005      -165.8807
  68   2.0000      -6.095974      -165.8799
  69   2.0000      -1.351491       -36.7759
  70   2.0000      -1.346076       -36.6286
  71   2.0000      -1.345992       -36.6263
  72   2.0000      -1.337253       -36.3885
  73   2.0000      -1.331116       -36.2215
  74   2.0000      -1.331066       -36.2202
  75   2.0000      -1.147534       -31.2260
  76   2.0000      -1.147160       -31.2158
  77   2.0000      -1.140518       -31.0351
  78   2.0000      -1.139015       -30.9942
  79   2.0000      -1.138647       -30.9842
  80   2.0000      -1.136922       -30.9372
  81   2.0000      -1.136844       -30.9351
  82   2.0000      -1.119447       -30.4617
  83   2.0000      -1.112743       -30.2793
  84   2.0000      -1.112672       -30.2773
  85   2.0000      -1.047366       -28.5003
  86   2.0000      -1.039565       -28.2880
  87   2.0000      -1.039546       -28.2875
  88   2.0000      -0.993815       -27.0431
  89   2.0000      -0.989664       -26.9301
  90   2.0000      -0.989171       -26.9167
  91   2.0000      -0.982985       -26.7484
  92   2.0000      -0.974120       -26.5072
  93   2.0000      -0.971823       -26.4447
  94   2.0000      -0.950594       -25.8670
  95   2.0000      -0.940883       -25.6027
  96   2.0000      -0.892864       -24.2961
  97   2.0000      -0.885498       -24.0956
  98   2.0000      -0.879844       -23.9418
  99   2.0000      -0.879782       -23.9401
 100   2.0000      -0.873969       -23.7819
 101   2.0000      -0.858252       -23.3542
 102   2.0000      -0.820258       -22.3204
 103   2.0000      -0.812102       -22.0984
 104   2.0000      -0.811262       -22.0756
 105   2.0000      -0.803353       -21.8603
 106   2.0000      -0.788551       -21.4576
 107   2.0000      -0.770850       -20.9759
 108   2.0000      -0.765349       -20.8262
 109   2.0000      -0.759467       -20.6661
 110   2.0000      -0.754860       -20.5408
 111   2.0000      -0.748678       -20.3726
 112   2.0000      -0.745969       -20.2988
 113   2.0000      -0.713156       -19.4060
 114   2.0000      -0.696680       -18.9576
 115   2.0000      -0.690975       -18.8024
 116   2.0000      -0.687569       -18.7097
 117   2.0000      -0.682783       -18.5795
 118   2.0000      -0.682470       -18.5710
 119   2.0000      -0.679191       -18.4817
 120   2.0000      -0.673531       -18.3277
 121   2.0000      -0.669166       -18.2089
 122   2.0000      -0.662302       -18.0222
 123   2.0000      -0.657616       -17.8946
 124   2.0000      -0.653181       -17.7739
 125   2.0000      -0.638109       -17.3638
 126   2.0000      -0.637166       -17.3382
 127   2.0000      -0.635696       -17.2982
 128   2.0000      -0.631433       -17.1822
 129   2.0000      -0.631203       -17.1759
 130   2.0000      -0.624426       -16.9915
 131   2.0000      -0.619149       -16.8479
 132   2.0000      -0.619064       -16.8456
 133   2.0000      -0.616347       -16.7717
 134   2.0000      -0.612624       -16.6703
 135   2.0000      -0.605730       -16.4827
 136   2.0000      -0.598778       -16.2936
 137   2.0000      -0.584695       -15.9104
 138   2.0000      -0.579287       -15.7632
 139   2.0000      -0.578275       -15.7357
 140   2.0000      -0.576747       -15.6941
 141   2.0000      -0.572914       -15.5898
 142   2.0000      -0.572342       -15.5742
 143   2.0000      -0.571903       -15.5623
 144   2.0000      -0.560777       -15.2595
 145   2.0000      -0.559438       -15.2231
 146   2.0000      -0.555006       -15.1025
 147   2.0000      -0.551128       -14.9970
 148   2.0000      -0.550904       -14.9909
 149   2.0000      -0.546494       -14.8709
 150   2.0000      -0.545158       -14.8345
 151   2.0000      -0.544412       -14.8142
 152   2.0000      -0.543847       -14.7988
 153   2.0000      -0.535705       -14.5773
 154   2.0000      -0.534886       -14.5550
 155   2.0000      -0.527805       -14.3623
 156   2.0000      -0.524815       -14.2809
 157   2.0000      -0.522388       -14.2149
 158   2.0000      -0.517971       -14.0947
 159   2.0000      -0.517369       -14.0783
 160   2.0000      -0.517187       -14.0734
 161   2.0000      -0.516030       -14.0419
 162   2.0000      -0.512360       -13.9420
 163   2.0000      -0.511074       -13.9070
 164   2.0000      -0.499558       -13.5937
 165   2.0000      -0.497403       -13.5350
 166   2.0000      -0.495281       -13.4773
 167   2.0000      -0.492945       -13.4137
 168   2.0000      -0.492736       -13.4080
 169   2.0000      -0.489903       -13.3309
 170   2.0000      -0.482174       -13.1206
 171   2.0000      -0.480546       -13.0763
 172   2.0000      -0.477643       -12.9973
 173   2.0000      -0.477569       -12.9953
 174   2.0000      -0.476125       -12.9560
 175   2.0000      -0.447750       -12.1839
 176   2.0000      -0.447035       -12.1644
 177   2.0000      -0.446808       -12.1583
 178   2.0000      -0.441328       -12.0091
 179   2.0000      -0.436852       -11.8874
 180   2.0000      -0.429655       -11.6915
 181   2.0000      -0.425276       -11.5724
 182   2.0000      -0.422286       -11.4910
 183   2.0000      -0.421706       -11.4752
 184   2.0000      -0.421231       -11.4623
 185   2.0000      -0.417996       -11.3743
 186   2.0000      -0.416981       -11.3466
 187   2.0000      -0.415479       -11.3058
 188   2.0000      -0.412770       -11.2321
 189   2.0000      -0.412606       -11.2276
 190   2.0000      -0.411852       -11.2071
 191   2.0000      -0.411799       -11.2056
 192   2.0000      -0.383897       -10.4464
 193   2.0000      -0.383347       -10.4314
 194   2.0000      -0.379724       -10.3328
 195   2.0000      -0.379616       -10.3299
 196   2.0000      -0.374549       -10.1920
 197   2.0000      -0.372756       -10.1432
 198   2.0000      -0.343402        -9.3445
 199   2.0000      -0.342884        -9.3304
 200   2.0000      -0.342163        -9.3107
 201   2.0000      -0.337821        -9.1926
 202   2.0000      -0.337805        -9.1921
 203   2.0000      -0.336233        -9.1494
 204   2.0000      -0.327320        -8.9068
 205   2.0000      -0.304655        -8.2901
 206   2.0000      -0.290659        -7.9092
 207   2.0000      -0.275571        -7.4987
 208   0.0000      -0.105605        -2.8737
 209   0.0000      -0.097459        -2.6520
 210   0.0000      -0.095372        -2.5952
 211   0.0000      -0.028744        -0.7822
 212   0.0000      -0.022596        -0.6149

MULLIKEN ATOMIC CHARGES
-----------------------
   0 O :   -0.111231
   1 C :    0.152808
   2 C :   -0.125051
   3 C :    0.118148
   4 C :   -0.061673
   5 N :   -0.281324
   6 S :    0.544763
   7 N :   -0.272098
   8 C :    0.129902
   9 C :   -0.114041
  10 C :    0.055932
  11 N :    0.020361
  12 C :    0.128243
  13 F :   -0.137063
  14 C :    0.152894
  15 F :   -0.139300
  16 N :   -0.024602
  17 C :   -0.066255
  18 C :    0.140094
  19 O :   -0.103367
  20 C :   -0.133429
  21 C :    0.057812
  22 C :    0.001054
  23 N :   -0.283493
  24 S :    0.556466
  25 N :   -0.281680
  26 C :    0.000400
  27 C :    0.055483
  28 C :   -0.137025
  29 C :    0.137801
  30 O :   -0.101926
  31 C :   -0.128016
  32 C :    0.119776
  33 C :   -0.055369
  34 N :   -0.282769
  35 S :    0.544492
  36 N :   -0.271207
  37 C :    0.126928
  38 C :   -0.115362
  39 C :    0.057975
  40 N :    0.018273
  41 C :    0.129086
  42 F :   -0.137490
  43 C :    0.151214
  44 F :   -0.138781
  45 N :   -0.022951
  46 C :   -0.069260
  47 C :    0.157261
  48 O :   -0.112301
  49 C :   -0.022054
  50 N :   -0.012641
  51 C :    0.154530
  52 F :   -0.137039
  53 C :    0.154242
  54 F :   -0.137096
  55 N :   -0.012766
  56 C :   -0.026734
  57 H :    0.058993
  58 H :   -0.020504
  59 H :    0.055562
  60 H :    0.056362
  61 H :    0.059362
  62 H :   -0.020319
Sum of atomic charges:   -0.0000000

LOEWDIN ATOMIC CHARGES
----------------------
   0 O :   -0.103599
   1 C :    0.097577
   2 C :   -0.076012
   3 C :   -0.006679
   4 C :   -0.048220
   5 N :   -0.292091
   6 S :    0.688413
   7 N :   -0.289759
   8 C :   -0.049063
   9 C :   -0.006669
  10 C :   -0.009902
  11 N :   -0.035743
  12 C :    0.055173
  13 F :   -0.026382
  14 C :    0.065066
  15 F :   -0.025142
  16 N :   -0.041517
  17 C :   -0.011537
  18 C :    0.104298
  19 O :   -0.094673
  20 C :   -0.076918
  21 C :   -0.008585
  22 C :   -0.043103
  23 N :   -0.288446
  24 S :    0.695429
  25 N :   -0.288130
  26 C :   -0.043379
  27 C :   -0.008482
  28 C :   -0.076921
  29 C :    0.104468
  30 O :   -0.094125
  31 C :   -0.076319
  32 C :   -0.006515
  33 C :   -0.047982
  34 N :   -0.292235
  35 S :    0.688381
  36 N :   -0.289752
  37 C :   -0.049194
  38 C :   -0.006723
  39 C :   -0.009728
  40 N :   -0.035871
  41 C :    0.055325
  42 F :   -0.026538
  43 C :    0.064827
  44 F :   -0.025100
  45 N :   -0.041357
  46 C :   -0.011615
  47 C :    0.097254
  48 O :   -0.104137
  49 C :   -0.006504
  50 N :   -0.036299
  51 C :    0.065421
  52 F :   -0.023400
  53 C :    0.065489
  54 F :   -0.023372
  55 N :   -0.036880
  56 C :   -0.006417
  57 H :    0.064639
  58 H :    0.047613
  59 H :    0.064660
  60 H :    0.064736
  61 H :    0.064631
  62 H :    0.047614

  Mayer bond orders larger than 0.100000
B(  0-O ,  1-C ) :   2.3132 B(  1-C ,  2-C ) :   0.8812 B(  1-C , 20-C ) :   0.8819
B(  2-C ,  3-C ) :   1.0583 B(  2-C , 18-C ) :   0.8871 B(  2-C , 57-H ) :   0.8412
B(  3-C ,  4-C ) :   1.2624 B(  3-C ,  9-C ) :   0.1520 B(  3-C , 17-C ) :   1.3780
B(  4-C ,  5-N ) :   1.4859 B(  4-C ,  8-C ) :   1.1290 B(  5-N ,  6-S ) :   1.2965
B(  5-N ,  7-N ) :   0.1641 B(  6-S ,  7-N ) :   1.3174 B(  7-N ,  8-C ) :   1.4500
B(  8-C ,  9-C ) :   1.1655 B(  9-C , 10-C ) :   1.3330 B(  9-C , 58-H ) :   1.0676
B( 10-C , 11-N ) :   1.3233 B( 10-C , 17-C ) :   1.1522 B( 11-N , 12-C ) :   1.7404
B( 12-C , 13-F ) :   1.1793 B( 12-C , 14-C ) :   1.0788 B( 14-C , 15-F ) :   1.1646
B( 14-C , 16-N ) :   1.6934 B( 16-N , 17-C ) :   1.3440 B( 18-C , 19-O ) :   2.3227
B( 18-C , 20-C ) :   0.8842 B( 20-C , 21-C ) :   1.0730 B( 20-C , 59-H ) :   0.8374
B( 21-C , 22-C ) :   1.2480 B( 21-C , 27-C ) :   0.1473 B( 21-C , 56-C ) :   1.3712
B( 22-C , 23-N ) :   1.4777 B( 22-C , 26-C ) :   1.1139 B( 23-N , 24-S ) :   1.3041
B( 23-N , 25-N ) :   0.1620 B( 24-S , 25-N ) :   1.3047 B( 25-N , 26-C ) :   1.4783
B( 26-C , 27-C ) :   1.2491 B( 27-C , 28-C ) :   1.0721 B( 27-C , 49-C ) :   1.3699
B( 28-C , 29-C ) :   0.8857 B( 28-C , 47-C ) :   0.8818 B( 28-C , 60-H ) :   0.8383
B( 29-C , 30-O ) :   2.3241 B( 29-C , 31-C ) :   0.8875 B( 31-C , 32-C ) :   1.0576
B( 31-C , 47-C ) :   0.8813 B( 31-C , 61-H ) :   0.8412 B( 32-C , 33-C ) :   1.2616
B( 32-C , 38-C ) :   0.1515 B( 32-C , 46-C ) :   1.3802 B( 33-C , 34-N ) :   1.4837
B( 33-C , 37-C ) :   1.1286 B( 34-N , 35-S ) :   1.2963 B( 34-N , 36-N ) :   0.1640
B( 35-S , 36-N ) :   1.3168 B( 36-N , 37-C ) :   1.4519 B( 37-C , 38-C ) :   1.1663
B( 38-C , 39-C ) :   1.3331 B( 38-C , 62-H ) :   1.0672 B( 39-C , 40-N ) :   1.3220
B( 39-C , 46-C ) :   1.1511 B( 40-N , 41-C ) :   1.7419 B( 41-C , 42-F ) :   1.1786
B( 41-C , 43-C ) :   1.0782 B( 43-C , 44-F ) :   1.1659 B( 43-C , 45-N ) :   1.6929
B( 45-N , 46-C ) :   1.3442 B( 47-C , 48-O ) :   2.3125 B( 49-C , 50-N ) :   1.3546
B( 49-C , 56-C ) :   1.1596 B( 50-N , 51-C ) :   1.6898 B( 51-C , 52-F ) :   1.1685
B( 51-C , 53-C ) :   1.0931 B( 53-C , 54-F ) :   1.1680 B( 53-C , 55-N ) :   1.6890
B( 55-N , 56-C ) :   1.3555

-----------------------------------------------------------------------------
         ABSORPTION SPECTRUM VIA TRANSITION ELECTRIC DIPOLE MOMENTS
-----------------------------------------------------------------------------
State   Energy  Wavelength   fosc         T2         TX        TY        TZ
        (cm-1)    (nm)                  (au**2)     (au)      (au)      (au)
-----------------------------------------------------------------------------
   0   19169.2    521.7   0.350001736   6.01092   1.01620   1.71523   1.42697
   1   22212.6    450.2   0.002946744   0.04367  -0.00147   0.15015  -0.14535
   2   22490.7    444.6   0.125987672   1.84417  -0.46139  -0.98184  -0.81687
   3   24171.8    413.7   0.000923231   0.01257   0.00008   0.07406  -0.08419
   4   27943.5    357.9   0.019418830   0.22878   0.16014   0.34669   0.28799
   5   28307.5    353.3   0.000054750   0.00064  -0.01287  -0.01718   0.01327
   6   28780.4    347.5   0.013256146   0.15163  -0.13269  -0.28407  -0.23093
   7   30448.4    328.4   0.001492148   0.01613   0.07202   0.08957  -0.05407
   8   30570.4    327.1   0.002274337   0.02449  -0.13557  -0.01984  -0.07563
   9   31797.1    314.5   0.016169390   0.16741  -0.07492  -0.18495   0.35720
  10   31861.8    313.9   0.008274518   0.08550  -0.06957   0.28377  -0.01133
  11   32079.1    311.7   0.023560713   0.24179   0.06203   0.27056  -0.40588
  12   32538.1    307.3   0.196605301   1.98920   0.11375   0.86201  -1.11050
  13   32733.1    305.5   0.008136771   0.08184  -0.21574   0.08749   0.16624
  14   33160.6    301.6   0.023288002   0.23120   0.07814   0.31287  -0.35666
  15   33268.9    300.6   0.026783500   0.26504   0.44915   0.10261   0.22973
  16   33588.1    297.7   0.014955249   0.14658  -0.05958  -0.23028   0.30000
  17   33683.3    296.9   0.001133066   0.01107   0.08051  -0.06777   0.00099
  18   33825.9    295.6   0.007139697   0.06949   0.10959  -0.20596  -0.12271
  19   34038.4    293.8   0.068173304   0.65936  -0.77065   0.13005   0.22033
  20   34126.8    293.0   1.020538761   9.84485  -0.18329  -1.94802   2.45285
  21   34615.3    288.9   0.000731755   0.00696  -0.01638  -0.05048   0.06437
  22   34867.0    286.8   0.009680004   0.09140   0.26387  -0.13893  -0.04969
  23   35225.7    283.9   0.000342481   0.00320  -0.01585   0.04051   0.03617
  24   35423.8    282.3   0.005342403   0.04965  -0.01819  -0.13706   0.17474
  25   35523.8    281.5   0.000261867   0.00243   0.00961  -0.00471   0.04809
  26   35614.5    280.8   0.002184484   0.02019  -0.00968  -0.09020   0.10938
  27   36112.4    276.9   0.005742558   0.05235  -0.17241   0.11986   0.09088
  28   36388.3    274.8   0.014392994   0.13022   0.00736   0.21704  -0.28819
  29   36552.9    273.6   0.013295414   0.11974  -0.26546  -0.17327  -0.13875
  30   36715.5    272.4   0.001976868   0.01773  -0.00490  -0.07903   0.10704
  31   37960.4    263.4   0.014898854   0.12921  -0.04405   0.25611  -0.24835
  32   37967.9    263.4   0.011977359   0.10385  -0.09939  -0.14829   0.26830
  33   39961.6    250.2   0.000305358   0.00252   0.00356   0.03057  -0.03960
  34   39998.5    250.0   0.000027050   0.00022   0.00044  -0.00861   0.01218
  35   40147.2    249.1   0.000377658   0.00310  -0.01992  -0.04028  -0.03283

FINAL SINGLE POINT ENERGY     -3970.845289701187

DIPOLE MOMENT
-------------
                                X             Y             Z
Electronic contribution:     -0.37321      -4.56122       5.61365
Nuclear contribution   :      0.39775       4.94463      -6.07593
                        -----------------------------------------
Total Dipole Moment    :      0.02454       0.38340      -0.46228
                        -----------------------------------------
Magnitude (a.u.)       :      0.60108
Magnitude (Debye)      :      1.52783

Rotational constants in cm-1:     0.002911     0.000619     0.000531
Rotational constants in MHz :    87.259652    18.566007    15.907000

                             ****ORCA TERMINATED NORMALLY****
TOTAL RUN TIME: 0 days 0 hours 5 minutes 21 seconds 975 msec
