                         Program Version 4.2.0 -  RELEASE  -
|  1> # ORCA input file
|  2> # SCF done       -145.791038879296          0.000645668376
|  3> ! CAM-B3LYP def2-SVP def2/J RIJCOSX Grid4 TightSCF
|  4> %maxcore 5000
|  5> %tddft
|  6>     Mode sTDDFT
|  7>     Ethresh 5.0
|  8>     maxcore 5000
|  9> end
| 10>
| 11> %pal
| 12>   nprocs 6
| 13>   end
| 14> * xyz 0 1
| 15>    C        1.48130         0.68463        -1.46759
| 16>    C        2.80001         0.94361        -2.20159
| 17>    C        3.40140         2.24533        -1.79913
| 18>    S        4.73518         2.27243        -0.72284
| 19>    C        4.77260         4.02172        -0.72895
| 20>    C        5.79794         4.67641         0.01891
| 21>    S        6.17162         6.36003        -0.12617
| 22>    C        7.47334         6.27078         1.02583
| 23>    C        8.21414         7.48315         1.29686
| 24>    C        9.56882         7.53399         1.60147
| 25>    O       10.26884         6.36026         1.66696
| 26>    C       10.92371         6.09106         2.90035
| 27>    C       10.24466         8.78598         1.76800
| 28>    O       11.59736         8.83214         1.99511
| 29>    C       12.42708         8.28208         0.97875
| 30>    C        9.55892         9.98514         1.77308
| 31>    C       10.20346        11.27821         2.03846
| 32>    C       11.18281        11.83963         1.25766
| 33>    F       11.60561        11.18610         0.15551
| 34>    C       11.76540        13.09686         1.50608
| 35>    C       11.36684        13.85867         2.56687
| 36>    C       10.35883        13.34673         3.40175
| 37>    N        9.82361        13.92091         4.48023
| 38>    S        8.71678        12.93280         5.09171
| 39>    N        8.85234        11.72836         4.03957
| 40>    C        9.77876        12.05516         3.13919
| 41>    C        8.17563         9.95676         1.51482
| 42>    N        7.34846        10.99715         1.42457
| 43>    S        5.88860        10.45973         1.02555
| 44>    N        6.23202         8.88871         0.93412
| 45>    C        7.52084         8.71611         1.21974
| 46>    C        7.58084         4.99652         1.53202
| 47>    O        8.42397         4.64554         2.52253
| 48>    C        6.64117         4.09007         0.95600
| 49>    C        6.63446         2.76166         1.39845
| 50>    N        6.74399         1.71496         1.86294
| 51>    C        3.76155         4.54008        -1.51312
| 52>    C        3.55483         6.00144        -1.75584
| 53>    C        2.86496         6.69151        -0.57614
| 54>    C        2.96293         3.51887        -2.11103
| 55>    C        1.82456         3.69631        -2.98311
| 56>    C        0.89844         4.66654        -2.90404
| 57>    C       -0.23660         4.80641        -3.78216
| 58>    C       -0.52827         4.03414        -4.86477
| 59>    C       -1.69157         4.27537        -5.65628
| 60>    C       -2.00894         3.50233        -6.75613
| 61>    C       -3.15303         3.75008        -7.53139
| 62>    N       -4.09032         3.95953        -8.16206
| 63>    C       -1.19982         2.42493        -7.15181
| 64>    N       -0.52476         1.54581        -7.45531
| 65>    C       -2.50821         5.38086        -5.22578
| 66>    C       -2.14257         6.08969        -4.14664
| 67>    O       -1.04415         5.84249        -3.41572
| 68>    H        1.06403        -0.26935        -1.77819
| 69>    H        0.76137         1.46990        -1.68710
| 70>    H        1.64784         0.65784        -0.39343
| 71>    H        2.62005         0.93724        -3.28018
| 72>    H        3.50367         0.14204        -1.97149
| 73>    H       10.18486         5.95200         3.69343
| 74>    H       11.61722         6.88347         3.18669
| 75>    H       11.46672         5.16145         2.74343
| 76>    H       12.33506         8.86174         0.05724
| 77>    H       12.19318         7.23704         0.76951
| 78>    H       13.44282         8.36450         1.36050
| 79>    H       12.52787        13.44035         0.82439
| 80>    H       11.79540        14.82565         2.77133
| 81>    H        8.34895         3.69635         2.69557
| 82>    H        2.95825         6.12708        -2.66015
| 83>    H        4.52024         6.48008        -1.93021
| 84>    H        1.91924         6.20833        -0.34040
| 85>    H        2.67621         7.73455        -0.81540
| 86>    H        3.49189         6.65469         0.30985
| 87>    H        1.71315         2.92720        -3.73602
| 88>    H        0.93188         5.40722        -2.12032
| 89>    H        0.12383         3.22244        -5.14248
| 90>    H       -3.40300         5.62850        -5.77226
| 91>    H       -2.69982         6.93060        -3.76112
| 92> *
| 93>
| 94>                          ****END OF INPUT****

CARTESIAN COORDINATES (ANGSTROEM)
---------------------------------
  C      1.481300    0.684630   -1.467590
  C      2.800010    0.943610   -2.201590
  C      3.401400    2.245330   -1.799130
  S      4.735180    2.272430   -0.722840
  C      4.772600    4.021720   -0.728950
  C      5.797940    4.676410    0.018910
  S      6.171620    6.360030   -0.126170
  C      7.473340    6.270780    1.025830
  C      8.214140    7.483150    1.296860
  C      9.568820    7.533990    1.601470
  O     10.268840    6.360260    1.666960
  C     10.923710    6.091060    2.900350
  C     10.244660    8.785980    1.768000
  O     11.597360    8.832140    1.995110
  C     12.427080    8.282080    0.978750
  C      9.558920    9.985140    1.773080
  C     10.203460   11.278210    2.038460
  C     11.182810   11.839630    1.257660
  F     11.605610   11.186100    0.155510
  C     11.765400   13.096860    1.506080
  C     11.366840   13.858670    2.566870
  C     10.358830   13.346730    3.401750
  N      9.823610   13.920910    4.480230
  S      8.716780   12.932800    5.091710
  N      8.852340   11.728360    4.039570
  C      9.778760   12.055160    3.139190
  C      8.175630    9.956760    1.514820
  N      7.348460   10.997150    1.424570
  S      5.888600   10.459730    1.025550
  N      6.232020    8.888710    0.934120
  C      7.520840    8.716110    1.219740
  C      7.580840    4.996520    1.532020
  O      8.423970    4.645540    2.522530
  C      6.641170    4.090070    0.956000
  C      6.634460    2.761660    1.398450
  N      6.743990    1.714960    1.862940
  C      3.761550    4.540080   -1.513120
  C      3.554830    6.001440   -1.755840
  C      2.864960    6.691510   -0.576140
  C      2.962930    3.518870   -2.111030
  C      1.824560    3.696310   -2.983110
  C      0.898440    4.666540   -2.904040
  C     -0.236600    4.806410   -3.782160
  C     -0.528270    4.034140   -4.864770
  C     -1.691570    4.275370   -5.656280
  C     -2.008940    3.502330   -6.756130
  C     -3.153030    3.750080   -7.531390
  N     -4.090320    3.959530   -8.162060
  C     -1.199820    2.424930   -7.151810
  N     -0.524760    1.545810   -7.455310
  C     -2.508210    5.380860   -5.225780
  C     -2.142570    6.089690   -4.146640
  O     -1.044150    5.842490   -3.415720
  H      1.064030   -0.269350   -1.778190
  H      0.761370    1.469900   -1.687100
  H      1.647840    0.657840   -0.393430
  H      2.620050    0.937240   -3.280180
  H      3.503670    0.142040   -1.971490
  H     10.184860    5.952000    3.693430
  H     11.617220    6.883470    3.186690
  H     11.466720    5.161450    2.743430
  H     12.335060    8.861740    0.057240
  H     12.193180    7.237040    0.769510
  H     13.442820    8.364500    1.360500
  H     12.527870   13.440350    0.824390
  H     11.795400   14.825650    2.771330
  H      8.348950    3.696350    2.695570
  H      2.958250    6.127080   -2.660150
  H      4.520240    6.480080   -1.930210
  H      1.919240    6.208330   -0.340400
  H      2.676210    7.734550   -0.815400
  H      3.491890    6.654690    0.309850
  H      1.713150    2.927200   -3.736020
  H      0.931880    5.407220   -2.120320
  H      0.123830    3.222440   -5.142480
  H     -3.403000    5.628500   -5.772260
  H     -2.699820    6.930600   -3.761120

 Total Charge           Charge          ....    0
 Multiplicity           Mult            ....    1
 Number of Electrons    NEL             ....  400
 Basis Dimension        Dim             ....  878

ORBITAL ENERGIES
----------------

  NO   OCC          E(Eh)            E(eV)
   0   2.0000     -89.019595     -2422.3463
   1   2.0000     -89.017652     -2422.2935
   2   2.0000     -88.969354     -2420.9792
   3   2.0000     -88.966284     -2420.8957
   4   2.0000     -24.789148      -674.5470
   5   2.0000     -19.322674      -525.7967
   6   2.0000     -19.260661      -524.1092
   7   2.0000     -19.245967      -523.7094
   8   2.0000     -19.242728      -523.6212
   9   2.0000     -14.436183      -392.8285
  10   2.0000     -14.433755      -392.7624
  11   2.0000     -14.432563      -392.7300
  12   2.0000     -14.429735      -392.6530
  13   2.0000     -14.415975      -392.2786
  14   2.0000     -14.395021      -391.7084
  15   2.0000     -14.393375      -391.6637
  16   2.0000     -10.382598      -282.5249
  17   2.0000     -10.375140      -282.3219
  18   2.0000     -10.367927      -282.1256
  19   2.0000     -10.353355      -281.7291
  20   2.0000     -10.347885      -281.5803
  21   2.0000     -10.347251      -281.5630
  22   2.0000     -10.335877      -281.2535
  23   2.0000     -10.333820      -281.1976
  24   2.0000     -10.322745      -280.8962
  25   2.0000     -10.320262      -280.8286
  26   2.0000     -10.320065      -280.8232
  27   2.0000     -10.317618      -280.7566
  28   2.0000     -10.317116      -280.7430
  29   2.0000     -10.315568      -280.7009
  30   2.0000     -10.314964      -280.6844
  31   2.0000     -10.314253      -280.6651
  32   2.0000     -10.314065      -280.6600
  33   2.0000     -10.312497      -280.6173
  34   2.0000     -10.311810      -280.5986
  35   2.0000     -10.309905      -280.5468
  36   2.0000     -10.305148      -280.4173
  37   2.0000     -10.303889      -280.3831
  38   2.0000     -10.302678      -280.3501
  39   2.0000     -10.302039      -280.3327
  40   2.0000     -10.300307      -280.2856
  41   2.0000     -10.299181      -280.2550
  42   2.0000     -10.297551      -280.2106
  43   2.0000     -10.297134      -280.1993
  44   2.0000     -10.296317      -280.1770
  45   2.0000     -10.294864      -280.1375
  46   2.0000     -10.293385      -280.0972
  47   2.0000     -10.292835      -280.0823
  48   2.0000     -10.290652      -280.0229
  49   2.0000     -10.290631      -280.0223
  50   2.0000     -10.280369      -279.7431
  51   2.0000     -10.269104      -279.4365
  52   2.0000     -10.266122      -279.3554
  53   2.0000      -8.111430      -220.7232
  54   2.0000      -8.109655      -220.6749
  55   2.0000      -8.063130      -219.4089
  56   2.0000      -8.061696      -219.3699
  57   2.0000      -6.082706      -165.5188
  58   2.0000      -6.080783      -165.4665
  59   2.0000      -6.075015      -165.3096
  60   2.0000      -6.073655      -165.2726
  61   2.0000      -6.073086      -165.2571
  62   2.0000      -6.072156      -165.2318
  63   2.0000      -6.032696      -164.1580
  64   2.0000      -6.030852      -164.1078
  65   2.0000      -6.028110      -164.0332
  66   2.0000      -6.026641      -163.9932
  67   2.0000      -6.025177      -163.9534
  68   2.0000      -6.024071      -163.9233
  69   2.0000      -1.301945       -35.4277
  70   2.0000      -1.232356       -33.5341
  71   2.0000      -1.161769       -31.6133
  72   2.0000      -1.156095       -31.4590
  73   2.0000      -1.132640       -30.8207
  74   2.0000      -1.121666       -30.5221
  75   2.0000      -1.118074       -30.4243
  76   2.0000      -1.015542       -27.6343
  77   2.0000      -0.998630       -27.1741
  78   2.0000      -0.994944       -27.0738
  79   2.0000      -0.990627       -26.9563
  80   2.0000      -0.980725       -26.6869
  81   2.0000      -0.973586       -26.4926
  82   2.0000      -0.970091       -26.3975
  83   2.0000      -0.965066       -26.2608
  84   2.0000      -0.956626       -26.0311
  85   2.0000      -0.950247       -25.8575
  86   2.0000      -0.942964       -25.6594
  87   2.0000      -0.907630       -24.6979
  88   2.0000      -0.900226       -24.4964
  89   2.0000      -0.887228       -24.1427
  90   2.0000      -0.874577       -23.7985
  91   2.0000      -0.866565       -23.5804
  92   2.0000      -0.861432       -23.4407
  93   2.0000      -0.857402       -23.3311
  94   2.0000      -0.852959       -23.2102
  95   2.0000      -0.845306       -23.0020
  96   2.0000      -0.830778       -22.6066
  97   2.0000      -0.818646       -22.2765
  98   2.0000      -0.797044       -21.6887
  99   2.0000      -0.789213       -21.4756
 100   2.0000      -0.785006       -21.3611
 101   2.0000      -0.781096       -21.2547
 102   2.0000      -0.755084       -20.5469
 103   2.0000      -0.749927       -20.4066
 104   2.0000      -0.738628       -20.0991
 105   2.0000      -0.730625       -19.8813
 106   2.0000      -0.728954       -19.8358
 107   2.0000      -0.707277       -19.2460
 108   2.0000      -0.706689       -19.2300
 109   2.0000      -0.702541       -19.1171
 110   2.0000      -0.689944       -18.7743
 111   2.0000      -0.685145       -18.6437
 112   2.0000      -0.677739       -18.4422
 113   2.0000      -0.672434       -18.2979
 114   2.0000      -0.669344       -18.2138
 115   2.0000      -0.651139       -17.7184
 116   2.0000      -0.641929       -17.4678
 117   2.0000      -0.635145       -17.2832
 118   2.0000      -0.630834       -17.1659
 119   2.0000      -0.622677       -16.9439
 120   2.0000      -0.611935       -16.6516
 121   2.0000      -0.611121       -16.6294
 122   2.0000      -0.607656       -16.5352
 123   2.0000      -0.600972       -16.3533
 124   2.0000      -0.596409       -16.2291
 125   2.0000      -0.591047       -16.0832
 126   2.0000      -0.584788       -15.9129
 127   2.0000      -0.581368       -15.8198
 128   2.0000      -0.581108       -15.8127
 129   2.0000      -0.568138       -15.4598
 130   2.0000      -0.566149       -15.4057
 131   2.0000      -0.562111       -15.2958
 132   2.0000      -0.559406       -15.2222
 133   2.0000      -0.557978       -15.1834
 134   2.0000      -0.553091       -15.0504
 135   2.0000      -0.546818       -14.8797
 136   2.0000      -0.540483       -14.7073
 137   2.0000      -0.539638       -14.6843
 138   2.0000      -0.536350       -14.5948
 139   2.0000      -0.535812       -14.5802
 140   2.0000      -0.534108       -14.5338
 141   2.0000      -0.530472       -14.4349
 142   2.0000      -0.525278       -14.2935
 143   2.0000      -0.522445       -14.2164
 144   2.0000      -0.520976       -14.1765
 145   2.0000      -0.515351       -14.0234
 146   2.0000      -0.507356       -13.8059
 147   2.0000      -0.505027       -13.7425
 148   2.0000      -0.501565       -13.6483
 149   2.0000      -0.500900       -13.6302
 150   2.0000      -0.491582       -13.3766
 151   2.0000      -0.486372       -13.2349
 152   2.0000      -0.479593       -13.0504
 153   2.0000      -0.473777       -12.8921
 154   2.0000      -0.469751       -12.7826
 155   2.0000      -0.466917       -12.7055
 156   2.0000      -0.464627       -12.6431
 157   2.0000      -0.463043       -12.6000
 158   2.0000      -0.462700       -12.5907
 159   2.0000      -0.457447       -12.4478
 160   2.0000      -0.456799       -12.4301
 161   2.0000      -0.453787       -12.3482
 162   2.0000      -0.451929       -12.2976
 163   2.0000      -0.449000       -12.2179
 164   2.0000      -0.445146       -12.1130
 165   2.0000      -0.443611       -12.0713
 166   2.0000      -0.440338       -11.9822
 167   2.0000      -0.436053       -11.8656
 168   2.0000      -0.434334       -11.8188
 169   2.0000      -0.431097       -11.7307
 170   2.0000      -0.429871       -11.6974
 171   2.0000      -0.429693       -11.6925
 172   2.0000      -0.425579       -11.5806
 173   2.0000      -0.425425       -11.5764
 174   2.0000      -0.418559       -11.3896
 175   2.0000      -0.417876       -11.3710
 176   2.0000      -0.412323       -11.2199
 177   2.0000      -0.411780       -11.2051
 178   2.0000      -0.410781       -11.1779
 179   2.0000      -0.408565       -11.1176
 180   2.0000      -0.407913       -11.0999
 181   2.0000      -0.405294       -11.0286
 182   2.0000      -0.403587       -10.9822
 183   2.0000      -0.396860       -10.7991
 184   2.0000      -0.396230       -10.7820
 185   2.0000      -0.390568       -10.6279
 186   2.0000      -0.386421       -10.5151
 187   2.0000      -0.370623       -10.0852
 188   2.0000      -0.363672        -9.8960
 189   2.0000      -0.359717        -9.7884
 190   2.0000      -0.353437        -9.6175
 191   2.0000      -0.341249        -9.2859
 192   2.0000      -0.325650        -8.8614
 193   2.0000      -0.314060        -8.5460
 194   2.0000      -0.310960        -8.4617
 195   2.0000      -0.308763        -8.4019
 196   2.0000      -0.306369        -8.3367
 197   2.0000      -0.293434        -7.9847
 198   2.0000      -0.275809        -7.5051
 199   2.0000      -0.252700        -6.8763
 200   0.0000      -0.064343        -1.7509
 201   0.0000      -0.063218        -1.7203
 202   0.0000      -0.050795        -1.3822
 203   0.0000      -0.038170        -1.0387
 204   0.0000      -0.024429        -0.6647

MULLIKEN ATOMIC CHARGES
-----------------------
   0 C :    0.013554
   1 C :    0.084235
   2 C :   -0.221119
   3 S :    0.149061
   4 C :   -0.169339
   5 C :    0.003780
   6 S :    0.178352
   7 C :   -0.253806
   8 C :    0.119129
   9 C :    0.050897
  10 O :   -0.326403
  11 C :    0.189225
  12 C :    0.095550
  13 O :   -0.329841
  14 C :    0.178976
  15 C :   -0.012795
  16 C :   -0.007352
  17 C :    0.214821
  18 F :   -0.187678
  19 C :   -0.029203
  20 C :   -0.019233
  21 C :    0.063659
  22 N :   -0.267197
  23 S :    0.496079
  24 N :   -0.266695
  25 C :   -0.007703
  26 C :    0.030418
  27 N :   -0.257815
  28 S :    0.494773
  29 N :   -0.301170
  30 C :   -0.020575
  31 C :    0.183568
  32 O :   -0.157524
  33 C :   -0.068285
  34 C :   -0.309539
  35 N :    0.133796
  36 C :   -0.045875
  37 C :    0.025450
  38 C :    0.030254
  39 C :    0.086515
  40 C :   -0.011209
  41 C :    0.006540
  42 C :    0.196004
  43 C :   -0.144843
  44 C :    0.237432
  45 C :   -0.339009
  46 C :   -0.181682
  47 N :    0.125057
  48 C :   -0.166731
  49 N :    0.117380
  50 C :   -0.066900
  51 C :    0.185755
  52 O :   -0.200837
  53 H :    0.027032
  54 H :    0.020257
  55 H :    0.023052
  56 H :    0.031652
  57 H :    0.015036
  58 H :    0.022071
  59 H :    0.037340
  60 H :    0.026288
  61 H :    0.025332
  62 H :    0.035870
  63 H :    0.032366
  64 H :    0.002981
  65 H :   -0.011260
  66 H :    0.192624
  67 H :    0.009328
  68 H :    0.029364
  69 H :    0.014537
  70 H :    0.017627
  71 H :    0.027934
  72 H :    0.011373
  73 H :   -0.008976
  74 H :    0.023645
  75 H :    0.035808
  76 H :    0.038817
Sum of atomic charges:   -0.0000000

LOEWDIN ATOMIC CHARGES
----------------------
   0 C :   -0.046593
   1 C :   -0.045106
   2 C :   -0.144655
   3 S :    0.486430
   4 C :   -0.200601
   5 C :   -0.148155
   6 S :    0.528637
   7 C :   -0.210867
   8 C :   -0.062147
   9 C :    0.040947
  10 O :   -0.112180
  11 C :    0.075310
  12 C :    0.049712
  13 O :   -0.119533
  14 C :    0.077376
  15 C :   -0.044336
  16 C :   -0.046441
  17 C :    0.098845
  18 F :   -0.061696
  19 C :   -0.035984
  20 C :   -0.004238
  21 C :   -0.059816
  22 N :   -0.286740
  23 S :    0.640007
  24 N :   -0.288332
  25 C :   -0.037053
  26 C :   -0.040908
  27 N :   -0.279894
  28 S :    0.629164
  29 N :   -0.309839
  30 C :   -0.052545
  31 C :    0.047893
  32 O :   -0.023070
  33 C :   -0.163232
  34 C :   -0.064809
  35 N :   -0.065266
  36 C :   -0.027284
  37 C :   -0.043094
  38 C :   -0.051617
  39 C :   -0.085493
  40 C :    0.033009
  41 C :   -0.056103
  42 C :    0.091138
  43 C :   -0.054747
  44 C :    0.057733
  45 C :   -0.184355
  46 C :   -0.031246
  47 N :   -0.072945
  48 C :   -0.028194
  49 N :   -0.077157
  50 C :   -0.052266
  51 C :    0.099482
  52 O :    0.002890
  53 H :    0.029491
  54 H :    0.024096
  55 H :    0.028220
  56 H :    0.037372
  57 H :    0.033297
  58 H :    0.013124
  59 H :    0.011984
  60 H :    0.023825
  61 H :    0.013507
  62 H :    0.013095
  63 H :    0.025604
  64 H :    0.041665
  65 H :    0.040634
  66 H :    0.097910
  67 H :    0.030143
  68 H :    0.019932
  69 H :    0.019685
  70 H :    0.026876
  71 H :    0.020859
  72 H :    0.035290
  73 H :    0.037121
  74 H :    0.044523
  75 H :    0.052122
  76 H :    0.039586

  Mayer bond orders larger than 0.100000
B(  0-C ,  1-C ) :   1.0913 B(  0-C , 53-H ) :   0.9669 B(  0-C , 54-H ) :   0.9722
B(  0-C , 55-H ) :   0.9679 B(  1-C ,  2-C ) :   1.0729 B(  1-C , 56-H ) :   0.9200
B(  1-C , 57-H ) :   0.9176 B(  2-C ,  3-S ) :   1.1871 B(  2-C , 39-C ) :   1.4780
B(  3-S ,  4-C ) :   1.1132 B(  4-C ,  5-C ) :   1.1388 B(  4-C , 36-C ) :   1.5277
B(  5-C ,  6-S ) :   1.1693 B(  5-C ,  7-C ) :   0.1025 B(  5-C , 33-C ) :   1.4438
B(  6-S ,  7-C ) :   1.1075 B(  7-C ,  8-C ) :   0.9974 B(  7-C , 31-C ) :   1.5368
B(  8-C ,  9-C ) :   1.4742 B(  8-C , 15-C ) :   0.1185 B(  8-C , 30-C ) :   1.1706
B(  9-C , 10-O ) :   1.1846 B(  9-C , 12-C ) :   1.0860 B( 10-O , 11-C ) :   0.9081
B( 11-C , 58-H ) :   0.9630 B( 11-C , 59-H ) :   0.9632 B( 11-C , 60-H ) :   0.9846
B( 12-C , 13-O ) :   1.1710 B( 12-C , 15-C ) :   1.5505 B( 13-O , 14-C ) :   0.9145
B( 14-C , 61-H ) :   0.9654 B( 14-C , 62-H ) :   0.9637 B( 14-C , 63-H ) :   0.9841
B( 15-C , 16-C ) :   0.8701 B( 15-C , 26-C ) :   1.2495 B( 16-C , 17-C ) :   1.5176
B( 16-C , 20-C ) :   0.1114 B( 16-C , 25-C ) :   1.2502 B( 17-C , 18-F ) :   1.1073
B( 17-C , 19-C ) :   1.1874 B( 19-C , 20-C ) :   1.4722 B( 19-C , 64-H ) :   0.9939
B( 20-C , 21-C ) :   1.1881 B( 20-C , 65-H ) :   1.0272 B( 21-C , 22-N ) :   1.5140
B( 21-C , 25-C ) :   1.1638 B( 22-N , 23-S ) :   1.2826 B( 22-N , 24-N ) :   0.1524
B( 23-S , 24-N ) :   1.2625 B( 24-N , 25-C ) :   1.5393 B( 26-C , 27-N ) :   1.5481
B( 26-C , 30-C ) :   1.1691 B( 27-N , 28-S ) :   1.2637 B( 27-N , 29-N ) :   0.1479
B( 28-S , 29-N ) :   1.2456 B( 29-N , 30-C ) :   1.5250 B( 31-C , 32-O ) :   1.3061
B( 31-C , 33-C ) :   1.1980 B( 32-O , 66-H ) :   0.9384 B( 33-C , 34-C ) :   1.0817
B( 34-C , 35-N ) :   2.9945 B( 36-C , 37-C ) :   1.0857 B( 36-C , 39-C ) :   1.2429
B( 37-C , 38-C ) :   1.0993 B( 37-C , 67-H ) :   0.9094 B( 37-C , 68-H ) :   0.9074
B( 38-C , 69-H ) :   0.9596 B( 38-C , 70-H ) :   0.9662 B( 38-C , 71-H ) :   0.9608
B( 39-C , 40-C ) :   1.0794 B( 40-C , 41-C ) :   1.7134 B( 40-C , 72-H ) :   0.9417
B( 41-C , 42-C ) :   1.0810 B( 41-C , 73-H ) :   0.9679 B( 42-C , 43-C ) :   1.5760
B( 42-C , 52-O ) :   1.1202 B( 43-C , 44-C ) :   1.1417 B( 43-C , 74-H ) :   0.9601
B( 44-C , 45-C ) :   1.5641 B( 44-C , 50-C ) :   1.1313 B( 45-C , 46-C ) :   1.1276
B( 45-C , 48-C ) :   1.1338 B( 46-C , 47-N ) :   3.0145 B( 48-C , 49-N ) :   2.9995
B( 50-C , 51-C ) :   1.6791 B( 50-C , 75-H ) :   0.9613 B( 51-C , 52-O ) :   1.1234
B( 51-C , 76-H ) :   0.9744

-----------------------------------------------------------------------------
         ABSORPTION SPECTRUM VIA TRANSITION ELECTRIC DIPOLE MOMENTS
-----------------------------------------------------------------------------
State   Energy  Wavelength   fosc         T2         TX        TY        TZ
        (cm-1)    (nm)                  (au**2)     (au)      (au)      (au)
-----------------------------------------------------------------------------
   0   23784.2    420.4   0.699495897   9.68217   1.91679   2.17017   1.13950
   1   26747.4    373.9   0.405630640   4.99257  -1.61314   0.27918  -1.52066
   2   28320.2    353.1   0.114795362   1.33445  -0.69600  -0.80864  -0.44288
   3   29072.1    344.0   0.480685208   5.44327  -1.57505  -0.91412  -1.45838
   4   30162.2    331.5   0.138493767   1.51162   0.46135   0.10958   1.13436
   5   31829.1    314.2   0.022435826   0.23206  -0.04436   0.47940  -0.01624
   6   33664.5    297.0   0.131118957   1.28224   0.87716  -0.17267   0.69500
   7   33981.8    294.3   0.229009255   2.21862  -1.07305   0.18853  -1.01570
   8   34891.6    286.6   0.005722420   0.05399   0.05391  -0.12299  -0.18963
   9   35478.0    281.9   0.097875980   0.90822   0.67885  -0.66142   0.09951
  10   36478.2    274.1   0.130752361   1.18003   1.08212  -0.04519  -0.08363
  11   37032.8    270.0   0.049410576   0.43925   0.63165   0.00483   0.20061
  12   37399.2    267.4   0.208328517   1.83384   0.87124  -1.03394  -0.07586
  13   37769.6    264.8   0.093659233   0.81636   0.16264  -0.79708   0.39317
  14   38215.4    261.7   0.083261691   0.71727   0.42192  -0.61223  -0.40549
  15   38549.7    259.4   0.114647467   0.97908  -0.50248  -0.37496  -0.76551
  16   38646.1    258.8   0.073853794   0.62913   0.30273  -0.68533  -0.26039
  17   38839.6    257.5   0.011354493   0.09624   0.15667   0.16649   0.20971
  18   39788.3    251.3   0.009786832   0.08098  -0.09480  -0.26189  -0.05835
  19   40255.2    248.4   0.035060799   0.28673   0.51643   0.04863  -0.13293

FINAL SINGLE POINT ENERGY     -3797.802102644271

DIPOLE MOMENT
-------------
                                X             Y             Z
Electronic contribution:     16.72379      35.09129      12.61516
Nuclear contribution   :    -14.92096     -33.01533     -10.18881
                        -----------------------------------------
Total Dipole Moment    :      1.80283       2.07596       2.42635
                        -----------------------------------------
Magnitude (a.u.)       :      3.66702
Magnitude (Debye)      :      9.32081

Rotational constants in cm-1:     0.002882     0.000558     0.000499
Rotational constants in MHz :    86.409205    16.724976    14.967005

                             ****ORCA TERMINATED NORMALLY****
TOTAL RUN TIME: 0 days 0 hours 15 minutes 48 seconds 62 msec
