                         Program Version 4.2.0 -  RELEASE  -
|  1> # ORCA input file
|  2> # SCF done       -152.143517914492          0.000494483239
|  3> ! CAM-B3LYP def2-SVP def2/J RIJCOSX Grid4 TightSCF
|  4> %maxcore 5000
|  5> %tddft
|  6>     Mode sTDDFT
|  7>     Ethresh 5.0
|  8>     maxcore 5000
|  9> end
| 10>
| 11> %pal
| 12>   nprocs 6
| 13>   end
| 14> * xyz 0 1
| 15>    C        3.51173        -2.45087         3.78808
| 16>    C        4.36283        -2.06767         2.83674
| 17>    C        5.08925        -2.96373         1.97935
| 18>    C        5.07098        -4.35705         1.96839
| 19>    C        5.95632        -4.78624         0.99324
| 20>    C        6.52184        -3.65411         0.40408
| 21>    C        7.51527        -3.58075        -0.60962
| 22>    C        8.06699        -4.65337        -1.22780
| 23>    C        9.08439        -4.59411        -2.21051
| 24>    C        9.76973        -3.57488        -2.77116
| 25>    C       10.75450        -3.98824        -3.73078
| 26>    C       11.71171        -3.38986        -4.52257
| 27>    N       12.36294        -4.37805        -5.19523
| 28>    C       11.84961        -5.61312        -4.87033
| 29>    C       12.35883        -6.82567        -5.42516
| 30>    C       11.76930        -8.02998        -5.27296
| 31>    C       12.29067        -9.23904        -5.81278
| 32>    C       13.53865        -9.56595        -6.19536
| 33>    C       13.66565       -10.89649        -6.71653
| 34>    C       14.68745       -11.68676        -7.20640
| 35>    N       14.15288       -12.88106        -7.54362
| 36>    C       12.80323       -12.90016        -7.28832
| 37>    C       12.02410       -14.07568        -7.57367
| 38>    C       10.65556       -14.15731        -7.36650
| 39>    F       10.00511       -13.09655        -6.87876
| 40>    C        9.88498       -15.29556        -7.63051
| 41>    C       10.44632       -16.45492        -8.11709
| 42>    C        9.65426       -17.65455        -8.37917
| 43>    C       10.07612       -18.92277        -8.04165
| 44>    F       11.21915       -19.10168        -7.36509
| 45>    C        9.31306       -20.07826        -8.33306
| 46>    F        9.81387       -21.26489        -7.95934
| 47>    C        8.10430       -20.02479        -8.96688
| 48>    C        7.62560       -18.75246        -9.31554
| 49>    N        6.47887       -18.45988        -9.92946
| 50>    S        6.38130       -16.86869       -10.11014
| 51>    N        7.77593       -16.46289        -9.42919
| 52>    C        8.39201       -17.56964        -9.01631
| 53>    C       11.83572       -16.42738        -8.38278
| 54>    N       12.56836       -17.39629        -8.92867
| 55>    S       14.08309       -16.90837        -9.05714
| 56>    N       13.89846       -15.42476        -8.44833
| 57>    C       12.61715       -15.24953        -8.11045
| 58>    C       12.47617       -11.66213        -6.76728
| 59>    S       11.15707       -10.63743        -6.10824
| 60>    O       10.66119       -11.16033        -4.87086
| 61>    O       10.22621       -10.27104        -7.13651
| 62>    C       10.84259        -5.38286        -3.95777
| 63>    S        9.66480        -6.17824        -2.89147
| 64>    O       10.33270        -6.94601        -1.87465
| 65>    O        8.62154        -6.82873        -3.63496
| 66>    N        5.96430        -2.55366         1.01082
| 67>    C        6.28738        -1.18529         0.69680
| 68>    C        7.47674        -0.68628         1.51692
| 69>    H        3.00184        -1.73201         4.40484
| 70>    H        3.29928        -3.48680         3.98265
| 71>    H        4.53606        -1.00868         2.69788
| 72>    H        4.47822        -4.98041         2.60692
| 73>    H        6.17929        -5.80175         0.73620
| 74>    H        7.86831        -2.59944        -0.89488
| 75>    H        7.74553        -5.65356        -0.97882
| 76>    H        9.62305        -2.53261        -2.53580
| 77>    H       11.97286        -2.35828        -4.64930
| 78>    H       13.10688        -4.23195        -5.85864
| 79>    H       13.26638        -6.74014        -6.00961
| 80>    H       10.82745        -8.10766        -4.74655
| 81>    H       14.39796        -8.92002        -6.10092
| 82>    H       15.73131       -11.47907        -7.33273
| 83>    H       14.62443       -13.69101        -7.93265
| 84>    H        8.82774       -15.24442        -7.42767
| 85>    H        7.54005       -20.91544        -9.18412
| 86>    H        5.41178        -0.56074         0.88886
| 87>    H        6.50838        -1.11181        -0.37093
| 88>    H        7.24989        -0.73787         2.57935
| 89>    H        7.70597         0.34401         1.25709
| 90>    H        8.35277        -1.30124         1.32461
| 91> *
| 92>
| 93>                          ****END OF INPUT****

CARTESIAN COORDINATES (ANGSTROEM)
---------------------------------
  C      3.511730   -2.450870    3.788080
  C      4.362830   -2.067670    2.836740
  C      5.089250   -2.963730    1.979350
  C      5.070980   -4.357050    1.968390
  C      5.956320   -4.786240    0.993240
  C      6.521840   -3.654110    0.404080
  C      7.515270   -3.580750   -0.609620
  C      8.066990   -4.653370   -1.227800
  C      9.084390   -4.594110   -2.210510
  C      9.769730   -3.574880   -2.771160
  C     10.754500   -3.988240   -3.730780
  C     11.711710   -3.389860   -4.522570
  N     12.362940   -4.378050   -5.195230
  C     11.849610   -5.613120   -4.870330
  C     12.358830   -6.825670   -5.425160
  C     11.769300   -8.029980   -5.272960
  C     12.290670   -9.239040   -5.812780
  C     13.538650   -9.565950   -6.195360
  C     13.665650  -10.896490   -6.716530
  C     14.687450  -11.686760   -7.206400
  N     14.152880  -12.881060   -7.543620
  C     12.803230  -12.900160   -7.288320
  C     12.024100  -14.075680   -7.573670
  C     10.655560  -14.157310   -7.366500
  F     10.005110  -13.096550   -6.878760
  C      9.884980  -15.295560   -7.630510
  C     10.446320  -16.454920   -8.117090
  C      9.654260  -17.654550   -8.379170
  C     10.076120  -18.922770   -8.041650
  F     11.219150  -19.101680   -7.365090
  C      9.313060  -20.078260   -8.333060
  F      9.813870  -21.264890   -7.959340
  C      8.104300  -20.024790   -8.966880
  C      7.625600  -18.752460   -9.315540
  N      6.478870  -18.459880   -9.929460
  S      6.381300  -16.868690  -10.110140
  N      7.775930  -16.462890   -9.429190
  C      8.392010  -17.569640   -9.016310
  C     11.835720  -16.427380   -8.382780
  N     12.568360  -17.396290   -8.928670
  S     14.083090  -16.908370   -9.057140
  N     13.898460  -15.424760   -8.448330
  C     12.617150  -15.249530   -8.110450
  C     12.476170  -11.662130   -6.767280
  S     11.157070  -10.637430   -6.108240
  O     10.661190  -11.160330   -4.870860
  O     10.226210  -10.271040   -7.136510
  C     10.842590   -5.382860   -3.957770
  S      9.664800   -6.178240   -2.891470
  O     10.332700   -6.946010   -1.874650
  O      8.621540   -6.828730   -3.634960
  N      5.964300   -2.553660    1.010820
  C      6.287380   -1.185290    0.696800
  C      7.476740   -0.686280    1.516920
  H      3.001840   -1.732010    4.404840
  H      3.299280   -3.486800    3.982650
  H      4.536060   -1.008680    2.697880
  H      4.478220   -4.980410    2.606920
  H      6.179290   -5.801750    0.736200
  H      7.868310   -2.599440   -0.894880
  H      7.745530   -5.653560   -0.978820
  H      9.623050   -2.532610   -2.535800
  H     11.972860   -2.358280   -4.649300
  H     13.106880   -4.231950   -5.858640
  H     13.266380   -6.740140   -6.009610
  H     10.827450   -8.107660   -4.746550
  H     14.397960   -8.920020   -6.100920
  H     15.731310  -11.479070   -7.332730
  H     14.624430  -13.691010   -7.932650
  H      8.827740  -15.244420   -7.427670
  H      7.540050  -20.915440   -9.184120
  H      5.411780   -0.560740    0.888860
  H      6.508380   -1.111810   -0.370930
  H      7.249890   -0.737870    2.579350
  H      7.705970    0.344010    1.257090
  H      8.352770   -1.301240    1.324610

 Total Charge           Charge          ....    0
 Multiplicity           Mult            ....    1
 Number of Electrons    NEL             ....  410
 Basis Dimension        Dim             ....  882

ORBITAL ENERGIES
----------------

  NO   OCC          E(Eh)            E(eV)
   0   2.0000     -89.121326     -2425.1146
   1   2.0000     -89.120617     -2425.0953
   2   2.0000     -89.035297     -2422.7736
   3   2.0000     -89.026077     -2422.5227
   4   2.0000     -24.797440      -674.7727
   5   2.0000     -24.795163      -674.7107
   6   2.0000     -24.789402      -674.5539
   7   2.0000     -19.172006      -521.6968
   8   2.0000     -19.170572      -521.6578
   9   2.0000     -19.169264      -521.6222
  10   2.0000     -19.168362      -521.5977
  11   2.0000     -14.472168      -393.8077
  12   2.0000     -14.462778      -393.5522
  13   2.0000     -14.453350      -393.2956
  14   2.0000     -14.452302      -393.2671
  15   2.0000     -14.449241      -393.1838
  16   2.0000     -14.440943      -392.9580
  17   2.0000     -14.439677      -392.9236
  18   2.0000     -10.383600      -282.5521
  19   2.0000     -10.381813      -282.5035
  20   2.0000     -10.374459      -282.3034
  21   2.0000     -10.339855      -281.3618
  22   2.0000     -10.333246      -281.1819
  23   2.0000     -10.332702      -281.1671
  24   2.0000     -10.330794      -281.1152
  25   2.0000     -10.322369      -280.8860
  26   2.0000     -10.316825      -280.7351
  27   2.0000     -10.313766      -280.6518
  28   2.0000     -10.313301      -280.6392
  29   2.0000     -10.312159      -280.6081
  30   2.0000     -10.309584      -280.5380
  31   2.0000     -10.307494      -280.4812
  32   2.0000     -10.305688      -280.4320
  33   2.0000     -10.298854      -280.2461
  34   2.0000     -10.297890      -280.2198
  35   2.0000     -10.288605      -279.9672
  36   2.0000     -10.285956      -279.8951
  37   2.0000     -10.285806      -279.8910
  38   2.0000     -10.285512      -279.8830
  39   2.0000     -10.284523      -279.8561
  40   2.0000     -10.283109      -279.8176
  41   2.0000     -10.282197      -279.7928
  42   2.0000     -10.278510      -279.6925
  43   2.0000     -10.276753      -279.6447
  44   2.0000     -10.272081      -279.5175
  45   2.0000     -10.271016      -279.4885
  46   2.0000     -10.270608      -279.4775
  47   2.0000     -10.270532      -279.4754
  48   2.0000     -10.266744      -279.3723
  49   2.0000     -10.266259      -279.3591
  50   2.0000     -10.265237      -279.3313
  51   2.0000     -10.255195      -279.0580
  52   2.0000     -10.243133      -278.7298
  53   2.0000     -10.241596      -278.6880
  54   2.0000      -8.185157      -222.7295
  55   2.0000      -8.184952      -222.7239
  56   2.0000      -8.126993      -221.1467
  57   2.0000      -8.118000      -220.9020
  58   2.0000      -6.154456      -167.4713
  59   2.0000      -6.154140      -167.4627
  60   2.0000      -6.153752      -167.4521
  61   2.0000      -6.153639      -167.4490
  62   2.0000      -6.153481      -167.4447
  63   2.0000      -6.153153      -167.4358
  64   2.0000      -6.098286      -165.9428
  65   2.0000      -6.090554      -165.7324
  66   2.0000      -6.089214      -165.6959
  67   2.0000      -6.089183      -165.6951
  68   2.0000      -6.081401      -165.4833
  69   2.0000      -6.080442      -165.4572
  70   2.0000      -1.320212       -35.9248
  71   2.0000      -1.307123       -35.5686
  72   2.0000      -1.303260       -35.4635
  73   2.0000      -1.175551       -31.9884
  74   2.0000      -1.175180       -31.9783
  75   2.0000      -1.136406       -30.9232
  76   2.0000      -1.128427       -30.7061
  77   2.0000      -1.085563       -29.5397
  78   2.0000      -1.085011       -29.5247
  79   2.0000      -1.076384       -29.2899
  80   2.0000      -1.055084       -28.7103
  81   2.0000      -1.053164       -28.6581
  82   2.0000      -0.994526       -27.0624
  83   2.0000      -0.986804       -26.8523
  84   2.0000      -0.977871       -26.6092
  85   2.0000      -0.964307       -26.2401
  86   2.0000      -0.945544       -25.7296
  87   2.0000      -0.944199       -25.6930
  88   2.0000      -0.903911       -24.5967
  89   2.0000      -0.899192       -24.4683
  90   2.0000      -0.898105       -24.4387
  91   2.0000      -0.893972       -24.3262
  92   2.0000      -0.869268       -23.6540
  93   2.0000      -0.868549       -23.6344
  94   2.0000      -0.862096       -23.4588
  95   2.0000      -0.860685       -23.4204
  96   2.0000      -0.851810       -23.1789
  97   2.0000      -0.835884       -22.7456
  98   2.0000      -0.817423       -22.2432
  99   2.0000      -0.816192       -22.2097
 100   2.0000      -0.806640       -21.9498
 101   2.0000      -0.784214       -21.3396
 102   2.0000      -0.774247       -21.0683
 103   2.0000      -0.765228       -20.8229
 104   2.0000      -0.754860       -20.5408
 105   2.0000      -0.746565       -20.3151
 106   2.0000      -0.730184       -19.8693
 107   2.0000      -0.726898       -19.7799
 108   2.0000      -0.724165       -19.7055
 109   2.0000      -0.722818       -19.6689
 110   2.0000      -0.716851       -19.5065
 111   2.0000      -0.710307       -19.3284
 112   2.0000      -0.682260       -18.5652
 113   2.0000      -0.680255       -18.5107
 114   2.0000      -0.668450       -18.1894
 115   2.0000      -0.666935       -18.1482
 116   2.0000      -0.658097       -17.9077
 117   2.0000      -0.653478       -17.7820
 118   2.0000      -0.644321       -17.5329
 119   2.0000      -0.641374       -17.4527
 120   2.0000      -0.632629       -17.2147
 121   2.0000      -0.627596       -17.0778
 122   2.0000      -0.623824       -16.9751
 123   2.0000      -0.622352       -16.9350
 124   2.0000      -0.615794       -16.7566
 125   2.0000      -0.615519       -16.7491
 126   2.0000      -0.606662       -16.5081
 127   2.0000      -0.596167       -16.2225
 128   2.0000      -0.592285       -16.1169
 129   2.0000      -0.587297       -15.9812
 130   2.0000      -0.583595       -15.8804
 131   2.0000      -0.582868       -15.8606
 132   2.0000      -0.571805       -15.5596
 133   2.0000      -0.568550       -15.4710
 134   2.0000      -0.562260       -15.2999
 135   2.0000      -0.557737       -15.1768
 136   2.0000      -0.556762       -15.1503
 137   2.0000      -0.548979       -14.9385
 138   2.0000      -0.548691       -14.9306
 139   2.0000      -0.546822       -14.8798
 140   2.0000      -0.544304       -14.8113
 141   2.0000      -0.543370       -14.7859
 142   2.0000      -0.542404       -14.7596
 143   2.0000      -0.541990       -14.7483
 144   2.0000      -0.536609       -14.6019
 145   2.0000      -0.529180       -14.3997
 146   2.0000      -0.526298       -14.3213
 147   2.0000      -0.523574       -14.2472
 148   2.0000      -0.522926       -14.2295
 149   2.0000      -0.520096       -14.1525
 150   2.0000      -0.514583       -14.0025
 151   2.0000      -0.513633       -13.9767
 152   2.0000      -0.508118       -13.8266
 153   2.0000      -0.506166       -13.7735
 154   2.0000      -0.496977       -13.5234
 155   2.0000      -0.495141       -13.4735
 156   2.0000      -0.493963       -13.4414
 157   2.0000      -0.492155       -13.3922
 158   2.0000      -0.490563       -13.3489
 159   2.0000      -0.487379       -13.2622
 160   2.0000      -0.479681       -13.0528
 161   2.0000      -0.476427       -12.9642
 162   2.0000      -0.466724       -12.7002
 163   2.0000      -0.466260       -12.6876
 164   2.0000      -0.465119       -12.6565
 165   2.0000      -0.462801       -12.5935
 166   2.0000      -0.461998       -12.5716
 167   2.0000      -0.459744       -12.5103
 168   2.0000      -0.458118       -12.4660
 169   2.0000      -0.450940       -12.2707
 170   2.0000      -0.447530       -12.1779
 171   2.0000      -0.443230       -12.0609
 172   2.0000      -0.436088       -11.8666
 173   2.0000      -0.432943       -11.7810
 174   2.0000      -0.429636       -11.6910
 175   2.0000      -0.426419       -11.6034
 176   2.0000      -0.425315       -11.5734
 177   2.0000      -0.421650       -11.4737
 178   2.0000      -0.418844       -11.3973
 179   2.0000      -0.418020       -11.3749
 180   2.0000      -0.409100       -11.1322
 181   2.0000      -0.401249       -10.9185
 182   2.0000      -0.386414       -10.5149
 183   2.0000      -0.384061       -10.4508
 184   2.0000      -0.383157       -10.4262
 185   2.0000      -0.377952       -10.2846
 186   2.0000      -0.375871       -10.2280
 187   2.0000      -0.374174       -10.1818
 188   2.0000      -0.373248       -10.1566
 189   2.0000      -0.369500       -10.0546
 190   2.0000      -0.353954        -9.6316
 191   2.0000      -0.346881        -9.4391
 192   2.0000      -0.341282        -9.2868
 193   2.0000      -0.339262        -9.2318
 194   2.0000      -0.337660        -9.1882
 195   2.0000      -0.335263        -9.1230
 196   2.0000      -0.334713        -9.1080
 197   2.0000      -0.327161        -8.9025
 198   2.0000      -0.312773        -8.5110
 199   2.0000      -0.307475        -8.3668
 200   2.0000      -0.305487        -8.3127
 201   2.0000      -0.289996        -7.8912
 202   2.0000      -0.269798        -7.3416
 203   2.0000      -0.246945        -6.7197
 204   2.0000      -0.220859        -6.0099
 205   0.0000      -0.079091        -2.1522
 206   0.0000      -0.055041        -1.4977
 207   0.0000      -0.041001        -1.1157
 208   0.0000      -0.029618        -0.8059
 209   0.0000       0.006533         0.1778

MULLIKEN ATOMIC CHARGES
-----------------------
   0 C :   -0.026902
   1 C :   -0.006334
   2 C :    0.098041
   3 C :   -0.039374
   4 C :   -0.035858
   5 C :    0.109409
   6 C :    0.008667
   7 C :    0.054609
   8 C :   -0.057798
   9 C :    0.011025
  10 C :    0.060719
  11 C :   -0.013409
  12 N :   -0.043098
  13 C :    0.005555
  14 C :    0.007078
  15 C :    0.065864
  16 C :   -0.059544
  17 C :    0.024111
  18 C :    0.049933
  19 C :    0.000192
  20 N :   -0.026124
  21 C :   -0.084514
  22 C :    0.090690
  23 C :    0.200103
  24 F :   -0.153569
  25 C :   -0.076161
  26 C :    0.043123
  27 C :    0.001651
  28 C :    0.161906
  29 F :   -0.160035
  30 C :    0.266323
  31 F :   -0.175476
  32 C :   -0.118102
  33 C :    0.059079
  34 N :   -0.268032
  35 S :    0.513027
  36 N :   -0.270233
  37 C :   -0.005682
  38 C :    0.023186
  39 N :   -0.251676
  40 S :    0.525168
  41 N :   -0.356125
  42 C :    0.022436
  43 C :   -0.057988
  44 S :    0.796194
  45 O :   -0.443225
  46 O :   -0.451486
  47 C :   -0.056468
  48 S :    0.794850
  49 O :   -0.459724
  50 O :   -0.450964
  51 N :   -0.165986
  52 C :    0.069852
  53 C :    0.019529
  54 H :    0.018056
  55 H :    0.015154
  56 H :   -0.022755
  57 H :   -0.032222
  58 H :   -0.019059
  59 H :   -0.031008
  60 H :   -0.005003
  61 H :   -0.025203
  62 H :   -0.007261
  63 H :    0.125436
  64 H :   -0.039233
  65 H :    0.015148
  66 H :   -0.019315
  67 H :   -0.004695
  68 H :    0.131868
  69 H :    0.005014
  70 H :   -0.003648
  71 H :    0.030829
  72 H :    0.028502
  73 H :    0.026173
  74 H :    0.019557
  75 H :    0.025232
Sum of atomic charges:   -0.0000000

LOEWDIN ATOMIC CHARGES
----------------------
   0 C :   -0.046002
   1 C :   -0.038171
   2 C :   -0.017392
   3 C :   -0.058081
   4 C :   -0.046247
   5 C :   -0.025987
   6 C :   -0.011700
   7 C :   -0.049509
   8 C :   -0.151758
   9 C :   -0.026943
  10 C :   -0.079907
  11 C :   -0.009458
  12 N :    0.097745
  13 C :   -0.002559
  14 C :   -0.030166
  15 C :   -0.011335
  16 C :   -0.158866
  17 C :   -0.007816
  18 C :   -0.091034
  19 C :    0.004149
  20 N :    0.109321
  21 C :   -0.005818
  22 C :   -0.064312
  23 C :    0.102259
  24 F :   -0.030367
  25 C :   -0.000174
  26 C :   -0.017542
  27 C :   -0.048908
  28 C :    0.078300
  29 F :   -0.038209
  30 C :    0.071744
  31 F :   -0.049807
  32 C :   -0.041118
  33 C :   -0.054529
  34 N :   -0.285598
  35 S :    0.651209
  36 N :   -0.287860
  37 C :   -0.047279
  38 C :   -0.046898
  39 N :   -0.268645
  40 S :    0.650429
  41 N :   -0.309129
  42 C :   -0.029733
  43 C :   -0.213632
  44 S :    1.171627
  45 O :   -0.489114
  46 O :   -0.497127
  47 C :   -0.220784
  48 S :    1.175071
  49 O :   -0.502501
  50 O :   -0.496529
  51 N :    0.067665
  52 C :    0.038480
  53 C :   -0.059881
  54 H :    0.023485
  55 H :    0.021511
  56 H :    0.025414
  57 H :    0.022962
  58 H :    0.026725
  59 H :    0.023283
  60 H :    0.031942
  61 H :    0.027888
  62 H :    0.022089
  63 H :    0.092102
  64 H :    0.024002
  65 H :    0.036648
  66 H :    0.030614
  67 H :    0.024134
  68 H :    0.073235
  69 H :    0.048848
  70 H :    0.050957
  71 H :    0.029442
  72 H :    0.028399
  73 H :    0.029692
  74 H :    0.028528
  75 H :    0.028520

  Mayer bond orders larger than 0.100000
B(  0-C ,  1-C ) :   1.9403 B(  0-C , 54-H ) :   0.9472 B(  0-C , 55-H ) :   0.9558
B(  1-C ,  2-C ) :   1.0813 B(  1-C , 56-H ) :   0.9534 B(  2-C ,  3-C ) :   1.4102
B(  2-C , 51-N ) :   1.1879 B(  3-C ,  4-C ) :   1.3610 B(  3-C , 57-H ) :   1.0046
B(  4-C ,  5-C ) :   1.4005 B(  4-C , 58-H ) :   1.0054 B(  5-C ,  6-C ) :   1.1143
B(  5-C , 51-N ) :   1.1627 B(  6-C ,  7-C ) :   1.6860 B(  6-C , 59-H ) :   0.9590
B(  7-C ,  8-C ) :   1.1285 B(  7-C , 60-H ) :   0.9572 B(  8-C ,  9-C ) :   1.6806
B(  8-C , 48-S ) :   0.8269 B(  9-C , 10-C ) :   1.0526 B(  9-C , 61-H ) :   0.9881
B( 10-C , 11-C ) :   1.4355 B( 10-C , 47-C ) :   1.3477 B( 11-C , 12-N ) :   1.2093
B( 11-C , 62-H ) :   0.9869 B( 12-N , 13-C ) :   1.2250 B( 12-N , 63-H ) :   0.9340
B( 13-C , 14-C ) :   1.1128 B( 13-C , 47-C ) :   1.4992 B( 14-C , 15-C ) :   1.7257
B( 14-C , 64-H ) :   0.9539 B( 15-C , 16-C ) :   1.1012 B( 15-C , 65-H ) :   0.9471
B( 16-C , 17-C ) :   1.7079 B( 16-C , 44-S ) :   0.8287 B( 17-C , 18-C ) :   1.0447
B( 17-C , 66-H ) :   0.9908 B( 18-C , 19-C ) :   1.4063 B( 18-C , 43-C ) :   1.3472
B( 19-C , 20-N ) :   1.2428 B( 19-C , 67-H ) :   0.9909 B( 20-N , 21-C ) :   1.3155
B( 20-N , 68-H ) :   0.8797 B( 21-C , 22-C ) :   1.0590 B( 21-C , 43-C ) :   1.5318
B( 22-C , 23-C ) :   1.4141 B( 22-C , 26-C ) :   0.1208 B( 22-C , 42-C ) :   1.1568
B( 23-C , 24-F ) :   1.1308 B( 23-C , 25-C ) :   1.1861 B( 25-C , 26-C ) :   1.4749
B( 25-C , 69-H ) :   1.0063 B( 26-C , 27-C ) :   0.9431 B( 26-C , 38-C ) :   1.2312
B( 27-C , 28-C ) :   1.4596 B( 27-C , 32-C ) :   0.1280 B( 27-C , 37-C ) :   1.2200
B( 28-C , 29-F ) :   1.1767 B( 28-C , 30-C ) :   1.1220 B( 30-C , 31-F ) :   1.1101
B( 30-C , 32-C ) :   1.4588 B( 32-C , 33-C ) :   1.1407 B( 32-C , 70-H ) :   1.0508
B( 33-C , 34-N ) :   1.5161 B( 33-C , 37-C ) :   1.1584 B( 34-N , 35-S ) :   1.2782
B( 34-N , 36-N ) :   0.1479 B( 35-S , 36-N ) :   1.2621 B( 36-N , 37-C ) :   1.5504
B( 38-C , 39-N ) :   1.5362 B( 38-C , 42-C ) :   1.1664 B( 39-N , 40-S ) :   1.2932
B( 39-N , 41-N ) :   0.1473 B( 40-S , 41-N ) :   1.2298 B( 41-N , 42-C ) :   1.4659
B( 43-C , 44-S ) :   0.7755 B( 44-S , 45-O ) :   1.7397 B( 44-S , 46-O ) :   1.7408
B( 47-C , 48-S ) :   0.8012 B( 48-S , 49-O ) :   1.7205 B( 48-S , 50-O ) :   1.7007
B( 51-N , 52-C ) :   0.9724 B( 52-C , 53-C ) :   1.1110 B( 52-C , 71-H ) :   0.9454
B( 52-C , 72-H ) :   0.9448 B( 53-C , 73-H ) :   0.9641 B( 53-C , 74-H ) :   0.9666
B( 53-C , 75-H ) :   0.9645

-----------------------------------------------------------------------------
         ABSORPTION SPECTRUM VIA TRANSITION ELECTRIC DIPOLE MOMENTS
-----------------------------------------------------------------------------
State   Energy  Wavelength   fosc         T2         TX        TY        TZ
        (cm-1)    (nm)                  (au**2)     (au)      (au)      (au)
-----------------------------------------------------------------------------
   0   20898.4    478.5   0.483056415   7.60956   0.39357   2.46289   1.17848
   1   23613.0    423.5   0.559659057   7.80276  -2.29632   0.16166   1.58226
   2   23957.3    417.4   0.748658014  10.28778  -1.71740   1.59402   2.19030
   3   26363.4    379.3   0.098631760   1.23166   0.86678   0.69286  -0.01743
   4   27894.2    358.5   0.040767243   0.48114   0.32233   0.58813   0.17706
   5   28144.8    355.3   0.400271606   4.68200   1.40200   0.87529  -1.39652
   6   29659.0    337.2   0.076800013   0.85247   0.53795  -0.67999  -0.31733
   7   29769.2    335.9   0.276901398   3.06220   0.64010  -1.44419  -0.75284
   8   31679.0    315.7   0.304618275   3.16563  -0.29911   1.70215   0.42291
   9   32285.8    309.7   0.036831414   0.37556   0.36445   0.48357   0.09432
  10   33451.9    298.9   0.009325929   0.09178  -0.30033   0.03400   0.02059
  11   34067.1    293.5   0.072839267   0.70389   0.08729  -0.80502  -0.21958
  12   35515.4    281.6   0.009810503   0.09094   0.23540  -0.14007   0.12612
  13   35656.7    280.5   0.102138169   0.94302   0.78794  -0.29315   0.48605
  14   36853.1    271.3   0.026688786   0.23841  -0.35829   0.04137   0.32913
  15   37728.2    265.1   0.204079783   1.78078  -1.05180   0.69333   0.44021
  16   38382.9    260.5   0.022631900   0.19411   0.15378  -0.21855  -0.35029
  17   38835.7    257.5   0.017355590   0.14712  -0.02590  -0.28531  -0.25506
  18   39189.4    255.2   0.059621018   0.50085  -0.31371  -0.59567  -0.21820
  19   39436.5    253.6   0.119572118   0.99818  -0.62222  -0.76299  -0.16987
  20   39634.9    252.3   0.120524013   1.00109  -0.69233   0.43049   0.58004
  21   39808.2    251.2   0.030295109   0.25054  -0.28502  -0.02198   0.41088

FINAL SINGLE POINT ENERGY     -3957.903984020326

DIPOLE MOMENT
-------------
                                X             Y             Z
Electronic contribution:     28.01710    -125.63531     -76.00445
Nuclear contribution   :    -25.50598     127.52025      74.47049
                        -----------------------------------------
Total Dipole Moment    :      2.51112       1.88494      -1.53396
                        -----------------------------------------
Magnitude (a.u.)       :      3.49453
Magnitude (Debye)      :      8.88239

Rotational constants in cm-1:     0.002471     0.000416     0.000372
Rotational constants in MHz :    74.075001    12.467199    11.153397

                             ****ORCA TERMINATED NORMALLY****
TOTAL RUN TIME: 0 days 0 hours 5 minutes 18 seconds 461 msec
