                         Program Version 4.2.0 -  RELEASE  -
|  1> # ORCA input file
|  2> # SCF done       -118.558415600890          0.000589383891
|  3> ! CAM-B3LYP def2-SVP def2/J RIJCOSX Grid4 TightSCF
|  4> %maxcore 5000
|  5> %tddft
|  6>     Mode sTDDFT
|  7>     Ethresh 5.0
|  8>     maxcore 5000
|  9> end
| 10>
| 11> %pal
| 12>   nprocs 6
| 13>   end
| 14> * xyz 0 1
| 15>    N       -1.77010        -2.50142        -7.09891
| 16>    C       -2.00126        -2.89721        -6.04490
| 17>    C       -2.28555        -3.37286        -4.75505
| 18>    C       -1.99208        -4.72458        -4.51194
| 19>    N       -1.75004        -5.82982        -4.31211
| 20>    C       -2.82122        -2.55489        -3.77940
| 21>    C       -3.11855        -1.16470        -4.02053
| 22>    C       -3.62740        -0.41251        -3.03315
| 23>    O       -3.89422        -0.86233        -1.79512
| 24>    C       -3.63480        -2.16779        -1.52943
| 25>    C       -3.94845        -2.56555        -0.19059
| 26>    O       -3.77611        -3.86054         0.18856
| 27>    C       -4.13703        -3.95876         1.48168
| 28>    C       -4.07283        -5.21971         2.14093
| 29>    C       -3.70795        -6.43443         1.61911
| 30>    C       -3.77668        -7.48004         2.55265
| 31>    C       -3.36297        -8.86195         2.16248
| 32>    F       -2.78427        -8.88137         0.95376
| 33>    F       -2.46503        -9.40369         3.00602
| 34>    F       -4.39134        -9.72937         2.08687
| 35>    C       -4.20763        -7.08333         3.81648
| 36>    C       -4.45175        -7.85053         4.98609
| 37>    S       -4.59799        -9.59067         4.93663
| 38>    C       -4.90571        -9.66830         6.63062
| 39>    C       -5.13308       -10.92980         7.24903
| 40>    O       -5.38224       -11.06103         8.57350
| 41>    C       -5.54786       -12.36495         8.82078
| 42>    C       -5.41466       -13.10898         7.68442
| 43>    C       -5.14439       -12.18152         6.65318
| 44>    O       -4.93246       -12.38809         5.33757
| 45>    C       -4.89594        -8.41304         7.21517
| 46>    C       -4.66486        -7.38386         6.28055
| 47>    S       -4.65680        -5.68728         6.72545
| 48>    C       -5.35322        -5.86924         8.40522
| 49>    C       -4.70471        -7.04824         9.11049
| 50>    O       -5.10412        -8.27811         8.55280
| 51>    S       -4.50047        -5.36547         3.81961
| 52>    C       -4.54634        -2.73025         1.96134
| 53>    C       -4.42911        -1.82979         0.88825
| 54>    O       -4.71206        -0.51667         0.86829
| 55>    C       -3.11741        -3.01653        -2.46363
| 56>    H       -2.92729        -0.74155        -4.99293
| 57>    H       -3.87396         0.63350        -3.13735
| 58>    H       -3.39527        -6.56549         0.59929
| 59>    H       -5.75517       -12.64977         9.83301
| 60>    H       -5.49802       -14.17292         7.59273
| 61>    H       -4.97463       -13.33018         5.13661
| 62>    H       -6.42968        -6.01674         8.31855
| 63>    H       -5.14363        -4.93431         8.91939
| 64>    H       -3.61108        -6.94748         9.07269
| 65>    H       -5.02451        -7.09466        10.15445
| 66>    H       -4.88509        -2.52203         2.95634
| 67>    H       -5.02761        -0.23913         1.73700
| 68>    H       -2.92957        -4.04354        -2.19595
| 69> *
| 70>
| 71>                          ****END OF INPUT****

CARTESIAN COORDINATES (ANGSTROEM)
---------------------------------
  N     -1.770100   -2.501420   -7.098910
  C     -2.001260   -2.897210   -6.044900
  C     -2.285550   -3.372860   -4.755050
  C     -1.992080   -4.724580   -4.511940
  N     -1.750040   -5.829820   -4.312110
  C     -2.821220   -2.554890   -3.779400
  C     -3.118550   -1.164700   -4.020530
  C     -3.627400   -0.412510   -3.033150
  O     -3.894220   -0.862330   -1.795120
  C     -3.634800   -2.167790   -1.529430
  C     -3.948450   -2.565550   -0.190590
  O     -3.776110   -3.860540    0.188560
  C     -4.137030   -3.958760    1.481680
  C     -4.072830   -5.219710    2.140930
  C     -3.707950   -6.434430    1.619110
  C     -3.776680   -7.480040    2.552650
  C     -3.362970   -8.861950    2.162480
  F     -2.784270   -8.881370    0.953760
  F     -2.465030   -9.403690    3.006020
  F     -4.391340   -9.729370    2.086870
  C     -4.207630   -7.083330    3.816480
  C     -4.451750   -7.850530    4.986090
  S     -4.597990   -9.590670    4.936630
  C     -4.905710   -9.668300    6.630620
  C     -5.133080  -10.929800    7.249030
  O     -5.382240  -11.061030    8.573500
  C     -5.547860  -12.364950    8.820780
  C     -5.414660  -13.108980    7.684420
  C     -5.144390  -12.181520    6.653180
  O     -4.932460  -12.388090    5.337570
  C     -4.895940   -8.413040    7.215170
  C     -4.664860   -7.383860    6.280550
  S     -4.656800   -5.687280    6.725450
  C     -5.353220   -5.869240    8.405220
  C     -4.704710   -7.048240    9.110490
  O     -5.104120   -8.278110    8.552800
  S     -4.500470   -5.365470    3.819610
  C     -4.546340   -2.730250    1.961340
  C     -4.429110   -1.829790    0.888250
  O     -4.712060   -0.516670    0.868290
  C     -3.117410   -3.016530   -2.463630
  H     -2.927290   -0.741550   -4.992930
  H     -3.873960    0.633500   -3.137350
  H     -3.395270   -6.565490    0.599290
  H     -5.755170  -12.649770    9.833010
  H     -5.498020  -14.172920    7.592730
  H     -4.974630  -13.330180    5.136610
  H     -6.429680   -6.016740    8.318550
  H     -5.143630   -4.934310    8.919390
  H     -3.611080   -6.947480    9.072690
  H     -5.024510   -7.094660   10.154450
  H     -4.885090   -2.522030    2.956340
  H     -5.027610   -0.239130    1.737000
  H     -2.929570   -4.043540   -2.195950

 Total Charge           Charge          ....    0
 Multiplicity           Mult            ....    1
 Number of Electrons    NEL             ....  312
 Basis Dimension        Dim             ....  651

ORBITAL ENERGIES
----------------

  NO   OCC          E(Eh)            E(eV)
   0   2.0000     -88.972275     -2421.0587
   1   2.0000     -88.955929     -2420.6139
   2   2.0000     -88.943961     -2420.2882
   3   2.0000     -24.791215      -674.6033
   4   2.0000     -24.787992      -674.5156
   5   2.0000     -24.787555      -674.5037
   6   2.0000     -19.311256      -525.4860
   7   2.0000     -19.308379      -525.4077
   8   2.0000     -19.289972      -524.9068
   9   2.0000     -19.273357      -524.4547
  10   2.0000     -19.260690      -524.1100
  11   2.0000     -19.251300      -523.8545
  12   2.0000     -14.381216      -391.3328
  13   2.0000     -14.380791      -391.3212
  14   2.0000     -10.511490      -286.0322
  15   2.0000     -10.375733      -282.3380
  16   2.0000     -10.363006      -281.9917
  17   2.0000     -10.362581      -281.9802
  18   2.0000     -10.360073      -281.9119
  19   2.0000     -10.340162      -281.3701
  20   2.0000     -10.338512      -281.3252
  21   2.0000     -10.335821      -281.2520
  22   2.0000     -10.334099      -281.2051
  23   2.0000     -10.333210      -281.1810
  24   2.0000     -10.329030      -281.0672
  25   2.0000     -10.324659      -280.9483
  26   2.0000     -10.321994      -280.8757
  27   2.0000     -10.314721      -280.6778
  28   2.0000     -10.313025      -280.6317
  29   2.0000     -10.312766      -280.6246
  30   2.0000     -10.309391      -280.5328
  31   2.0000     -10.306150      -280.4446
  32   2.0000     -10.299836      -280.2728
  33   2.0000     -10.294641      -280.1314
  34   2.0000     -10.292493      -280.0730
  35   2.0000     -10.291825      -280.0548
  36   2.0000     -10.288568      -279.9662
  37   2.0000     -10.285940      -279.8946
  38   2.0000     -10.285345      -279.8785
  39   2.0000     -10.285133      -279.8727
  40   2.0000     -10.275450      -279.6092
  41   2.0000      -8.067203      -219.5198
  42   2.0000      -8.050502      -219.0653
  43   2.0000      -8.039589      -218.7683
  44   2.0000      -6.036727      -164.2677
  45   2.0000      -6.032363      -164.1490
  46   2.0000      -6.029040      -164.0585
  47   2.0000      -6.020199      -163.8179
  48   2.0000      -6.015809      -163.6985
  49   2.0000      -6.011865      -163.5912
  50   2.0000      -6.009902      -163.5378
  51   2.0000      -6.005875      -163.4282
  52   2.0000      -5.999276      -163.2486
  53   2.0000      -1.379856       -37.5478
  54   2.0000      -1.282068       -34.8868
  55   2.0000      -1.279666       -34.8215
  56   2.0000      -1.230176       -33.4748
  57   2.0000      -1.220882       -33.2219
  58   2.0000      -1.211041       -32.9541
  59   2.0000      -1.167881       -31.7796
  60   2.0000      -1.161715       -31.6119
  61   2.0000      -1.152944       -31.3732
  62   2.0000      -1.009318       -27.4650
  63   2.0000      -0.984132       -26.7796
  64   2.0000      -0.981624       -26.7113
  65   2.0000      -0.960535       -26.1375
  66   2.0000      -0.943214       -25.6661
  67   2.0000      -0.929522       -25.2936
  68   2.0000      -0.926706       -25.2169
  69   2.0000      -0.913444       -24.8561
  70   2.0000      -0.892474       -24.2855
  71   2.0000      -0.888810       -24.1858
  72   2.0000      -0.875097       -23.8126
  73   2.0000      -0.863277       -23.4910
  74   2.0000      -0.859944       -23.4003
  75   2.0000      -0.855564       -23.2811
  76   2.0000      -0.830390       -22.5961
  77   2.0000      -0.796365       -21.6702
  78   2.0000      -0.778276       -21.1780
  79   2.0000      -0.770943       -20.9784
  80   2.0000      -0.768213       -20.9041
  81   2.0000      -0.751010       -20.4360
  82   2.0000      -0.739278       -20.1168
  83   2.0000      -0.723392       -19.6845
  84   2.0000      -0.717250       -19.5174
  85   2.0000      -0.707445       -19.2506
  86   2.0000      -0.703917       -19.1545
  87   2.0000      -0.681401       -18.5419
  88   2.0000      -0.671197       -18.2642
  89   2.0000      -0.662361       -18.0238
  90   2.0000      -0.661671       -18.0050
  91   2.0000      -0.657517       -17.8920
  92   2.0000      -0.656242       -17.8573
  93   2.0000      -0.647450       -17.6180
  94   2.0000      -0.638693       -17.3797
  95   2.0000      -0.630268       -17.1505
  96   2.0000      -0.618485       -16.8298
  97   2.0000      -0.607948       -16.5431
  98   2.0000      -0.597048       -16.2465
  99   2.0000      -0.589875       -16.0513
 100   2.0000      -0.587940       -15.9987
 101   2.0000      -0.582174       -15.8418
 102   2.0000      -0.572281       -15.5726
 103   2.0000      -0.569088       -15.4857
 104   2.0000      -0.563986       -15.3468
 105   2.0000      -0.560105       -15.2412
 106   2.0000      -0.558296       -15.1920
 107   2.0000      -0.557705       -15.1759
 108   2.0000      -0.547961       -14.9108
 109   2.0000      -0.546256       -14.8644
 110   2.0000      -0.541182       -14.7263
 111   2.0000      -0.539727       -14.6867
 112   2.0000      -0.532701       -14.4955
 113   2.0000      -0.528095       -14.3702
 114   2.0000      -0.518037       -14.0965
 115   2.0000      -0.511297       -13.9131
 116   2.0000      -0.508981       -13.8501
 117   2.0000      -0.502837       -13.6829
 118   2.0000      -0.499084       -13.5808
 119   2.0000      -0.495799       -13.4914
 120   2.0000      -0.495327       -13.4785
 121   2.0000      -0.492723       -13.4077
 122   2.0000      -0.486536       -13.2393
 123   2.0000      -0.482627       -13.1330
 124   2.0000      -0.478469       -13.0198
 125   2.0000      -0.478181       -13.0120
 126   2.0000      -0.476357       -12.9623
 127   2.0000      -0.476096       -12.9552
 128   2.0000      -0.472265       -12.8510
 129   2.0000      -0.466724       -12.7002
 130   2.0000      -0.459848       -12.5131
 131   2.0000      -0.459447       -12.5022
 132   2.0000      -0.451822       -12.2947
 133   2.0000      -0.442775       -12.0485
 134   2.0000      -0.439252       -11.9527
 135   2.0000      -0.425368       -11.5749
 136   2.0000      -0.417305       -11.3554
 137   2.0000      -0.413039       -11.2393
 138   2.0000      -0.413005       -11.2384
 139   2.0000      -0.403388       -10.9767
 140   2.0000      -0.400882       -10.9085
 141   2.0000      -0.399089       -10.8598
 142   2.0000      -0.397610       -10.8195
 143   2.0000      -0.393962       -10.7202
 144   2.0000      -0.389554       -10.6003
 145   2.0000      -0.383388       -10.4325
 146   2.0000      -0.378257       -10.2929
 147   2.0000      -0.363458        -9.8902
 148   2.0000      -0.341916        -9.3040
 149   2.0000      -0.339616        -9.2414
 150   2.0000      -0.337384        -9.1807
 151   2.0000      -0.317703        -8.6452
 152   2.0000      -0.288107        -7.8398
 153   2.0000      -0.276569        -7.5258
 154   2.0000      -0.258657        -7.0384
 155   2.0000      -0.231295        -6.2939
 156   0.0000      -0.061275        -1.6674
 157   0.0000      -0.032813        -0.8929
 158   0.0000      -0.006235        -0.1697
 159   0.0000       0.019642         0.5345
 160   0.0000       0.035256         0.9594

MULLIKEN ATOMIC CHARGES
-----------------------
   0 N :    0.119097
   1 C :   -0.184074
   2 C :   -0.345575
   3 C :   -0.179644
   4 N :    0.123289
   5 C :    0.253066
   6 C :   -0.068805
   7 C :    0.186399
   8 O :   -0.197065
   9 C :    0.164686
  10 C :    0.104810
  11 O :   -0.201231
  12 C :    0.236499
  13 C :   -0.067681
  14 C :   -0.015828
  15 C :   -0.113411
  16 C :    0.526004
  17 F :   -0.152797
  18 F :   -0.164052
  19 F :   -0.167721
  20 C :   -0.065561
  21 C :   -0.132737
  22 S :    0.181081
  23 C :   -0.151595
  24 C :    0.104472
  25 O :   -0.174423
  26 C :    0.153046
  27 C :   -0.082781
  28 C :    0.083767
  29 O :   -0.183866
  30 C :    0.172179
  31 C :   -0.058068
  32 S :    0.001855
  33 C :   -0.088458
  34 C :    0.221574
  35 O :   -0.295049
  36 S :    0.129126
  37 C :   -0.159461
  38 C :    0.137697
  39 O :   -0.161983
  40 C :   -0.152341
  41 H :    0.032073
  42 H :    0.034692
  43 H :    0.011987
  44 H :    0.010709
  45 H :   -0.019521
  46 H :    0.194353
  47 H :    0.076258
  48 H :    0.059164
  49 H :    0.030882
  50 H :    0.032613
  51 H :   -0.017366
  52 H :    0.193320
  53 H :    0.026393
Sum of atomic charges:    0.0000000

LOEWDIN ATOMIC CHARGES
----------------------
   0 N :   -0.081278
   1 C :   -0.030614
   2 C :   -0.188611
   3 C :   -0.029111
   4 N :   -0.078096
   5 C :    0.057284
   6 C :   -0.055171
   7 C :    0.098250
   8 O :    0.010805
   9 C :    0.080891
  10 C :   -0.041483
  11 O :    0.021212
  12 C :    0.052478
  13 C :   -0.206508
  14 C :   -0.015688
  15 C :   -0.139068
  16 C :    0.160566
  17 F :   -0.052686
  18 F :   -0.064843
  19 F :   -0.067936
  20 C :   -0.144968
  21 C :   -0.236704
  22 S :    0.494944
  23 C :   -0.193579
  24 C :   -0.038271
  25 O :    0.031509
  26 C :    0.048753
  27 C :   -0.112280
  28 C :    0.003842
  29 O :   -0.047298
  30 C :   -0.019046
  31 C :   -0.209148
  32 S :    0.292368
  33 C :   -0.140528
  34 C :    0.070093
  35 O :   -0.098460
  36 S :    0.456092
  37 C :   -0.118480
  38 C :    0.038466
  39 O :   -0.030783
  40 C :   -0.065603
  41 H :    0.050654
  42 H :    0.038463
  43 H :    0.042123
  44 H :    0.024121
  45 H :    0.029950
  46 H :    0.104678
  47 H :    0.032320
  48 H :    0.035653
  49 H :    0.018786
  50 H :    0.031292
  51 H :    0.028871
  52 H :    0.104412
  53 H :    0.047366

  Mayer bond orders larger than 0.100000
B(  0-N ,  1-C ) :   3.0120 B(  1-C ,  2-C ) :   1.1326 B(  2-C ,  3-C ) :   1.1414
B(  2-C ,  5-C ) :   1.5495 B(  3-C ,  4-N ) :   3.0132 B(  5-C ,  6-C ) :   1.1266
B(  5-C , 40-C ) :   1.1313 B(  6-C ,  7-C ) :   1.6838 B(  6-C , 41-H ) :   0.9616
B(  7-C ,  8-O ) :   1.1162 B(  7-C , 42-H ) :   0.9771 B(  8-O ,  9-C ) :   1.1745
B(  9-C , 10-C ) :   1.0701 B(  9-C , 40-C ) :   1.5031 B( 10-C , 11-O ) :   1.1082
B( 10-C , 12-C ) :   0.1159 B( 10-C , 38-C ) :   1.4042 B( 11-O , 12-C ) :   1.2055
B( 12-C , 13-C ) :   1.1159 B( 12-C , 37-C ) :   1.4296 B( 13-C , 14-C ) :   1.4653
B( 13-C , 36-S ) :   1.0942 B( 14-C , 15-C ) :   1.2656 B( 14-C , 43-H ) :   1.0182
B( 15-C , 16-C ) :   0.9616 B( 15-C , 20-C ) :   1.4741 B( 16-C , 17-F ) :   1.1722
B( 16-C , 18-F ) :   1.1617 B( 16-C , 19-F ) :   1.1455 B( 20-C , 21-C ) :   1.1710
B( 20-C , 36-S ) :   1.1547 B( 21-C , 22-S ) :   1.0945 B( 21-C , 23-C ) :   0.1351
B( 21-C , 31-C ) :   1.5001 B( 22-S , 23-C ) :   1.1541 B( 23-C , 24-C ) :   1.1047
B( 23-C , 30-C ) :   1.4833 B( 24-C , 25-O ) :   1.1687 B( 24-C , 26-C ) :   0.1044
B( 24-C , 28-C ) :   1.4523 B( 25-O , 26-C ) :   1.1686 B( 26-C , 27-C ) :   1.5018
B( 26-C , 44-H ) :   1.0065 B( 27-C , 28-C ) :   1.2138 B( 27-C , 45-H ) :   1.0096
B( 28-C , 29-O ) :   1.2152 B( 29-O , 46-H ) :   0.9566 B( 30-C , 31-C ) :   1.2684
B( 30-C , 35-O ) :   1.1750 B( 31-C , 32-S ) :   0.9984 B( 32-S , 33-C ) :   0.9961
B( 33-C , 34-C ) :   1.0406 B( 33-C , 47-H ) :   0.9441 B( 33-C , 48-H ) :   0.9482
B( 34-C , 35-O ) :   0.9749 B( 34-C , 49-H ) :   0.9502 B( 34-C , 50-H ) :   0.9514
B( 37-C , 38-C ) :   1.1919 B( 37-C , 51-H ) :   1.0094 B( 38-C , 39-O ) :   1.2719
B( 39-O , 52-H ) :   0.9572 B( 40-C , 53-H ) :   0.9768

-----------------------------------------------------------------------------
         ABSORPTION SPECTRUM VIA TRANSITION ELECTRIC DIPOLE MOMENTS
-----------------------------------------------------------------------------
State   Energy  Wavelength   fosc         T2         TX        TY        TZ
        (cm-1)    (nm)                  (au**2)     (au)      (au)      (au)
-----------------------------------------------------------------------------
   0   21231.8    471.0   1.532311660  23.75940   0.84052   2.83890  -3.87215
   1   27744.3    360.4   0.387144136   4.59382  -0.50056   1.39720   1.54632
   2   29521.5    338.7   0.028867555   0.32192  -0.17868  -0.35001   0.40925
   3   30388.0    329.1   0.019181734   0.20781   0.19380   0.24993   0.32830
   4   32968.1    303.3   0.139538064   1.39340  -0.16077  -0.87751   0.77300
   5   34710.5    288.1   0.175944191   1.66875   0.61771  -0.97576  -0.57885
   6   36330.6    275.3   0.104991093   0.95138   0.27267  -0.33153  -0.87585
   7   37129.9    269.3   0.079404761   0.70404   0.21114   0.59878  -0.54857
   8   38565.8    259.3   0.044104904   0.37650  -0.03909  -0.60750   0.07689
   9   39396.9    253.8   0.216569750   1.80972   0.35976  -1.09255  -0.69759
  10   40264.7    248.4   0.032554656   0.26617   0.09432   0.11431  -0.49417

FINAL SINGLE POINT ENERGY     -3088.948014988039

DIPOLE MOMENT
-------------
                                X             Y             Z
Electronic contribution:      6.40724     -11.47335     -14.89641
Nuclear contribution   :     -8.73356      12.32310      20.83623
                        -----------------------------------------
Total Dipole Moment    :     -2.32632       0.84975       5.93982
                        -----------------------------------------
Magnitude (a.u.)       :      6.43547
Magnitude (Debye)      :     16.35766

Rotational constants in cm-1:     0.005459     0.000970     0.000834
Rotational constants in MHz :   163.656307    29.080053    25.010674

                             ****ORCA TERMINATED NORMALLY****
TOTAL RUN TIME: 0 days 0 hours 3 minutes 12 seconds 428 msec
