                         Program Version 4.2.0 -  RELEASE  -
|  1> # ORCA input file
|  2> # SCF done       -161.877930778966          0.000734600878
|  3> ! CAM-B3LYP def2-SVP def2/J RIJCOSX Grid4 TightSCF
|  4> %maxcore 5000
|  5> %tddft
|  6>     Mode sTDDFT
|  7>     Ethresh 5.0
|  8>     maxcore 5000
|  9> end
| 10>
| 11> %pal
| 12>   nprocs 6
| 13>   end
| 14> * xyz 0 1
| 15>    O        0.71161        -1.41870        -1.19825
| 16>    C        1.11892        -1.29105        -2.32650
| 17>    O        0.79199        -2.16707        -3.27839
| 18>    C        1.96382        -0.16366        -2.75585
| 19>    C        2.50785         0.84900        -1.97363
| 20>    C        2.59477         1.08446        -0.56429
| 21>    S        2.47542         2.74448        -0.03906
| 22>    C        2.68966         2.27245         1.59205
| 23>    C        2.86994         0.92955         1.73086
| 24>    C        2.82951         0.23748         0.49323
| 25>    C        3.06964        -1.23060         0.40890
| 26>    C        3.76751        -1.74374         1.66446
| 27>    C        2.99898        -1.26679         2.89929
| 28>    N        3.59516        -1.92412         4.08521
| 29>    O        2.96258        -2.81096         4.60279
| 30>    O        4.68868        -1.54920         4.43612
| 31>    C        3.12066         0.24744         3.04032
| 32>    O        3.04272         1.79997        -2.76083
| 33>    C        2.88168         1.43583        -4.06280
| 34>    C        3.35994         2.28150        -5.10606
| 35>    S        3.24347         1.78073        -6.76689
| 36>    C        3.98356         3.25924        -7.29834
| 37>    C        4.11976         3.57502        -8.67695
| 38>    O        4.50130         4.82447        -9.01233
| 39>    C        4.55806         4.91852       -10.37271
| 40>    C        4.90336         6.16283       -10.99207
| 41>    S        5.41992         6.20742       -12.65867
| 42>    C        5.58544         7.91562       -12.60161
| 43>    C        5.27424         8.42567       -11.38035
| 44>    C        4.88206         7.42696       -10.45272
| 45>    C        4.47531         7.75053        -9.05096
| 46>    C        4.13963         9.22602        -8.89897
| 47>    N        2.83725         9.54383        -9.54675
| 48>    O        2.46434        10.68844        -9.45877
| 49>    O        2.24743         8.65910       -10.11419
| 50>    C        5.21218        10.11437        -9.53424
| 51>    C        5.27955         9.88531       -11.04456
| 52>    C        4.21368         3.70068       -10.91921
| 53>    O        4.13782         3.34304       -12.22542
| 54>    C        3.91546         2.82263        -9.83680
| 55>    C        3.47262         1.43540        -9.94695
| 56>    O        3.16413         0.75947        -8.98806
| 57>    O        3.41358         0.92655       -11.17505
| 58>    C        4.33813         4.05876        -6.21834
| 59>    C        3.96507         3.51973        -4.97905
| 60>    C        4.18289         4.22312        -3.67414
| 61>    C        4.63705         5.66475        -3.88007
| 62>    N        3.46315         6.54304        -4.16831
| 63>    O        3.62672         7.45875        -4.94041
| 64>    O        2.43769         6.30760        -3.58338
| 65>    C        5.67091         5.77655        -4.99239
| 66>    C        5.07180         5.35474        -6.33338
| 67>    C        2.22884         0.21654        -4.10631
| 68>    O        1.87533        -0.53004        -5.17615
| 69>    H        1.12120        -1.89998        -4.15423
| 70>    H        2.67608         3.01561         2.36450
| 71>    H        3.66247        -1.46361        -0.47769
| 72>    H        2.10434        -1.73134         0.28688
| 73>    H        4.79114        -1.36561         1.71756
| 74>    H        3.80188        -2.83443         1.64072
| 75>    H        1.95628        -1.59086         2.84186
| 76>    H        4.13491         0.48066         3.38295
| 77>    H        2.42234         0.62095         3.79318
| 78>    H        5.89824         8.43959       -13.48209
| 79>    H        5.29446         7.51126        -8.36810
| 80>    H        3.61701         7.13798        -8.76927
| 81>    H        4.01949         9.48313        -7.84102
| 82>    H        6.17172         9.87352        -9.07414
| 83>    H        4.98674        11.16246        -9.33333
| 84>    H        6.17273        10.36010       -11.45488
| 85>    H        4.41777        10.35801       -11.52715
| 86>    H        4.30728         4.10401       -12.79573
| 87>    H        3.65894         1.57854       -11.85469
| 88>    H        4.93348         3.68711        -3.08844
| 89>    H        3.25846         4.21258        -3.09170
| 90>    H        5.04390         6.05193        -2.93794
| 91>    H        6.50925         5.12673        -4.73764
| 92>    H        6.03953         6.80039        -5.06553
| 93>    H        5.86323         5.26543        -7.07884
| 94>    H        4.38374         6.12729        -6.68394
| 95>    H        2.12161        -0.10532        -6.00929
| 96> *
| 97>
| 98>                          ****END OF INPUT****

CARTESIAN COORDINATES (ANGSTROEM)
---------------------------------
  O      0.711610   -1.418700   -1.198250
  C      1.118920   -1.291050   -2.326500
  O      0.791990   -2.167070   -3.278390
  C      1.963820   -0.163660   -2.755850
  C      2.507850    0.849000   -1.973630
  C      2.594770    1.084460   -0.564290
  S      2.475420    2.744480   -0.039060
  C      2.689660    2.272450    1.592050
  C      2.869940    0.929550    1.730860
  C      2.829510    0.237480    0.493230
  C      3.069640   -1.230600    0.408900
  C      3.767510   -1.743740    1.664460
  C      2.998980   -1.266790    2.899290
  N      3.595160   -1.924120    4.085210
  O      2.962580   -2.810960    4.602790
  O      4.688680   -1.549200    4.436120
  C      3.120660    0.247440    3.040320
  O      3.042720    1.799970   -2.760830
  C      2.881680    1.435830   -4.062800
  C      3.359940    2.281500   -5.106060
  S      3.243470    1.780730   -6.766890
  C      3.983560    3.259240   -7.298340
  C      4.119760    3.575020   -8.676950
  O      4.501300    4.824470   -9.012330
  C      4.558060    4.918520  -10.372710
  C      4.903360    6.162830  -10.992070
  S      5.419920    6.207420  -12.658670
  C      5.585440    7.915620  -12.601610
  C      5.274240    8.425670  -11.380350
  C      4.882060    7.426960  -10.452720
  C      4.475310    7.750530   -9.050960
  C      4.139630    9.226020   -8.898970
  N      2.837250    9.543830   -9.546750
  O      2.464340   10.688440   -9.458770
  O      2.247430    8.659100  -10.114190
  C      5.212180   10.114370   -9.534240
  C      5.279550    9.885310  -11.044560
  C      4.213680    3.700680  -10.919210
  O      4.137820    3.343040  -12.225420
  C      3.915460    2.822630   -9.836800
  C      3.472620    1.435400   -9.946950
  O      3.164130    0.759470   -8.988060
  O      3.413580    0.926550  -11.175050
  C      4.338130    4.058760   -6.218340
  C      3.965070    3.519730   -4.979050
  C      4.182890    4.223120   -3.674140
  C      4.637050    5.664750   -3.880070
  N      3.463150    6.543040   -4.168310
  O      3.626720    7.458750   -4.940410
  O      2.437690    6.307600   -3.583380
  C      5.670910    5.776550   -4.992390
  C      5.071800    5.354740   -6.333380
  C      2.228840    0.216540   -4.106310
  O      1.875330   -0.530040   -5.176150
  H      1.121200   -1.899980   -4.154230
  H      2.676080    3.015610    2.364500
  H      3.662470   -1.463610   -0.477690
  H      2.104340   -1.731340    0.286880
  H      4.791140   -1.365610    1.717560
  H      3.801880   -2.834430    1.640720
  H      1.956280   -1.590860    2.841860
  H      4.134910    0.480660    3.382950
  H      2.422340    0.620950    3.793180
  H      5.898240    8.439590  -13.482090
  H      5.294460    7.511260   -8.368100
  H      3.617010    7.137980   -8.769270
  H      4.019490    9.483130   -7.841020
  H      6.171720    9.873520   -9.074140
  H      4.986740   11.162460   -9.333330
  H      6.172730   10.360100  -11.454880
  H      4.417770   10.358010  -11.527150
  H      4.307280    4.104010  -12.795730
  H      3.658940    1.578540  -11.854690
  H      4.933480    3.687110   -3.088440
  H      3.258460    4.212580   -3.091700
  H      5.043900    6.051930   -2.937940
  H      6.509250    5.126730   -4.737640
  H      6.039530    6.800390   -5.065530
  H      5.863230    5.265430   -7.078840
  H      4.383740    6.127290   -6.683940
  H      2.121610   -0.105320   -6.009290

 Total Charge           Charge          ....    0
 Multiplicity           Mult            ....    1
 Number of Electrons    NEL             ....  412
 Basis Dimension        Dim             ....  903

ORBITAL ENERGIES
----------------

  NO   OCC          E(Eh)            E(eV)
   0   2.0000     -88.975678     -2421.1513
   1   2.0000     -88.971343     -2421.0333
   2   2.0000     -88.958118     -2420.6734
   3   2.0000     -19.317006      -525.6425
   4   2.0000     -19.310023      -525.4524
   5   2.0000     -19.293205      -524.9948
   6   2.0000     -19.285120      -524.7748
   7   2.0000     -19.256868      -524.0060
   8   2.0000     -19.254339      -523.9372
   9   2.0000     -19.254087      -523.9303
  10   2.0000     -19.250409      -523.8303
  11   2.0000     -19.245894      -523.7074
  12   2.0000     -19.244757      -523.6765
  13   2.0000     -19.235714      -523.4304
  14   2.0000     -19.235550      -523.4259
  15   2.0000     -19.204440      -522.5794
  16   2.0000     -19.189529      -522.1736
  17   2.0000     -14.650934      -398.6722
  18   2.0000     -14.644988      -398.5104
  19   2.0000     -14.632679      -398.1754
  20   2.0000     -10.413428      -283.3638
  21   2.0000     -10.400314      -283.0069
  22   2.0000     -10.373181      -282.2686
  23   2.0000     -10.363402      -282.0025
  24   2.0000     -10.361971      -281.9636
  25   2.0000     -10.357590      -281.8443
  26   2.0000     -10.350151      -281.6419
  27   2.0000     -10.344530      -281.4890
  28   2.0000     -10.338789      -281.3328
  29   2.0000     -10.335718      -281.2492
  30   2.0000     -10.321792      -280.8702
  31   2.0000     -10.320586      -280.8374
  32   2.0000     -10.315894      -280.7097
  33   2.0000     -10.313952      -280.6569
  34   2.0000     -10.304242      -280.3927
  35   2.0000     -10.303937      -280.3844
  36   2.0000     -10.298949      -280.2487
  37   2.0000     -10.296878      -280.1923
  38   2.0000     -10.294970      -280.1404
  39   2.0000     -10.294293      -280.1219
  40   2.0000     -10.293928      -280.1120
  41   2.0000     -10.292600      -280.0759
  42   2.0000     -10.292384      -280.0700
  43   2.0000     -10.291428      -280.0440
  44   2.0000     -10.291312      -280.0408
  45   2.0000     -10.290513      -280.0191
  46   2.0000     -10.289645      -279.9955
  47   2.0000     -10.288375      -279.9609
  48   2.0000     -10.285135      -279.8728
  49   2.0000     -10.284070      -279.8438
  50   2.0000     -10.283470      -279.8274
  51   2.0000     -10.281124      -279.7636
  52   2.0000     -10.278542      -279.6934
  53   2.0000     -10.268074      -279.4085
  54   2.0000      -8.071358      -219.6328
  55   2.0000      -8.064389      -219.4432
  56   2.0000      -8.053825      -219.1557
  57   2.0000      -6.040819      -164.3790
  58   2.0000      -6.036598      -164.2642
  59   2.0000      -6.034171      -164.1981
  60   2.0000      -6.033364      -164.1762
  61   2.0000      -6.029668      -164.0756
  62   2.0000      -6.026117      -163.9790
  63   2.0000      -6.023139      -163.8979
  64   2.0000      -6.018817      -163.7803
  65   2.0000      -6.016046      -163.7049
  66   2.0000      -1.334912       -36.3248
  67   2.0000      -1.329330       -36.1729
  68   2.0000      -1.316201       -35.8156
  69   2.0000      -1.235780       -33.6273
  70   2.0000      -1.231314       -33.5058
  71   2.0000      -1.191853       -32.4320
  72   2.0000      -1.181360       -32.1464
  73   2.0000      -1.177595       -32.0440
  74   2.0000      -1.167155       -31.7599
  75   2.0000      -1.155300       -31.4373
  76   2.0000      -1.149788       -31.2873
  77   2.0000      -1.136312       -30.9206
  78   2.0000      -1.100224       -29.9386
  79   2.0000      -1.086236       -29.5580
  80   2.0000      -1.007466       -27.4145
  81   2.0000      -1.004290       -27.3281
  82   2.0000      -0.993262       -27.0280
  83   2.0000      -0.959259       -26.1028
  84   2.0000      -0.958342       -26.0778
  85   2.0000      -0.945892       -25.7390
  86   2.0000      -0.924451       -25.1556
  87   2.0000      -0.917652       -24.9706
  88   2.0000      -0.915576       -24.9141
  89   2.0000      -0.897257       -24.4156
  90   2.0000      -0.878960       -23.9177
  91   2.0000      -0.874340       -23.7920
  92   2.0000      -0.869439       -23.6586
  93   2.0000      -0.863250       -23.4902
  94   2.0000      -0.854545       -23.2533
  95   2.0000      -0.846106       -23.0237
  96   2.0000      -0.827412       -22.5150
  97   2.0000      -0.809331       -22.0230
  98   2.0000      -0.794978       -21.6325
  99   2.0000      -0.784298       -21.3418
 100   2.0000      -0.774607       -21.0781
 101   2.0000      -0.765357       -20.8264
 102   2.0000      -0.755460       -20.5571
 103   2.0000      -0.744902       -20.2698
 104   2.0000      -0.739354       -20.1188
 105   2.0000      -0.739038       -20.1103
 106   2.0000      -0.726520       -19.7696
 107   2.0000      -0.724905       -19.7257
 108   2.0000      -0.718726       -19.5575
 109   2.0000      -0.712455       -19.3869
 110   2.0000      -0.708033       -19.2666
 111   2.0000      -0.695001       -18.9120
 112   2.0000      -0.687292       -18.7022
 113   2.0000      -0.671315       -18.2674
 114   2.0000      -0.667110       -18.1530
 115   2.0000      -0.660121       -17.9628
 116   2.0000      -0.650924       -17.7125
 117   2.0000      -0.650692       -17.7062
 118   2.0000      -0.649005       -17.6603
 119   2.0000      -0.646347       -17.5880
 120   2.0000      -0.643510       -17.5108
 121   2.0000      -0.628184       -17.0937
 122   2.0000      -0.621290       -16.9062
 123   2.0000      -0.619063       -16.8456
 124   2.0000      -0.617912       -16.8142
 125   2.0000      -0.615441       -16.7470
 126   2.0000      -0.606270       -16.4974
 127   2.0000      -0.601201       -16.3595
 128   2.0000      -0.598224       -16.2785
 129   2.0000      -0.596854       -16.2412
 130   2.0000      -0.594105       -16.1664
 131   2.0000      -0.591475       -16.0948
 132   2.0000      -0.586957       -15.9719
 133   2.0000      -0.581336       -15.8190
 134   2.0000      -0.577842       -15.7239
 135   2.0000      -0.576393       -15.6844
 136   2.0000      -0.574529       -15.6337
 137   2.0000      -0.569335       -15.4924
 138   2.0000      -0.552708       -15.0400
 139   2.0000      -0.549044       -14.9402
 140   2.0000      -0.546383       -14.8678
 141   2.0000      -0.545124       -14.8336
 142   2.0000      -0.538171       -14.6444
 143   2.0000      -0.536198       -14.5907
 144   2.0000      -0.534470       -14.5437
 145   2.0000      -0.532017       -14.4769
 146   2.0000      -0.530409       -14.4332
 147   2.0000      -0.527241       -14.3470
 148   2.0000      -0.523777       -14.2527
 149   2.0000      -0.520836       -14.1727
 150   2.0000      -0.519038       -14.1237
 151   2.0000      -0.515788       -14.0353
 152   2.0000      -0.513078       -13.9616
 153   2.0000      -0.509699       -13.8696
 154   2.0000      -0.508419       -13.8348
 155   2.0000      -0.505744       -13.7620
 156   2.0000      -0.503414       -13.6986
 157   2.0000      -0.498280       -13.5589
 158   2.0000      -0.496364       -13.5067
 159   2.0000      -0.494533       -13.4569
 160   2.0000      -0.491224       -13.3669
 161   2.0000      -0.486537       -13.2393
 162   2.0000      -0.485660       -13.2155
 163   2.0000      -0.481643       -13.1062
 164   2.0000      -0.478642       -13.0245
 165   2.0000      -0.474935       -12.9236
 166   2.0000      -0.471679       -12.8351
 167   2.0000      -0.466204       -12.6861
 168   2.0000      -0.458283       -12.4705
 169   2.0000      -0.453623       -12.3437
 170   2.0000      -0.450939       -12.2707
 171   2.0000      -0.446923       -12.1614
 172   2.0000      -0.442433       -12.0392
 173   2.0000      -0.439427       -11.9574
 174   2.0000      -0.435158       -11.8412
 175   2.0000      -0.427117       -11.6224
 176   2.0000      -0.425943       -11.5905
 177   2.0000      -0.425462       -11.5774
 178   2.0000      -0.418720       -11.3940
 179   2.0000      -0.418018       -11.3748
 180   2.0000      -0.417482       -11.3603
 181   2.0000      -0.414565       -11.2809
 182   2.0000      -0.407719       -11.0946
 183   2.0000      -0.400153       -10.8887
 184   2.0000      -0.392297       -10.6750
 185   2.0000      -0.389324       -10.5941
 186   2.0000      -0.387601       -10.5472
 187   2.0000      -0.384465       -10.4618
 188   2.0000      -0.382649       -10.4124
 189   2.0000      -0.381638       -10.3849
 190   2.0000      -0.376946       -10.2572
 191   2.0000      -0.374259       -10.1841
 192   2.0000      -0.371980       -10.1221
 193   2.0000      -0.369468       -10.0537
 194   2.0000      -0.359987        -9.7958
 195   2.0000      -0.358813        -9.7638
 196   2.0000      -0.355204        -9.6656
 197   2.0000      -0.351699        -9.5702
 198   2.0000      -0.346328        -9.4241
 199   2.0000      -0.345086        -9.3903
 200   2.0000      -0.325435        -8.8555
 201   2.0000      -0.321167        -8.7394
 202   2.0000      -0.313143        -8.5211
 203   2.0000      -0.308920        -8.4061
 204   2.0000      -0.279072        -7.5939
 205   2.0000      -0.241276        -6.5654
 206   0.0000      -0.056752        -1.5443
 207   0.0000      -0.026581        -0.7233
 208   0.0000      -0.022858        -0.6220
 209   0.0000      -0.019870        -0.5407
 210   0.0000      -0.010140        -0.2759

MULLIKEN ATOMIC CHARGES
-----------------------
   0 O :   -0.196085
   1 C :    0.150043
   2 O :   -0.153061
   3 C :   -0.097367
   4 C :    0.130409
   5 C :   -0.209353
   6 S :    0.144398
   7 C :   -0.116032
   8 C :   -0.090877
   9 C :   -0.006776
  10 C :    0.133558
  11 C :    0.052621
  12 C :   -0.021838
  13 N :    0.211387
  14 O :   -0.230581
  15 O :   -0.240014
  16 C :    0.199427
  17 O :   -0.215218
  18 C :    0.100554
  19 C :   -0.084202
  20 S :    0.108786
  21 C :   -0.131798
  22 C :    0.148229
  23 O :   -0.227585
  24 C :    0.123924
  25 C :   -0.176195
  26 S :    0.068695
  27 C :   -0.118059
  28 C :   -0.050546
  29 C :   -0.055797
  30 C :    0.194888
  31 C :   -0.030329
  32 N :    0.208039
  33 O :   -0.233867
  34 O :   -0.217168
  35 C :    0.038726
  36 C :    0.111751
  37 C :    0.062033
  38 O :   -0.218832
  39 C :   -0.125064
  40 C :    0.180622
  41 O :   -0.223680
  42 O :   -0.147186
  43 C :   -0.084467
  44 C :   -0.138165
  45 C :    0.195955
  46 C :   -0.016565
  47 N :    0.211219
  48 O :   -0.238212
  49 O :   -0.214675
  50 C :    0.080804
  51 C :    0.098769
  52 C :    0.063795
  53 O :   -0.208253
  54 H :    0.185489
  55 H :    0.016122
  56 H :    0.006904
  57 H :    0.066071
  58 H :    0.023080
  59 H :    0.021292
  60 H :    0.031775
  61 H :    0.042803
  62 H :    0.023612
  63 H :    0.017141
  64 H :    0.031823
  65 H :    0.046177
  66 H :    0.056068
  67 H :    0.023150
  68 H :    0.037014
  69 H :    0.019476
  70 H :    0.040782
  71 H :    0.193434
  72 H :    0.185989
  73 H :    0.025280
  74 H :    0.048138
  75 H :    0.050175
  76 H :    0.021871
  77 H :    0.014701
  78 H :    0.024494
  79 H :    0.040372
  80 H :    0.205980
Sum of atomic charges:   -0.0000000

LOEWDIN ATOMIC CHARGES
----------------------
   0 O :   -0.168929
   1 C :    0.083527
   2 O :   -0.026180
   3 C :   -0.145660
   4 C :    0.063016
   5 C :   -0.201959
   6 S :    0.450560
   7 C :   -0.181033
   8 C :   -0.066724
   9 C :   -0.028306
  10 C :   -0.029196
  11 C :   -0.021205
  12 C :    0.012347
  13 N :    0.274338
  14 O :   -0.198813
  15 O :   -0.207210
  16 C :   -0.024174
  17 O :    0.022861
  18 C :   -0.039584
  19 C :   -0.179559
  20 S :    0.496232
  21 C :   -0.207283
  22 C :    0.071896
  23 O :    0.026526
  24 C :   -0.036839
  25 C :   -0.187387
  26 S :    0.421463
  27 C :   -0.188650
  28 C :   -0.058064
  29 C :   -0.055983
  30 C :   -0.029806
  31 C :    0.009660
  32 N :    0.271905
  33 O :   -0.203278
  34 O :   -0.186943
  35 C :   -0.022640
  36 C :   -0.027348
  37 C :    0.020047
  38 O :   -0.043434
  39 C :   -0.158046
  40 C :    0.087356
  41 O :   -0.202812
  42 O :   -0.019167
  43 C :   -0.034821
  44 C :   -0.071760
  45 C :   -0.029677
  46 C :    0.010046
  47 N :    0.272889
  48 O :   -0.205234
  49 O :   -0.183728
  50 C :   -0.028222
  51 C :   -0.036334
  52 C :    0.024794
  53 O :   -0.035592
  54 H :    0.076266
  55 H :    0.024098
  56 H :    0.034473
  57 H :    0.043874
  58 H :    0.028511
  59 H :    0.033330
  60 H :    0.037875
  61 H :    0.040978
  62 H :    0.038284
  63 H :    0.024799
  64 H :    0.041952
  65 H :    0.039654
  66 H :    0.049664
  67 H :    0.033713
  68 H :    0.036230
  69 H :    0.038728
  70 H :    0.039666
  71 H :    0.073227
  72 H :    0.077883
  73 H :    0.041317
  74 H :    0.038559
  75 H :    0.048923
  76 H :    0.034995
  77 H :    0.031137
  78 H :    0.033519
  79 H :    0.032789
  80 H :    0.077677

  Mayer bond orders larger than 0.100000
B(  0-O ,  1-C ) :   2.0948 B(  1-C ,  2-O ) :   1.2959 B(  1-C ,  3-C ) :   0.9071
B(  2-O , 54-H ) :   0.9258 B(  3-C ,  4-C ) :   1.4717 B(  3-C , 52-C ) :   1.1761
B(  4-C ,  5-C ) :   1.0602 B(  4-C , 17-O ) :   1.1843 B(  4-C , 18-C ) :   0.1194
B(  5-C ,  6-S ) :   1.1339 B(  5-C ,  7-C ) :   0.1058 B(  5-C ,  9-C ) :   1.5611
B(  6-S ,  7-C ) :   1.1632 B(  7-C ,  8-C ) :   1.5758 B(  7-C , 55-H ) :   0.9722
B(  8-C ,  9-C ) :   1.2896 B(  8-C , 16-C ) :   1.0131 B(  9-C , 10-C ) :   1.0695
B( 10-C , 11-C ) :   1.0887 B( 10-C , 56-H ) :   0.9059 B( 10-C , 57-H ) :   0.8781
B( 11-C , 12-C ) :   1.0390 B( 11-C , 58-H ) :   0.9309 B( 11-C , 59-H ) :   0.9294
B( 12-C , 13-N ) :   0.8374 B( 12-C , 16-C ) :   1.0316 B( 12-C , 60-H ) :   0.9279
B( 13-N , 14-O ) :   1.5728 B( 13-N , 15-O ) :   1.5499 B( 14-O , 15-O ) :   0.2708
B( 16-C , 61-H ) :   0.8973 B( 16-C , 62-H ) :   0.9188 B( 17-O , 18-C ) :   1.0909
B( 18-C , 19-C ) :   1.1100 B( 18-C , 52-C ) :   1.4426 B( 19-C , 20-S ) :   1.0758
B( 19-C , 21-C ) :   0.1172 B( 19-C , 44-C ) :   1.4973 B( 20-S , 21-C ) :   1.1274
B( 21-C , 22-C ) :   1.1422 B( 21-C , 43-C ) :   1.4689 B( 22-C , 23-O ) :   1.1867
B( 22-C , 24-C ) :   0.1123 B( 22-C , 39-C ) :   1.4135 B( 23-O , 24-C ) :   1.0729
B( 24-C , 25-C ) :   1.0631 B( 24-C , 37-C ) :   1.4763 B( 25-C , 26-S ) :   1.1209
B( 25-C , 27-C ) :   0.1050 B( 25-C , 29-C ) :   1.5644 B( 26-S , 27-C ) :   1.1230
B( 27-C , 28-C ) :   1.5971 B( 27-C , 63-H ) :   0.9729 B( 28-C , 29-C ) :   1.2763
B( 28-C , 36-C ) :   1.0194 B( 29-C , 30-C ) :   1.0255 B( 30-C , 31-C ) :   1.0428
B( 30-C , 64-H ) :   0.8978 B( 30-C , 65-H ) :   0.8947 B( 31-C , 32-N ) :   0.8311
B( 31-C , 35-C ) :   1.0512 B( 31-C , 66-H ) :   0.9162 B( 32-N , 33-O ) :   1.5506
B( 32-N , 34-O ) :   1.5940 B( 33-O , 34-O ) :   0.2729 B( 35-C , 36-C ) :   1.0845
B( 35-C , 67-H ) :   0.9478 B( 35-C , 68-H ) :   0.9273 B( 36-C , 69-H ) :   0.9221
B( 36-C , 70-H ) :   0.9171 B( 37-C , 38-O ) :   1.1644 B( 37-C , 39-C ) :   1.1746
B( 38-O , 71-H ) :   0.9301 B( 39-C , 40-C ) :   0.9368 B( 40-C , 41-O ) :   2.0299
B( 40-C , 42-O ) :   1.3221 B( 42-O , 72-H ) :   0.9247 B( 43-C , 44-C ) :   1.3346
B( 43-C , 51-C ) :   1.0513 B( 44-C , 45-C ) :   1.0388 B( 45-C , 46-C ) :   1.0418
B( 45-C , 73-H ) :   0.8983 B( 45-C , 74-H ) :   0.8950 B( 46-C , 47-N ) :   0.8254
B( 46-C , 50-C ) :   1.0608 B( 46-C , 75-H ) :   0.9086 B( 47-N , 48-O ) :   1.5544
B( 47-N , 49-O ) :   1.5839 B( 48-O , 49-O ) :   0.2685 B( 50-C , 51-C ) :   1.0698
B( 50-C , 76-H ) :   0.9366 B( 50-C , 77-H ) :   0.9132 B( 51-C , 78-H ) :   0.9086
B( 51-C , 79-H ) :   0.8979 B( 52-C , 53-O ) :   1.1845 B( 53-O , 80-H ) :   0.9278

-----------------------------------------------------------------------------
         ABSORPTION SPECTRUM VIA TRANSITION ELECTRIC DIPOLE MOMENTS
-----------------------------------------------------------------------------
State   Energy  Wavelength   fosc         T2         TX        TY        TZ
        (cm-1)    (nm)                  (au**2)     (au)      (au)      (au)
-----------------------------------------------------------------------------
   0   23410.9    427.2   1.357838609  19.09442   0.83683   1.70622  -3.93484
   1   29114.7    343.5   0.045298803   0.51221  -0.07513  -0.25193   0.66566
   2   31752.6    314.9   0.090595669   0.93930  -0.21026  -0.67724  -0.66063
   3   32255.4    310.0   0.018851546   0.19241  -0.03289  -0.15827  -0.40777
   4   32331.9    309.3   0.018916373   0.19261   0.02819  -0.31572  -0.30354
   5   34125.0    293.0   0.182049092   1.75627   0.29141   1.27285  -0.22627
   6   37859.9    264.1   0.000243721   0.00212   0.01852  -0.02183  -0.03605
   7   38536.2    259.5   0.024891369   0.21265  -0.16542  -0.25373   0.34771
   8   39349.3    254.1   0.036531875   0.30564   0.11517   0.48959   0.22951
   9   40000.1    250.0   0.001175139   0.00967   0.02390   0.04575   0.08371
  10   40173.4    248.9   0.024652453   0.20202   0.18599   0.20239   0.35562

FINAL SINGLE POINT ENERGY     -3720.258833636161

DIPOLE MOMENT
-------------
                                X             Y             Z
Electronic contribution:    -13.70255     -15.90965     -13.22609
Nuclear contribution   :     16.94742      18.82257      10.54429
                        -----------------------------------------
Total Dipole Moment    :      3.24487       2.91293      -2.68180
                        -----------------------------------------
Magnitude (a.u.)       :      5.11922
Magnitude (Debye)      :     13.01202

Rotational constants in cm-1:     0.003248     0.000614     0.000543
Rotational constants in MHz :    97.377975    18.410875    16.285789

                             ****ORCA TERMINATED NORMALLY****
TOTAL RUN TIME: 0 days 0 hours 14 minutes 11 seconds 629 msec
