                         Program Version 4.2.0 -  RELEASE  -
|  1> # ORCA input file
|  2> # SCF done       -167.914013858774          0.000239925889
|  3> ! CAM-B3LYP def2-SVP def2/J RIJCOSX Grid4 TightSCF
|  4> %maxcore 5000
|  5> %tddft
|  6>     Mode sTDDFT
|  7>     Ethresh 5.0
|  8>     maxcore 5000
|  9> end
| 10>
| 11> %pal
| 12>   nprocs 6
| 13>   end
| 14> * xyz 0 1
| 15>    C        1.50781        -0.09212         0.77176
| 16>    C        2.72674         0.28867         0.38903
| 17>    C        3.94569        -0.33143         0.80550
| 18>    S        4.02141        -1.68437         1.88024
| 19>    C        5.75227        -1.75690         1.83027
| 20>    C        6.46588        -2.73801         2.57116
| 21>    N        7.79243        -2.76901         2.51864
| 22>    N        8.50888        -3.63844         3.15564
| 23>    C        7.99568        -4.57033         3.94841
| 24>    C        8.84881        -5.47564         4.64849
| 25>    S        8.18040        -6.60740         5.77299
| 26>    C        9.75994        -7.18694         6.17532
| 27>    C        9.92456        -8.18529         7.18143
| 28>    N       11.13857        -8.55740         7.56618
| 29>    N       11.34986        -9.43220         8.49803
| 30>    C       10.38150       -10.06847         9.14564
| 31>    C       10.70303       -11.02690        10.15631
| 32>    C       11.97398       -11.33569        10.50197
| 33>    C       12.34000       -12.26910        11.49714
| 34>    S       11.20025       -13.18231        12.44007
| 35>    C       12.42532       -13.98612        13.32239
| 36>    C       13.67937       -13.58573        12.92845
| 37>    N       14.86340       -14.02987        13.42794
| 38>    C       15.93569       -13.50890        12.90339
| 39>    O       17.14911       -13.85841        13.33370
| 40>    C       17.21574       -14.83123        14.37284
| 41>    C       16.97706       -16.24223        13.85379
| 42>    C       15.89700       -12.51981        11.84440
| 43>    C       17.17999       -11.96907        11.28296
| 44>    N       17.01931       -10.98724        10.23400
| 45>    N       14.77123       -12.08968        11.35851
| 46>    C       13.63666       -12.60513        11.88413
| 47>    C        9.02632        -9.76535         8.81912
| 48>    N        7.89484       -10.25133         9.31991
| 49>    S        6.65587        -9.52695         8.58643
| 50>    N        7.49762        -8.56694         7.60294
| 51>    C        8.79074        -8.77908         7.81170
| 52>    C       10.75994        -6.56557         5.42605
| 53>    C       10.23648        -5.58188         4.54990
| 54>    O       10.87998        -4.84737         3.61449
| 55>    C       12.17300        -4.35314         3.88040
| 56>    C       13.23019        -5.43931         4.07069
| 57>    C       13.10781        -6.11407         5.43552
| 58>    O       12.02922        -7.01587         5.53905
| 59>    C        6.57932        -4.63332         4.10806
| 60>    N        5.83994        -5.45840         4.83861
| 61>    S        4.28702        -5.08461         4.62825
| 62>    N        4.48581        -3.85566         3.60031
| 63>    C        5.78541        -3.69326         3.38357
| 64>    C        6.25729        -0.75623         0.99876
| 65>    N        7.55789        -0.52595         0.73218
| 66>    C        7.81735         0.46450        -0.07712
| 67>    O        9.07684         0.75212        -0.39121
| 68>    C       10.07311        -0.08034         0.20550
| 69>    C       11.42935         0.37776        -0.29761
| 70>    C        6.78500         1.28725        -0.66694
| 71>    C        7.15724         2.41643        -1.59028
| 72>    N        6.04075         3.16141        -2.12963
| 73>    N        5.52725         1.07353        -0.41606
| 74>    C        5.22970         0.04897         0.42029
| 75>    H        0.62400         0.41306         0.42559
| 76>    H        1.36712        -0.92251         1.44393
| 77>    H        2.86738         1.12247        -0.28603
| 78>    H        9.86204       -11.50144        10.64430
| 79>    H       12.79153       -10.84294         9.99383
| 80>    H       12.16848       -14.70101        14.07727
| 81>    H       16.47730       -14.58356        15.14198
| 82>    H       18.22562       -14.72994        14.77682
| 83>    H       15.96231       -16.32973        13.47510
| 84>    H       17.11518       -16.95420        14.66221
| 85>    H       17.67714       -16.47211        13.05419
| 86>    H       17.77668       -12.80408        10.89871
| 87>    H       17.75300       -11.52186        12.10310
| 88>    H       16.49206       -11.39347         9.46732
| 89>    H       16.46563       -10.20963        10.57980
| 90>    H       12.40200        -3.74626         3.00149
| 91>    H       12.15128        -3.69850         4.76452
| 92>    H       14.21873        -4.98636         3.99032
| 93>    H       13.12449        -6.18929         3.28449
| 94>    H       13.98316        -6.73633         5.63441
| 95>    H       13.03403        -5.34831         6.22211
| 96>    H        9.87149        -1.12317        -0.06043
| 97>    H        9.99618        -0.00029         1.29492
| 98>    H       11.47757         0.29115        -1.37992
| 99>    H       12.20742        -0.23811         0.14322
|100>    H       11.60032         1.41622        -0.02610
|101>    H        7.74441         2.00710        -2.41963
|102>    H        7.81289         3.10594        -1.04686
|103>    H        5.43067         2.53097        -2.64066
|104>    H        5.48901         3.54005        -1.36603
|105> *
|106>
|107>                          ****END OF INPUT****

CARTESIAN COORDINATES (ANGSTROEM)
---------------------------------
  C      1.507810   -0.092120    0.771760
  C      2.726740    0.288670    0.389030
  C      3.945690   -0.331430    0.805500
  S      4.021410   -1.684370    1.880240
  C      5.752270   -1.756900    1.830270
  C      6.465880   -2.738010    2.571160
  N      7.792430   -2.769010    2.518640
  N      8.508880   -3.638440    3.155640
  C      7.995680   -4.570330    3.948410
  C      8.848810   -5.475640    4.648490
  S      8.180400   -6.607400    5.772990
  C      9.759940   -7.186940    6.175320
  C      9.924560   -8.185290    7.181430
  N     11.138570   -8.557400    7.566180
  N     11.349860   -9.432200    8.498030
  C     10.381500  -10.068470    9.145640
  C     10.703030  -11.026900   10.156310
  C     11.973980  -11.335690   10.501970
  C     12.340000  -12.269100   11.497140
  S     11.200250  -13.182310   12.440070
  C     12.425320  -13.986120   13.322390
  C     13.679370  -13.585730   12.928450
  N     14.863400  -14.029870   13.427940
  C     15.935690  -13.508900   12.903390
  O     17.149110  -13.858410   13.333700
  C     17.215740  -14.831230   14.372840
  C     16.977060  -16.242230   13.853790
  C     15.897000  -12.519810   11.844400
  C     17.179990  -11.969070   11.282960
  N     17.019310  -10.987240   10.234000
  N     14.771230  -12.089680   11.358510
  C     13.636660  -12.605130   11.884130
  C      9.026320   -9.765350    8.819120
  N      7.894840  -10.251330    9.319910
  S      6.655870   -9.526950    8.586430
  N      7.497620   -8.566940    7.602940
  C      8.790740   -8.779080    7.811700
  C     10.759940   -6.565570    5.426050
  C     10.236480   -5.581880    4.549900
  O     10.879980   -4.847370    3.614490
  C     12.173000   -4.353140    3.880400
  C     13.230190   -5.439310    4.070690
  C     13.107810   -6.114070    5.435520
  O     12.029220   -7.015870    5.539050
  C      6.579320   -4.633320    4.108060
  N      5.839940   -5.458400    4.838610
  S      4.287020   -5.084610    4.628250
  N      4.485810   -3.855660    3.600310
  C      5.785410   -3.693260    3.383570
  C      6.257290   -0.756230    0.998760
  N      7.557890   -0.525950    0.732180
  C      7.817350    0.464500   -0.077120
  O      9.076840    0.752120   -0.391210
  C     10.073110   -0.080340    0.205500
  C     11.429350    0.377760   -0.297610
  C      6.785000    1.287250   -0.666940
  C      7.157240    2.416430   -1.590280
  N      6.040750    3.161410   -2.129630
  N      5.527250    1.073530   -0.416060
  C      5.229700    0.048970    0.420290
  H      0.624000    0.413060    0.425590
  H      1.367120   -0.922510    1.443930
  H      2.867380    1.122470   -0.286030
  H      9.862040  -11.501440   10.644300
  H     12.791530  -10.842940    9.993830
  H     12.168480  -14.701010   14.077270
  H     16.477300  -14.583560   15.141980
  H     18.225620  -14.729940   14.776820
  H     15.962310  -16.329730   13.475100
  H     17.115180  -16.954200   14.662210
  H     17.677140  -16.472110   13.054190
  H     17.776680  -12.804080   10.898710
  H     17.753000  -11.521860   12.103100
  H     16.492060  -11.393470    9.467320
  H     16.465630  -10.209630   10.579800
  H     12.402000   -3.746260    3.001490
  H     12.151280   -3.698500    4.764520
  H     14.218730   -4.986360    3.990320
  H     13.124490   -6.189290    3.284490
  H     13.983160   -6.736330    5.634410
  H     13.034030   -5.348310    6.222110
  H      9.871490   -1.123170   -0.060430
  H      9.996180   -0.000290    1.294920
  H     11.477570    0.291150   -1.379920
  H     12.207420   -0.238110    0.143220
  H     11.600320    1.416220   -0.026100
  H      7.744410    2.007100   -2.419630
  H      7.812890    3.105940   -1.046860
  H      5.430670    2.530970   -2.640660
  H      5.489010    3.540050   -1.366030

 Total Charge           Charge          ....    0
 Multiplicity           Mult            ....    1
 Number of Electrons    NEL             ....  462
 Basis Dimension        Dim             .... 1010

ORBITAL ENERGIES
----------------

  NO   OCC          E(Eh)            E(eV)
   0   2.0000     -89.032482     -2422.6970
   1   2.0000     -89.030942     -2422.6551
   2   2.0000     -88.963953     -2420.8322
   3   2.0000     -88.958662     -2420.6883
   4   2.0000     -88.943805     -2420.2840
   5   2.0000     -19.257343      -524.0189
   6   2.0000     -19.252591      -523.8896
   7   2.0000     -19.232024      -523.3300
   8   2.0000     -19.231640      -523.3195
   9   2.0000     -14.449167      -393.1818
  10   2.0000     -14.448310      -393.1585
  11   2.0000     -14.446848      -393.1187
  12   2.0000     -14.446184      -393.1007
  13   2.0000     -14.421738      -392.4354
  14   2.0000     -14.419378      -392.3712
  15   2.0000     -14.418694      -392.3526
  16   2.0000     -14.418482      -392.3468
  17   2.0000     -14.418203      -392.3393
  18   2.0000     -14.416120      -392.2826
  19   2.0000     -14.409391      -392.0995
  20   2.0000     -14.398778      -391.8107
  21   2.0000     -14.369433      -391.0121
  22   2.0000     -14.368272      -390.9806
  23   2.0000     -10.371494      -282.2227
  24   2.0000     -10.365189      -282.0511
  25   2.0000     -10.329202      -281.0719
  26   2.0000     -10.328795      -281.0608
  27   2.0000     -10.327722      -281.0316
  28   2.0000     -10.327102      -281.0147
  29   2.0000     -10.325652      -280.9753
  30   2.0000     -10.325160      -280.9619
  31   2.0000     -10.320433      -280.8332
  32   2.0000     -10.320299      -280.8296
  33   2.0000     -10.319598      -280.8105
  34   2.0000     -10.318821      -280.7894
  35   2.0000     -10.317555      -280.7549
  36   2.0000     -10.317516      -280.7539
  37   2.0000     -10.316611      -280.7293
  38   2.0000     -10.313761      -280.6517
  39   2.0000     -10.313733      -280.6510
  40   2.0000     -10.309959      -280.5482
  41   2.0000     -10.304720      -280.4057
  42   2.0000     -10.304195      -280.3914
  43   2.0000     -10.301988      -280.3313
  44   2.0000     -10.298250      -280.2296
  45   2.0000     -10.298021      -280.2234
  46   2.0000     -10.297283      -280.2033
  47   2.0000     -10.293523      -280.1010
  48   2.0000     -10.291957      -280.0584
  49   2.0000     -10.288717      -279.9702
  50   2.0000     -10.288404      -279.9617
  51   2.0000     -10.285882      -279.8931
  52   2.0000     -10.284719      -279.8614
  53   2.0000     -10.278203      -279.6841
  54   2.0000     -10.275801      -279.6188
  55   2.0000     -10.267711      -279.3986
  56   2.0000     -10.267317      -279.3879
  57   2.0000     -10.264882      -279.3216
  58   2.0000     -10.256138      -279.0837
  59   2.0000     -10.254470      -279.0383
  60   2.0000      -8.124020      -221.0658
  61   2.0000      -8.122573      -221.0264
  62   2.0000      -8.058946      -219.2951
  63   2.0000      -8.052822      -219.1284
  64   2.0000      -8.037636      -218.7152
  65   2.0000      -6.095262      -165.8605
  66   2.0000      -6.093735      -165.8190
  67   2.0000      -6.087517      -165.6498
  68   2.0000      -6.086368      -165.6185
  69   2.0000      -6.086047      -165.6098
  70   2.0000      -6.085024      -165.5819
  71   2.0000      -6.027880      -164.0269
  72   2.0000      -6.023760      -163.9149
  73   2.0000      -6.021935      -163.8652
  74   2.0000      -6.021877      -163.8636
  75   2.0000      -6.017718      -163.7504
  76   2.0000      -6.015547      -163.6914
  77   2.0000      -6.007090      -163.4612
  78   2.0000      -6.002942      -163.3484
  79   2.0000      -5.999345      -163.2505
  80   2.0000      -1.173582       -31.9348
  81   2.0000      -1.169074       -31.8121
  82   2.0000      -1.151689       -31.3390
  83   2.0000      -1.135371       -30.8950
  84   2.0000      -1.133336       -30.8396
  85   2.0000      -1.130851       -30.7720
  86   2.0000      -1.099232       -29.9116
  87   2.0000      -1.099015       -29.9057
  88   2.0000      -1.067083       -29.0368
  89   2.0000      -1.063515       -28.9397
  90   2.0000      -0.998434       -27.1688
  91   2.0000      -0.998227       -27.1631
  92   2.0000      -0.992647       -27.0113
  93   2.0000      -0.989083       -26.9143
  94   2.0000      -0.973718       -26.4962
  95   2.0000      -0.971054       -26.4237
  96   2.0000      -0.968550       -26.3556
  97   2.0000      -0.947367       -25.7792
  98   2.0000      -0.946550       -25.7569
  99   2.0000      -0.927868       -25.2486
 100   2.0000      -0.917476       -24.9658
 101   2.0000      -0.909322       -24.7439
 102   2.0000      -0.901818       -24.5397
 103   2.0000      -0.875720       -23.8295
 104   2.0000      -0.874329       -23.7917
 105   2.0000      -0.871974       -23.7276
 106   2.0000      -0.865796       -23.5595
 107   2.0000      -0.862721       -23.4758
 108   2.0000      -0.836634       -22.7660
 109   2.0000      -0.828538       -22.5457
 110   2.0000      -0.825418       -22.4608
 111   2.0000      -0.810894       -22.0655
 112   2.0000      -0.806140       -21.9362
 113   2.0000      -0.799658       -21.7598
 114   2.0000      -0.780072       -21.2268
 115   2.0000      -0.779000       -21.1977
 116   2.0000      -0.774763       -21.0824
 117   2.0000      -0.770497       -20.9663
 118   2.0000      -0.754482       -20.5305
 119   2.0000      -0.740766       -20.1573
 120   2.0000      -0.733447       -19.9581
 121   2.0000      -0.731370       -19.9016
 122   2.0000      -0.725761       -19.7490
 123   2.0000      -0.719579       -19.5807
 124   2.0000      -0.703871       -19.1533
 125   2.0000      -0.693263       -18.8647
 126   2.0000      -0.689803       -18.7705
 127   2.0000      -0.686857       -18.6903
 128   2.0000      -0.682285       -18.5659
 129   2.0000      -0.676341       -18.4042
 130   2.0000      -0.673932       -18.3386
 131   2.0000      -0.658954       -17.9310
 132   2.0000      -0.649599       -17.6765
 133   2.0000      -0.649215       -17.6660
 134   2.0000      -0.642494       -17.4832
 135   2.0000      -0.634245       -17.2587
 136   2.0000      -0.630057       -17.1447
 137   2.0000      -0.620221       -16.8771
 138   2.0000      -0.616184       -16.7672
 139   2.0000      -0.611106       -16.6290
 140   2.0000      -0.606460       -16.5026
 141   2.0000      -0.604584       -16.4516
 142   2.0000      -0.596908       -16.2427
 143   2.0000      -0.588884       -16.0244
 144   2.0000      -0.581273       -15.8173
 145   2.0000      -0.576946       -15.6995
 146   2.0000      -0.575885       -15.6706
 147   2.0000      -0.573602       -15.6085
 148   2.0000      -0.571989       -15.5646
 149   2.0000      -0.567265       -15.4361
 150   2.0000      -0.561588       -15.2816
 151   2.0000      -0.560200       -15.2438
 152   2.0000      -0.558822       -15.2063
 153   2.0000      -0.546854       -14.8806
 154   2.0000      -0.537991       -14.6395
 155   2.0000      -0.537933       -14.6379
 156   2.0000      -0.535375       -14.5683
 157   2.0000      -0.531744       -14.4695
 158   2.0000      -0.527488       -14.3537
 159   2.0000      -0.526013       -14.3136
 160   2.0000      -0.524113       -14.2618
 161   2.0000      -0.519985       -14.1495
 162   2.0000      -0.519228       -14.1289
 163   2.0000      -0.516807       -14.0630
 164   2.0000      -0.510216       -13.8837
 165   2.0000      -0.507358       -13.8059
 166   2.0000      -0.505826       -13.7642
 167   2.0000      -0.500889       -13.6299
 168   2.0000      -0.493444       -13.4273
 169   2.0000      -0.491282       -13.3685
 170   2.0000      -0.490306       -13.3419
 171   2.0000      -0.488828       -13.3017
 172   2.0000      -0.484181       -13.1752
 173   2.0000      -0.482049       -13.1172
 174   2.0000      -0.479229       -13.0405
 175   2.0000      -0.478130       -13.0106
 176   2.0000      -0.476548       -12.9675
 177   2.0000      -0.476069       -12.9545
 178   2.0000      -0.472176       -12.8486
 179   2.0000      -0.466706       -12.6997
 180   2.0000      -0.465823       -12.6757
 181   2.0000      -0.460298       -12.5253
 182   2.0000      -0.457962       -12.4618
 183   2.0000      -0.455065       -12.3830
 184   2.0000      -0.454440       -12.3659
 185   2.0000      -0.451761       -12.2930
 186   2.0000      -0.449734       -12.2379
 187   2.0000      -0.446037       -12.1373
 188   2.0000      -0.442752       -12.0479
 189   2.0000      -0.440230       -11.9793
 190   2.0000      -0.435172       -11.8416
 191   2.0000      -0.430963       -11.7271
 192   2.0000      -0.422698       -11.5022
 193   2.0000      -0.420546       -11.4436
 194   2.0000      -0.419639       -11.4190
 195   2.0000      -0.416985       -11.3467
 196   2.0000      -0.415253       -11.2996
 197   2.0000      -0.411958       -11.2099
 198   2.0000      -0.407536       -11.0896
 199   2.0000      -0.406695       -11.0667
 200   2.0000      -0.404034       -10.9943
 201   2.0000      -0.401414       -10.9230
 202   2.0000      -0.398237       -10.8366
 203   2.0000      -0.395266       -10.7557
 204   2.0000      -0.389025       -10.5859
 205   2.0000      -0.385634       -10.4936
 206   2.0000      -0.384780       -10.4704
 207   2.0000      -0.381486       -10.3808
 208   2.0000      -0.377167       -10.2632
 209   2.0000      -0.373493       -10.1633
 210   2.0000      -0.368822       -10.0362
 211   2.0000      -0.366667        -9.9775
 212   2.0000      -0.362337        -9.8597
 213   2.0000      -0.360380        -9.8064
 214   2.0000      -0.359163        -9.7733
 215   2.0000      -0.353802        -9.6274
 216   2.0000      -0.350636        -9.5413
 217   2.0000      -0.342703        -9.3254
 218   2.0000      -0.325825        -8.8661
 219   2.0000      -0.324738        -8.8366
 220   2.0000      -0.319202        -8.6859
 221   2.0000      -0.298480        -8.1220
 222   2.0000      -0.298454        -8.1214
 223   2.0000      -0.297542        -8.0965
 224   2.0000      -0.293563        -7.9882
 225   2.0000      -0.280027        -7.6199
 226   2.0000      -0.279161        -7.5964
 227   2.0000      -0.273983        -7.4555
 228   2.0000      -0.268268        -7.2999
 229   2.0000      -0.250343        -6.8122
 230   2.0000      -0.226299        -6.1579
 231   0.0000      -0.091652        -2.4940
 232   0.0000      -0.071171        -1.9367
 233   0.0000      -0.042033        -1.1438
 234   0.0000      -0.036423        -0.9911
 235   0.0000       0.000074         0.0020

MULLIKEN ATOMIC CHARGES
-----------------------
   0 C :   -0.016465
   1 C :    0.003240
   2 C :   -0.143195
   3 S :    0.185137
   4 C :   -0.232320
   5 C :   -0.011990
   6 N :   -0.031665
   7 N :   -0.032767
   8 C :    0.001963
   9 C :   -0.152797
  10 S :    0.191885
  11 C :   -0.151459
  12 C :   -0.003776
  13 N :   -0.026819
  14 N :   -0.062865
  15 C :   -0.046818
  16 C :   -0.060615
  17 C :    0.038137
  18 C :   -0.141291
  19 S :    0.151300
  20 C :   -0.162195
  21 C :    0.084510
  22 N :   -0.041531
  23 C :    0.108340
  24 O :   -0.284691
  25 C :    0.186783
  26 C :   -0.026910
  27 C :   -0.198490
  28 C :    0.171062
  29 N :   -0.195794
  30 N :    0.010222
  31 C :    0.029843
  32 C :    0.059382
  33 N :   -0.256378
  34 S :    0.518273
  35 N :   -0.275137
  36 C :    0.003318
  37 C :    0.123666
  38 C :    0.122498
  39 O :   -0.273836
  40 C :    0.217495
  41 C :   -0.046922
  42 C :    0.215883
  43 O :   -0.273958
  44 C :    0.004588
  45 N :   -0.272532
  46 S :    0.524844
  47 N :   -0.279682
  48 C :    0.004894
  49 C :    0.063621
  50 N :    0.005655
  51 C :    0.108151
  52 O :   -0.285498
  53 C :    0.162568
  54 C :    0.017300
  55 C :   -0.197481
  56 C :    0.168378
  57 N :   -0.196458
  58 N :    0.000841
  59 C :    0.011865
  60 H :    0.026509
  61 H :    0.021864
  62 H :   -0.000972
  63 H :   -0.008709
  64 H :    0.017655
  65 H :    0.011113
  66 H :    0.022922
  67 H :    0.020800
  68 H :    0.034438
  69 H :    0.020780
  70 H :    0.022246
  71 H :    0.025374
  72 H :    0.026422
  73 H :    0.093949
  74 H :    0.093493
  75 H :    0.022371
  76 H :    0.001743
  77 H :    0.017807
  78 H :    0.030992
  79 H :    0.026286
  80 H :    0.002729
  81 H :    0.032159
  82 H :    0.028710
  83 H :    0.023052
  84 H :    0.018565
  85 H :    0.021175
  86 H :    0.025827
  87 H :    0.026101
  88 H :    0.090412
  89 H :    0.090881
Sum of atomic charges:   -0.0000000

LOEWDIN ATOMIC CHARGES
----------------------
   0 C :   -0.040844
   1 C :   -0.034039
   2 C :   -0.174887
   3 S :    0.508189
   4 C :   -0.206741
   5 C :   -0.034173
   6 N :   -0.045020
   7 N :   -0.044013
   8 C :   -0.035919
   9 C :   -0.207025
  10 S :    0.503232
  11 C :   -0.208360
  12 C :   -0.033060
  13 N :   -0.043947
  14 N :   -0.054558
  15 C :   -0.019144
  16 C :   -0.051413
  17 C :    0.015804
  18 C :   -0.187942
  19 S :    0.481975
  20 C :   -0.198477
  21 C :   -0.054014
  22 N :   -0.099501
  23 C :    0.052212
  24 O :   -0.077352
  25 C :    0.085702
  26 C :   -0.069889
  27 C :   -0.023364
  28 C :    0.006710
  29 N :   -0.100624
  30 N :   -0.047512
  31 C :   -0.054629
  32 C :   -0.060873
  33 N :   -0.273106
  34 S :    0.650701
  35 N :   -0.283348
  36 C :   -0.065125
  37 C :    0.006794
  38 C :    0.005552
  39 O :   -0.077386
  40 C :    0.084340
  41 C :   -0.069500
  42 C :    0.084958
  43 O :   -0.076613
  44 C :   -0.063714
  45 N :   -0.279521
  46 S :    0.650803
  47 N :   -0.285906
  48 C :   -0.065497
  49 C :   -0.025495
  50 N :   -0.071484
  51 C :    0.051159
  52 O :   -0.079158
  53 C :    0.091114
  54 C :   -0.064006
  55 C :   -0.026818
  56 C :    0.006989
  57 N :   -0.101710
  58 N :   -0.053255
  59 C :   -0.063571
  60 H :    0.026981
  61 H :    0.018214
  62 H :    0.036953
  63 H :    0.025110
  64 H :    0.043976
  65 H :    0.026449
  66 H :    0.019508
  67 H :    0.022825
  68 H :    0.028445
  69 H :    0.032168
  70 H :    0.026430
  71 H :    0.034928
  72 H :    0.035214
  73 H :    0.054439
  74 H :    0.054223
  75 H :    0.027936
  76 H :    0.011167
  77 H :    0.036264
  78 H :    0.033608
  79 H :    0.029718
  80 H :    0.011499
  81 H :    0.024485
  82 H :    0.023511
  83 H :    0.028022
  84 H :    0.032176
  85 H :    0.027483
  86 H :    0.034713
  87 H :    0.034884
  88 H :    0.052527
  89 H :    0.052442

  Mayer bond orders larger than 0.100000
B(  0-C ,  1-C ) :   1.8795 B(  0-C , 60-H ) :   0.9514 B(  0-C , 61-H ) :   0.9562
B(  1-C ,  2-C ) :   1.1550 B(  1-C , 62-H ) :   0.9654 B(  2-C ,  3-S ) :   1.1283
B(  2-C ,  4-C ) :   0.1391 B(  2-C , 59-C ) :   1.3677 B(  3-S ,  4-C ) :   1.1705
B(  4-C ,  5-C ) :   1.2061 B(  4-C , 49-C ) :   1.3174 B(  5-C ,  6-N ) :   1.6989
B(  5-C ,  8-C ) :   0.1039 B(  5-C , 48-C ) :   1.0688 B(  6-N ,  7-N ) :   1.1971
B(  7-N ,  8-C ) :   1.6936 B(  8-C ,  9-C ) :   1.1687 B(  8-C , 44-C ) :   1.0792
B(  9-C , 10-S ) :   1.1105 B(  9-C , 11-C ) :   0.1371 B(  9-C , 38-C ) :   1.4222
B( 10-S , 11-C ) :   1.1090 B( 11-C , 12-C ) :   1.1710 B( 11-C , 37-C ) :   1.4205
B( 12-C , 13-N ) :   1.6982 B( 12-C , 15-C ) :   0.1094 B( 12-C , 36-C ) :   1.0816
B( 13-N , 14-N ) :   1.2114 B( 14-N , 15-C ) :   1.6439 B( 15-C , 16-C ) :   1.1621
B( 15-C , 32-C ) :   1.0776 B( 16-C , 17-C ) :   1.5883 B( 16-C , 63-H ) :   0.9781
B( 17-C , 18-C ) :   1.1500 B( 17-C , 64-H ) :   0.9851 B( 18-C , 19-S ) :   1.1590
B( 18-C , 20-C ) :   0.1164 B( 18-C , 31-C ) :   1.3420 B( 19-S , 20-C ) :   1.1780
B( 20-C , 21-C ) :   1.4226 B( 20-C , 65-H ) :   0.9794 B( 21-C , 22-N ) :   1.3171
B( 21-C , 31-C ) :   1.2076 B( 22-N , 23-C ) :   1.6465 B( 23-C , 24-O ) :   1.2687
B( 23-C , 27-C ) :   1.0736 B( 24-O , 25-C ) :   0.9102 B( 25-C , 26-C ) :   1.1179
B( 25-C , 66-H ) :   0.9435 B( 25-C , 67-H ) :   0.9609 B( 26-C , 68-H ) :   0.9645
B( 26-C , 69-H ) :   0.9635 B( 26-C , 70-H ) :   0.9660 B( 27-C , 28-C ) :   0.9550
B( 27-C , 30-N ) :   1.8016 B( 28-C , 29-N ) :   1.1621 B( 28-C , 71-H ) :   0.9334
B( 28-C , 72-H ) :   0.9326 B( 29-N , 73-H ) :   0.9764 B( 29-N , 74-H ) :   0.9765
B( 30-N , 31-C ) :   1.3645 B( 32-C , 33-N ) :   1.5642 B( 32-C , 36-C ) :   1.2009
B( 33-N , 34-S ) :   1.2718 B( 33-N , 35-N ) :   0.1478 B( 34-S , 35-N ) :   1.2590
B( 35-N , 36-C ) :   1.5388 B( 37-C , 38-C ) :   1.1755 B( 37-C , 43-O ) :   1.2052
B( 38-C , 39-O ) :   1.2054 B( 39-O , 40-C ) :   0.9590 B( 40-C , 41-C ) :   1.0628
B( 40-C , 75-H ) :   0.9553 B( 40-C , 76-H ) :   0.9439 B( 41-C , 42-C ) :   1.0644
B( 41-C , 77-H ) :   0.9330 B( 41-C , 78-H ) :   0.9325 B( 42-C , 43-O ) :   0.9584
B( 42-C , 79-H ) :   0.9552 B( 42-C , 80-H ) :   0.9443 B( 44-C , 45-N ) :   1.5390
B( 44-C , 48-C ) :   1.2082 B( 45-N , 46-S ) :   1.2621 B( 45-N , 47-N ) :   0.1465
B( 46-S , 47-N ) :   1.2577 B( 47-N , 48-C ) :   1.5392 B( 49-C , 50-N ) :   1.4300
B( 49-C , 59-C ) :   1.2244 B( 50-N , 51-C ) :   1.6158 B( 51-C , 52-O ) :   1.2790
B( 51-C , 55-C ) :   1.0843 B( 52-O , 53-C ) :   0.8906 B( 53-C , 54-C ) :   1.0883
B( 53-C , 81-H ) :   0.9584 B( 53-C , 82-H ) :   0.9592 B( 54-C , 83-H ) :   0.9684
B( 54-C , 84-H ) :   0.9616 B( 54-C , 85-H ) :   0.9681 B( 55-C , 56-C ) :   0.9552
B( 55-C , 58-N ) :   1.7988 B( 56-C , 57-N ) :   1.1584 B( 56-C , 86-H ) :   0.9342
B( 56-C , 87-H ) :   0.9339 B( 57-N , 88-H ) :   0.9775 B( 57-N , 89-H ) :   0.9771
B( 58-N , 59-C ) :   1.3561

-----------------------------------------------------------------------------
         ABSORPTION SPECTRUM VIA TRANSITION ELECTRIC DIPOLE MOMENTS
-----------------------------------------------------------------------------
State   Energy  Wavelength   fosc         T2         TX        TY        TZ
        (cm-1)    (nm)                  (au**2)     (au)      (au)      (au)
-----------------------------------------------------------------------------
   0   14096.5    709.4   1.433325536  33.47405   2.51747  -3.89234   3.46209
   1   15515.3    644.5   0.030015732   0.63689   0.23017  -0.55630   0.52388
   2   16876.0    592.6   0.004478592   0.08737  -0.25034   0.14121  -0.06898
   3   18401.7    543.4   0.060493762   1.08225  -0.00623   0.53682  -0.89109
   4   21303.0    469.4   0.004786388   0.07397  -0.19144   0.02969  -0.19088
   5   23265.2    429.8   0.072466248   1.02543   0.99005   0.15779  -0.14261
   6   24621.4    406.2   0.007998374   0.10695   0.23189  -0.12611   0.19305
   7   25589.1    390.8   0.140775966   1.81113  -0.77790   0.88897  -0.64478
   8   25717.2    388.8   0.232285472   2.97354  -0.88784   1.00646  -1.08274
   9   26112.7    383.0   0.046328936   0.58408  -0.47838   0.43640  -0.40594
  10   27055.1    369.6   0.000883648   0.01075   0.01726  -0.01324  -0.10139
  11   28154.5    355.2   0.003829090   0.04477  -0.08555   0.19351   0.00296
  12   28443.9    351.6   0.006615080   0.07656  -0.14424   0.03522  -0.23349
  13   28539.3    350.4   0.120828962   1.39381   1.13918   0.19582  -0.24028
  14   28678.9    348.7   0.014634674   0.16799  -0.25476   0.28083  -0.15566
  15   29997.6    333.4   0.003317252   0.03641   0.10990   0.10651   0.11395
  16   30386.8    329.1   0.002248287   0.02436  -0.05755  -0.09782  -0.10713
  17   30630.4    326.5   0.001742714   0.01873   0.00237  -0.10132  -0.09197
  18   31412.4    318.3   0.005858694   0.06140   0.24754   0.00988   0.00511
  19   32137.9    311.2   0.168712826   1.72825   1.29816   0.14597  -0.14741
  20   32369.9    308.9   0.002449527   0.02491   0.00058   0.13575  -0.08053
  21   32433.4    308.3   0.085427222   0.86712   0.36034  -0.57041   0.64180
  22   32480.4    307.9   0.142333477   1.44265  -0.68056   0.76472  -0.62824
  23   33363.1    299.7   0.294643128   2.90740   0.47858  -1.21896   1.09202
  24   33950.8    294.5   0.015627354   0.15153   0.00459  -0.38259  -0.07170
  25   34283.5    291.7   0.058470554   0.56147  -0.61898   0.32369  -0.27121
  26   35086.3    285.0   0.001114199   0.01045  -0.05681   0.08499   0.00189
  27   35657.7    280.4   0.021606848   0.19949  -0.09376   0.18959  -0.39338
  28   35801.5    279.3   0.003318610   0.03052  -0.09199  -0.14749  -0.01731
  29   36063.9    277.3   0.000140331   0.00128   0.00705   0.02711   0.02228
  30   36279.3    275.6   0.004966581   0.04507  -0.17445  -0.07621  -0.09396
  31   36305.3    275.4   0.006153358   0.05580  -0.22084  -0.08269  -0.01370
  32   37035.5    270.0   0.073417027   0.65261  -0.08524   0.61494  -0.51691
  33   37217.6    268.7   0.036925987   0.32663   0.54275   0.12408  -0.12908
  34   37360.7    267.7   0.020031114   0.17651   0.07458   0.33540  -0.24177
  35   37611.9    265.9   0.231896431   2.02976   1.17800   0.56104  -0.57211
  36   37981.3    263.3   0.002196838   0.01904  -0.11029   0.08259  -0.00760
  37   38208.9    261.7   0.082323879   0.70931  -0.58114   0.45197  -0.40904
  38   38237.5    261.5   0.010819156   0.09315  -0.23443  -0.18532   0.06205
  39   38281.9    261.2   0.196444658   1.68936  -1.29790  -0.06756   0.01619
  40   38443.6    260.1   0.002579995   0.02209  -0.03471   0.05204  -0.13484
  41   38620.8    258.9   0.043680809   0.37234  -0.46050  -0.23980   0.32059
  42   38879.5    257.2   0.083928419   0.71066   0.71283   0.24403  -0.37814
  43   39950.4    250.3   0.003080373   0.02538  -0.15327  -0.04074   0.01523
  44   40013.4    249.9   0.002198236   0.01809  -0.12322  -0.05274  -0.01101
  45   40131.1    249.2   0.007069674   0.05800   0.01399  -0.18847   0.14926
  46   40250.0    248.4   0.001774638   0.01452   0.08655   0.07621   0.03488

FINAL SINGLE POINT ENERGY     -4482.537468468448

DIPOLE MOMENT
-------------
                                X             Y             Z
Electronic contribution:    -65.54220     -13.00499      10.13889
Nuclear contribution   :     65.20761      12.04150      -8.76740
                        -----------------------------------------
Total Dipole Moment    :     -0.33459      -0.96349       1.37149
                        -----------------------------------------
Magnitude (a.u.)       :      1.70916
Magnitude (Debye)      :      4.34435

Rotational constants in cm-1:     0.002972     0.000328     0.000296
Rotational constants in MHz :    89.086150     9.824406     8.880708

                             ****ORCA TERMINATED NORMALLY****
TOTAL RUN TIME: 0 days 0 hours 9 minutes 12 seconds 134 msec
