                         Program Version 4.2.0 -  RELEASE  -
|  1> # ORCA input file
|  2> # SCF done       -164.934494907195          0.000546974240
|  3> ! CAM-B3LYP def2-SVP def2/J RIJCOSX Grid4 TightSCF
|  4> %maxcore 5000
|  5> %tddft
|  6>     Mode sTDDFT
|  7>     Ethresh 5.0
|  8>     maxcore 5000
|  9> end
| 10>
| 11> %pal
| 12>   nprocs 6
| 13>   end
| 14> * xyz 0 1
| 15>    C        3.05781        -2.79038        -0.96855
| 16>    C        3.80398        -2.07972        -0.12797
| 17>    C        5.21244        -1.84981        -0.27724
| 18>    S        6.12902        -2.51055        -1.61231
| 19>    C        7.56764        -1.76686        -1.00115
| 20>    F        8.72674        -1.91490        -1.64807
| 21>    C        7.37625        -1.05679         0.14648
| 22>    C        6.01568        -1.11282         0.55309
| 23>    S        5.45767        -0.29076         1.99954
| 24>    C        6.97249         0.40799         2.52051
| 25>    C        8.16799         0.29191         1.92538
| 26>    C        9.38617         0.92732         2.41824
| 27>    C       10.50747         0.95145         1.60341
| 28>    C       11.68763         1.57430         1.98785
| 29>    C       11.82514         2.22055         3.20565
| 30>    C       13.06507         2.89883         3.50347
| 31>    C       13.25792         3.82375         4.45626
| 32>    C       14.50546         4.51899         4.70768
| 33>    C       15.75529         4.12010         4.21464
| 34>    C       16.84281         4.88639         4.59655
| 35>    N       16.73208         5.95967         5.35744
| 36>    C       15.50510         6.29347         5.75026
| 37>    C       15.33033         7.49792         6.56266
| 38>    C       14.24423         7.60620         7.40981
| 39>    C       14.04543         8.72471         8.21220
| 40>    C       14.93436         9.78847         8.21090
| 41>    C       14.79606        10.96800         9.02146
| 42>    C       13.80453        11.23662         9.89251
| 43>    C       13.72160        12.43791        10.65190
| 44>    S       14.91940        13.70924        10.52143
| 45>    C       14.05588        14.65168        11.68896
| 46>    F       14.51219        15.85152        12.05197
| 47>    C       12.92634        14.04917        12.15682
| 48>    C       12.74199        12.77593        11.55435
| 49>    S       11.37646        11.73543        11.93831
| 50>    C       10.58530        12.78314        13.11458
| 51>    C       11.01326        13.97890        13.49680
| 52>    O       12.12236        14.64779        13.08295
| 53>    C       16.05975         9.70700         7.33706
| 54>    N       16.95127        10.71490         7.31367
| 55>    C       17.97667        10.64970         6.50208
| 56>    C       18.91405        11.82076         6.53185
| 57>    C       18.46958        12.88263         5.52296
| 58>    C       18.12309         9.54964         5.60965
| 59>    C       19.25861         9.41601         4.63908
| 60>    C       20.40094         8.63491         5.29291
| 61>    N       17.27032         8.55907         5.62487
| 62>    C       16.24829         8.57784         6.49716
| 63>    N       14.40315         5.60331         5.47677
| 64>    C       10.71272         2.16327         4.09618
| 65>    N       10.82267         2.67448         5.33399
| 66>    C        9.81582         2.61999         6.16721
| 67>    C       10.07108         3.14924         7.54679
| 68>    C       10.57745         2.02322         8.45176
| 69>    C        8.59133         2.02225         5.76795
| 70>    C        7.36618         1.97939         6.63212
| 71>    C        6.55004         3.26199         6.45198
| 72>    N        8.47241         1.49406         4.57578
| 73>    C        9.49876         1.52924         3.70573
| 74>    O        8.39921        -0.40869         0.75742
| 75>    H        2.00411        -2.92915        -0.80842
| 76>    H        3.48650        -3.25280        -1.84232
| 77>    H        3.36786        -1.61628         0.74798
| 78>    H        6.88707         0.96909         3.43328
| 79>    H       10.45780         0.48521         0.63210
| 80>    H       12.51918         1.57409         1.29742
| 81>    H       13.87778         2.64550         2.83244
| 82>    H       12.43822         4.13096         5.08589
| 83>    H       15.87321         3.24657         3.59549
| 84>    H       17.85011         4.63124         4.28910
| 85>    H       13.54201         6.78726         7.44324
| 86>    H       13.17977         8.75302         8.85619
| 87>    H       15.58390        11.69835         8.88674
| 88>    H       12.99503        10.54014        10.06615
| 89>    H        9.68589        12.35494        13.51620
| 90>    H       10.47535        14.56763        14.22517
| 91>    H       19.93380        11.50264         6.31499
| 92>    H       18.88405        12.25185         7.53354
| 93>    H       18.46473        12.48250         4.51109
| 94>    H       19.14245        13.73618         5.55553
| 95>    H       17.46458        13.22164         5.76169
| 96>    H       19.61150        10.39201         4.30687
| 97>    H       18.89741         8.85423         3.77702
| 98>    H       20.77379         9.15437         6.17373
| 99>    H       21.22191         8.50891         4.59096
|100>    H       20.04267         7.65463         5.59637
|101>    H        9.16658         3.58837         7.96741
|102>    H       10.83997         3.91973         7.47837
|103>    H       10.77432         2.40443         9.45070
|104>    H       11.49903         1.61103         8.04817
|105>    H        9.84556         1.22105         8.52397
|106>    H        7.63857         1.85691         7.68016
|107>    H        6.76155         1.12494         6.32445
|108>    H        7.13396         4.13707         6.72941
|109>    H        5.65805         3.22867         7.07262
|110>    H        6.24668         3.36952         5.41321
|111> *
|112>
|113>                          ****END OF INPUT****

CARTESIAN COORDINATES (ANGSTROEM)
---------------------------------
  C      3.057810   -2.790380   -0.968550
  C      3.803980   -2.079720   -0.127970
  C      5.212440   -1.849810   -0.277240
  S      6.129020   -2.510550   -1.612310
  C      7.567640   -1.766860   -1.001150
  F      8.726740   -1.914900   -1.648070
  C      7.376250   -1.056790    0.146480
  C      6.015680   -1.112820    0.553090
  S      5.457670   -0.290760    1.999540
  C      6.972490    0.407990    2.520510
  C      8.167990    0.291910    1.925380
  C      9.386170    0.927320    2.418240
  C     10.507470    0.951450    1.603410
  C     11.687630    1.574300    1.987850
  C     11.825140    2.220550    3.205650
  C     13.065070    2.898830    3.503470
  C     13.257920    3.823750    4.456260
  C     14.505460    4.518990    4.707680
  C     15.755290    4.120100    4.214640
  C     16.842810    4.886390    4.596550
  N     16.732080    5.959670    5.357440
  C     15.505100    6.293470    5.750260
  C     15.330330    7.497920    6.562660
  C     14.244230    7.606200    7.409810
  C     14.045430    8.724710    8.212200
  C     14.934360    9.788470    8.210900
  C     14.796060   10.968000    9.021460
  C     13.804530   11.236620    9.892510
  C     13.721600   12.437910   10.651900
  S     14.919400   13.709240   10.521430
  C     14.055880   14.651680   11.688960
  F     14.512190   15.851520   12.051970
  C     12.926340   14.049170   12.156820
  C     12.741990   12.775930   11.554350
  S     11.376460   11.735430   11.938310
  C     10.585300   12.783140   13.114580
  C     11.013260   13.978900   13.496800
  O     12.122360   14.647790   13.082950
  C     16.059750    9.707000    7.337060
  N     16.951270   10.714900    7.313670
  C     17.976670   10.649700    6.502080
  C     18.914050   11.820760    6.531850
  C     18.469580   12.882630    5.522960
  C     18.123090    9.549640    5.609650
  C     19.258610    9.416010    4.639080
  C     20.400940    8.634910    5.292910
  N     17.270320    8.559070    5.624870
  C     16.248290    8.577840    6.497160
  N     14.403150    5.603310    5.476770
  C     10.712720    2.163270    4.096180
  N     10.822670    2.674480    5.333990
  C      9.815820    2.619990    6.167210
  C     10.071080    3.149240    7.546790
  C     10.577450    2.023220    8.451760
  C      8.591330    2.022250    5.767950
  C      7.366180    1.979390    6.632120
  C      6.550040    3.261990    6.451980
  N      8.472410    1.494060    4.575780
  C      9.498760    1.529240    3.705730
  O      8.399210   -0.408690    0.757420
  H      2.004110   -2.929150   -0.808420
  H      3.486500   -3.252800   -1.842320
  H      3.367860   -1.616280    0.747980
  H      6.887070    0.969090    3.433280
  H     10.457800    0.485210    0.632100
  H     12.519180    1.574090    1.297420
  H     13.877780    2.645500    2.832440
  H     12.438220    4.130960    5.085890
  H     15.873210    3.246570    3.595490
  H     17.850110    4.631240    4.289100
  H     13.542010    6.787260    7.443240
  H     13.179770    8.753020    8.856190
  H     15.583900   11.698350    8.886740
  H     12.995030   10.540140   10.066150
  H      9.685890   12.354940   13.516200
  H     10.475350   14.567630   14.225170
  H     19.933800   11.502640    6.314990
  H     18.884050   12.251850    7.533540
  H     18.464730   12.482500    4.511090
  H     19.142450   13.736180    5.555530
  H     17.464580   13.221640    5.761690
  H     19.611500   10.392010    4.306870
  H     18.897410    8.854230    3.777020
  H     20.773790    9.154370    6.173730
  H     21.221910    8.508910    4.590960
  H     20.042670    7.654630    5.596370
  H      9.166580    3.588370    7.967410
  H     10.839970    3.919730    7.478370
  H     10.774320    2.404430    9.450700
  H     11.499030    1.611030    8.048170
  H      9.845560    1.221050    8.523970
  H      7.638570    1.856910    7.680160
  H      6.761550    1.124940    6.324450
  H      7.133960    4.137070    6.729410
  H      5.658050    3.228670    7.072620
  H      6.246680    3.369520    5.413210

 Total Charge           Charge          ....    0
 Multiplicity           Mult            ....    1
 Number of Electrons    NEL             ....  452
 Basis Dimension        Dim             .... 1036

ORBITAL ENERGIES
----------------

  NO   OCC          E(Eh)            E(eV)
   0   2.0000     -88.960039     -2420.7257
   1   2.0000     -88.957891     -2420.6673
   2   2.0000     -88.943794     -2420.2837
   3   2.0000     -88.942128     -2420.2383
   4   2.0000     -24.794168      -674.6836
   5   2.0000     -24.791804      -674.6193
   6   2.0000     -19.270084      -524.3656
   7   2.0000     -19.268044      -524.3101
   8   2.0000     -14.416938      -392.3048
   9   2.0000     -14.413932      -392.2230
  10   2.0000     -14.403133      -391.9292
  11   2.0000     -14.394541      -391.6954
  12   2.0000     -14.392922      -391.6513
  13   2.0000     -14.387791      -391.5117
  14   2.0000     -10.371326      -282.2181
  15   2.0000     -10.370197      -282.1874
  16   2.0000     -10.341702      -281.4120
  17   2.0000     -10.339461      -281.3510
  18   2.0000     -10.338950      -281.3371
  19   2.0000     -10.334727      -281.2222
  20   2.0000     -10.327257      -281.0189
  21   2.0000     -10.320069      -280.8233
  22   2.0000     -10.317665      -280.7579
  23   2.0000     -10.314658      -280.6761
  24   2.0000     -10.312678      -280.6222
  25   2.0000     -10.311565      -280.5919
  26   2.0000     -10.308955      -280.5209
  27   2.0000     -10.307763      -280.4885
  28   2.0000     -10.304548      -280.4010
  29   2.0000     -10.304473      -280.3990
  30   2.0000     -10.303519      -280.3730
  31   2.0000     -10.302424      -280.3432
  32   2.0000     -10.302008      -280.3319
  33   2.0000     -10.297283      -280.2033
  34   2.0000     -10.296629      -280.1855
  35   2.0000     -10.292864      -280.0831
  36   2.0000     -10.289378      -279.9882
  37   2.0000     -10.284027      -279.8426
  38   2.0000     -10.283166      -279.8192
  39   2.0000     -10.282925      -279.8126
  40   2.0000     -10.277865      -279.6749
  41   2.0000     -10.277154      -279.6556
  42   2.0000     -10.275682      -279.6155
  43   2.0000     -10.275140      -279.6008
  44   2.0000     -10.274593      -279.5859
  45   2.0000     -10.274146      -279.5737
  46   2.0000     -10.271712      -279.5075
  47   2.0000     -10.270624      -279.4779
  48   2.0000     -10.267096      -279.3819
  49   2.0000     -10.266458      -279.3645
  50   2.0000     -10.266160      -279.3564
  51   2.0000     -10.266131      -279.3556
  52   2.0000     -10.265820      -279.3472
  53   2.0000     -10.264570      -279.3132
  54   2.0000     -10.262798      -279.2649
  55   2.0000     -10.261493      -279.2294
  56   2.0000     -10.259568      -279.1770
  57   2.0000     -10.258676      -279.1528
  58   2.0000     -10.254306      -279.0339
  59   2.0000     -10.251071      -278.9458
  60   2.0000      -8.056250      -219.2217
  61   2.0000      -8.053749      -219.1536
  62   2.0000      -8.039133      -218.7559
  63   2.0000      -8.037354      -218.7075
  64   2.0000      -6.025685      -163.9672
  65   2.0000      -6.023179      -163.8990
  66   2.0000      -6.021981      -163.8664
  67   2.0000      -6.019498      -163.7989
  68   2.0000      -6.017415      -163.7422
  69   2.0000      -6.014967      -163.6756
  70   2.0000      -6.009443      -163.5252
  71   2.0000      -6.007787      -163.4802
  72   2.0000      -6.005199      -163.4098
  73   2.0000      -6.003703      -163.3691
  74   2.0000      -5.999212      -163.2468
  75   2.0000      -5.997047      -163.1880
  76   2.0000      -1.307783       -35.5866
  77   2.0000      -1.306112       -35.5411
  78   2.0000      -1.178398       -32.0659
  79   2.0000      -1.176976       -32.0272
  80   2.0000      -1.077706       -29.3259
  81   2.0000      -1.068568       -29.0772
  82   2.0000      -1.060276       -28.8516
  83   2.0000      -1.001016       -27.2390
  84   2.0000      -0.992861       -27.0171
  85   2.0000      -0.990514       -26.9532
  86   2.0000      -0.985170       -26.8078
  87   2.0000      -0.963986       -26.2314
  88   2.0000      -0.957466       -26.0540
  89   2.0000      -0.945153       -25.7189
  90   2.0000      -0.920252       -25.0413
  91   2.0000      -0.916812       -24.9477
  92   2.0000      -0.903305       -24.5802
  93   2.0000      -0.896545       -24.3962
  94   2.0000      -0.894676       -24.3454
  95   2.0000      -0.886325       -24.1181
  96   2.0000      -0.880770       -23.9670
  97   2.0000      -0.874619       -23.7996
  98   2.0000      -0.860527       -23.4161
  99   2.0000      -0.859100       -23.3773
 100   2.0000      -0.853802       -23.2331
 101   2.0000      -0.848259       -23.0823
 102   2.0000      -0.830929       -22.6107
 103   2.0000      -0.825727       -22.4692
 104   2.0000      -0.816841       -22.2274
 105   2.0000      -0.811223       -22.0745
 106   2.0000      -0.802915       -21.8484
 107   2.0000      -0.793033       -21.5795
 108   2.0000      -0.776626       -21.1331
 109   2.0000      -0.772429       -21.0189
 110   2.0000      -0.754258       -20.5244
 111   2.0000      -0.753816       -20.5124
 112   2.0000      -0.750583       -20.4244
 113   2.0000      -0.743362       -20.2279
 114   2.0000      -0.734501       -19.9868
 115   2.0000      -0.731576       -19.9072
 116   2.0000      -0.716515       -19.4974
 117   2.0000      -0.712973       -19.4010
 118   2.0000      -0.705436       -19.1959
 119   2.0000      -0.703612       -19.1463
 120   2.0000      -0.692549       -18.8452
 121   2.0000      -0.691685       -18.8217
 122   2.0000      -0.683295       -18.5934
 123   2.0000      -0.678473       -18.4622
 124   2.0000      -0.675039       -18.3688
 125   2.0000      -0.666644       -18.1403
 126   2.0000      -0.649517       -17.6742
 127   2.0000      -0.640951       -17.4412
 128   2.0000      -0.638693       -17.3797
 129   2.0000      -0.632754       -17.2181
 130   2.0000      -0.631306       -17.1787
 131   2.0000      -0.628587       -17.1047
 132   2.0000      -0.616302       -16.7704
 133   2.0000      -0.611107       -16.6291
 134   2.0000      -0.603542       -16.4232
 135   2.0000      -0.599666       -16.3177
 136   2.0000      -0.594085       -16.1659
 137   2.0000      -0.590456       -16.0671
 138   2.0000      -0.584498       -15.9050
 139   2.0000      -0.580285       -15.7904
 140   2.0000      -0.579919       -15.7804
 141   2.0000      -0.569654       -15.5011
 142   2.0000      -0.567271       -15.4362
 143   2.0000      -0.567242       -15.4354
 144   2.0000      -0.561156       -15.2698
 145   2.0000      -0.555691       -15.1211
 146   2.0000      -0.553890       -15.0721
 147   2.0000      -0.546960       -14.8835
 148   2.0000      -0.544772       -14.8240
 149   2.0000      -0.542072       -14.7505
 150   2.0000      -0.536802       -14.6071
 151   2.0000      -0.531404       -14.4603
 152   2.0000      -0.529845       -14.4178
 153   2.0000      -0.529490       -14.4082
 154   2.0000      -0.525272       -14.2934
 155   2.0000      -0.524758       -14.2794
 156   2.0000      -0.520592       -14.1660
 157   2.0000      -0.518118       -14.0987
 158   2.0000      -0.516922       -14.0662
 159   2.0000      -0.512494       -13.9457
 160   2.0000      -0.511100       -13.9077
 161   2.0000      -0.510362       -13.8876
 162   2.0000      -0.507580       -13.8120
 163   2.0000      -0.507366       -13.8061
 164   2.0000      -0.504802       -13.7364
 165   2.0000      -0.502106       -13.6630
 166   2.0000      -0.496402       -13.5078
 167   2.0000      -0.495786       -13.4910
 168   2.0000      -0.492905       -13.4126
 169   2.0000      -0.486239       -13.2312
 170   2.0000      -0.473780       -12.8922
 171   2.0000      -0.472023       -12.8444
 172   2.0000      -0.469637       -12.7795
 173   2.0000      -0.466345       -12.6899
 174   2.0000      -0.465519       -12.6674
 175   2.0000      -0.463250       -12.6057
 176   2.0000      -0.462241       -12.5782
 177   2.0000      -0.460363       -12.5271
 178   2.0000      -0.458457       -12.4752
 179   2.0000      -0.454254       -12.3609
 180   2.0000      -0.453434       -12.3386
 181   2.0000      -0.448833       -12.2134
 182   2.0000      -0.446000       -12.1363
 183   2.0000      -0.445100       -12.1118
 184   2.0000      -0.443899       -12.0791
 185   2.0000      -0.442032       -12.0283
 186   2.0000      -0.436186       -11.8692
 187   2.0000      -0.435512       -11.8509
 188   2.0000      -0.432928       -11.7806
 189   2.0000      -0.429245       -11.6803
 190   2.0000      -0.426747       -11.6124
 191   2.0000      -0.424427       -11.5493
 192   2.0000      -0.423331       -11.5194
 193   2.0000      -0.421861       -11.4794
 194   2.0000      -0.419207       -11.4072
 195   2.0000      -0.418694       -11.3932
 196   2.0000      -0.416723       -11.3396
 197   2.0000      -0.413636       -11.2556
 198   2.0000      -0.411348       -11.1934
 199   2.0000      -0.406139       -11.0516
 200   2.0000      -0.404426       -11.0050
 201   2.0000      -0.401683       -10.9303
 202   2.0000      -0.398320       -10.8388
 203   2.0000      -0.398218       -10.8361
 204   2.0000      -0.397690       -10.8217
 205   2.0000      -0.391737       -10.6597
 206   2.0000      -0.373000       -10.1499
 207   2.0000      -0.371255       -10.1024
 208   2.0000      -0.367618       -10.0034
 209   2.0000      -0.366597        -9.9756
 210   2.0000      -0.356951        -9.7131
 211   2.0000      -0.352753        -9.5989
 212   2.0000      -0.348947        -9.4953
 213   2.0000      -0.342692        -9.3251
 214   2.0000      -0.330523        -8.9940
 215   2.0000      -0.315835        -8.5943
 216   2.0000      -0.313342        -8.5265
 217   2.0000      -0.309618        -8.4251
 218   2.0000      -0.302002        -8.2179
 219   2.0000      -0.297679        -8.1003
 220   2.0000      -0.285693        -7.7741
 221   2.0000      -0.277880        -7.5615
 222   2.0000      -0.269120        -7.3231
 223   2.0000      -0.253549        -6.8994
 224   2.0000      -0.240724        -6.5504
 225   2.0000      -0.239015        -6.5039
 226   0.0000      -0.057276        -1.5586
 227   0.0000      -0.048210        -1.3119
 228   0.0000      -0.008751        -0.2381
 229   0.0000      -0.008329        -0.2266
 230   0.0000       0.000061         0.0017

MULLIKEN ATOMIC CHARGES
-----------------------
   0 C :   -0.031873
   1 C :    0.003226
   2 C :   -0.161626
   3 S :    0.100218
   4 C :    0.036162
   5 F :   -0.162093
   6 C :    0.228890
   7 C :   -0.030434
   8 S :    0.083306
   9 C :   -0.129140
  10 C :    0.174070
  11 C :    0.077005
  12 C :   -0.029348
  13 C :   -0.037093
  14 C :    0.117800
  15 C :   -0.017586
  16 C :    0.057828
  17 C :    0.047963
  18 C :   -0.058917
  19 C :    0.071466
  20 N :   -0.031139
  21 C :   -0.128005
  22 C :    0.104887
  23 C :   -0.003286
  24 C :   -0.050748
  25 C :    0.106790
  26 C :   -0.036990
  27 C :    0.024020
  28 C :   -0.144026
  29 S :    0.106327
  30 C :    0.055446
  31 F :   -0.158116
  32 C :    0.195111
  33 C :   -0.026185
  34 S :    0.065377
  35 C :   -0.094948
  36 C :    0.167521
  37 O :   -0.244215
  38 C :   -0.048175
  39 N :    0.000073
  40 C :   -0.144714
  41 C :    0.105404
  42 C :    0.009465
  43 C :   -0.161879
  44 C :    0.112750
  45 C :    0.005696
  46 N :    0.056901
  47 C :   -0.038020
  48 N :   -0.058756
  49 C :   -0.040465
  50 N :   -0.006135
  51 C :   -0.142545
  52 C :    0.098398
  53 C :    0.007918
  54 C :   -0.130934
  55 C :    0.091955
  56 C :    0.008716
  57 N :   -0.021590
  58 C :   -0.014059
  59 O :   -0.266982
  60 H :    0.027793
  61 H :    0.021842
  62 H :    0.003937
  63 H :    0.042969
  64 H :   -0.001356
  65 H :   -0.020350
  66 H :   -0.027615
  67 H :   -0.001955
  68 H :   -0.010593
  69 H :   -0.004536
  70 H :   -0.017352
  71 H :   -0.030594
  72 H :   -0.004152
  73 H :   -0.006595
  74 H :    0.043427
  75 H :    0.025267
  76 H :   -0.000325
  77 H :    0.011437
  78 H :    0.010135
  79 H :    0.020210
  80 H :    0.020355
  81 H :   -0.005332
  82 H :    0.013003
  83 H :    0.005697
  84 H :    0.016901
  85 H :    0.030892
  86 H :    0.001242
  87 H :    0.022736
  88 H :    0.023532
  89 H :    0.024520
  90 H :    0.010596
  91 H :    0.005739
  92 H :    0.018382
  93 H :    0.013592
  94 H :    0.024363
  95 H :    0.021519
Sum of atomic charges:   -0.0000000

LOEWDIN ATOMIC CHARGES
----------------------
   0 C :   -0.051150
   1 C :   -0.038091
   2 C :   -0.198919
   3 S :    0.416002
   4 C :   -0.100458
   5 F :   -0.054153
   6 C :   -0.036618
   7 C :   -0.199757
   8 S :    0.359949
   9 C :   -0.204882
  10 C :    0.031491
  11 C :   -0.028017
  12 C :   -0.008560
  13 C :   -0.009472
  14 C :   -0.023105
  15 C :   -0.008218
  16 C :   -0.015944
  17 C :    0.031583
  18 C :   -0.066284
  19 C :    0.042632
  20 N :   -0.073463
  21 C :    0.036511
  22 C :   -0.039900
  23 C :    0.008318
  24 C :   -0.017048
  25 C :   -0.019153
  26 C :   -0.021312
  27 C :   -0.035343
  28 C :   -0.190239
  29 S :    0.421950
  30 C :   -0.097810
  31 F :   -0.050969
  32 C :   -0.038292
  33 C :   -0.200025
  34 S :    0.338367
  35 C :   -0.223947
  36 C :    0.034927
  37 O :   -0.052315
  38 C :   -0.009068
  39 N :   -0.046910
  40 C :    0.001660
  41 C :   -0.037153
  42 C :   -0.046983
  43 C :    0.000029
  44 C :   -0.036683
  45 C :   -0.047112
  46 N :   -0.024693
  47 C :   -0.001596
  48 N :   -0.086608
  49 C :   -0.000979
  50 N :   -0.029932
  51 C :    0.003701
  52 C :   -0.036729
  53 C :   -0.046133
  54 C :    0.008288
  55 C :   -0.037530
  56 C :   -0.046182
  57 N :   -0.038024
  58 C :   -0.000722
  59 O :   -0.054982
  60 H :    0.028264
  61 H :    0.018095
  62 H :    0.032974
  63 H :    0.026391
  64 H :    0.034329
  65 H :    0.030363
  66 H :    0.025207
  67 H :    0.030307
  68 H :    0.028798
  69 H :    0.022152
  70 H :    0.031035
  71 H :    0.026636
  72 H :    0.020959
  73 H :    0.026079
  74 H :    0.035409
  75 H :    0.033952
  76 H :    0.023783
  77 H :    0.034395
  78 H :    0.020664
  79 H :    0.025841
  80 H :    0.027642
  81 H :    0.021034
  82 H :    0.036306
  83 H :    0.019564
  84 H :    0.024198
  85 H :    0.031123
  86 H :    0.024248
  87 H :    0.038329
  88 H :    0.027566
  89 H :    0.029444
  90 H :    0.020918
  91 H :    0.026308
  92 H :    0.035831
  93 H :    0.022509
  94 H :    0.028075
  95 H :    0.027331

  Mayer bond orders larger than 0.100000
B(  0-C ,  1-C ) :   1.9288 B(  0-C , 60-H ) :   0.9492 B(  0-C , 61-H ) :   0.9578
B(  1-C ,  2-C ) :   1.1347 B(  1-C , 62-H ) :   0.9598 B(  2-C ,  3-S ) :   1.0769
B(  2-C ,  7-C ) :   1.5860 B(  3-S ,  4-C ) :   1.1180 B(  4-C ,  5-F ) :   1.1421
B(  4-C ,  6-C ) :   1.4961 B(  6-C ,  7-C ) :   1.2056 B(  6-C , 59-O ) :   1.0678
B(  7-C ,  8-S ) :   0.9913 B(  8-S ,  9-C ) :   1.0014 B(  9-C , 10-C ) :   1.8010
B(  9-C , 63-H ) :   0.8704 B( 10-C , 11-C ) :   1.0371 B( 10-C , 59-O ) :   1.0621
B( 11-C , 12-C ) :   1.4418 B( 11-C , 14-C ) :   0.1144 B( 11-C , 58-C ) :   1.2267
B( 12-C , 13-C ) :   1.2320 B( 12-C , 64-H ) :   0.9945 B( 13-C , 14-C ) :   1.4067
B( 13-C , 65-H ) :   1.0007 B( 14-C , 15-C ) :   1.0976 B( 14-C , 49-C ) :   1.1841
B( 15-C , 16-C ) :   1.7048 B( 15-C , 66-H ) :   0.9614 B( 16-C , 17-C ) :   1.0360
B( 16-C , 67-H ) :   0.9659 B( 17-C , 18-C ) :   1.3445 B( 17-C , 48-N ) :   1.5063
B( 18-C , 19-C ) :   1.3856 B( 18-C , 68-H ) :   0.9680 B( 19-C , 20-N ) :   1.5390
B( 19-C , 69-H ) :   0.9789 B( 20-N , 21-C ) :   1.5685 B( 21-C , 22-C ) :   0.9204
B( 21-C , 48-N ) :   1.5800 B( 22-C , 23-C ) :   1.4739 B( 22-C , 25-C ) :   0.1196
B( 22-C , 47-C ) :   1.2273 B( 22-C , 48-N ) :  -0.1022 B( 23-C , 24-C ) :   1.2431
B( 23-C , 70-H ) :   0.9918 B( 24-C , 25-C ) :   1.4002 B( 24-C , 71-H ) :   0.9976
B( 25-C , 26-C ) :   1.1141 B( 25-C , 38-C ) :   1.1933 B( 26-C , 27-C ) :   1.6569
B( 26-C , 72-H ) :   0.9711 B( 27-C , 28-C ) :   1.1657 B( 27-C , 73-H ) :   0.9630
B( 28-C , 29-S ) :   1.0782 B( 28-C , 33-C ) :   1.5726 B( 29-S , 30-C ) :   1.1142
B( 30-C , 31-F ) :   1.1489 B( 30-C , 32-C ) :   1.5108 B( 32-C , 33-C ) :   1.2004
B( 32-C , 37-O ) :   1.0687 B( 33-C , 34-S ) :   0.9892 B( 34-S , 35-C ) :   1.0031
B( 35-C , 36-C ) :   1.8350 B( 35-C , 74-H ) :   0.9449 B( 36-C , 37-O ) :   1.0681
B( 36-C , 75-H ) :   0.9801 B( 38-C , 39-N ) :   1.4523 B( 38-C , 47-C ) :   1.2539
B( 39-N , 40-C ) :   1.6756 B( 40-C , 41-C ) :   1.0588 B( 40-C , 43-C ) :   1.1799
B( 41-C , 42-C ) :   1.1084 B( 41-C , 76-H ) :   0.9188 B( 41-C , 77-H ) :   0.9149
B( 42-C , 78-H ) :   0.9699 B( 42-C , 79-H ) :   0.9696 B( 42-C , 80-H ) :   0.9645
B( 43-C , 44-C ) :   1.0570 B( 43-C , 46-N ) :   1.6868 B( 44-C , 45-C ) :   1.1097
B( 44-C , 81-H ) :   0.9197 B( 44-C , 82-H ) :   0.9126 B( 45-C , 83-H ) :   0.9689
B( 45-C , 84-H ) :   0.9694 B( 45-C , 85-H ) :   0.9647 B( 46-N , 47-C ) :   1.4779
B( 49-C , 50-N ) :   1.4411 B( 49-C , 58-C ) :   1.2611 B( 50-N , 51-C ) :   1.6528
B( 51-C , 52-C ) :   1.0601 B( 51-C , 54-C ) :   1.1952 B( 52-C , 53-C ) :   1.1086
B( 52-C , 86-H ) :   0.9182 B( 52-C , 87-H ) :   0.9166 B( 53-C , 88-H ) :   0.9697
B( 53-C , 89-H ) :   0.9641 B( 53-C , 90-H ) :   0.9703 B( 54-C , 55-C ) :   1.0567
B( 54-C , 57-N ) :   1.6577 B( 55-C , 56-C ) :   1.1086 B( 55-C , 91-H ) :   0.9192
B( 55-C , 92-H ) :   0.9174 B( 56-C , 93-H ) :   0.9697 B( 56-C , 94-H ) :   0.9685
B( 56-C , 95-H ) :   0.9656 B( 57-N , 58-C ) :   1.4272

-----------------------------------------------------------------------------
         ABSORPTION SPECTRUM VIA TRANSITION ELECTRIC DIPOLE MOMENTS
-----------------------------------------------------------------------------
State   Energy  Wavelength   fosc         T2         TX        TY        TZ
        (cm-1)    (nm)                  (au**2)     (au)      (au)      (au)
-----------------------------------------------------------------------------
   0   22694.5    440.6   0.582032482   8.44312   2.10328   1.60650   1.19937
   1   25603.6    390.6   0.932150521  11.98562  -1.22752   2.30380   2.27405
   2   27247.0    367.0   0.003803901   0.04596   0.17196  -0.03148   0.12409
   3   28108.6    355.8   0.205450397   2.40626   0.36860   1.37453   0.61731
   4   28732.5    348.0   0.049378411   0.56577  -0.59550  -0.45912  -0.01870
   5   29103.2    343.6   0.005110303   0.05781  -0.08946  -0.09653   0.20121
   6   30554.1    327.3   0.065536044   0.70613   0.77989   0.11645  -0.29042
   7   31423.8    318.2   0.040309470   0.42230   0.37903   0.51611   0.11077
   8   31553.4    316.9   0.142550252   1.48729  -0.92281  -0.60122  -0.52368
   9   31841.2    314.1   0.221847281   2.29372  -0.79585  -0.86776  -0.95254
  10   32242.3    310.2   0.007535876   0.07695   0.03816  -0.10815  -0.25257
  11   33415.9    299.3   0.087625081   0.86328  -0.56660  -0.55275  -0.48653
  12   33746.9    296.3   0.157762318   1.53902  -0.99398   0.02770   0.74179
  13   34079.5    293.4   0.221214465   2.13696   1.24059   0.77310   0.01398
  14   34221.2    292.2   0.249746354   2.40259  -1.17670  -0.97114  -0.27360
  15   34674.7    288.4   0.078631189   0.74655   0.06943  -0.72711  -0.46156
  16   35053.4    285.3   0.306436415   2.87797   1.09609  -0.88640  -0.94385
  17   37412.8    267.3   0.007456486   0.06561  -0.25358  -0.02361   0.02745
  18   37751.6    264.9   0.030507870   0.26604  -0.36401  -0.18200   0.31689
  19   37931.2    263.6   0.211650857   1.83695   0.08474   0.50107   1.25646
  20   38399.1    260.4   0.012583589   0.10788  -0.32796   0.01071   0.01449
  21   38672.1    258.6   0.029603871   0.25201   0.30686   0.31425  -0.24310
  22   39215.0    255.0   0.022964081   0.19278   0.23901   0.32537   0.17260
  23   39640.8    252.3   0.003897024   0.03236  -0.17614   0.02876   0.02261

FINAL SINGLE POINT ENERGY     -4042.359999745922

DIPOLE MOMENT
-------------
                                X             Y             Z
Electronic contribution:    -25.64236       0.43552      -7.28280
Nuclear contribution   :     24.88922      -1.18424       7.58860
                        -----------------------------------------
Total Dipole Moment    :     -0.75313      -0.74873       0.30581
                        -----------------------------------------
Magnitude (a.u.)       :      1.10513
Magnitude (Debye)      :      2.80902

Rotational constants in cm-1:     0.001786     0.000336     0.000293
Rotational constants in MHz :    53.555570    10.065256     8.795984

                             ****ORCA TERMINATED NORMALLY****
TOTAL RUN TIME: 0 days 0 hours 7 minutes 24 seconds 661 msec
