                         Program Version 4.2.0 -  RELEASE  -
|  1> # ORCA input file
|  2> # SCF done       -169.943533700329          0.000930404159
|  3> ! CAM-B3LYP def2-SVP def2/J RIJCOSX Grid4 TightSCF
|  4> %maxcore 5000
|  5> %tddft
|  6>     Mode sTDDFT
|  7>     Ethresh 5.0
|  8>     maxcore 5000
|  9> end
| 10>
| 11> %pal
| 12>   nprocs 6
| 13>   end
| 14> * xyz 0 1
| 15>    C        8.24008       -17.19292        -0.49112
| 16>    C        7.58024       -16.26289         0.19035
| 17>    C        6.95807       -15.06483        -0.35683
| 18>    C        6.41602       -14.12678         0.52517
| 19>    C        5.81995       -12.95249         0.08672
| 20>    C        5.76060       -12.71027        -1.27119
| 21>    C        6.29290       -13.65277        -2.17282
| 22>    C        6.88380       -14.81469        -1.73543
| 23>    C        6.10671       -13.16310        -3.56506
| 24>    O        6.42184       -13.71527        -4.59272
| 25>    C        5.44292       -11.84018        -3.40573
| 26>    C        5.07331       -10.93123        -4.36734
| 27>    C        4.46929        -9.72526        -3.97409
| 28>    C        4.12943        -8.73908        -4.98399
| 29>    S        5.13433        -8.63986        -6.40214
| 30>    C        4.18968        -7.33966        -7.04466
| 31>    C        4.63625        -6.68479        -8.27055
| 32>    C        5.93435        -6.23692        -8.32965
| 33>    C        6.40408        -5.52255        -9.44424
| 34>    N        7.67740        -5.07757        -9.47686
| 35>    C        8.04647        -4.41354       -10.53949
| 36>    C        7.16504        -4.15926       -11.61085
| 37>    N        5.92590        -4.57147       -11.60682
| 38>    C        5.51379        -5.26563       -10.52420
| 39>    C        4.20242        -5.76357       -10.46616
| 40>    C        3.75701        -6.47196        -9.37328
| 41>    C        2.41878        -7.03584        -9.39276
| 42>    S        2.14810        -8.68928        -8.93710
| 43>    C        0.44960        -8.56165        -9.29963
| 44>    C       -0.42932        -9.67576        -9.17423
| 45>    C       -0.07344       -10.89915        -8.74054
| 46>    C       -0.94287       -12.05074        -8.67810
| 47>    C       -0.46515       -13.23761        -8.11000
| 48>    C       -1.23298       -14.39126        -8.04382
| 49>    C       -2.51364       -14.36563        -8.56002
| 50>    C       -3.00942       -13.17733        -9.13211
| 51>    C       -2.25020       -12.03528        -9.19713
| 52>    C       -4.39591       -13.40513        -9.61904
| 53>    O       -5.13224       -12.60891       -10.15462
| 54>    C       -4.67257       -14.82860        -9.29486
| 55>    C       -5.80725       -15.57567        -9.53249
| 56>    C       -5.81664       -16.90738        -9.13053
| 57>    C       -4.71174       -17.46389        -8.50792
| 58>    C       -3.56467       -16.71406        -8.26618
| 59>    C       -3.54720       -15.39177        -8.66239
| 60>    C        0.13437        -7.28775        -9.73290
| 61>    C        1.25272        -6.42791        -9.79474
| 62>    C        1.12963        -4.98084       -10.15070
| 63>    C       -0.29583        -4.51297        -9.87659
| 64>    C       -1.27690        -5.40879       -10.62187
| 65>    C       -1.26791        -6.83667       -10.05532
| 66>    O       -1.83574        -7.76851       -10.96105
| 67>    C       -3.22600        -7.65934       -11.12880
| 68>    C        3.16122        -7.00633        -6.20032
| 69>    C        3.12561        -7.80060        -5.02489
| 70>    C        2.06599        -7.61336        -3.98157
| 71>    C        0.88806        -6.82217        -4.54334
| 72>    C        1.40682        -5.54401        -5.19073
| 73>    C        2.16570        -5.90538        -6.47214
| 74>    O        2.73477        -4.78942        -7.13653
| 75>    C        3.73161        -4.09166        -6.42754
| 76>    C        4.26484        -9.48588        -2.61382
| 77>    C        4.63801       -10.40544        -1.64278
| 78>    C        5.23289       -11.58696        -2.03593
| 79>    H        8.67319       -18.04497         0.00408
| 80>    H        8.38227       -17.14566        -1.55691
| 81>    H        7.48643       -16.36811         1.26463
| 82>    H        6.47000       -14.32139         1.58736
| 83>    H        5.41623       -12.24744         0.79814
| 84>    H        7.27882       -15.51524        -2.45400
| 85>    H        5.24833       -11.14013        -5.41235
| 86>    H        6.61607        -6.40701        -7.50956
| 87>    H        9.07001        -4.06330       -10.56171
| 88>    H        7.48939        -3.60589       -12.48227
| 89>    H        3.56646        -5.60884       -11.32231
| 90>    H       -1.44041        -9.47946        -9.49445
| 91>    H        0.94819       -11.05833        -8.41584
| 92>    H        0.53995       -13.25210        -7.71253
| 93>    H       -0.82817       -15.28876        -7.60047
| 94>    H       -2.65986       -11.15131        -9.65947
| 95>    H       -6.66137       -15.13053       -10.02032
| 96>    H       -6.69259       -17.51381        -9.30668
| 97>    H       -4.73999       -18.49996        -8.20304
| 98>    H       -2.71143       -17.16128        -7.77870
| 99>    H        1.35109        -4.83625       -11.21206
|100>    H        1.85072        -4.40368        -9.56913
|101>    H       -0.41493        -3.47879       -10.20338
|102>    H       -0.49748        -4.55431        -8.80351
|103>    H       -0.99809        -5.46018       -11.67710
|104>    H       -2.28674        -4.99974       -10.55435
|105>    H       -1.85643        -6.85134        -9.11545
|106>    H       -3.53190        -8.53003       -11.70679
|107>    H       -3.50608        -6.75198       -11.67466
|108>    H       -3.74496        -7.66499       -10.16129
|109>    H        2.48257        -7.05279        -3.13786
|110>    H        1.73811        -8.58552        -3.60633
|111>    H        0.19121        -6.58313        -3.73830
|112>    H        0.35667        -7.42070        -5.28653
|113>    H        2.07126        -5.03024        -4.49337
|114>    H        0.58878        -4.86792        -5.44430
|115>    H        1.43208        -6.27515        -7.20151
|116>    H        4.26490        -3.49305        -7.16497
|117>    H        4.43836        -4.77318        -5.94438
|118>    H        3.29901        -3.42492        -5.67316
|119>    H        3.84130        -8.54647        -2.29971
|120>    H        4.47617       -10.18326        -0.59859
|121> *
|122>
|123>                          ****END OF INPUT****

CARTESIAN COORDINATES (ANGSTROEM)
---------------------------------
  C      8.240080  -17.192920   -0.491120
  C      7.580240  -16.262890    0.190350
  C      6.958070  -15.064830   -0.356830
  C      6.416020  -14.126780    0.525170
  C      5.819950  -12.952490    0.086720
  C      5.760600  -12.710270   -1.271190
  C      6.292900  -13.652770   -2.172820
  C      6.883800  -14.814690   -1.735430
  C      6.106710  -13.163100   -3.565060
  O      6.421840  -13.715270   -4.592720
  C      5.442920  -11.840180   -3.405730
  C      5.073310  -10.931230   -4.367340
  C      4.469290   -9.725260   -3.974090
  C      4.129430   -8.739080   -4.983990
  S      5.134330   -8.639860   -6.402140
  C      4.189680   -7.339660   -7.044660
  C      4.636250   -6.684790   -8.270550
  C      5.934350   -6.236920   -8.329650
  C      6.404080   -5.522550   -9.444240
  N      7.677400   -5.077570   -9.476860
  C      8.046470   -4.413540  -10.539490
  C      7.165040   -4.159260  -11.610850
  N      5.925900   -4.571470  -11.606820
  C      5.513790   -5.265630  -10.524200
  C      4.202420   -5.763570  -10.466160
  C      3.757010   -6.471960   -9.373280
  C      2.418780   -7.035840   -9.392760
  S      2.148100   -8.689280   -8.937100
  C      0.449600   -8.561650   -9.299630
  C     -0.429320   -9.675760   -9.174230
  C     -0.073440  -10.899150   -8.740540
  C     -0.942870  -12.050740   -8.678100
  C     -0.465150  -13.237610   -8.110000
  C     -1.232980  -14.391260   -8.043820
  C     -2.513640  -14.365630   -8.560020
  C     -3.009420  -13.177330   -9.132110
  C     -2.250200  -12.035280   -9.197130
  C     -4.395910  -13.405130   -9.619040
  O     -5.132240  -12.608910  -10.154620
  C     -4.672570  -14.828600   -9.294860
  C     -5.807250  -15.575670   -9.532490
  C     -5.816640  -16.907380   -9.130530
  C     -4.711740  -17.463890   -8.507920
  C     -3.564670  -16.714060   -8.266180
  C     -3.547200  -15.391770   -8.662390
  C      0.134370   -7.287750   -9.732900
  C      1.252720   -6.427910   -9.794740
  C      1.129630   -4.980840  -10.150700
  C     -0.295830   -4.512970   -9.876590
  C     -1.276900   -5.408790  -10.621870
  C     -1.267910   -6.836670  -10.055320
  O     -1.835740   -7.768510  -10.961050
  C     -3.226000   -7.659340  -11.128800
  C      3.161220   -7.006330   -6.200320
  C      3.125610   -7.800600   -5.024890
  C      2.065990   -7.613360   -3.981570
  C      0.888060   -6.822170   -4.543340
  C      1.406820   -5.544010   -5.190730
  C      2.165700   -5.905380   -6.472140
  O      2.734770   -4.789420   -7.136530
  C      3.731610   -4.091660   -6.427540
  C      4.264840   -9.485880   -2.613820
  C      4.638010  -10.405440   -1.642780
  C      5.232890  -11.586960   -2.035930
  H      8.673190  -18.044970    0.004080
  H      8.382270  -17.145660   -1.556910
  H      7.486430  -16.368110    1.264630
  H      6.470000  -14.321390    1.587360
  H      5.416230  -12.247440    0.798140
  H      7.278820  -15.515240   -2.454000
  H      5.248330  -11.140130   -5.412350
  H      6.616070   -6.407010   -7.509560
  H      9.070010   -4.063300  -10.561710
  H      7.489390   -3.605890  -12.482270
  H      3.566460   -5.608840  -11.322310
  H     -1.440410   -9.479460   -9.494450
  H      0.948190  -11.058330   -8.415840
  H      0.539950  -13.252100   -7.712530
  H     -0.828170  -15.288760   -7.600470
  H     -2.659860  -11.151310   -9.659470
  H     -6.661370  -15.130530  -10.020320
  H     -6.692590  -17.513810   -9.306680
  H     -4.739990  -18.499960   -8.203040
  H     -2.711430  -17.161280   -7.778700
  H      1.351090   -4.836250  -11.212060
  H      1.850720   -4.403680   -9.569130
  H     -0.414930   -3.478790  -10.203380
  H     -0.497480   -4.554310   -8.803510
  H     -0.998090   -5.460180  -11.677100
  H     -2.286740   -4.999740  -10.554350
  H     -1.856430   -6.851340   -9.115450
  H     -3.531900   -8.530030  -11.706790
  H     -3.506080   -6.751980  -11.674660
  H     -3.744960   -7.664990  -10.161290
  H      2.482570   -7.052790   -3.137860
  H      1.738110   -8.585520   -3.606330
  H      0.191210   -6.583130   -3.738300
  H      0.356670   -7.420700   -5.286530
  H      2.071260   -5.030240   -4.493370
  H      0.588780   -4.867920   -5.444300
  H      1.432080   -6.275150   -7.201510
  H      4.264900   -3.493050   -7.164970
  H      4.438360   -4.773180   -5.944380
  H      3.299010   -3.424920   -5.673160
  H      3.841300   -8.546470   -2.299710
  H      4.476170  -10.183260   -0.598590

 Total Charge           Charge          ....    0
 Multiplicity           Mult            ....    1
 Number of Electrons    NEL             ....  456
 Basis Dimension        Dim             .... 1114

ORBITAL ENERGIES
----------------

  NO   OCC          E(Eh)            E(eV)
   0   2.0000     -88.947097     -2420.3736
   1   2.0000     -88.939876     -2420.1771
   2   2.0000     -19.209993      -522.7305
   3   2.0000     -19.207824      -522.6715
   4   2.0000     -19.207104      -522.6519
   5   2.0000     -19.202226      -522.5191
   6   2.0000     -14.412179      -392.1753
   7   2.0000     -14.411641      -392.1607
   8   2.0000     -10.353672      -281.7377
   9   2.0000     -10.347839      -281.5790
  10   2.0000     -10.315622      -280.7023
  11   2.0000     -10.313325      -280.6398
  12   2.0000     -10.306343      -280.4498
  13   2.0000     -10.305902      -280.4379
  14   2.0000     -10.303103      -280.3617
  15   2.0000     -10.302781      -280.3529
  16   2.0000     -10.301687      -280.3232
  17   2.0000     -10.300121      -280.2805
  18   2.0000     -10.292116      -280.0627
  19   2.0000     -10.290740      -280.0253
  20   2.0000     -10.289842      -280.0008
  21   2.0000     -10.289246      -279.9846
  22   2.0000     -10.287415      -279.9348
  23   2.0000     -10.285830      -279.8917
  24   2.0000     -10.284140      -279.8457
  25   2.0000     -10.283256      -279.8216
  26   2.0000     -10.283077      -279.8167
  27   2.0000     -10.281297      -279.7683
  28   2.0000     -10.281138      -279.7640
  29   2.0000     -10.280151      -279.7371
  30   2.0000     -10.280021      -279.7336
  31   2.0000     -10.279228      -279.7120
  32   2.0000     -10.278829      -279.7012
  33   2.0000     -10.278528      -279.6930
  34   2.0000     -10.278358      -279.6884
  35   2.0000     -10.276193      -279.6294
  36   2.0000     -10.275487      -279.6102
  37   2.0000     -10.275374      -279.6071
  38   2.0000     -10.274637      -279.5871
  39   2.0000     -10.272866      -279.5389
  40   2.0000     -10.272240      -279.5219
  41   2.0000     -10.272186      -279.5204
  42   2.0000     -10.272148      -279.5194
  43   2.0000     -10.272073      -279.5173
  44   2.0000     -10.271418      -279.4995
  45   2.0000     -10.271218      -279.4940
  46   2.0000     -10.270282      -279.4686
  47   2.0000     -10.270163      -279.4653
  48   2.0000     -10.270151      -279.4650
  49   2.0000     -10.269731      -279.4536
  50   2.0000     -10.267654      -279.3971
  51   2.0000     -10.266739      -279.3722
  52   2.0000     -10.265778      -279.3460
  53   2.0000     -10.264721      -279.3172
  54   2.0000     -10.264254      -279.3046
  55   2.0000     -10.264213      -279.3034
  56   2.0000     -10.263716      -279.2899
  57   2.0000     -10.263577      -279.2861
  58   2.0000     -10.262949      -279.2690
  59   2.0000     -10.261392      -279.2267
  60   2.0000     -10.260333      -279.1979
  61   2.0000     -10.258013      -279.1347
  62   2.0000     -10.255658      -279.0706
  63   2.0000     -10.255328      -279.0617
  64   2.0000      -8.042461      -218.8465
  65   2.0000      -8.034601      -218.6326
  66   2.0000      -6.011627      -163.5847
  67   2.0000      -6.007569      -163.4743
  68   2.0000      -6.004746      -163.3975
  69   2.0000      -6.003807      -163.3719
  70   2.0000      -5.999823      -163.2635
  71   2.0000      -5.996866      -163.1830
  72   2.0000      -1.119390       -30.4601
  73   2.0000      -1.113434       -30.2981
  74   2.0000      -1.109583       -30.1933
  75   2.0000      -1.109499       -30.1910
  76   2.0000      -1.066634       -29.0246
  77   2.0000      -0.990620       -26.9561
  78   2.0000      -0.989634       -26.9293
  79   2.0000      -0.983740       -26.7689
  80   2.0000      -0.978540       -26.6274
  81   2.0000      -0.975515       -26.5451
  82   2.0000      -0.951605       -25.8945
  83   2.0000      -0.944138       -25.6913
  84   2.0000      -0.941736       -25.6259
  85   2.0000      -0.911476       -24.8025
  86   2.0000      -0.906073       -24.6555
  87   2.0000      -0.904731       -24.6190
  88   2.0000      -0.896448       -24.3936
  89   2.0000      -0.877108       -23.8673
  90   2.0000      -0.870784       -23.6952
  91   2.0000      -0.863859       -23.5068
  92   2.0000      -0.855395       -23.2765
  93   2.0000      -0.847654       -23.0658
  94   2.0000      -0.841544       -22.8996
  95   2.0000      -0.838836       -22.8259
  96   2.0000      -0.833543       -22.6819
  97   2.0000      -0.831123       -22.6160
  98   2.0000      -0.828933       -22.5564
  99   2.0000      -0.817399       -22.2426
 100   2.0000      -0.812926       -22.1208
 101   2.0000      -0.807923       -21.9847
 102   2.0000      -0.804320       -21.8867
 103   2.0000      -0.779939       -21.2232
 104   2.0000      -0.772970       -21.0336
 105   2.0000      -0.762186       -20.7401
 106   2.0000      -0.756116       -20.5750
 107   2.0000      -0.751992       -20.4627
 108   2.0000      -0.748617       -20.3709
 109   2.0000      -0.742363       -20.2007
 110   2.0000      -0.735155       -20.0046
 111   2.0000      -0.718073       -19.5398
 112   2.0000      -0.711302       -19.3555
 113   2.0000      -0.695537       -18.9265
 114   2.0000      -0.690765       -18.7967
 115   2.0000      -0.688967       -18.7478
 116   2.0000      -0.686798       -18.6887
 117   2.0000      -0.678085       -18.4516
 118   2.0000      -0.677355       -18.4318
 119   2.0000      -0.672684       -18.3047
 120   2.0000      -0.666480       -18.1359
 121   2.0000      -0.661938       -18.0122
 122   2.0000      -0.657217       -17.8838
 123   2.0000      -0.654769       -17.8172
 124   2.0000      -0.645067       -17.5532
 125   2.0000      -0.635287       -17.2870
 126   2.0000      -0.627437       -17.0734
 127   2.0000      -0.617020       -16.7900
 128   2.0000      -0.612073       -16.6553
 129   2.0000      -0.611740       -16.6463
 130   2.0000      -0.597235       -16.2516
 131   2.0000      -0.595511       -16.2047
 132   2.0000      -0.593148       -16.1404
 133   2.0000      -0.591564       -16.0973
 134   2.0000      -0.586632       -15.9631
 135   2.0000      -0.580750       -15.8030
 136   2.0000      -0.573506       -15.6059
 137   2.0000      -0.570824       -15.5329
 138   2.0000      -0.567900       -15.4533
 139   2.0000      -0.558546       -15.1988
 140   2.0000      -0.557726       -15.1765
 141   2.0000      -0.554493       -15.0885
 142   2.0000      -0.546827       -14.8799
 143   2.0000      -0.539837       -14.6897
 144   2.0000      -0.536024       -14.5860
 145   2.0000      -0.534277       -14.5384
 146   2.0000      -0.532432       -14.4882
 147   2.0000      -0.528506       -14.3814
 148   2.0000      -0.526633       -14.3304
 149   2.0000      -0.525044       -14.2872
 150   2.0000      -0.524669       -14.2770
 151   2.0000      -0.523155       -14.2358
 152   2.0000      -0.520384       -14.1604
 153   2.0000      -0.517463       -14.0809
 154   2.0000      -0.516763       -14.0618
 155   2.0000      -0.515111       -14.0169
 156   2.0000      -0.513984       -13.9862
 157   2.0000      -0.513877       -13.9833
 158   2.0000      -0.512821       -13.9546
 159   2.0000      -0.508520       -13.8375
 160   2.0000      -0.508237       -13.8298
 161   2.0000      -0.507109       -13.7991
 162   2.0000      -0.504916       -13.7395
 163   2.0000      -0.502314       -13.6687
 164   2.0000      -0.497347       -13.5335
 165   2.0000      -0.494599       -13.4587
 166   2.0000      -0.492866       -13.4116
 167   2.0000      -0.491850       -13.3839
 168   2.0000      -0.489684       -13.3250
 169   2.0000      -0.487328       -13.2609
 170   2.0000      -0.482778       -13.1371
 171   2.0000      -0.480929       -13.0867
 172   2.0000      -0.479053       -13.0357
 173   2.0000      -0.470047       -12.7906
 174   2.0000      -0.465896       -12.6777
 175   2.0000      -0.464449       -12.6383
 176   2.0000      -0.459093       -12.4926
 177   2.0000      -0.456179       -12.4133
 178   2.0000      -0.454175       -12.3587
 179   2.0000      -0.451184       -12.2773
 180   2.0000      -0.449479       -12.2309
 181   2.0000      -0.448009       -12.1910
 182   2.0000      -0.444275       -12.0893
 183   2.0000      -0.442603       -12.0438
 184   2.0000      -0.441922       -12.0253
 185   2.0000      -0.439261       -11.9529
 186   2.0000      -0.437265       -11.8986
 187   2.0000      -0.431791       -11.7496
 188   2.0000      -0.428969       -11.6728
 189   2.0000      -0.426538       -11.6067
 190   2.0000      -0.425352       -11.5744
 191   2.0000      -0.422038       -11.4842
 192   2.0000      -0.421428       -11.4676
 193   2.0000      -0.420789       -11.4502
 194   2.0000      -0.417802       -11.3690
 195   2.0000      -0.414452       -11.2778
 196   2.0000      -0.413568       -11.2538
 197   2.0000      -0.410823       -11.1791
 198   2.0000      -0.409967       -11.1558
 199   2.0000      -0.405309       -11.0290
 200   2.0000      -0.403569       -10.9817
 201   2.0000      -0.398959       -10.8562
 202   2.0000      -0.392488       -10.6801
 203   2.0000      -0.389541       -10.6000
 204   2.0000      -0.386909       -10.5283
 205   2.0000      -0.384132       -10.4528
 206   2.0000      -0.375126       -10.2077
 207   2.0000      -0.371865       -10.1190
 208   2.0000      -0.368720       -10.0334
 209   2.0000      -0.347650        -9.4600
 210   2.0000      -0.346236        -9.4216
 211   2.0000      -0.332105        -9.0370
 212   2.0000      -0.331614        -9.0237
 213   2.0000      -0.326426        -8.8825
 214   2.0000      -0.324931        -8.8418
 215   2.0000      -0.324620        -8.8334
 216   2.0000      -0.324197        -8.8219
 217   2.0000      -0.320368        -8.7177
 218   2.0000      -0.318899        -8.6777
 219   2.0000      -0.313397        -8.5280
 220   2.0000      -0.311814        -8.4849
 221   2.0000      -0.310796        -8.4572
 222   2.0000      -0.305337        -8.3086
 223   2.0000      -0.295517        -8.0414
 224   2.0000      -0.285353        -7.7649
 225   2.0000      -0.283575        -7.7165
 226   2.0000      -0.254494        -6.9251
 227   2.0000      -0.237228        -6.4553
 228   0.0000      -0.051954        -1.4137
 229   0.0000      -0.048142        -1.3100
 230   0.0000      -0.036415        -0.9909
 231   0.0000      -0.027910        -0.7595
 232   0.0000      -0.020211        -0.5500

MULLIKEN ATOMIC CHARGES
-----------------------
   0 C :   -0.012234
   1 C :   -0.008457
   2 C :    0.110751
   3 C :   -0.013769
   4 C :   -0.045870
   5 C :    0.109325
   6 C :   -0.044899
   7 C :   -0.062340
   8 C :    0.162343
   9 O :   -0.123512
  10 C :   -0.023850
  11 C :   -0.096991
  12 C :    0.101039
  13 C :   -0.136504
  14 S :    0.146704
  15 C :   -0.231983
  16 C :    0.070410
  17 C :   -0.077235
  18 C :   -0.002983
  19 N :   -0.014570
  20 C :    0.018908
  21 C :    0.018818
  22 N :   -0.015197
  23 C :    0.001077
  24 C :   -0.079582
  25 C :    0.145227
  26 C :   -0.211019
  27 S :    0.137145
  28 C :   -0.103033
  29 C :    0.032865
  30 C :   -0.025211
  31 C :    0.128788
  32 C :   -0.014916
  33 C :   -0.043588
  34 C :    0.100463
  35 C :   -0.028122
  36 C :   -0.076231
  37 C :    0.156007
  38 O :   -0.131454
  39 C :   -0.048002
  40 C :   -0.024130
  41 C :    0.026364
  42 C :    0.043720
  43 C :   -0.057049
  44 C :    0.110108
  45 C :   -0.041322
  46 C :   -0.049259
  47 C :    0.133528
  48 C :    0.020016
  49 C :    0.031586
  50 C :    0.192669
  51 O :   -0.383575
  52 C :    0.191230
  53 C :   -0.003923
  54 C :   -0.084028
  55 C :    0.096824
  56 C :    0.030008
  57 C :    0.044839
  58 C :    0.242971
  59 O :   -0.387326
  60 C :    0.199052
  61 C :   -0.006409
  62 C :   -0.053616
  63 C :    0.108851
  64 H :    0.023701
  65 H :    0.020725
  66 H :   -0.015484
  67 H :   -0.020554
  68 H :   -0.032333
  69 H :   -0.023169
  70 H :   -0.007568
  71 H :   -0.029426
  72 H :    0.006876
  73 H :    0.007319
  74 H :   -0.035022
  75 H :   -0.009275
  76 H :   -0.020599
  77 H :   -0.020305
  78 H :   -0.033249
  79 H :   -0.025697
  80 H :   -0.013055
  81 H :   -0.011599
  82 H :   -0.011308
  83 H :   -0.031204
  84 H :    0.010404
  85 H :    0.029024
  86 H :   -0.000691
  87 H :    0.003912
  88 H :    0.005991
  89 H :   -0.001662
  90 H :   -0.009552
  91 H :    0.036461
  92 H :    0.008524
  93 H :   -0.001293
  94 H :    0.020063
  95 H :    0.017123
  96 H :   -0.001367
  97 H :    0.012105
  98 H :   -0.005048
  99 H :    0.002170
 100 H :    0.021523
 101 H :    0.025224
 102 H :    0.014237
 103 H :    0.007726
 104 H :   -0.030162
 105 H :   -0.032933
Sum of atomic charges:    0.0000000

LOEWDIN ATOMIC CHARGES
----------------------
   0 C :   -0.038846
   1 C :   -0.022451
   2 C :   -0.027036
   3 C :   -0.000619
   4 C :   -0.021554
   5 C :   -0.004640
   6 C :   -0.058779
   7 C :    0.026215
   8 C :    0.089297
   9 O :   -0.127046
  10 C :   -0.057298
  11 C :    0.010385
  12 C :   -0.037303
  13 C :   -0.174584
  14 S :    0.454370
  15 C :   -0.180047
  16 C :   -0.031062
  17 C :   -0.013410
  18 C :   -0.018070
  19 N :   -0.041841
  20 C :   -0.004088
  21 C :   -0.002323
  22 N :   -0.042759
  23 C :   -0.014632
  24 C :   -0.003698
  25 C :   -0.016410
  26 C :   -0.175230
  27 S :    0.450987
  28 C :   -0.162520
  29 C :   -0.027355
  30 C :   -0.032166
  31 C :   -0.021790
  32 C :   -0.002733
  33 C :   -0.019765
  34 C :   -0.009323
  35 C :   -0.058799
  36 C :    0.022221
  37 C :    0.088639
  38 O :   -0.133712
  39 C :   -0.062612
  40 C :    0.013602
  41 C :   -0.027498
  42 C :   -0.003588
  43 C :   -0.024106
  44 C :   -0.000349
  45 C :   -0.069555
  46 C :   -0.049391
  47 C :   -0.027208
  48 C :   -0.024887
  49 C :   -0.041108
  50 C :    0.071219
  51 O :   -0.164387
  52 C :    0.065155
  53 C :   -0.074812
  54 C :   -0.055132
  55 C :   -0.028228
  56 C :   -0.024957
  57 C :   -0.037242
  58 C :    0.063660
  59 O :   -0.158574
  60 C :    0.064477
  61 C :   -0.001322
  62 C :   -0.019252
  63 C :   -0.006198
  64 H :    0.026987
  65 H :    0.022212
  66 H :    0.028130
  67 H :    0.028801
  68 H :    0.028256
  69 H :    0.033831
  70 H :    0.029831
  71 H :    0.030836
  72 H :    0.023985
  73 H :    0.024096
  74 H :    0.036177
  75 H :    0.030285
  76 H :    0.019752
  77 H :    0.029510
  78 H :    0.028231
  79 H :    0.032887
  80 H :    0.035226
  81 H :    0.028920
  82 H :    0.030127
  83 H :    0.027571
  84 H :    0.028759
  85 H :    0.033915
  86 H :    0.024700
  87 H :    0.021022
  88 H :    0.026357
  89 H :    0.020904
  90 H :    0.009791
  91 H :    0.026177
  92 H :    0.006168
  93 H :    0.005586
  94 H :    0.027665
  95 H :    0.032749
  96 H :    0.024817
  97 H :    0.025488
  98 H :    0.018972
  99 H :    0.025168
 100 H :    0.031537
 101 H :    0.023287
 102 H :    0.009304
 103 H :    0.005778
 104 H :    0.029787
 105 H :    0.028489

  Mayer bond orders larger than 0.100000
B(  0-C ,  1-C ) :   1.9553 B(  0-C , 64-H ) :   0.9491 B(  0-C , 65-H ) :   0.9481
B(  1-C ,  2-C ) :   1.0617 B(  1-C , 66-H ) :   0.9692 B(  2-C ,  3-C ) :   1.3744
B(  2-C ,  7-C ) :   1.2777 B(  3-C ,  4-C ) :   1.3416 B(  3-C , 67-H ) :   0.9913
B(  4-C ,  5-C ) :   1.4041 B(  4-C , 68-H ) :   0.9949 B(  5-C ,  6-C ) :   1.3248
B(  5-C , 63-C ) :   0.9639 B(  6-C ,  7-C ) :   1.4217 B(  6-C ,  8-C ) :   0.9058
B(  7-C , 69-H ) :   1.0027 B(  8-C ,  9-O ) :   2.3139 B(  8-C , 10-C ) :   0.9022
B( 10-C , 11-C ) :   1.3986 B( 10-C , 63-C ) :   1.3301 B( 11-C , 12-C ) :   1.2673
B( 11-C , 70-H ) :   1.0027 B( 12-C , 13-C ) :   1.0105 B( 12-C , 61-C ) :   1.3921
B( 13-C , 14-S ) :   1.1233 B( 13-C , 15-C ) :   0.1190 B( 13-C , 54-C ) :   1.5798
B( 14-S , 15-C ) :   1.1509 B( 15-C , 16-C ) :   0.9716 B( 15-C , 53-C ) :   1.5788
B( 16-C , 17-C ) :   1.4283 B( 16-C , 25-C ) :   1.2608 B( 17-C , 18-C ) :   1.2099
B( 17-C , 24-C ) :   0.1033 B( 17-C , 71-H ) :   1.0153 B( 18-C , 19-N ) :   1.4319
B( 18-C , 23-C ) :   1.2455 B( 19-N , 20-C ) :   1.6673 B( 20-C , 21-C ) :   1.2300
B( 20-C , 72-H ) :   0.9736 B( 21-C , 22-N ) :   1.6692 B( 21-C , 73-H ) :   0.9735
B( 22-N , 23-C ) :   1.4322 B( 23-C , 24-C ) :   1.2107 B( 24-C , 25-C ) :   1.4357
B( 24-C , 74-H ) :   1.0165 B( 25-C , 26-C ) :   0.9669 B( 26-C , 27-S ) :   1.1366
B( 26-C , 28-C ) :   0.1118 B( 26-C , 46-C ) :   1.5785 B( 27-S , 28-C ) :   1.1137
B( 28-C , 29-C ) :   1.1488 B( 28-C , 45-C ) :   1.5124 B( 29-C , 30-C ) :   1.6780
B( 29-C , 75-H ) :   0.9522 B( 30-C , 31-C ) :   1.0669 B( 30-C , 76-H ) :   0.9842
B( 31-C , 32-C ) :   1.3610 B( 31-C , 36-C ) :   1.2691 B( 32-C , 33-C ) :   1.3424
B( 32-C , 77-H ) :   0.9927 B( 33-C , 34-C ) :   1.4048 B( 33-C , 78-H ) :   0.9948
B( 34-C , 35-C ) :   1.3229 B( 34-C , 44-C ) :   0.9610 B( 35-C , 36-C ) :   1.4172
B( 35-C , 37-C ) :   0.9066 B( 36-C , 79-H ) :   1.0027 B( 37-C , 38-O ) :   2.3031
B( 37-C , 39-C ) :   0.9195 B( 39-C , 40-C ) :   1.4094 B( 39-C , 44-C ) :   1.3376
B( 40-C , 41-C ) :   1.3335 B( 40-C , 80-H ) :   1.0027 B( 41-C , 42-C ) :   1.4094
B( 41-C , 81-H ) :   0.9885 B( 42-C , 43-C ) :   1.3473 B( 42-C , 82-H ) :   0.9841
B( 43-C , 44-C ) :   1.4129 B( 43-C , 83-H ) :   0.9945 B( 45-C , 46-C ) :   1.3021
B( 45-C , 50-C ) :   0.9673 B( 46-C , 47-C ) :   1.0563 B( 47-C , 48-C ) :   1.0856
B( 47-C , 84-H ) :   0.9020 B( 47-C , 85-H ) :   0.9043 B( 48-C , 49-C ) :   1.0721
B( 48-C , 86-H ) :   0.9300 B( 48-C , 87-H ) :   0.9460 B( 49-C , 50-C ) :   1.0748
B( 49-C , 88-H ) :   0.9240 B( 49-C , 89-H ) :   0.9272 B( 50-C , 51-O ) :   1.0265
B( 50-C , 90-H ) :   0.9029 B( 51-O , 52-C ) :   0.9821 B( 52-C , 91-H ) :   0.9821
B( 52-C , 92-H ) :   0.9693 B( 52-C , 93-H ) :   0.9612 B( 53-C , 54-C ) :   1.2719
B( 53-C , 58-C ) :   0.9723 B( 54-C , 55-C ) :   1.0497 B( 55-C , 56-C ) :   1.0916
B( 55-C , 94-H ) :   0.9055 B( 55-C , 95-H ) :   0.9152 B( 56-C , 57-C ) :   1.0619
B( 56-C , 96-H ) :   0.9276 B( 56-C , 97-H ) :   0.9437 B( 57-C , 58-C ) :   1.0663
B( 57-C , 98-H ) :   0.9316 B( 57-C , 99-H ) :   0.9255 B( 58-C , 59-O ) :   1.0128
B( 58-C ,100-H ) :   0.8706 B( 59-O , 60-C ) :   0.9709 B( 60-C ,101-H ) :   0.9811
B( 60-C ,102-H ) :   0.9612 B( 60-C ,103-H ) :   0.9659 B( 61-C , 62-C ) :   1.3484
B( 61-C ,104-H ) :   0.9860 B( 62-C , 63-C ) :   1.3967 B( 62-C ,105-H ) :   0.9965

-----------------------------------------------------------------------------
         ABSORPTION SPECTRUM VIA TRANSITION ELECTRIC DIPOLE MOMENTS
-----------------------------------------------------------------------------
State   Energy  Wavelength   fosc         T2         TX        TY        TZ
        (cm-1)    (nm)                  (au**2)     (au)      (au)      (au)
-----------------------------------------------------------------------------
   0   24574.8    406.9   0.401275881   5.37563  -1.51007  -1.75753   0.08004
   1   25517.5    391.9   0.172385022   2.22401   0.34786  -1.09851   0.94671
   2   27634.8    361.9   0.644946654   7.68323   1.84248   1.98392  -0.59378
   3   28531.4    350.5   0.331316999   3.82293   1.47548   1.22168   0.39164
   4   29477.9    339.2   0.001560432   0.01743  -0.11619  -0.05665  -0.02679
   5   29664.6    337.1   0.000403558   0.00448  -0.04386  -0.03933  -0.03176
   6   29804.5    335.5   0.177450428   1.96007   1.01825   0.79887   0.53389
   7   30675.5    326.0   0.043278698   0.46447   0.31502   0.41877  -0.43574
   8   31044.4    322.1   0.063814067   0.67672   0.14937   0.75327  -0.29493
   9   32173.9    310.8   1.077023435  11.02038  -0.28764  -2.64426   1.98633
  10   33491.1    298.6   0.043249021   0.42513   0.25461   0.55428   0.23039
  11   33668.4    297.0   0.055709612   0.54473   0.49351  -0.46523   0.29111
  12   34536.1    289.6   0.226797082   2.16192  -0.89271   1.00408  -0.59735
  13   34834.9    287.1   0.049943378   0.47200  -0.26788   0.63212   0.02565
  14   36632.7    273.0   0.023849474   0.21433  -0.37982   0.18718  -0.18717
  15   36843.7    271.4   0.017263419   0.15426   0.24960  -0.08926  -0.28980
  16   37902.3    263.8   0.028076499   0.24387   0.45367  -0.19046   0.04217
  17   38050.2    262.8   0.071210864   0.61612  -0.70233   0.03224   0.34901
  18   38286.5    261.2   0.052154694   0.44846   0.41797   0.51065  -0.11398
  19   38994.1    256.4   0.253957597   2.14407  -0.11063   1.04970  -1.01486
  20   39073.8    255.9   0.060046311   0.50591   0.30642  -0.20688   0.60763
  21   39516.8    253.1   0.028297281   0.23574  -0.01002   0.46904   0.12506
  22   39767.3    251.5   0.233060412   1.92938   0.09278  -1.28358   0.52269
  23   40055.5    249.7   0.025761172   0.21173   0.32230  -0.15396   0.29008

FINAL SINGLE POINT ENERGY     -3362.552902713996

DIPOLE MOMENT
-------------
                                X             Y             Z
Electronic contribution:     23.55731     -22.21825      -7.87688
Nuclear contribution   :    -23.89592      22.82781      10.17860
                        -----------------------------------------
Total Dipole Moment    :     -0.33861       0.60956       2.30172
                        -----------------------------------------
Magnitude (a.u.)       :      2.40502
Magnitude (Debye)      :      6.11308

Rotational constants in cm-1:     0.000892     0.000835     0.000484
Rotational constants in MHz :    26.742213    25.038233    14.519849

                             ****ORCA TERMINATED NORMALLY****
TOTAL RUN TIME: 0 days 0 hours 9 minutes 41 seconds 968 msec
