                         Program Version 4.2.0 -  RELEASE  -
|  1> # ORCA input file
|  2> # SCF done       -199.261867416366          0.000881743848
|  3> ! CAM-B3LYP def2-SVP def2/J RIJCOSX Grid4 TightSCF
|  4> %maxcore 5000
|  5> %tddft
|  6>     Mode sTDDFT
|  7>     Ethresh 5.0
|  8>     maxcore 5000
|  9> end
| 10>
| 11> %pal
| 12>   nprocs 6
| 13>   end
| 14> * xyz 0 1
| 15>    C       -4.95730         0.09360        -0.04943
| 16>    C       -4.43240         0.91686        -1.02999
| 17>    C       -4.72787         2.28076        -0.97708
| 18>    C       -4.21482         3.14473        -1.97669
| 19>    N       -3.80074         3.83721        -2.78875
| 20>    C       -5.53076         2.81463         0.04922
| 21>    C       -5.80388         4.20355         0.08240
| 22>    N       -6.04033         5.32287         0.12515
| 23>    C       -6.06704         1.97720         1.02925
| 24>    C       -5.77964         0.63074         0.96033
| 25>    C       -6.25780        -0.46335         1.83673
| 26>    O       -6.93693        -0.37235         2.83122
| 27>    C       -5.76821        -1.71436         1.19787
| 28>    C       -4.81219        -1.34679         0.17708
| 29>    C       -3.77577        -2.10451        -0.30162
| 30>    C       -2.79367        -1.62170        -1.19383
| 31>    N       -1.97029        -1.27237        -1.91156
| 32>    C       -3.51109        -3.42262         0.11972
| 33>    N       -3.25328        -4.48892         0.45724
| 34>    C       -6.31475        -2.90057         1.59806
| 35>    C       -6.32569        -4.14400         0.94031
| 36>    C       -6.05186        -4.43893        -0.39083
| 37>    C       -6.19158        -5.78870        -0.66980
| 38>    C       -6.59065        -6.54558         0.45427
| 39>    S       -6.80426        -5.58336         1.83923
| 40>    C       -6.67871        -7.90334         0.06594
| 41>    C       -6.32441        -8.00981        -1.29277
| 42>    C       -6.00244        -6.68539        -1.79775
| 43>    C       -5.58082        -6.34482        -3.04897
| 44>    C       -5.41901        -7.29622        -4.07878
| 45>    N       -5.29405        -8.06523        -4.91935
| 46>    C       -5.28422        -5.00423        -3.37602
| 47>    N       -5.05379        -3.90697        -3.61613
| 48>    C       -6.37224        -9.31795        -1.76697
| 49>    C       -6.77093       -10.21359        -0.79034
| 50>    S       -7.08228        -9.41437         0.74633
| 51>    C       -6.95442       -11.62748        -0.91239
| 52>    C       -7.51854       -12.38204         0.10749
| 53>    C       -7.73349       -13.74965         0.00211
| 54>    C       -7.39154       -14.48264        -1.12673
| 55>    C       -6.78364       -13.75921        -2.19611
| 56>    C       -6.57283       -12.33393        -2.09182
| 57>    N       -6.00231       -11.79604        -3.16117
| 58>   Se       -5.69731       -13.02888        -4.35714
| 59>    N       -6.37268       -14.27929        -3.34450
| 60>    C       -7.64893       -15.88706        -1.21768
| 61>    C       -7.31557       -16.75165        -2.24660
| 62>    C       -7.74577       -18.05232        -2.00110
| 63>    C       -8.41940       -18.18496        -0.77212
| 64>    S       -8.51030       -16.70848         0.07799
| 65>    C       -8.83733       -19.52654        -0.62980
| 66>    C       -8.41602       -20.25503        -1.76406
| 67>    C       -7.71588       -19.34911        -2.66082
| 68>    C       -7.15320       -19.64772        -3.86569
| 69>    C       -7.17628       -20.95476        -4.39917
| 70>    N       -7.18593       -22.01682        -4.82987
| 71>    C       -6.50372       -18.67471        -4.65656
| 72>    N       -5.97234       -17.89200        -5.30362
| 73>    C       -8.78456       -21.59202        -1.71038
| 74>    C       -9.52537       -21.89147        -0.57353
| 75>    S       -9.70024       -20.48406         0.47868
| 76>    C      -10.01887       -23.16523        -0.22635
| 77>    C      -10.98119       -23.50637         0.67882
| 78>    C      -11.01007       -24.88553         1.23119
| 79>    O      -10.40079       -25.84724         0.82971
| 80>    C      -11.89896       -24.80475         2.41602
| 81>    C      -12.17631       -25.77812         3.35197
| 82>    C      -13.03162       -25.45245         4.40657
| 83>    C      -13.58188       -24.15963         4.49972
| 84>    C      -13.30322       -23.18415         3.54020
| 85>    C      -12.46142       -23.51510         2.49326
| 86>    C      -12.02146       -22.74294         1.33043
| 87>    C      -12.68918       -21.66644         0.80785
| 88>    C      -12.42837       -21.14652        -0.47748
| 89>    N      -12.27047       -20.73008        -1.53520
| 90>    C      -13.76680       -21.02128         1.44857
| 91>    N      -14.63213       -20.45232         1.94212
| 92>    C      -14.43220       -23.84106         5.58776
| 93>    N      -15.11609       -23.57210         6.46547
| 94>    C      -13.34282       -26.42309         5.38940
| 95>    N      -13.58198       -27.21991         6.17605
| 96>    H       -3.82090         0.53851        -1.83398
| 97>    H       -6.69107         2.37186         1.81659
| 98>    H       -6.87832        -2.84476         2.52485
| 99>    H       -5.81234        -3.68731        -1.12033
|100>    H       -6.13625        -9.63080        -2.76696
|101>    H       -7.81573       -11.88376         1.01877
|102>    H       -8.19098       -14.26302         0.83532
|103>    H       -6.78868       -16.41864        -3.12127
|104>    H       -8.56922       -22.32601        -2.46594
|105>    H       -9.50848       -24.00369        -0.69182
|106>    H      -11.74483       -26.76423         3.27135
|107>    H      -13.73746       -22.20187         3.64162
|108> *
|109>
|110>                          ****END OF INPUT****

CARTESIAN COORDINATES (ANGSTROEM)
---------------------------------
  C     -4.957300    0.093600   -0.049430
  C     -4.432400    0.916860   -1.029990
  C     -4.727870    2.280760   -0.977080
  C     -4.214820    3.144730   -1.976690
  N     -3.800740    3.837210   -2.788750
  C     -5.530760    2.814630    0.049220
  C     -5.803880    4.203550    0.082400
  N     -6.040330    5.322870    0.125150
  C     -6.067040    1.977200    1.029250
  C     -5.779640    0.630740    0.960330
  C     -6.257800   -0.463350    1.836730
  O     -6.936930   -0.372350    2.831220
  C     -5.768210   -1.714360    1.197870
  C     -4.812190   -1.346790    0.177080
  C     -3.775770   -2.104510   -0.301620
  C     -2.793670   -1.621700   -1.193830
  N     -1.970290   -1.272370   -1.911560
  C     -3.511090   -3.422620    0.119720
  N     -3.253280   -4.488920    0.457240
  C     -6.314750   -2.900570    1.598060
  C     -6.325690   -4.144000    0.940310
  C     -6.051860   -4.438930   -0.390830
  C     -6.191580   -5.788700   -0.669800
  C     -6.590650   -6.545580    0.454270
  S     -6.804260   -5.583360    1.839230
  C     -6.678710   -7.903340    0.065940
  C     -6.324410   -8.009810   -1.292770
  C     -6.002440   -6.685390   -1.797750
  C     -5.580820   -6.344820   -3.048970
  C     -5.419010   -7.296220   -4.078780
  N     -5.294050   -8.065230   -4.919350
  C     -5.284220   -5.004230   -3.376020
  N     -5.053790   -3.906970   -3.616130
  C     -6.372240   -9.317950   -1.766970
  C     -6.770930  -10.213590   -0.790340
  S     -7.082280   -9.414370    0.746330
  C     -6.954420  -11.627480   -0.912390
  C     -7.518540  -12.382040    0.107490
  C     -7.733490  -13.749650    0.002110
  C     -7.391540  -14.482640   -1.126730
  C     -6.783640  -13.759210   -2.196110
  C     -6.572830  -12.333930   -2.091820
  N     -6.002310  -11.796040   -3.161170
  Se    -5.697310  -13.028880   -4.357140
  N     -6.372680  -14.279290   -3.344500
  C     -7.648930  -15.887060   -1.217680
  C     -7.315570  -16.751650   -2.246600
  C     -7.745770  -18.052320   -2.001100
  C     -8.419400  -18.184960   -0.772120
  S     -8.510300  -16.708480    0.077990
  C     -8.837330  -19.526540   -0.629800
  C     -8.416020  -20.255030   -1.764060
  C     -7.715880  -19.349110   -2.660820
  C     -7.153200  -19.647720   -3.865690
  C     -7.176280  -20.954760   -4.399170
  N     -7.185930  -22.016820   -4.829870
  C     -6.503720  -18.674710   -4.656560
  N     -5.972340  -17.892000   -5.303620
  C     -8.784560  -21.592020   -1.710380
  C     -9.525370  -21.891470   -0.573530
  S     -9.700240  -20.484060    0.478680
  C    -10.018870  -23.165230   -0.226350
  C    -10.981190  -23.506370    0.678820
  C    -11.010070  -24.885530    1.231190
  O    -10.400790  -25.847240    0.829710
  C    -11.898960  -24.804750    2.416020
  C    -12.176310  -25.778120    3.351970
  C    -13.031620  -25.452450    4.406570
  C    -13.581880  -24.159630    4.499720
  C    -13.303220  -23.184150    3.540200
  C    -12.461420  -23.515100    2.493260
  C    -12.021460  -22.742940    1.330430
  C    -12.689180  -21.666440    0.807850
  C    -12.428370  -21.146520   -0.477480
  N    -12.270470  -20.730080   -1.535200
  C    -13.766800  -21.021280    1.448570
  N    -14.632130  -20.452320    1.942120
  C    -14.432200  -23.841060    5.587760
  N    -15.116090  -23.572100    6.465470
  C    -13.342820  -26.423090    5.389400
  N    -13.581980  -27.219910    6.176050
  H     -3.820900    0.538510   -1.833980
  H     -6.691070    2.371860    1.816590
  H     -6.878320   -2.844760    2.524850
  H     -5.812340   -3.687310   -1.120330
  H     -6.136250   -9.630800   -2.766960
  H     -7.815730  -11.883760    1.018770
  H     -8.190980  -14.263020    0.835320
  H     -6.788680  -16.418640   -3.121270
  H     -8.569220  -22.326010   -2.465940
  H     -9.508480  -24.003690   -0.691820
  H    -11.744830  -26.764230    3.271350
  H    -13.737460  -22.201870    3.641620

 Total Charge           Charge          ....    0
 Multiplicity           Mult            ....    1
 Number of Electrons    NEL             ....  584
 Basis Dimension        Dim             .... 1228

ORBITAL ENERGIES
----------------

  NO   OCC          E(Eh)            E(eV)
   0   2.0000    -454.003990    -12354.0766
   1   2.0000     -89.013945     -2422.1926
   2   2.0000     -89.013183     -2422.1719
   3   2.0000     -89.008312     -2422.0393
   4   2.0000     -89.008078     -2422.0329
   5   2.0000     -58.217713     -1584.1845
   6   2.0000     -52.288433     -1422.8406
   7   2.0000     -52.286022     -1422.7750
   8   2.0000     -52.285593     -1422.7633
   9   2.0000     -19.241610      -523.5908
  10   2.0000     -19.240135      -523.5507
  11   2.0000     -14.459520      -393.4635
  12   2.0000     -14.459368      -393.4594
  13   2.0000     -14.446955      -393.1216
  14   2.0000     -14.445753      -393.0889
  15   2.0000     -14.444707      -393.0605
  16   2.0000     -14.444026      -393.0419
  17   2.0000     -14.439275      -392.9126
  18   2.0000     -14.438469      -392.8907
  19   2.0000     -14.438291      -392.8859
  20   2.0000     -14.433197      -392.7472
  21   2.0000     -14.433138      -392.7457
  22   2.0000     -14.432772      -392.7357
  23   2.0000     -14.429885      -392.6571
  24   2.0000     -14.428894      -392.6302
  25   2.0000     -10.393558      -282.8231
  26   2.0000     -10.391428      -282.7651
  27   2.0000     -10.382907      -282.5333
  28   2.0000     -10.382023      -282.5092
  29   2.0000     -10.371541      -282.2240
  30   2.0000     -10.369122      -282.1582
  31   2.0000     -10.369097      -282.1575
  32   2.0000     -10.368467      -282.1403
  33   2.0000     -10.368308      -282.1360
  34   2.0000     -10.366204      -282.0787
  35   2.0000     -10.365777      -282.0671
  36   2.0000     -10.365025      -282.0467
  37   2.0000     -10.364186      -282.0238
  38   2.0000     -10.362395      -281.9751
  39   2.0000     -10.362118      -281.9676
  40   2.0000     -10.361314      -281.9457
  41   2.0000     -10.352045      -281.6935
  42   2.0000     -10.351728      -281.6848
  43   2.0000     -10.351136      -281.6687
  44   2.0000     -10.350665      -281.6559
  45   2.0000     -10.347747      -281.5765
  46   2.0000     -10.347007      -281.5564
  47   2.0000     -10.346719      -281.5485
  48   2.0000     -10.346447      -281.5411
  49   2.0000     -10.346352      -281.5386
  50   2.0000     -10.345898      -281.5262
  51   2.0000     -10.345278      -281.5093
  52   2.0000     -10.345027      -281.5025
  53   2.0000     -10.344960      -281.5007
  54   2.0000     -10.344341      -281.4838
  55   2.0000     -10.343717      -281.4669
  56   2.0000     -10.342987      -281.4470
  57   2.0000     -10.340611      -281.3823
  58   2.0000     -10.340343      -281.3750
  59   2.0000     -10.339844      -281.3614
  60   2.0000     -10.339371      -281.3486
  61   2.0000     -10.338567      -281.3267
  62   2.0000     -10.336665      -281.2750
  63   2.0000     -10.336063      -281.2586
  64   2.0000     -10.333962      -281.2014
  65   2.0000     -10.333249      -281.1820
  66   2.0000     -10.332058      -281.1496
  67   2.0000     -10.331707      -281.1400
  68   2.0000     -10.331569      -281.1363
  69   2.0000     -10.331457      -281.1332
  70   2.0000     -10.329650      -281.0841
  71   2.0000     -10.329409      -281.0775
  72   2.0000     -10.328010      -281.0394
  73   2.0000     -10.326446      -280.9969
  74   2.0000     -10.325532      -280.9720
  75   2.0000     -10.325104      -280.9604
  76   2.0000     -10.325071      -280.9595
  77   2.0000     -10.324539      -280.9450
  78   2.0000     -10.323677      -280.9215
  79   2.0000     -10.320777      -280.8426
  80   2.0000     -10.319970      -280.8206
  81   2.0000     -10.319944      -280.8199
  82   2.0000     -10.319314      -280.8028
  83   2.0000     -10.311871      -280.6003
  84   2.0000     -10.311835      -280.5993
  85   2.0000      -8.108153      -220.6341
  86   2.0000      -8.107891      -220.6269
  87   2.0000      -8.102852      -220.4898
  88   2.0000      -8.102520      -220.4808
  89   2.0000      -7.993439      -217.5125
  90   2.0000      -6.077419      -165.3750
  91   2.0000      -6.077064      -165.3653
  92   2.0000      -6.073200      -165.2602
  93   2.0000      -6.072869      -165.2512
  94   2.0000      -6.072104      -165.2304
  95   2.0000      -6.071775      -165.2214
  96   2.0000      -6.070538      -165.1877
  97   2.0000      -6.070373      -165.1832
  98   2.0000      -6.067912      -165.1163
  99   2.0000      -6.067578      -165.1072
 100   2.0000      -6.065218      -165.0430
 101   2.0000      -6.064941      -165.0354
 102   2.0000      -5.943598      -161.7335
 103   2.0000      -5.936839      -161.5496
 104   2.0000      -5.933321      -161.4539
 105   2.0000      -2.297642       -62.5220
 106   2.0000      -2.297019       -62.5051
 107   2.0000      -2.292658       -62.3864
 108   2.0000      -2.287545       -62.2473
 109   2.0000      -2.287278       -62.2400
 110   2.0000      -1.157624       -31.5006
 111   2.0000      -1.156027       -31.4571
 112   2.0000      -1.116503       -30.3816
 113   2.0000      -1.066197       -29.0127
 114   2.0000      -1.065541       -28.9948
 115   2.0000      -1.050126       -28.5754
 116   2.0000      -1.046373       -28.4733
 117   2.0000      -1.037910       -28.2430
 118   2.0000      -1.037850       -28.2413
 119   2.0000      -1.034926       -28.1618
 120   2.0000      -1.031955       -28.0809
 121   2.0000      -1.023537       -27.8519
 122   2.0000      -1.023298       -27.8454
 123   2.0000      -1.021416       -27.7941
 124   2.0000      -1.020663       -27.7736
 125   2.0000      -1.017271       -27.6814
 126   2.0000      -1.015952       -27.6455
 127   2.0000      -1.015030       -27.6204
 128   2.0000      -1.012448       -27.5501
 129   2.0000      -1.011777       -27.5319
 130   2.0000      -1.008641       -27.4465
 131   2.0000      -0.995441       -27.0873
 132   2.0000      -0.992436       -27.0056
 133   2.0000      -0.985227       -26.8094
 134   2.0000      -0.981933       -26.7197
 135   2.0000      -0.975716       -26.5506
 136   2.0000      -0.970284       -26.4028
 137   2.0000      -0.940873       -25.6025
 138   2.0000      -0.937345       -25.5064
 139   2.0000      -0.933319       -25.3969
 140   2.0000      -0.929927       -25.3046
 141   2.0000      -0.916428       -24.9373
 142   2.0000      -0.911015       -24.7900
 143   2.0000      -0.909057       -24.7367
 144   2.0000      -0.906161       -24.6579
 145   2.0000      -0.895934       -24.3796
 146   2.0000      -0.890283       -24.2258
 147   2.0000      -0.882351       -24.0100
 148   2.0000      -0.881062       -23.9749
 149   2.0000      -0.874929       -23.8080
 150   2.0000      -0.869269       -23.6540
 151   2.0000      -0.856038       -23.2940
 152   2.0000      -0.848492       -23.0886
 153   2.0000      -0.821274       -22.3480
 154   2.0000      -0.815222       -22.1833
 155   2.0000      -0.812165       -22.1001
 156   2.0000      -0.797109       -21.6904
 157   2.0000      -0.796210       -21.6660
 158   2.0000      -0.793323       -21.5874
 159   2.0000      -0.775189       -21.0940
 160   2.0000      -0.760827       -20.7032
 161   2.0000      -0.758385       -20.6367
 162   2.0000      -0.754183       -20.5224
 163   2.0000      -0.748300       -20.3623
 164   2.0000      -0.729996       -19.8642
 165   2.0000      -0.726629       -19.7726
 166   2.0000      -0.719157       -19.5692
 167   2.0000      -0.716865       -19.5069
 168   2.0000      -0.715107       -19.4590
 169   2.0000      -0.713620       -19.4186
 170   2.0000      -0.706983       -19.2380
 171   2.0000      -0.702280       -19.1100
 172   2.0000      -0.696817       -18.9614
 173   2.0000      -0.692651       -18.8480
 174   2.0000      -0.683228       -18.5916
 175   2.0000      -0.671085       -18.2612
 176   2.0000      -0.664665       -18.0865
 177   2.0000      -0.662311       -18.0224
 178   2.0000      -0.660530       -17.9739
 179   2.0000      -0.659808       -17.9543
 180   2.0000      -0.650281       -17.6950
 181   2.0000      -0.646900       -17.6030
 182   2.0000      -0.636719       -17.3260
 183   2.0000      -0.634747       -17.2723
 184   2.0000      -0.627527       -17.0759
 185   2.0000      -0.623961       -16.9788
 186   2.0000      -0.619785       -16.8652
 187   2.0000      -0.616425       -16.7738
 188   2.0000      -0.609407       -16.5828
 189   2.0000      -0.606341       -16.4994
 190   2.0000      -0.602468       -16.3940
 191   2.0000      -0.598172       -16.2771
 192   2.0000      -0.594762       -16.1843
 193   2.0000      -0.583995       -15.8913
 194   2.0000      -0.575092       -15.6490
 195   2.0000      -0.572027       -15.5656
 196   2.0000      -0.571431       -15.5494
 197   2.0000      -0.569096       -15.4859
 198   2.0000      -0.568030       -15.4569
 199   2.0000      -0.566651       -15.4194
 200   2.0000      -0.564266       -15.3545
 201   2.0000      -0.563262       -15.3271
 202   2.0000      -0.559985       -15.2380
 203   2.0000      -0.557947       -15.1825
 204   2.0000      -0.552354       -15.0303
 205   2.0000      -0.546306       -14.8657
 206   2.0000      -0.539363       -14.6768
 207   2.0000      -0.538373       -14.6499
 208   2.0000      -0.535553       -14.5731
 209   2.0000      -0.534184       -14.5359
 210   2.0000      -0.531160       -14.4536
 211   2.0000      -0.527522       -14.3546
 212   2.0000      -0.526176       -14.3180
 213   2.0000      -0.523226       -14.2377
 214   2.0000      -0.522408       -14.2154
 215   2.0000      -0.522083       -14.2066
 216   2.0000      -0.518369       -14.1055
 217   2.0000      -0.517227       -14.0745
 218   2.0000      -0.515810       -14.0359
 219   2.0000      -0.513367       -13.9694
 220   2.0000      -0.507710       -13.8155
 221   2.0000      -0.505451       -13.7540
 222   2.0000      -0.503078       -13.6895
 223   2.0000      -0.500264       -13.6129
 224   2.0000      -0.497833       -13.5467
 225   2.0000      -0.497284       -13.5318
 226   2.0000      -0.493581       -13.4310
 227   2.0000      -0.490274       -13.3410
 228   2.0000      -0.488449       -13.2914
 229   2.0000      -0.486910       -13.2495
 230   2.0000      -0.476361       -12.9625
 231   2.0000      -0.475420       -12.9368
 232   2.0000      -0.474511       -12.9121
 233   2.0000      -0.473447       -12.8831
 234   2.0000      -0.472508       -12.8576
 235   2.0000      -0.471159       -12.8209
 236   2.0000      -0.469785       -12.7835
 237   2.0000      -0.469370       -12.7722
 238   2.0000      -0.467271       -12.7151
 239   2.0000      -0.465863       -12.6768
 240   2.0000      -0.465474       -12.6662
 241   2.0000      -0.462933       -12.5970
 242   2.0000      -0.462295       -12.5797
 243   2.0000      -0.460522       -12.5314
 244   2.0000      -0.458980       -12.4895
 245   2.0000      -0.458588       -12.4788
 246   2.0000      -0.457954       -12.4615
 247   2.0000      -0.456922       -12.4335
 248   2.0000      -0.455668       -12.3994
 249   2.0000      -0.455319       -12.3899
 250   2.0000      -0.454781       -12.3752
 251   2.0000      -0.454197       -12.3593
 252   2.0000      -0.454052       -12.3554
 253   2.0000      -0.453927       -12.3520
 254   2.0000      -0.453515       -12.3408
 255   2.0000      -0.452872       -12.3233
 256   2.0000      -0.451434       -12.2842
 257   2.0000      -0.448729       -12.2105
 258   2.0000      -0.447032       -12.1644
 259   2.0000      -0.445345       -12.1185
 260   2.0000      -0.441761       -12.0209
 261   2.0000      -0.440904       -11.9976
 262   2.0000      -0.440603       -11.9894
 263   2.0000      -0.438547       -11.9335
 264   2.0000      -0.436597       -11.8804
 265   2.0000      -0.433171       -11.7872
 266   2.0000      -0.432791       -11.7768
 267   2.0000      -0.429183       -11.6787
 268   2.0000      -0.428692       -11.6653
 269   2.0000      -0.427271       -11.6266
 270   2.0000      -0.421816       -11.4782
 271   2.0000      -0.418663       -11.3924
 272   2.0000      -0.408045       -11.1035
 273   2.0000      -0.402597       -10.9552
 274   2.0000      -0.397491       -10.8163
 275   2.0000      -0.380658       -10.3582
 276   2.0000      -0.377748       -10.2790
 277   2.0000      -0.374243       -10.1837
 278   2.0000      -0.371021       -10.0960
 279   2.0000      -0.368150       -10.0179
 280   2.0000      -0.367400        -9.9975
 281   2.0000      -0.365952        -9.9581
 282   2.0000      -0.363274        -9.8852
 283   2.0000      -0.359731        -9.7888
 284   2.0000      -0.352469        -9.5912
 285   2.0000      -0.344858        -9.3841
 286   2.0000      -0.341199        -9.2845
 287   2.0000      -0.340836        -9.2746
 288   2.0000      -0.337247        -9.1770
 289   2.0000      -0.322202        -8.7676
 290   2.0000      -0.293426        -7.9845
 291   2.0000      -0.265598        -7.2273
 292   0.0000      -0.137839        -3.7508
 293   0.0000      -0.127132        -3.4594
 294   0.0000      -0.110933        -3.0186
 295   0.0000      -0.109313        -2.9746
 296   0.0000      -0.101314        -2.7569

MULLIKEN ATOMIC CHARGES
-----------------------
   0 C :    0.025008
   1 C :   -0.031522
   2 C :   -0.064130
   3 C :   -0.171959
   4 N :    0.202121
   5 C :   -0.066439
   6 C :   -0.173914
   7 N :    0.197061
   8 C :   -0.035477
   9 C :    0.015739
  10 C :    0.138034
  11 O :   -0.129601
  12 C :   -0.140940
  13 C :    0.264705
  14 C :   -0.313091
  15 C :   -0.170615
  16 N :    0.174199
  17 C :   -0.201930
  18 N :    0.178450
  19 C :    0.088401
  20 C :   -0.112079
  21 C :    0.000034
  22 C :   -0.005277
  23 C :   -0.066367
  24 S :    0.220547
  25 C :   -0.098548
  26 C :    0.037221
  27 C :    0.307116
  28 C :   -0.284865
  29 C :   -0.184064
  30 N :    0.182857
  31 C :   -0.183843
  32 N :    0.170509
  33 C :   -0.048658
  34 C :   -0.108065
  35 S :    0.173754
  36 C :    0.151971
  37 C :   -0.064413
  38 C :   -0.067799
  39 C :    0.156332
  40 C :    0.006157
  41 C :    0.010075
  42 N :   -0.287025
  43 Se:    0.590920
  44 N :   -0.287483
  45 C :   -0.106522
  46 C :   -0.054071
  47 C :    0.038815
  48 C :   -0.091077
  49 S :    0.173517
  50 C :   -0.075103
  51 C :    0.027078
  52 C :    0.301913
  53 C :   -0.291585
  54 C :   -0.190042
  55 N :    0.181670
  56 C :   -0.183649
  57 N :    0.182009
  58 C :    0.010908
  59 C :   -0.099380
  60 S :    0.206137
  61 C :    0.052821
  62 C :   -0.145862
  63 C :    0.146389
  64 O :   -0.123410
  65 C :    0.007758
  66 C :   -0.029988
  67 C :   -0.067989
  68 C :   -0.061948
  69 C :   -0.036393
  70 C :    0.033500
  71 C :    0.247367
  72 C :   -0.314029
  73 C :   -0.208273
  74 N :    0.183206
  75 C :   -0.175324
  76 N :    0.171197
  77 C :   -0.171049
  78 N :    0.200592
  79 C :   -0.172220
  80 N :    0.196439
  81 H :    0.028837
  82 H :    0.018053
  83 H :    0.025387
  84 H :    0.026699
  85 H :    0.023188
  86 H :   -0.004660
  87 H :   -0.003330
  88 H :    0.024606
  89 H :    0.023079
  90 H :    0.040453
  91 H :    0.018708
  92 H :    0.022470
Sum of atomic charges:   -0.0000000

LOEWDIN ATOMIC CHARGES
----------------------
   0 C :    0.005747
   1 C :    0.034044
   2 C :   -0.021949
   3 C :   -0.031273
   4 N :   -0.009444
   5 C :   -0.029234
   6 C :   -0.032217
   7 N :   -0.013440
   8 C :    0.049001
   9 C :   -0.031862
  10 C :    0.082992
  11 O :   -0.130298
  12 C :   -0.101567
  13 C :    0.058622
  14 C :   -0.123569
  15 C :   -0.023200
  16 N :   -0.028994
  17 C :   -0.015015
  18 N :   -0.033937
  19 C :    0.050915
  20 C :   -0.184333
  21 C :    0.015586
  22 C :   -0.064915
  23 C :   -0.151948
  24 S :    0.502949
  25 C :   -0.185265
  26 C :   -0.054510
  27 C :    0.079775
  28 C :   -0.091946
  29 C :   -0.017020
  30 N :   -0.022980
  31 C :   -0.011529
  32 N :   -0.030485
  33 C :   -0.016253
  34 C :   -0.145990
  35 S :    0.481145
  36 C :   -0.038707
  37 C :   -0.019330
  38 C :   -0.017204
  39 C :   -0.041430
  40 C :   -0.029755
  41 C :   -0.030265
  42 N :   -0.239567
  43 Se:    0.619540
  44 N :   -0.240239
  45 C :   -0.142584
  46 C :   -0.018622
  47 C :   -0.050715
  48 C :   -0.188759
  49 S :    0.481263
  50 C :   -0.142991
  51 C :   -0.071223
  52 C :    0.077080
  53 C :   -0.090303
  54 C :   -0.017370
  55 N :   -0.023037
  56 C :   -0.016439
  57 N :   -0.023382
  58 C :    0.023447
  59 C :   -0.183182
  60 S :    0.507813
  61 C :    0.061522
  62 C :   -0.112188
  63 C :    0.082504
  64 O :   -0.126865
  65 C :   -0.030356
  66 C :    0.049910
  67 C :   -0.028665
  68 C :   -0.022851
  69 C :    0.031050
  70 C :    0.004249
  71 C :    0.054078
  72 C :   -0.132608
  73 C :   -0.036809
  74 N :   -0.036469
  75 C :   -0.024751
  76 N :   -0.034721
  77 C :   -0.031572
  78 N :   -0.010276
  79 C :   -0.032392
  80 N :   -0.012230
  81 H :    0.054353
  82 H :    0.054663
  83 H :    0.048181
  84 H :    0.042976
  85 H :    0.040029
  86 H :    0.026418
  87 H :    0.026547
  88 H :    0.039889
  89 H :    0.049288
  90 H :    0.057987
  91 H :    0.055219
  92 H :    0.052245

  Mayer bond orders larger than 0.100000
B(  0-C ,  1-C ) :   1.3672 B(  0-C ,  9-C ) :   1.3365 B(  0-C , 13-C ) :   0.9717
B(  1-C ,  2-C ) :   1.3843 B(  1-C , 81-H ) :   0.9899 B(  2-C ,  3-C ) :   1.0868
B(  2-C ,  5-C ) :   1.4039 B(  3-C ,  4-N ) :   3.0424 B(  5-C ,  6-C ) :   1.0860
B(  5-C ,  8-C ) :   1.3656 B(  6-C ,  7-N ) :   3.0458 B(  8-C ,  9-C ) :   1.3686
B(  8-C , 82-H ) :   1.0147 B(  9-C , 10-C ) :   0.8992 B( 10-C , 11-O ) :   2.2733
B( 10-C , 12-C ) :   0.9565 B( 12-C , 13-C ) :   1.0500 B( 12-C , 19-C ) :   1.6300
B( 13-C , 14-C ) :   1.6627 B( 14-C , 15-C ) :   1.1235 B( 14-C , 17-C ) :   1.1733
B( 15-C , 16-N ) :   2.9879 B( 17-C , 18-N ) :   2.9940 B( 19-C , 20-C ) :   1.1716
B( 19-C , 83-H ) :   0.9281 B( 20-C , 21-C ) :   1.3671 B( 20-C , 24-S ) :   1.0812
B( 21-C , 22-C ) :   1.3811 B( 21-C , 84-H ) :   0.9762 B( 22-C , 23-C ) :   1.3945
B( 22-C , 27-C ) :   0.9951 B( 23-C , 24-S ) :   1.1616 B( 23-C , 25-C ) :   1.2023
B( 25-C , 26-C ) :   1.4263 B( 25-C , 35-S ) :   1.1187 B( 26-C , 27-C ) :   0.9953
B( 26-C , 33-C ) :   1.2536 B( 27-C , 28-C ) :   1.7203 B( 28-C , 29-C ) :   1.1370
B( 28-C , 31-C ) :   1.1333 B( 29-C , 30-N ) :   2.9886 B( 31-C , 32-N ) :   2.9806
B( 33-C , 34-C ) :   1.4712 B( 33-C , 85-H ) :   0.9804 B( 34-C , 35-S ) :   1.1016
B( 34-C , 36-C ) :   1.1245 B( 36-C , 37-C ) :   1.4393 B( 36-C , 39-C ) :   0.1172
B( 36-C , 41-C ) :   1.1656 B( 37-C , 38-C ) :   1.2613 B( 37-C , 86-H ) :   0.9834
B( 38-C , 39-C ) :   1.4353 B( 38-C , 87-H ) :   0.9838 B( 39-C , 40-C ) :   1.1639
B( 39-C , 45-C ) :   1.1301 B( 40-C , 41-C ) :   1.1218 B( 40-C , 44-N ) :   1.5873
B( 41-C , 42-N ) :   1.5851 B( 42-N , 43-Se) :   1.2409 B( 42-N , 44-N ) :   0.1217
B( 43-Se, 44-N ) :   1.2384 B( 45-C , 46-C ) :   1.4663 B( 45-C , 49-S ) :   1.1050
B( 46-C , 47-C ) :   1.2520 B( 46-C , 88-H ) :   0.9790 B( 47-C , 48-C ) :   1.4222
B( 47-C , 52-C ) :   0.9982 B( 48-C , 49-S ) :   1.1135 B( 48-C , 50-C ) :   1.2179
B( 50-C , 51-C ) :   1.3826 B( 50-C , 60-S ) :   1.1617 B( 51-C , 52-C ) :   0.9866
B( 51-C , 58-C ) :   1.3225 B( 52-C , 53-C ) :   1.7218 B( 53-C , 54-C ) :   1.1325
B( 53-C , 56-C ) :   1.1382 B( 54-C , 55-N ) :   2.9923 B( 56-C , 57-N ) :   2.9861
B( 58-C , 59-C ) :   1.3740 B( 58-C , 89-H ) :   0.9998 B( 59-C , 60-S ) :   1.0733
B( 59-C , 61-C ) :   1.1744 B( 61-C , 62-C ) :   1.5934 B( 61-C , 90-H ) :   0.9482
B( 62-C , 63-C ) :   0.9527 B( 62-C , 71-C ) :   1.0522 B( 63-C , 64-O ) :   2.2849
B( 63-C , 65-C ) :   0.8980 B( 65-C , 66-C ) :   1.3729 B( 65-C , 70-C ) :   1.3361
B( 66-C , 67-C ) :   1.3637 B( 66-C , 91-H ) :   1.0138 B( 67-C , 68-C ) :   1.4047
B( 67-C , 79-C ) :   1.0868 B( 68-C , 69-C ) :   1.3862 B( 68-C , 77-C ) :   1.0838
B( 69-C , 70-C ) :   1.3645 B( 69-C , 92-H ) :   0.9898 B( 70-C , 71-C ) :   0.9790
B( 71-C , 72-C ) :   1.6619 B( 72-C , 73-C ) :   1.1550 B( 72-C , 75-C ) :   1.1332
B( 73-C , 74-N ) :   3.0203 B( 75-C , 76-N ) :   2.9856 B( 77-C , 78-N ) :   3.0440
B( 79-C , 80-N ) :   3.0433

-----------------------------------------------------------------------------
         ABSORPTION SPECTRUM VIA TRANSITION ELECTRIC DIPOLE MOMENTS
-----------------------------------------------------------------------------
State   Energy  Wavelength   fosc         T2         TX        TY        TZ
        (cm-1)    (nm)                  (au**2)     (au)      (au)      (au)
-----------------------------------------------------------------------------
   0   12251.4    816.2   1.009355685  27.12267   1.59145   4.95594  -0.16913
   1   13799.4    724.7   0.042427902   1.01220   0.32354  -0.67393  -0.67331
   2   18028.4    554.7   0.991161744  18.09932  -1.59134  -3.93628   0.26949
   3   19238.4    519.8   0.147838773   2.52986   0.70977  -0.96337  -1.04786
   4   20698.0    483.1   0.103736666   1.64998  -0.88078   0.85881   0.36968
   5   20971.9    476.8   0.003392333   0.05325  -0.11746   0.19854  -0.00612
   6   22977.5    435.2   0.019244462   0.27573  -0.36838   0.36192   0.09505
   7   23980.1    417.0   0.194616075   2.67180  -0.87590  -0.88879   1.05577
   8   24332.9    411.0   0.266197386   3.60151  -0.26774  -1.83231  -0.41531
   9   27106.4    368.9   0.005007769   0.06082   0.22604   0.07370   0.06553
  10   27346.6    365.7   0.046518463   0.56001  -0.36666   0.52240  -0.39072
  11   27713.0    360.8   0.002685345   0.03190  -0.14063  -0.10332  -0.03804
  12   28407.7    352.0   0.075385744   0.87363  -0.60291  -0.19611   0.68679
  13   28950.6    345.4   0.090386227   1.02783   0.66298  -0.12991  -0.75592
  14   29177.3    342.7   0.259015025   2.92250  -0.74159   0.67925   1.38245
  15   29279.6    341.5   0.028346932   0.31872   0.14535  -0.22250   0.49809
  16   29475.2    339.3   0.153090390   1.70989  -0.37540  -0.62908   1.08315
  17   30324.2    329.8   0.073660491   0.79969  -0.21684  -0.55273   0.66870
  18   30926.7    323.3   0.058865230   0.62662   0.30714  -0.62045   0.38383
  19   31172.1    320.8   0.008376310   0.08846   0.26924  -0.12352  -0.02674
  20   31459.7    317.9   0.024644834   0.25790  -0.19672   0.45083   0.12630
  21   31567.2    316.8   0.166683629   1.73833   0.17712   1.19038  -0.53848
  22   31725.2    315.2   0.043062699   0.44686  -0.03862  -0.58437  -0.32231
  23   31782.3    314.6   0.147863892   1.53163   0.45460  -0.82184  -0.80595
  24   32355.3    309.1   0.060919487   0.61985  -0.03434   0.59158   0.51837
  25   32427.3    308.4   0.382749323   3.88579   0.53928   1.72689  -0.78282
  26   32445.3    308.2   0.060626995   0.61516  -0.22880  -0.07672   0.74627
  27   32783.9    305.0   0.046253469   0.46447   0.02611   0.66835  -0.13078
  28   33360.1    299.8   0.482823835   4.76471   0.31902   2.04877  -0.68225
  29   33578.9    297.8   0.051836447   0.50821   0.13459   0.46406   0.52416
  30   33659.7    297.1   0.369098026   3.61000   0.49373  -1.77365  -0.46947
  31   33796.2    295.9   0.420316814   4.09435   0.52599  -0.47401  -1.89552
  32   34123.6    293.1   0.212231311   2.04753   0.68660   0.86174  -0.91297
  33   34240.8    292.0   0.083212354   0.80005  -0.39330  -0.70533   0.38454
  34   34583.0    289.2   0.080876574   0.76990   0.40070   0.38435  -0.67943
  35   34894.1    286.6   0.027664369   0.26100   0.08494  -0.27210   0.42397
  36   35141.4    284.6   0.349598858   3.27511  -0.06592   1.27732  -1.28032
  37   35437.8    282.2   0.376033295   3.49329  -0.95852   1.42074   0.74568
  38   35656.7    280.5   0.048329736   0.44622   0.09946   0.04377  -0.65910
  39   36091.8    277.1   0.152376043   1.38990  -0.69904   0.93214   0.17989
  40   36558.7    273.5   0.091081387   0.82019   0.10496   0.69585  -0.57006
  41   36578.0    273.4   0.090507029   0.81459  -0.02817   0.15145   0.88930
  42   36726.7    272.3   0.030886279   0.27686  -0.13538  -0.46569   0.20412
  43   36930.2    270.8   0.216705437   1.93181  -0.37500   1.24571   0.48928
  44   37205.3    268.8   0.050678851   0.44843  -0.26033  -0.12319   0.60456
  45   37322.2    267.9   0.046209481   0.40761  -0.39097   0.50215   0.05094
  46   37799.5    264.6   0.025558361   0.22260   0.04665   0.43603  -0.17406
  47   37936.8    263.6   0.057762657   0.50126   0.22985  -0.19639  -0.64020
  48   38271.9    261.3   0.045021171   0.38727   0.13841   0.45720  -0.39885
  49   38343.5    260.8   0.016050105   0.13780   0.10289   0.04136  -0.35427
  50   38438.2    260.2   0.019122674   0.16378  -0.37611   0.00475   0.14933
  51   38620.8    258.9   0.014591215   0.12438  -0.32419   0.13089   0.04635
  52   38790.7    257.8   0.047208963   0.40066  -0.43306   0.19742   0.41730
  53   38998.3    256.4   0.028631519   0.24170   0.20532   0.44007  -0.07668
  54   39201.4    255.1   0.036792141   0.30898  -0.06796   0.05121   0.54931
  55   39284.9    254.6   0.028180180   0.23615  -0.00553   0.48316   0.05178
  56   39482.1    253.3   0.007318301   0.06102   0.17661   0.07902  -0.15358
  57   39588.2    252.6   0.048073116   0.39977   0.33553  -0.45539  -0.28251
  58   39696.2    251.9   0.000285605   0.00237   0.04735  -0.00293  -0.01088
  59   40136.0    249.2   0.022216453   0.18223  -0.16384  -0.16902   0.35611
  60   40156.4    249.0   0.016240298   0.13314   0.06022   0.26145  -0.24730
  61   40227.4    248.6   0.025794615   0.21110  -0.12131   0.29248   0.33292

FINAL SINGLE POINT ENERGY     -7199.870034975862

DIPOLE MOMENT
-------------
                                X             Y             Z
Electronic contribution:     23.81194      -6.16523     -44.84496
Nuclear contribution   :    -23.64387       4.43616      46.17891
                        -----------------------------------------
Total Dipole Moment    :      0.16808      -1.72908       1.33395
                        -----------------------------------------
Magnitude (a.u.)       :      2.19029
Magnitude (Debye)      :      5.56728

Rotational constants in cm-1:     0.001531     0.000161     0.000148
Rotational constants in MHz :    45.894785     4.814921     4.432717

                             ****ORCA TERMINATED NORMALLY****
TOTAL RUN TIME: 0 days 0 hours 10 minutes 30 seconds 210 msec
