                         Program Version 4.2.0 -  RELEASE  -
|  1> # ORCA input file
|  2> # SCF done       -196.311007479537          0.000227223787
|  3> ! CAM-B3LYP def2-SVP def2/J RIJCOSX Grid4 TightSCF
|  4> %maxcore 5000
|  5> %tddft
|  6>     Mode sTDDFT
|  7>     Ethresh 5.0
|  8>     maxcore 5000
|  9> end
| 10>
| 11> %pal
| 12>   nprocs 6
| 13>   end
| 14> * xyz 0 1
| 15>    C       -8.36817        -2.53753         3.24317
| 16>    C       -8.42784        -2.70545         1.86630
| 17>    C       -7.38306        -3.39918         1.15082
| 18>    N       -7.46356        -3.54961        -0.17347
| 19>    C       -8.49524        -3.06256        -0.82221
| 20>    C       -9.53370        -2.36936        -0.10952
| 21>    N       -9.48361        -2.20834         1.18441
| 22>    C      -10.63818        -1.84718        -0.83353
| 23>    N      -11.51066        -1.44064        -1.45326
| 24>    C       -8.57040        -3.22769        -2.22504
| 25>    N       -8.65527        -3.34787        -3.36157
| 26>    C       -6.24778        -3.93867         1.80479
| 27>    C       -6.20385        -3.75836         3.20505
| 28>    C       -7.26397        -3.06119         3.90766
| 29>    N       -7.02418        -3.00349         5.22389
| 30>    S       -5.63768        -3.73558         5.53661
| 31>    N       -5.25103        -4.17041         4.04266
| 32>    C       -5.23687        -4.60565         1.06901
| 33>    C       -4.06685        -5.16376         1.57582
| 34>    C       -3.28919        -5.73073         0.57968
| 35>    C       -3.87196        -5.60946        -0.70607
| 36>    S       -5.37430        -4.79254        -0.67370
| 37>    C       -3.00687        -6.20220        -1.64643
| 38>    C       -1.86992        -6.69861        -0.96359
| 39>    C       -2.01755        -6.42122         0.45654
| 40>    C       -1.14569        -6.74229         1.45561
| 41>    C        0.06784        -7.41758         1.20567
| 42>    N        1.05657        -7.96559         1.01315
| 43>    C       -1.39803        -6.42145         2.80636
| 44>    N       -1.59383        -6.16549         3.90680
| 45>    C       -0.94762        -7.28918        -1.80889
| 46>    C       -1.36128        -7.25730        -3.13977
| 47>    S       -2.93027        -6.48316        -3.32999
| 48>    C       -0.67637        -7.74594        -4.27991
| 49>    C        0.61925        -8.33420        -4.24593
| 50>    C        1.25936        -8.77802        -5.44717
| 51>    N        2.48845        -9.31879        -5.39142
| 52>    C        3.08838        -9.43697        -4.23963
| 53>    C        2.45725        -9.00353        -3.05773
| 54>    N        1.26588        -8.47211        -3.07332
| 55>    C        0.66617        -8.67888        -6.73236
| 56>    C       -0.62584        -8.11084        -6.76551
| 57>    C       -1.26853        -7.65436        -5.55929
| 58>    N       -2.47520        -7.14281        -5.80860
| 59>    S       -2.77392        -7.22659        -7.38430
| 60>    N       -1.39772        -7.90982        -7.83527
| 61>    C        1.36136        -9.11808        -7.88223
| 62>    C        0.89976        -9.09080        -9.19758
| 63>    C        1.84262        -9.57904       -10.08493
| 64>    C        3.04016        -9.98223        -9.44525
| 65>    S        2.98621        -9.76475        -7.74568
| 66>    C        3.93486       -10.44782       -10.42811
| 67>    C        3.30919       -10.34558       -11.69533
| 68>    C        1.97544        -9.79868       -11.51659
| 69>    C        1.04752        -9.54231       -12.48320
| 70>    C        1.29403        -9.79853       -13.84873
| 71>    N        1.48520       -10.00336       -14.96064
| 72>    C       -0.22124        -9.00272       -12.18298
| 73>    N       -1.25431        -8.56380       -11.94860
| 74>    C        4.12232       -10.77513       -12.73059
| 75>    C        5.36656       -11.20099       -12.27320
| 76>    S        5.52546       -11.06770       -10.52762
| 77>    C        6.43786       -11.69223       -13.05980
| 78>    C        7.66548       -12.06736       -12.45940
| 79>    C        8.77968       -12.56686       -13.23006
| 80>    N        9.92547       -12.90701       -12.59896
| 81>    C        9.99791       -12.77292       -11.30300
| 82>    C        8.88998       -12.27292       -10.53544
| 83>    N        7.77036       -11.94094       -11.13442
| 84>    C        8.99171       -12.13024        -9.13187
| 85>    N        9.10129       -12.02345        -7.99612
| 86>    C       11.19881       -13.12712       -10.63285
| 87>    N       12.14893       -13.40141       -10.05607
| 88>    C        8.69714       -12.70449       -14.60911
| 89>    C        7.50158       -12.34239       -15.22114
| 90>    C        6.37251       -11.83801       -14.46334
| 91>    N        5.33794       -11.55668       -15.25686
| 92>    S        5.73292       -11.88516       -16.77547
| 93>    N        7.22643       -12.40076       -16.53040
| 94>    H       -9.15153        -2.01945         3.76845
| 95>    H       -3.83179        -5.13364         2.62419
| 96>    H       -0.01116        -7.72930        -1.52077
| 97>    H        4.07500        -9.87701        -4.24210
| 98>    H        2.93138        -9.09255        -2.09053
| 99>    H       -0.07856        -8.72331        -9.44818
|100>    H        3.86541       -10.79234       -13.77411
|101>    H        9.53237       -13.07818       -15.17543
|102> *
|103>
|104>                          ****END OF INPUT****

CARTESIAN COORDINATES (ANGSTROEM)
---------------------------------
  C     -8.368170   -2.537530    3.243170
  C     -8.427840   -2.705450    1.866300
  C     -7.383060   -3.399180    1.150820
  N     -7.463560   -3.549610   -0.173470
  C     -8.495240   -3.062560   -0.822210
  C     -9.533700   -2.369360   -0.109520
  N     -9.483610   -2.208340    1.184410
  C    -10.638180   -1.847180   -0.833530
  N    -11.510660   -1.440640   -1.453260
  C     -8.570400   -3.227690   -2.225040
  N     -8.655270   -3.347870   -3.361570
  C     -6.247780   -3.938670    1.804790
  C     -6.203850   -3.758360    3.205050
  C     -7.263970   -3.061190    3.907660
  N     -7.024180   -3.003490    5.223890
  S     -5.637680   -3.735580    5.536610
  N     -5.251030   -4.170410    4.042660
  C     -5.236870   -4.605650    1.069010
  C     -4.066850   -5.163760    1.575820
  C     -3.289190   -5.730730    0.579680
  C     -3.871960   -5.609460   -0.706070
  S     -5.374300   -4.792540   -0.673700
  C     -3.006870   -6.202200   -1.646430
  C     -1.869920   -6.698610   -0.963590
  C     -2.017550   -6.421220    0.456540
  C     -1.145690   -6.742290    1.455610
  C      0.067840   -7.417580    1.205670
  N      1.056570   -7.965590    1.013150
  C     -1.398030   -6.421450    2.806360
  N     -1.593830   -6.165490    3.906800
  C     -0.947620   -7.289180   -1.808890
  C     -1.361280   -7.257300   -3.139770
  S     -2.930270   -6.483160   -3.329990
  C     -0.676370   -7.745940   -4.279910
  C      0.619250   -8.334200   -4.245930
  C      1.259360   -8.778020   -5.447170
  N      2.488450   -9.318790   -5.391420
  C      3.088380   -9.436970   -4.239630
  C      2.457250   -9.003530   -3.057730
  N      1.265880   -8.472110   -3.073320
  C      0.666170   -8.678880   -6.732360
  C     -0.625840   -8.110840   -6.765510
  C     -1.268530   -7.654360   -5.559290
  N     -2.475200   -7.142810   -5.808600
  S     -2.773920   -7.226590   -7.384300
  N     -1.397720   -7.909820   -7.835270
  C      1.361360   -9.118080   -7.882230
  C      0.899760   -9.090800   -9.197580
  C      1.842620   -9.579040  -10.084930
  C      3.040160   -9.982230   -9.445250
  S      2.986210   -9.764750   -7.745680
  C      3.934860  -10.447820  -10.428110
  C      3.309190  -10.345580  -11.695330
  C      1.975440   -9.798680  -11.516590
  C      1.047520   -9.542310  -12.483200
  C      1.294030   -9.798530  -13.848730
  N      1.485200  -10.003360  -14.960640
  C     -0.221240   -9.002720  -12.182980
  N     -1.254310   -8.563800  -11.948600
  C      4.122320  -10.775130  -12.730590
  C      5.366560  -11.200990  -12.273200
  S      5.525460  -11.067700  -10.527620
  C      6.437860  -11.692230  -13.059800
  C      7.665480  -12.067360  -12.459400
  C      8.779680  -12.566860  -13.230060
  N      9.925470  -12.907010  -12.598960
  C      9.997910  -12.772920  -11.303000
  C      8.889980  -12.272920  -10.535440
  N      7.770360  -11.940940  -11.134420
  C      8.991710  -12.130240   -9.131870
  N      9.101290  -12.023450   -7.996120
  C     11.198810  -13.127120  -10.632850
  N     12.148930  -13.401410  -10.056070
  C      8.697140  -12.704490  -14.609110
  C      7.501580  -12.342390  -15.221140
  C      6.372510  -11.838010  -14.463340
  N      5.337940  -11.556680  -15.256860
  S      5.732920  -11.885160  -16.775470
  N      7.226430  -12.400760  -16.530400
  H     -9.151530   -2.019450    3.768450
  H     -3.831790   -5.133640    2.624190
  H     -0.011160   -7.729300   -1.520770
  H      4.075000   -9.877010   -4.242100
  H      2.931380   -9.092550   -2.090530
  H     -0.078560   -8.723310   -9.448180
  H      3.865410  -10.792340  -13.774110
  H      9.532370  -13.078180  -15.175430

 Total Charge           Charge          ....    0
 Multiplicity           Mult            ....    1
 Number of Electrons    NEL             ....  572
 Basis Dimension        Dim             .... 1174

ORBITAL ENERGIES
----------------

  NO   OCC          E(Eh)            E(eV)
   0   2.0000     -89.052780     -2423.2493
   1   2.0000     -89.051786     -2423.2223
   2   2.0000     -89.051443     -2423.2130
   3   2.0000     -88.987292     -2421.4673
   4   2.0000     -88.986523     -2421.4464
   5   2.0000     -88.985572     -2421.4205
   6   2.0000     -88.984152     -2421.3819
   7   2.0000     -14.474929      -393.8828
   8   2.0000     -14.474748      -393.8779
   9   2.0000     -14.466042      -393.6410
  10   2.0000     -14.465855      -393.6359
  11   2.0000     -14.461014      -393.5042
  12   2.0000     -14.460851      -393.4998
  13   2.0000     -14.460476      -393.4895
  14   2.0000     -14.460171      -393.4813
  15   2.0000     -14.455892      -393.3648
  16   2.0000     -14.455519      -393.3547
  17   2.0000     -14.454561      -393.3286
  18   2.0000     -14.448237      -393.1565
  19   2.0000     -14.436474      -392.8364
  20   2.0000     -14.436204      -392.8291
  21   2.0000     -14.433879      -392.7658
  22   2.0000     -14.433788      -392.7633
  23   2.0000     -14.430238      -392.6667
  24   2.0000     -14.429429      -392.6447
  25   2.0000     -14.428475      -392.6188
  26   2.0000     -14.428054      -392.6073
  27   2.0000     -10.388987      -282.6987
  28   2.0000     -10.388772      -282.6929
  29   2.0000     -10.388732      -282.6918
  30   2.0000     -10.388541      -282.6866
  31   2.0000     -10.362954      -281.9903
  32   2.0000     -10.361848      -281.9602
  33   2.0000     -10.353599      -281.7357
  34   2.0000     -10.353340      -281.7287
  35   2.0000     -10.352580      -281.7080
  36   2.0000     -10.352317      -281.7009
  37   2.0000     -10.351225      -281.6711
  38   2.0000     -10.350608      -281.6544
  39   2.0000     -10.350268      -281.6451
  40   2.0000     -10.349968      -281.6369
  41   2.0000     -10.349080      -281.6128
  42   2.0000     -10.347766      -281.5770
  43   2.0000     -10.347660      -281.5741
  44   2.0000     -10.347445      -281.5683
  45   2.0000     -10.347162      -281.5606
  46   2.0000     -10.347103      -281.5590
  47   2.0000     -10.344954      -281.5005
  48   2.0000     -10.343354      -281.4570
  49   2.0000     -10.336068      -281.2587
  50   2.0000     -10.335791      -281.2512
  51   2.0000     -10.330964      -281.1198
  52   2.0000     -10.330423      -281.1051
  53   2.0000     -10.330028      -281.0944
  54   2.0000     -10.329946      -281.0921
  55   2.0000     -10.329881      -281.0903
  56   2.0000     -10.328986      -281.0660
  57   2.0000     -10.328581      -281.0550
  58   2.0000     -10.328510      -281.0531
  59   2.0000     -10.328111      -281.0422
  60   2.0000     -10.326989      -281.0117
  61   2.0000     -10.326786      -281.0061
  62   2.0000     -10.326704      -281.0039
  63   2.0000     -10.326563      -281.0001
  64   2.0000     -10.326062      -280.9864
  65   2.0000     -10.325744      -280.9778
  66   2.0000     -10.323401      -280.9140
  67   2.0000     -10.323254      -280.9100
  68   2.0000     -10.320649      -280.8391
  69   2.0000     -10.304699      -280.4051
  70   2.0000     -10.304261      -280.3932
  71   2.0000     -10.303450      -280.3711
  72   2.0000     -10.302848      -280.3547
  73   2.0000     -10.302660      -280.3496
  74   2.0000     -10.302191      -280.3369
  75   2.0000     -10.301791      -280.3260
  76   2.0000     -10.301469      -280.3172
  77   2.0000     -10.297522      -280.2098
  78   2.0000     -10.295188      -280.1463
  79   2.0000      -8.143644      -221.5998
  80   2.0000      -8.142916      -221.5800
  81   2.0000      -8.142563      -221.5704
  82   2.0000      -8.079854      -219.8640
  83   2.0000      -8.079123      -219.8441
  84   2.0000      -8.078667      -219.8317
  85   2.0000      -8.076135      -219.7628
  86   2.0000      -6.114741      -166.3906
  87   2.0000      -6.113858      -166.3665
  88   2.0000      -6.113494      -166.3566
  89   2.0000      -6.106923      -166.1778
  90   2.0000      -6.106469      -166.1655
  91   2.0000      -6.106073      -166.1547
  92   2.0000      -6.105992      -166.1525
  93   2.0000      -6.105731      -166.1454
  94   2.0000      -6.105644      -166.1430
  95   2.0000      -6.049421      -164.6131
  96   2.0000      -6.048671      -164.5927
  97   2.0000      -6.048043      -164.5756
  98   2.0000      -6.045736      -164.5128
  99   2.0000      -6.044568      -164.4810
 100   2.0000      -6.043822      -164.4607
 101   2.0000      -6.043485      -164.4516
 102   2.0000      -6.042285      -164.4189
 103   2.0000      -6.041590      -164.4000
 104   2.0000      -6.041163      -164.3884
 105   2.0000      -6.040841      -164.3796
 106   2.0000      -6.038679      -164.3208
 107   2.0000      -1.149680       -31.2844
 108   2.0000      -1.147586       -31.2274
 109   2.0000      -1.147239       -31.2180
 110   2.0000      -1.128657       -30.7123
 111   2.0000      -1.128410       -30.7056
 112   2.0000      -1.109685       -30.1961
 113   2.0000      -1.056563       -28.7505
 114   2.0000      -1.056338       -28.7444
 115   2.0000      -1.043313       -28.3900
 116   2.0000      -1.041592       -28.3432
 117   2.0000      -1.034016       -28.1370
 118   2.0000      -1.021685       -27.8015
 119   2.0000      -1.020839       -27.7784
 120   2.0000      -1.019562       -27.7437
 121   2.0000      -1.018772       -27.7222
 122   2.0000      -1.009932       -27.4816
 123   2.0000      -1.009509       -27.4701
 124   2.0000      -1.008004       -27.4292
 125   2.0000      -1.007057       -27.4034
 126   2.0000      -1.005919       -27.3725
 127   2.0000      -1.003642       -27.3105
 128   2.0000      -1.001610       -27.2552
 129   2.0000      -0.996137       -27.1063
 130   2.0000      -0.991307       -26.9748
 131   2.0000      -0.983961       -26.7749
 132   2.0000      -0.977744       -26.6058
 133   2.0000      -0.970605       -26.4115
 134   2.0000      -0.955029       -25.9877
 135   2.0000      -0.951409       -25.8892
 136   2.0000      -0.919527       -25.0216
 137   2.0000      -0.914490       -24.8845
 138   2.0000      -0.913042       -24.8451
 139   2.0000      -0.911733       -24.8095
 140   2.0000      -0.894944       -24.3527
 141   2.0000      -0.892686       -24.2912
 142   2.0000      -0.884848       -24.0779
 143   2.0000      -0.877028       -23.8651
 144   2.0000      -0.865659       -23.5558
 145   2.0000      -0.859356       -23.3843
 146   2.0000      -0.852600       -23.2004
 147   2.0000      -0.851586       -23.1728
 148   2.0000      -0.840262       -22.8647
 149   2.0000      -0.839653       -22.8481
 150   2.0000      -0.825275       -22.4569
 151   2.0000      -0.810246       -22.0479
 152   2.0000      -0.809107       -22.0169
 153   2.0000      -0.796569       -21.6757
 154   2.0000      -0.787756       -21.4359
 155   2.0000      -0.784167       -21.3383
 156   2.0000      -0.776824       -21.1385
 157   2.0000      -0.766296       -20.8520
 158   2.0000      -0.761703       -20.7270
 159   2.0000      -0.748132       -20.3577
 160   2.0000      -0.741771       -20.1846
 161   2.0000      -0.731274       -19.8990
 162   2.0000      -0.725263       -19.7354
 163   2.0000      -0.716698       -19.5023
 164   2.0000      -0.709212       -19.2986
 165   2.0000      -0.706575       -19.2269
 166   2.0000      -0.703605       -19.1461
 167   2.0000      -0.696667       -18.9573
 168   2.0000      -0.695826       -18.9344
 169   2.0000      -0.686764       -18.6878
 170   2.0000      -0.685009       -18.6400
 171   2.0000      -0.680303       -18.5120
 172   2.0000      -0.676127       -18.3983
 173   2.0000      -0.664236       -18.0748
 174   2.0000      -0.659754       -17.9528
 175   2.0000      -0.657530       -17.8923
 176   2.0000      -0.654780       -17.8175
 177   2.0000      -0.651856       -17.7379
 178   2.0000      -0.644842       -17.5470
 179   2.0000      -0.641094       -17.4451
 180   2.0000      -0.629490       -17.1293
 181   2.0000      -0.628054       -17.0902
 182   2.0000      -0.625186       -17.0122
 183   2.0000      -0.620832       -16.8937
 184   2.0000      -0.616708       -16.7815
 185   2.0000      -0.612564       -16.6687
 186   2.0000      -0.611670       -16.6444
 187   2.0000      -0.598806       -16.2943
 188   2.0000      -0.596662       -16.2360
 189   2.0000      -0.586145       -15.9498
 190   2.0000      -0.585912       -15.9435
 191   2.0000      -0.582051       -15.8384
 192   2.0000      -0.579255       -15.7623
 193   2.0000      -0.575661       -15.6645
 194   2.0000      -0.568155       -15.4603
 195   2.0000      -0.562757       -15.3134
 196   2.0000      -0.562643       -15.3103
 197   2.0000      -0.562412       -15.3040
 198   2.0000      -0.551442       -15.0055
 199   2.0000      -0.548125       -14.9152
 200   2.0000      -0.547389       -14.8952
 201   2.0000      -0.545730       -14.8501
 202   2.0000      -0.543250       -14.7826
 203   2.0000      -0.540795       -14.7158
 204   2.0000      -0.539437       -14.6788
 205   2.0000      -0.534918       -14.5559
 206   2.0000      -0.533810       -14.5257
 207   2.0000      -0.524071       -14.2607
 208   2.0000      -0.520756       -14.1705
 209   2.0000      -0.507025       -13.7969
 210   2.0000      -0.506095       -13.7716
 211   2.0000      -0.505684       -13.7603
 212   2.0000      -0.502711       -13.6795
 213   2.0000      -0.497467       -13.5368
 214   2.0000      -0.496488       -13.5101
 215   2.0000      -0.495907       -13.4943
 216   2.0000      -0.493612       -13.4319
 217   2.0000      -0.493339       -13.4244
 218   2.0000      -0.489564       -13.3217
 219   2.0000      -0.489364       -13.3163
 220   2.0000      -0.488903       -13.3037
 221   2.0000      -0.487035       -13.2529
 222   2.0000      -0.486156       -13.2290
 223   2.0000      -0.482104       -13.1187
 224   2.0000      -0.476528       -12.9670
 225   2.0000      -0.476063       -12.9543
 226   2.0000      -0.473750       -12.8914
 227   2.0000      -0.472154       -12.8480
 228   2.0000      -0.471623       -12.8335
 229   2.0000      -0.464688       -12.6448
 230   2.0000      -0.461876       -12.5683
 231   2.0000      -0.461446       -12.5566
 232   2.0000      -0.460908       -12.5420
 233   2.0000      -0.460063       -12.5189
 234   2.0000      -0.459322       -12.4988
 235   2.0000      -0.458286       -12.4706
 236   2.0000      -0.458115       -12.4659
 237   2.0000      -0.457488       -12.4489
 238   2.0000      -0.454731       -12.3738
 239   2.0000      -0.453142       -12.3306
 240   2.0000      -0.451763       -12.2931
 241   2.0000      -0.449878       -12.2418
 242   2.0000      -0.449625       -12.2349
 243   2.0000      -0.442180       -12.0323
 244   2.0000      -0.440397       -11.9838
 245   2.0000      -0.439123       -11.9492
 246   2.0000      -0.438730       -11.9385
 247   2.0000      -0.437333       -11.9004
 248   2.0000      -0.437220       -11.8974
 249   2.0000      -0.434821       -11.8321
 250   2.0000      -0.434735       -11.8298
 251   2.0000      -0.429449       -11.6859
 252   2.0000      -0.428010       -11.6467
 253   2.0000      -0.426487       -11.6053
 254   2.0000      -0.424492       -11.5510
 255   2.0000      -0.423506       -11.5242
 256   2.0000      -0.418677       -11.3928
 257   2.0000      -0.418431       -11.3861
 258   2.0000      -0.418416       -11.3857
 259   2.0000      -0.418323       -11.3832
 260   2.0000      -0.412924       -11.2362
 261   2.0000      -0.406475       -11.0607
 262   2.0000      -0.405213       -11.0264
 263   2.0000      -0.404940       -11.0190
 264   2.0000      -0.404558       -11.0086
 265   2.0000      -0.388844       -10.5810
 266   2.0000      -0.386793       -10.5252
 267   2.0000      -0.386239       -10.5101
 268   2.0000      -0.381272       -10.3749
 269   2.0000      -0.378552       -10.3009
 270   2.0000      -0.373323       -10.1586
 271   2.0000      -0.360441        -9.8081
 272   2.0000      -0.359833        -9.7915
 273   2.0000      -0.357400        -9.7254
 274   2.0000      -0.353717        -9.6251
 275   2.0000      -0.353563        -9.6209
 276   2.0000      -0.347441        -9.4543
 277   2.0000      -0.344594        -9.3769
 278   2.0000      -0.341183        -9.2841
 279   2.0000      -0.339323        -9.2334
 280   2.0000      -0.324715        -8.8359
 281   2.0000      -0.320402        -8.7186
 282   2.0000      -0.318895        -8.6776
 283   2.0000      -0.294592        -8.0163
 284   2.0000      -0.266621        -7.2551
 285   2.0000      -0.235330        -6.4037
 286   0.0000      -0.140567        -3.8250
 287   0.0000      -0.126531        -3.4431
 288   0.0000      -0.113595        -3.0911
 289   0.0000      -0.098954        -2.6927
 290   0.0000      -0.095390        -2.5957

MULLIKEN ATOMIC CHARGES
-----------------------
   0 C :   -0.086405
   1 C :    0.023856
   2 C :   -0.059481
   3 N :   -0.011562
   4 C :   -0.096574
   5 C :   -0.151307
   6 N :    0.060619
   7 C :   -0.207414
   8 N :    0.238591
   9 C :   -0.231430
  10 N :    0.240578
  11 C :    0.214097
  12 C :   -0.046465
  13 C :    0.104029
  14 N :   -0.270452
  15 S :    0.563730
  16 N :   -0.281149
  17 C :   -0.173937
  18 C :   -0.056452
  19 C :    0.031069
  20 C :   -0.057773
  21 S :    0.209869
  22 C :   -0.079330
  23 C :    0.055154
  24 C :    0.316655
  25 C :   -0.310725
  26 C :   -0.186303
  27 N :    0.167142
  28 C :   -0.189147
  29 N :    0.171441
  30 C :   -0.073830
  31 C :   -0.181084
  32 S :    0.217324
  33 C :    0.195119
  34 C :   -0.065330
  35 C :   -0.041153
  36 N :   -0.095568
  37 C :    0.057715
  38 C :    0.038200
  39 N :   -0.023598
  40 C :    0.167168
  41 C :    0.002796
  42 C :   -0.024167
  43 N :   -0.340818
  44 S :    0.575847
  45 N :   -0.282082
  46 C :   -0.166692
  47 C :   -0.073524
  48 C :    0.046402
  49 C :   -0.074199
  50 S :    0.211214
  51 C :   -0.061808
  52 C :    0.036293
  53 C :    0.313834
  54 C :   -0.307913
  55 C :   -0.189481
  56 N :    0.169731
  57 C :   -0.188791
  58 N :    0.172424
  59 C :   -0.059550
  60 C :   -0.174681
  61 S :    0.208083
  62 C :    0.217760
  63 C :   -0.064343
  64 C :    0.025593
  65 N :    0.060619
  66 C :   -0.152372
  67 C :   -0.096275
  68 N :   -0.012153
  69 C :   -0.230543
  70 N :    0.239243
  71 C :   -0.207400
  72 N :    0.237398
  73 C :   -0.084582
  74 C :    0.099833
  75 C :   -0.045152
  76 N :   -0.280843
  77 S :    0.563729
  78 N :   -0.268358
  79 H :   -0.018752
  80 H :    0.023626
  81 H :    0.019731
  82 H :    0.026561
  83 H :    0.035629
  84 H :    0.018439
  85 H :    0.022965
  86 H :   -0.019160
Sum of atomic charges:   -0.0000000

LOEWDIN ATOMIC CHARGES
----------------------
   0 C :   -0.020432
   1 C :   -0.007433
   2 C :   -0.024300
   3 N :   -0.018897
   4 C :   -0.030618
   5 C :   -0.024031
   6 N :    0.002295
   7 C :   -0.035032
   8 N :   -0.000911
   9 C :   -0.040108
  10 N :   -0.005337
  11 C :   -0.016902
  12 C :   -0.044470
  13 C :   -0.043322
  14 N :   -0.284615
  15 S :    0.697322
  16 N :   -0.276486
  17 C :   -0.172981
  18 C :    0.000952
  19 C :   -0.075736
  20 C :   -0.165695
  21 S :    0.513328
  22 C :   -0.187937
  23 C :   -0.064007
  24 C :    0.081744
  25 C :   -0.106397
  26 C :   -0.014050
  27 N :   -0.039707
  28 C :   -0.017160
  29 N :   -0.035732
  30 C :   -0.013476
  31 C :   -0.154039
  32 S :    0.517624
  33 C :   -0.046421
  34 C :   -0.005227
  35 C :   -0.014578
  36 N :   -0.050800
  37 C :    0.027337
  38 C :    0.023599
  39 N :   -0.018163
  40 C :   -0.042348
  41 C :   -0.039518
  42 C :   -0.047700
  43 N :   -0.306581
  44 S :    0.693506
  45 N :   -0.271203
  46 C :   -0.156893
  47 C :   -0.012885
  48 C :   -0.063995
  49 C :   -0.189118
  50 S :    0.514980
  51 C :   -0.166022
  52 C :   -0.074788
  53 C :    0.080720
  54 C :   -0.105771
  55 C :   -0.016906
  56 N :   -0.036082
  57 C :   -0.016900
  58 N :   -0.035352
  59 C :    0.000909
  60 C :   -0.172866
  61 S :    0.512353
  62 C :   -0.016646
  63 C :   -0.024437
  64 C :   -0.007296
  65 N :    0.002017
  66 C :   -0.024192
  67 C :   -0.031371
  68 N :   -0.018854
  69 C :   -0.039568
  70 N :   -0.007239
  71 C :   -0.034956
  72 N :   -0.001412
  73 C :   -0.020851
  74 C :   -0.043362
  75 C :   -0.044576
  76 N :   -0.276303
  77 S :    0.697332
  78 N :   -0.284642
  79 H :    0.048110
  80 H :    0.039555
  81 H :    0.036397
  82 H :    0.033711
  83 H :    0.036425
  84 H :    0.037975
  85 H :    0.039450
  86 H :    0.047995

  Mayer bond orders larger than 0.100000
B(  0-C ,  1-C ) :   1.3184 B(  0-C , 11-C ) :   0.1253 B(  0-C , 13-C ) :   1.1730
B(  0-C , 79-H ) :   1.0588 B(  1-C ,  2-C ) :   1.1244 B(  1-C ,  6-N ) :   1.3364
B(  2-C ,  3-N ) :   1.4045 B(  2-C , 11-C ) :   1.2352 B(  3-N ,  4-C ) :   1.6922
B(  4-C ,  5-C ) :   1.1951 B(  4-C ,  9-C ) :   1.1561 B(  5-C ,  6-N ) :   1.7845
B(  5-C ,  7-C ) :   1.1588 B(  7-C ,  8-N ) :   3.0523 B(  9-C , 10-N ) :   3.0373
B( 11-C , 12-C ) :   1.2105 B( 11-C , 17-C ) :   1.2186 B( 12-C , 13-C ) :   1.1182
B( 12-C , 16-N ) :   1.5110 B( 13-C , 14-N ) :   1.4620 B( 14-N , 15-S ) :   1.3080
B( 14-N , 16-N ) :   0.1540 B( 15-S , 16-N ) :   1.2844 B( 17-C , 18-C ) :   1.3944
B( 17-C , 21-S ) :   1.0765 B( 18-C , 19-C ) :   1.2932 B( 18-C , 80-H ) :   0.9831
B( 19-C , 20-C ) :   1.3747 B( 19-C , 24-C ) :   0.9888 B( 20-C , 21-S ) :   1.0924
B( 20-C , 22-C ) :   1.2247 B( 22-C , 23-C ) :   1.3738 B( 22-C , 32-S ) :   1.0930
B( 23-C , 24-C ) :   0.9881 B( 23-C , 30-C ) :   1.2768 B( 24-C , 25-C ) :   1.7067
B( 25-C , 26-C ) :   1.1408 B( 25-C , 28-C ) :   1.1362 B( 26-C , 27-N ) :   2.9875
B( 28-C , 29-N ) :   2.9886 B( 30-C , 31-C ) :   1.3908 B( 30-C , 81-H ) :   0.9806
B( 31-C , 32-S ) :   1.1036 B( 31-C , 33-C ) :   1.2033 B( 33-C , 34-C ) :   1.2587
B( 33-C , 40-C ) :   0.1316 B( 33-C , 42-C ) :   1.1948 B( 34-C , 35-C ) :   1.1319
B( 34-C , 39-N ) :   1.4716 B( 35-C , 36-N ) :   1.3932 B( 35-C , 40-C ) :   1.2597
B( 36-N , 37-C ) :   1.6453 B( 37-C , 38-C ) :   1.1959 B( 37-C , 82-H ) :   0.9734
B( 38-C , 39-N ) :   1.6633 B( 38-C , 83-H ) :   0.9759 B( 40-C , 41-C ) :   1.2030
B( 40-C , 46-C ) :   1.2136 B( 41-C , 42-C ) :   1.1100 B( 41-C , 45-N ) :   1.5060
B( 42-C , 43-N ) :   1.4645 B( 43-N , 44-S ) :   1.2719 B( 43-N , 45-N ) :   0.1520
B( 44-S , 45-N ) :   1.2905 B( 46-C , 47-C ) :   1.3969 B( 46-C , 50-S ) :   1.0941
B( 47-C , 48-C ) :   1.2940 B( 47-C , 84-H ) :   0.9830 B( 48-C , 49-C ) :   1.3788
B( 48-C , 53-C ) :   0.9834 B( 49-C , 50-S ) :   1.0652 B( 49-C , 51-C ) :   1.2309
B( 51-C , 52-C ) :   1.3723 B( 51-C , 61-S ) :   1.0924 B( 52-C , 53-C ) :   0.9881
B( 52-C , 59-C ) :   1.2940 B( 53-C , 54-C ) :   1.7083 B( 54-C , 55-C ) :   1.1361
B( 54-C , 57-C ) :   1.1396 B( 55-C , 56-N ) :   2.9880 B( 57-C , 58-N ) :   2.9873
B( 59-C , 60-C ) :   1.3915 B( 59-C , 85-H ) :   0.9836 B( 60-C , 61-S ) :   1.0769
B( 60-C , 62-C ) :   1.2194 B( 62-C , 63-C ) :   1.2329 B( 62-C , 73-C ) :   0.1249
B( 62-C , 75-C ) :   1.2105 B( 63-C , 64-C ) :   1.1249 B( 63-C , 68-N ) :   1.4072
B( 64-C , 65-N ) :   1.3346 B( 64-C , 73-C ) :   1.3216 B( 65-N , 66-C ) :   1.7857
B( 66-C , 67-C ) :   1.1962 B( 66-C , 71-C ) :   1.1578 B( 67-C , 68-N ) :   1.6902
B( 67-C , 69-C ) :   1.1567 B( 69-C , 70-N ) :   3.0372 B( 71-C , 72-N ) :   3.0525
B( 73-C , 74-C ) :   1.1723 B( 73-C , 86-H ) :   1.0576 B( 74-C , 75-C ) :   1.1184
B( 74-C , 78-N ) :   1.4644 B( 75-C , 76-N ) :   1.5109 B( 76-N , 77-S ) :   1.2844
B( 76-N , 78-N ) :   0.1539 B( 77-S , 78-N ) :   1.3075

-----------------------------------------------------------------------------
         ABSORPTION SPECTRUM VIA TRANSITION ELECTRIC DIPOLE MOMENTS
-----------------------------------------------------------------------------
State   Energy  Wavelength   fosc         T2         TX        TY        TZ
        (cm-1)    (nm)                  (au**2)     (au)      (au)      (au)
-----------------------------------------------------------------------------
   0    7281.4   1373.4   1.239782209  56.05391  -4.72249   2.82082   5.07887
   1   10864.4    920.4   0.003444250   0.10437   0.01803  -0.32033   0.03786
   2   12902.6    775.0   0.092759675   2.36678   1.40086  -0.61200   0.17267
   3   13699.2    730.0   0.026671274   0.64095  -0.58559   0.43194   0.33386
   4   13869.4    721.0   0.063723967   1.51259   0.90818  -0.44626  -0.69904
   5   15220.6    657.0   0.000826166   0.01787   0.04951   0.10518  -0.06600
   6   18699.4    534.8   0.042809935   0.75369   0.24987  -0.01268   0.83132
   7   20827.7    480.1   0.000237445   0.00375   0.03072  -0.03392   0.04073
   8   21957.0    455.4   0.047264873   0.70867   0.62553  -0.34639  -0.44429
   9   23012.1    434.6   0.040669718   0.58182   0.28355  -0.23275  -0.66877
  10   23220.3    430.7   0.001310889   0.01859  -0.11095  -0.07692   0.01890
  11   23393.9    427.5   0.001712210   0.02410  -0.05337   0.05558  -0.13475
  12   24605.2    406.4   0.011699029   0.15653   0.33019  -0.09855   0.19440
  13   24796.1    403.3   0.059577583   0.79100  -0.74740   0.31790  -0.36239
  14   25168.6    397.3   0.000079884   0.00104  -0.01240   0.02769  -0.01115
  15   25899.5    386.1   0.069754755   0.88666   0.81068  -0.36768  -0.30702
  16   25978.4    384.9   0.004110928   0.05210  -0.00490  -0.22180  -0.05365
  17   26006.6    384.5   0.014600999   0.18483  -0.33484   0.23578   0.13084
  18   26048.5    383.9   0.001559461   0.01971   0.09954   0.03295  -0.09336
  19   26464.4    377.9   0.042653317   0.53060  -0.52001   0.24964   0.44482
  20   26589.7    376.1   0.090589558   1.12161  -0.78809   0.45535   0.54145
  21   26781.3    373.4   0.047940412   0.58931  -0.43777   0.27226   0.56881
  22   27035.4    369.9   0.003759482   0.04578   0.19689  -0.07752  -0.03168
  23   27811.8    359.6   0.001322564   0.01566   0.08711   0.05210  -0.07316
  24   27934.2    358.0   0.239215409   2.81922  -0.80399   0.55917   1.36388
  25   28293.9    353.4   0.002282746   0.02656  -0.06298  -0.02254  -0.14862
  26   29391.7    340.2   0.447172843   5.00871  -1.08834   0.73282   1.81307
  27   29948.3    333.9   0.012872546   0.14150   0.25219  -0.06085   0.27240
  28   30014.1    333.2   0.003146569   0.03451  -0.17123   0.03272  -0.06421
  29   30226.3    330.8   0.016000442   0.17427  -0.05642   0.03308   0.41230
  30   30441.0    328.5   0.069435572   0.75093  -0.76202   0.28770  -0.29576
  31   30785.6    324.8   0.050128787   0.53606  -0.38312   0.07572  -0.61931
  32   30891.4    323.7   0.208601361   2.22308   1.21684  -0.63077  -0.58695
  33   31280.5    319.7   0.002003248   0.02108  -0.03989   0.12707  -0.05783
  34   31317.4    319.3   0.004025290   0.04231   0.08855  -0.07755   0.16870
  35   31626.9    316.2   1.162596063  12.10174  -0.89781  -0.02866  -3.36078
  36   32033.5    312.2   0.001788765   0.01838   0.10642   0.07812   0.03090
  37   32147.9    311.1   0.000167427   0.00171   0.02495  -0.03190  -0.00863
  38   32260.8    310.0   0.416117535   4.24636   1.87324  -0.83673   0.19285
  39   32395.9    308.7   0.051677598   0.52516   0.55413  -0.20945   0.41740
  40   32717.2    305.6   0.004177836   0.04204  -0.01831   0.12293  -0.16307
  41   33028.2    302.8   0.249848189   2.49039   1.12784  -0.33337   1.05225
  42   33179.6    301.4   0.020942901   0.20780  -0.23425  -0.02377  -0.39033
  43   33292.8    300.4   0.004258377   0.04211   0.16308  -0.10165  -0.07197
  44   33322.6    300.1   0.000046124   0.00046   0.02030  -0.00595   0.00283
  45   33810.5    295.8   0.362098649   3.52575  -1.19764   0.51593  -1.35101
  46   34004.1    294.1   0.015371641   0.14882  -0.19334   0.20232   0.26554
  47   34229.6    292.1   0.160920612   1.54770   1.13873  -0.49973  -0.03531
  48   34385.4    290.8   0.000719849   0.00689  -0.04295  -0.03724   0.06050
  49   34936.7    286.2   0.000757529   0.00714   0.06385  -0.05251  -0.01746
  50   35200.7    284.1   0.035745325   0.33431  -0.36622   0.05713  -0.44376
  51   35349.5    282.9   0.028190174   0.26254  -0.38516   0.12271   0.31486
  52   35550.7    281.3   0.000878080   0.00813   0.08239   0.00042   0.03666
  53   35665.4    280.4   1.175910459  10.85434  -1.67244   0.34729  -2.81721
  54   35998.5    277.8   0.247032083   2.25915  -0.79985   0.26516  -1.24462
  55   36300.5    275.5   0.352239960   3.19449  -1.63686   0.71775  -0.00075
  56   36562.1    273.5   0.002644939   0.02382  -0.12431   0.08469  -0.03452
  57   36603.5    273.2   0.085332896   0.76748   0.14462   0.00772   0.86401
  58   36674.3    272.7   0.091925499   0.82518   0.01301  -0.17383  -0.89151
  59   36807.0    271.7   0.067757428   0.60604   0.67999  -0.36438  -0.10432
  60   36906.6    271.0   0.010568753   0.09427   0.27897  -0.00716   0.12806
  61   36926.1    270.8   0.085416159   0.76152   0.72561  -0.37652  -0.30535
  62   37088.7    269.6   0.007437953   0.06602  -0.06599  -0.24825   0.00637
  63   37322.8    267.9   0.167510447   1.47755  -0.94961   0.29057  -0.70097
  64   37441.3    267.1   0.001189955   0.01046  -0.01208   0.08137  -0.06079
  65   38312.4    261.0   0.017392423   0.14945  -0.34433   0.15296   0.08654
  66   38425.6    260.2   0.061327808   0.52543  -0.40593   0.26960   0.53662
  67   38503.6    259.7   0.000276383   0.00236  -0.00023  -0.01268  -0.04693
  68   38666.3    258.6   0.001576386   0.01342   0.10371  -0.05159   0.00176
  69   38768.3    257.9   0.103763912   0.88114  -0.53927   0.17703  -0.74765
  70   38815.0    257.6   0.053951444   0.45759  -0.41144   0.08313  -0.53047
  71   38941.7    256.8   0.000628743   0.00532   0.05312   0.01841   0.04642
  72   38980.8    256.5   0.000814821   0.00688  -0.06816  -0.00832  -0.04654
  73   39279.5    254.6   0.005746738   0.04816   0.19380  -0.09625  -0.03667
  74   39635.5    252.3   0.025508079   0.21187  -0.35072   0.12090  -0.27248
  75   39930.6    250.4   0.066401242   0.54745  -0.36344   0.06347  -0.64136
  76   40046.9    249.7   0.057259152   0.47071  -0.53440   0.27276   0.33275
  77   40238.9    248.5   0.117502508   0.96134   0.83992  -0.34501   0.36993

FINAL SINGLE POINT ENERGY     -5863.755211902526

DIPOLE MOMENT
-------------
                                X             Y             Z
Electronic contribution:     -6.38323       2.55164      -4.33348
Nuclear contribution   :      6.58720      -2.78871       4.67132
                        -----------------------------------------
Total Dipole Moment    :      0.20396      -0.23707       0.33783
                        -----------------------------------------
Magnitude (a.u.)       :      0.46036
Magnitude (Debye)      :      1.17015

Rotational constants in cm-1:     0.001751     0.000198     0.000178
Rotational constants in MHz :    52.491936     5.929479     5.336741

                             ****ORCA TERMINATED NORMALLY****
TOTAL RUN TIME: 0 days 0 hours 9 minutes 37 seconds 7 msec
