                         Program Version 4.2.0 -  RELEASE  -
|  1> # ORCA input file
|  2> # SCF done       -201.819559951071          0.000330469202
|  3> ! CAM-B3LYP def2-SVP def2/J RIJCOSX Grid4 TightSCF
|  4> %maxcore 5000
|  5> %tddft
|  6>     Mode sTDDFT
|  7>     Ethresh 5.0
|  8>     maxcore 5000
|  9> end
| 10>
| 11> %pal
| 12>   nprocs 6
| 13>   end
| 14> * xyz 0 1
| 15>    C       -9.40677        -4.56995       -10.05178
| 16>    O       -8.58493        -5.02665        -9.28083
| 17>    C       -9.78165        -5.12829       -11.36488
| 18>    C      -10.73286        -4.29041       -11.97421
| 19>    C      -11.23579        -4.62340       -13.22114
| 20>    C      -10.78185        -5.78631       -13.83436
| 21>    C       -9.83830        -6.61152       -13.21842
| 22>    C       -9.32830        -6.28194       -11.96933
| 23>   Br       -9.24470        -8.18739       -14.07395
| 24>   Br      -11.47230        -6.24264       -15.53342
| 25>    C      -11.01110        -3.16314       -11.08391
| 26>    C      -11.86137        -2.12753       -11.36483
| 27>    C      -12.59498        -2.01155       -12.56615
| 28>    N      -13.21440        -1.86148       -13.52013
| 29>    C      -12.12826        -1.02902       -10.51914
| 30>    N      -12.39741        -0.10418        -9.89439
| 31>    C      -10.21627        -3.35725        -9.88399
| 32>    C      -10.23134        -2.56962        -8.76317
| 33>    C       -9.53111        -2.71303        -7.55267
| 34>    C       -9.73179        -1.84513        -6.48084
| 35>    C       -8.98041        -2.16057        -5.35850
| 36>   Cl       -9.16788        -1.32904        -3.87153
| 37>    C       -8.16518        -3.27458        -5.54542
| 38>    S       -8.36621        -3.94272        -7.13303
| 39>    C       -7.28675        -3.93173        -4.63575
| 40>    C       -6.41761        -3.42022        -3.68063
| 41>   Cl       -6.11165        -1.75208        -3.44632
| 42>    C       -5.71208        -4.40194        -2.98313
| 43>    C       -6.02240        -5.68080        -3.40451
| 44>    S       -7.19104        -5.67047        -4.69184
| 45>    C       -5.52513        -6.91289        -2.93857
| 46>    C       -5.87119        -8.15701        -3.47673
| 47>    C       -5.22903        -9.26321        -2.82453
| 48>    N       -5.45612       -10.51430        -3.23342
| 49>    C       -6.28451       -10.67327        -4.24219
| 50>    C       -6.51920       -12.07006        -4.69433
| 51>    O       -6.00550       -13.02364        -4.15080
| 52>    C       -7.41960       -12.20750        -5.85214
| 53>    C       -8.02868       -11.17497        -6.44376
| 54>    C       -7.87734        -9.77424        -6.00918
| 55>    O       -8.48564        -8.86402        -6.52836
| 56>    C       -6.93108        -9.56780        -4.88244
| 57>    N       -6.71551        -8.33082        -4.49244
| 58>    C       -4.39675        -8.85776        -1.77144
| 59>    S       -4.41593        -7.12424        -1.62633
| 60>    C       -3.65785        -9.69492        -0.91278
| 61>    C       -3.59480       -11.07654        -0.96863
| 62>    C       -2.80271       -11.61356         0.04066
| 63>   Cl       -2.54531       -13.29514         0.21437
| 64>    C       -2.23428       -10.66892         0.89641
| 65>    S       -2.70719        -9.06795         0.40356
| 66>    C       -1.40248       -10.89642         2.01406
| 67>    C       -0.79686        -9.95738         2.84852
| 68>   Cl       -0.96464        -8.26933         2.62019
| 69>    C       -0.05545       -10.51117         3.88709
| 70>    C       -0.03962       -11.89407         3.86774
| 71>    S       -1.00869       -12.49860         2.54941
| 72>    C        0.55847       -12.73188         4.83624
| 73>    C        0.79291       -14.07205         4.78818
| 74>    C        0.95031       -14.83414         6.05693
| 75>    O        1.15664       -14.38473         7.15808
| 76>    C        0.72851       -16.24788         5.67648
| 77>    C        0.59655       -16.34560         4.27832
| 78>    C        0.79943       -15.02177         3.69444
| 79>    C        1.21200       -14.77787         2.41261
| 80>    C        1.70090       -13.52348         1.98824
| 81>    N        2.15563       -12.53313         1.62952
| 82>    C        1.28856       -15.76964         1.41310
| 83>    N        1.34942       -16.54428         0.56917
| 84>    C        0.34603       -17.57331         3.69098
| 85>    C        0.23570       -18.69074         4.51111
| 86>    C        0.38279       -18.58920         5.89672
| 87>    C        0.63077       -17.35766         6.49006
| 88>   Br        0.24044       -20.12655         6.98580
| 89>   Br       -0.12437       -20.36679         3.71679
| 90>    H      -11.96643        -4.01481       -13.72860
| 91>    H       -8.60032        -6.91018       -11.47998
| 92>    H      -10.88936        -1.70924        -8.77320
| 93>    H      -10.42347        -1.02256        -6.51803
| 94>    H       -4.99534        -4.18881        -2.21099
| 95>    H       -7.56688       -13.22167        -6.19825
| 96>    H       -8.68950       -11.32140        -7.28753
| 97>    H       -4.11173       -11.65322        -1.71406
| 98>    H        0.47498        -9.92438         4.61439
| 99>    H        0.77548       -12.25999         5.78993
|100>    H        0.22332       -17.68274         2.62524
|101>    H        0.74382       -17.27003         7.55949
|102> *
|103>
|104>                          ****END OF INPUT****

CARTESIAN COORDINATES (ANGSTROEM)
---------------------------------
  C     -9.406770   -4.569950  -10.051780
  O     -8.584930   -5.026650   -9.280830
  C     -9.781650   -5.128290  -11.364880
  C    -10.732860   -4.290410  -11.974210
  C    -11.235790   -4.623400  -13.221140
  C    -10.781850   -5.786310  -13.834360
  C     -9.838300   -6.611520  -13.218420
  C     -9.328300   -6.281940  -11.969330
  Br    -9.244700   -8.187390  -14.073950
  Br   -11.472300   -6.242640  -15.533420
  C    -11.011100   -3.163140  -11.083910
  C    -11.861370   -2.127530  -11.364830
  C    -12.594980   -2.011550  -12.566150
  N    -13.214400   -1.861480  -13.520130
  C    -12.128260   -1.029020  -10.519140
  N    -12.397410   -0.104180   -9.894390
  C    -10.216270   -3.357250   -9.883990
  C    -10.231340   -2.569620   -8.763170
  C     -9.531110   -2.713030   -7.552670
  C     -9.731790   -1.845130   -6.480840
  C     -8.980410   -2.160570   -5.358500
  Cl    -9.167880   -1.329040   -3.871530
  C     -8.165180   -3.274580   -5.545420
  S     -8.366210   -3.942720   -7.133030
  C     -7.286750   -3.931730   -4.635750
  C     -6.417610   -3.420220   -3.680630
  Cl    -6.111650   -1.752080   -3.446320
  C     -5.712080   -4.401940   -2.983130
  C     -6.022400   -5.680800   -3.404510
  S     -7.191040   -5.670470   -4.691840
  C     -5.525130   -6.912890   -2.938570
  C     -5.871190   -8.157010   -3.476730
  C     -5.229030   -9.263210   -2.824530
  N     -5.456120  -10.514300   -3.233420
  C     -6.284510  -10.673270   -4.242190
  C     -6.519200  -12.070060   -4.694330
  O     -6.005500  -13.023640   -4.150800
  C     -7.419600  -12.207500   -5.852140
  C     -8.028680  -11.174970   -6.443760
  C     -7.877340   -9.774240   -6.009180
  O     -8.485640   -8.864020   -6.528360
  C     -6.931080   -9.567800   -4.882440
  N     -6.715510   -8.330820   -4.492440
  C     -4.396750   -8.857760   -1.771440
  S     -4.415930   -7.124240   -1.626330
  C     -3.657850   -9.694920   -0.912780
  C     -3.594800  -11.076540   -0.968630
  C     -2.802710  -11.613560    0.040660
  Cl    -2.545310  -13.295140    0.214370
  C     -2.234280  -10.668920    0.896410
  S     -2.707190   -9.067950    0.403560
  C     -1.402480  -10.896420    2.014060
  C     -0.796860   -9.957380    2.848520
  Cl    -0.964640   -8.269330    2.620190
  C     -0.055450  -10.511170    3.887090
  C     -0.039620  -11.894070    3.867740
  S     -1.008690  -12.498600    2.549410
  C      0.558470  -12.731880    4.836240
  C      0.792910  -14.072050    4.788180
  C      0.950310  -14.834140    6.056930
  O      1.156640  -14.384730    7.158080
  C      0.728510  -16.247880    5.676480
  C      0.596550  -16.345600    4.278320
  C      0.799430  -15.021770    3.694440
  C      1.212000  -14.777870    2.412610
  C      1.700900  -13.523480    1.988240
  N      2.155630  -12.533130    1.629520
  C      1.288560  -15.769640    1.413100
  N      1.349420  -16.544280    0.569170
  C      0.346030  -17.573310    3.690980
  C      0.235700  -18.690740    4.511110
  C      0.382790  -18.589200    5.896720
  C      0.630770  -17.357660    6.490060
  Br     0.240440  -20.126550    6.985800
  Br    -0.124370  -20.366790    3.716790
  H    -11.966430   -4.014810  -13.728600
  H     -8.600320   -6.910180  -11.479980
  H    -10.889360   -1.709240   -8.773200
  H    -10.423470   -1.022560   -6.518030
  H     -4.995340   -4.188810   -2.210990
  H     -7.566880  -13.221670   -6.198250
  H     -8.689500  -11.321400   -7.287530
  H     -4.111730  -11.653220   -1.714060
  H      0.474980   -9.924380    4.614390
  H      0.775480  -12.259990    5.789930
  H      0.223320  -17.682740    2.625240
  H      0.743820  -17.270030    7.559490

 Total Charge           Charge          ....    0
 Multiplicity           Mult            ....    1
 Number of Electrons    NEL             ....  686
 Basis Dimension        Dim             .... 1218

ORBITAL ENERGIES
----------------

  NO   OCC          E(Eh)            E(eV)
   0   2.0000    -482.880501    -13139.8465
   1   2.0000    -482.878874    -13139.8022
   2   2.0000    -482.878422    -13139.7899
   3   2.0000    -482.877968    -13139.7775
   4   2.0000    -101.613267     -2765.0376
   5   2.0000    -101.611269     -2764.9832
   6   2.0000    -101.595289     -2764.5484
   7   2.0000    -101.593293     -2764.4940
   8   2.0000     -89.011063     -2422.1142
   9   2.0000     -88.984644     -2421.3953
  10   2.0000     -88.982976     -2421.3499
  11   2.0000     -88.976270     -2421.1674
  12   2.0000     -88.975384     -2421.1433
  13   2.0000     -62.558117     -1702.2929
  14   2.0000     -62.556477     -1702.2483
  15   2.0000     -62.556017     -1702.2358
  16   2.0000     -62.555592     -1702.2242
  17   2.0000     -56.392061     -1534.5060
  18   2.0000     -56.390428     -1534.4615
  19   2.0000     -56.389981     -1534.4494
  20   2.0000     -56.389554     -1534.4378
  21   2.0000     -56.389421     -1534.4342
  22   2.0000     -56.389313     -1534.4312
  23   2.0000     -56.387773     -1534.3893
  24   2.0000     -56.387680     -1534.3868
  25   2.0000     -56.387309     -1534.3767
  26   2.0000     -56.387212     -1534.3740
  27   2.0000     -56.386883     -1534.3651
  28   2.0000     -56.386789     -1534.3625
  29   2.0000     -19.236809      -523.4602
  30   2.0000     -19.236232      -523.4445
  31   2.0000     -19.233449      -523.3688
  32   2.0000     -19.224779      -523.1328
  33   2.0000     -14.462454      -393.5434
  34   2.0000     -14.460160      -393.4810
  35   2.0000     -14.426277      -392.5590
  36   2.0000     -14.422737      -392.4626
  37   2.0000     -14.422217      -392.4485
  38   2.0000     -14.419983      -392.3877
  39   2.0000     -10.385887      -282.6144
  40   2.0000     -10.385576      -282.6059
  41   2.0000     -10.381087      -282.4837
  42   2.0000     -10.376768      -282.3662
  43   2.0000     -10.357356      -281.8380
  44   2.0000     -10.356979      -281.8277
  45   2.0000     -10.356718      -281.8206
  46   2.0000     -10.355878      -281.7978
  47   2.0000     -10.353566      -281.7348
  48   2.0000     -10.353366      -281.7294
  49   2.0000     -10.353304      -281.7277
  50   2.0000     -10.352365      -281.7022
  51   2.0000     -10.352014      -281.6926
  52   2.0000     -10.350819      -281.6601
  53   2.0000     -10.350152      -281.6420
  54   2.0000     -10.349208      -281.6163
  55   2.0000     -10.346647      -281.5466
  56   2.0000     -10.345520      -281.5159
  57   2.0000     -10.345431      -281.5135
  58   2.0000     -10.345325      -281.5106
  59   2.0000     -10.343435      -281.4592
  60   2.0000     -10.343130      -281.4509
  61   2.0000     -10.340328      -281.3746
  62   2.0000     -10.339066      -281.3403
  63   2.0000     -10.334162      -281.2068
  64   2.0000     -10.333393      -281.1859
  65   2.0000     -10.333199      -281.1806
  66   2.0000     -10.330393      -281.1043
  67   2.0000     -10.329284      -281.0741
  68   2.0000     -10.328407      -281.0503
  69   2.0000     -10.326014      -280.9851
  70   2.0000     -10.325644      -280.9751
  71   2.0000     -10.324664      -280.9484
  72   2.0000     -10.324436      -280.9422
  73   2.0000     -10.324313      -280.9388
  74   2.0000     -10.321863      -280.8722
  75   2.0000     -10.321688      -280.8674
  76   2.0000     -10.321604      -280.8651
  77   2.0000     -10.318073      -280.7690
  78   2.0000     -10.317358      -280.7496
  79   2.0000     -10.315673      -280.7037
  80   2.0000     -10.314916      -280.6831
  81   2.0000     -10.314708      -280.6775
  82   2.0000     -10.314510      -280.6721
  83   2.0000     -10.310894      -280.5737
  84   2.0000     -10.307707      -280.4870
  85   2.0000     -10.307172      -280.4724
  86   2.0000     -10.307120      -280.4710
  87   2.0000     -10.306027      -280.4412
  88   2.0000     -10.305861      -280.4367
  89   2.0000     -10.301758      -280.3251
  90   2.0000     -10.296610      -280.1850
  91   2.0000      -9.568046      -260.3598
  92   2.0000      -9.566033      -260.3050
  93   2.0000      -9.550301      -259.8769
  94   2.0000      -9.548269      -259.8216
  95   2.0000      -8.787448      -239.1186
  96   2.0000      -8.785789      -239.0735
  97   2.0000      -8.785334      -239.0611
  98   2.0000      -8.784914      -239.0497
  99   2.0000      -8.105399      -220.5591
 100   2.0000      -8.079481      -219.8539
 101   2.0000      -8.077286      -219.7941
 102   2.0000      -8.069584      -219.5845
 103   2.0000      -8.069488      -219.5819
 104   2.0000      -7.338168      -199.6817
 105   2.0000      -7.336146      -199.6267
 106   2.0000      -7.328098      -199.4077
 107   2.0000      -7.328046      -199.4063
 108   2.0000      -7.326126      -199.3540
 109   2.0000      -7.325974      -199.3499
 110   2.0000      -7.320680      -199.2058
 111   2.0000      -7.318693      -199.1518
 112   2.0000      -7.310440      -198.9272
 113   2.0000      -7.309941      -198.9136
 114   2.0000      -7.308361      -198.8706
 115   2.0000      -7.307935      -198.8590
 116   2.0000      -6.623560      -180.2362
 117   2.0000      -6.621914      -180.1914
 118   2.0000      -6.621482      -180.1797
 119   2.0000      -6.621079      -180.1687
 120   2.0000      -6.609588      -179.8560
 121   2.0000      -6.608794      -179.8344
 122   2.0000      -6.607918      -179.8106
 123   2.0000      -6.607444      -179.7977
 124   2.0000      -6.607127      -179.7891
 125   2.0000      -6.607022      -179.7862
 126   2.0000      -6.606662      -179.7764
 127   2.0000      -6.606235      -179.7648
 128   2.0000      -6.074413      -165.2932
 129   2.0000      -6.070318      -165.1818
 130   2.0000      -6.068197      -165.1240
 131   2.0000      -6.049068      -164.6035
 132   2.0000      -6.046826      -164.5425
 133   2.0000      -6.044709      -164.4849
 134   2.0000      -6.042437      -164.4231
 135   2.0000      -6.041136      -164.3877
 136   2.0000      -6.039085      -164.3319
 137   2.0000      -6.039050      -164.3309
 138   2.0000      -6.039000      -164.3295
 139   2.0000      -6.034584      -164.2094
 140   2.0000      -6.034442      -164.2055
 141   2.0000      -6.031658      -164.1298
 142   2.0000      -6.031342      -164.1212
 143   2.0000      -2.739475       -74.5449
 144   2.0000      -2.737830       -74.5001
 145   2.0000      -2.737411       -74.4887
 146   2.0000      -2.736986       -74.4772
 147   2.0000      -2.735715       -74.4426
 148   2.0000      -2.735110       -74.4261
 149   2.0000      -2.734039       -74.3970
 150   2.0000      -2.733595       -74.3849
 151   2.0000      -2.733468       -74.3814
 152   2.0000      -2.733187       -74.3738
 153   2.0000      -2.732999       -74.3687
 154   2.0000      -2.732596       -74.3577
 155   2.0000      -2.723991       -74.1236
 156   2.0000      -2.723966       -74.1229
 157   2.0000      -2.722312       -74.0779
 158   2.0000      -2.722301       -74.0776
 159   2.0000      -2.721816       -74.0644
 160   2.0000      -2.721813       -74.0643
 161   2.0000      -2.721400       -74.0530
 162   2.0000      -2.721396       -74.0529
 163   2.0000      -1.154243       -31.4085
 164   2.0000      -1.149809       -31.2879
 165   2.0000      -1.149574       -31.2815
 166   2.0000      -1.140894       -31.0453
 167   2.0000      -1.112774       -30.2801
 168   2.0000      -1.043432       -28.3932
 169   2.0000      -1.040530       -28.3143
 170   2.0000      -1.031195       -28.0602
 171   2.0000      -1.030265       -28.0349
 172   2.0000      -1.029003       -28.0006
 173   2.0000      -1.022043       -27.8112
 174   2.0000      -1.014583       -27.6082
 175   2.0000      -1.013524       -27.5794
 176   2.0000      -1.011465       -27.5234
 177   2.0000      -1.004086       -27.3226
 178   2.0000      -1.002445       -27.2779
 179   2.0000      -0.999825       -27.2066
 180   2.0000      -0.982666       -26.7397
 181   2.0000      -0.982542       -26.7363
 182   2.0000      -0.973588       -26.4927
 183   2.0000      -0.965137       -26.2627
 184   2.0000      -0.960743       -26.1431
 185   2.0000      -0.952172       -25.9099
 186   2.0000      -0.948348       -25.8059
 187   2.0000      -0.925981       -25.1972
 188   2.0000      -0.924898       -25.1678
 189   2.0000      -0.919701       -25.0263
 190   2.0000      -0.917880       -24.9768
 191   2.0000      -0.914255       -24.8782
 192   2.0000      -0.912274       -24.8242
 193   2.0000      -0.901213       -24.5233
 194   2.0000      -0.889004       -24.1910
 195   2.0000      -0.885125       -24.0855
 196   2.0000      -0.876197       -23.8425
 197   2.0000      -0.862432       -23.4680
 198   2.0000      -0.857318       -23.3288
 199   2.0000      -0.856286       -23.3007
 200   2.0000      -0.855226       -23.2719
 201   2.0000      -0.841850       -22.9079
 202   2.0000      -0.835882       -22.7455
 203   2.0000      -0.832279       -22.6474
 204   2.0000      -0.825134       -22.4530
 205   2.0000      -0.813878       -22.1467
 206   2.0000      -0.810637       -22.0585
 207   2.0000      -0.801036       -21.7973
 208   2.0000      -0.794333       -21.6149
 209   2.0000      -0.781690       -21.2709
 210   2.0000      -0.775524       -21.1031
 211   2.0000      -0.770688       -20.9715
 212   2.0000      -0.765707       -20.8360
 213   2.0000      -0.750779       -20.4297
 214   2.0000      -0.741507       -20.1774
 215   2.0000      -0.724904       -19.7256
 216   2.0000      -0.717361       -19.5204
 217   2.0000      -0.704907       -19.1815
 218   2.0000      -0.703480       -19.1427
 219   2.0000      -0.698379       -19.0039
 220   2.0000      -0.692264       -18.8375
 221   2.0000      -0.691090       -18.8055
 222   2.0000      -0.683511       -18.5993
 223   2.0000      -0.680224       -18.5098
 224   2.0000      -0.676806       -18.4168
 225   2.0000      -0.671974       -18.2853
 226   2.0000      -0.661978       -18.0133
 227   2.0000      -0.661016       -17.9872
 228   2.0000      -0.640443       -17.4273
 229   2.0000      -0.639443       -17.4001
 230   2.0000      -0.629020       -17.1165
 231   2.0000      -0.628079       -17.0909
 232   2.0000      -0.626201       -17.0398
 233   2.0000      -0.624339       -16.9891
 234   2.0000      -0.618829       -16.8392
 235   2.0000      -0.615716       -16.7545
 236   2.0000      -0.610752       -16.6194
 237   2.0000      -0.604126       -16.4391
 238   2.0000      -0.595384       -16.2012
 239   2.0000      -0.593590       -16.1524
 240   2.0000      -0.589424       -16.0390
 241   2.0000      -0.579671       -15.7737
 242   2.0000      -0.577925       -15.7261
 243   2.0000      -0.573199       -15.5975
 244   2.0000      -0.569363       -15.4932
 245   2.0000      -0.566538       -15.4163
 246   2.0000      -0.564135       -15.3509
 247   2.0000      -0.558962       -15.2101
 248   2.0000      -0.553272       -15.0553
 249   2.0000      -0.553152       -15.0520
 250   2.0000      -0.550465       -14.9789
 251   2.0000      -0.548002       -14.9119
 252   2.0000      -0.546807       -14.8794
 253   2.0000      -0.544992       -14.8300
 254   2.0000      -0.542088       -14.7510
 255   2.0000      -0.538714       -14.6592
 256   2.0000      -0.538394       -14.6504
 257   2.0000      -0.535532       -14.5726
 258   2.0000      -0.533957       -14.5297
 259   2.0000      -0.533343       -14.5130
 260   2.0000      -0.530185       -14.4271
 261   2.0000      -0.526840       -14.3361
 262   2.0000      -0.521132       -14.1807
 263   2.0000      -0.518207       -14.1011
 264   2.0000      -0.517103       -14.0711
 265   2.0000      -0.513528       -13.9738
 266   2.0000      -0.512321       -13.9410
 267   2.0000      -0.511846       -13.9280
 268   2.0000      -0.509985       -13.8774
 269   2.0000      -0.508004       -13.8235
 270   2.0000      -0.507569       -13.8117
 271   2.0000      -0.503932       -13.7127
 272   2.0000      -0.503177       -13.6921
 273   2.0000      -0.501388       -13.6435
 274   2.0000      -0.500284       -13.6134
 275   2.0000      -0.497721       -13.5437
 276   2.0000      -0.494047       -13.4437
 277   2.0000      -0.490861       -13.3570
 278   2.0000      -0.486749       -13.2451
 279   2.0000      -0.482298       -13.1240
 280   2.0000      -0.475675       -12.9438
 281   2.0000      -0.470325       -12.7982
 282   2.0000      -0.469357       -12.7719
 283   2.0000      -0.467347       -12.7172
 284   2.0000      -0.466630       -12.6977
 285   2.0000      -0.466393       -12.6912
 286   2.0000      -0.466087       -12.6829
 287   2.0000      -0.462712       -12.5910
 288   2.0000      -0.459636       -12.5073
 289   2.0000      -0.457207       -12.4412
 290   2.0000      -0.455845       -12.4042
 291   2.0000      -0.453562       -12.3421
 292   2.0000      -0.451727       -12.2921
 293   2.0000      -0.450615       -12.2619
 294   2.0000      -0.448920       -12.2157
 295   2.0000      -0.446967       -12.1626
 296   2.0000      -0.441382       -12.0106
 297   2.0000      -0.439074       -11.9478
 298   2.0000      -0.436955       -11.8902
 299   2.0000      -0.433883       -11.8066
 300   2.0000      -0.433133       -11.7862
 301   2.0000      -0.431385       -11.7386
 302   2.0000      -0.430659       -11.7188
 303   2.0000      -0.426206       -11.5977
 304   2.0000      -0.425481       -11.5779
 305   2.0000      -0.420226       -11.4349
 306   2.0000      -0.416291       -11.3279
 307   2.0000      -0.415330       -11.3017
 308   2.0000      -0.407645       -11.0926
 309   2.0000      -0.405687       -11.0393
 310   2.0000      -0.404395       -11.0041
 311   2.0000      -0.403376       -10.9764
 312   2.0000      -0.401978       -10.9384
 313   2.0000      -0.397670       -10.8212
 314   2.0000      -0.395973       -10.7750
 315   2.0000      -0.393208       -10.6997
 316   2.0000      -0.392321       -10.6756
 317   2.0000      -0.384691       -10.4680
 318   2.0000      -0.382340       -10.4040
 319   2.0000      -0.382052       -10.3961
 320   2.0000      -0.374736       -10.1971
 321   2.0000      -0.374444       -10.1891
 322   2.0000      -0.370164       -10.0727
 323   2.0000      -0.361692        -9.8421
 324   2.0000      -0.359496        -9.7824
 325   2.0000      -0.356511        -9.7012
 326   2.0000      -0.352039        -9.5795
 327   2.0000      -0.351252        -9.5581
 328   2.0000      -0.348072        -9.4715
 329   2.0000      -0.346507        -9.4289
 330   2.0000      -0.343949        -9.3593
 331   2.0000      -0.342661        -9.3243
 332   2.0000      -0.339578        -9.2404
 333   2.0000      -0.337815        -9.1924
 334   2.0000      -0.333988        -9.0883
 335   2.0000      -0.329274        -8.9600
 336   2.0000      -0.328575        -8.9410
 337   2.0000      -0.321639        -8.7522
 338   2.0000      -0.315934        -8.5970
 339   2.0000      -0.314247        -8.5511
 340   2.0000      -0.303797        -8.2667
 341   2.0000      -0.280219        -7.6252
 342   2.0000      -0.247825        -6.7437
 343   0.0000      -0.120306        -3.2737
 344   0.0000      -0.103109        -2.8057
 345   0.0000      -0.095199        -2.5905
 346   0.0000      -0.094225        -2.5640
 347   0.0000      -0.073931        -2.0118

MULLIKEN ATOMIC CHARGES
-----------------------
   0 C :    0.175147
   1 O :   -0.169190
   2 C :   -0.015737
   3 C :    0.034520
   4 C :   -0.012715
   5 C :   -0.024887
   6 C :   -0.014135
   7 C :   -0.019847
   8 Br:    0.014540
   9 Br:    0.024065
  10 C :    0.321731
  11 C :   -0.344161
  12 C :   -0.186748
  13 N :    0.160677
  14 C :   -0.186268
  15 N :    0.151339
  16 C :   -0.099734
  17 C :    0.000544
  18 C :   -0.054629
  19 C :   -0.003132
  20 C :    0.129446
  21 Cl:   -0.060609
  22 C :   -0.123580
  23 S :    0.229312
  24 C :   -0.133681
  25 C :    0.124046
  26 Cl:   -0.059064
  27 C :   -0.045006
  28 C :   -0.069527
  29 S :    0.217143
  30 C :   -0.085158
  31 C :    0.002270
  32 C :    0.042552
  33 N :    0.065087
  34 C :   -0.118799
  35 C :    0.140546
  36 O :   -0.102251
  37 C :   -0.013062
  38 C :   -0.017723
  39 C :    0.138323
  40 O :   -0.098226
  41 C :   -0.112763
  42 N :    0.042624
  43 C :   -0.105510
  44 S :    0.228426
  45 C :   -0.074254
  46 C :   -0.016156
  47 C :    0.082804
  48 Cl:   -0.042069
  49 C :   -0.088523
  50 S :    0.150288
  51 C :   -0.074205
  52 C :    0.072149
  53 Cl:   -0.056942
  54 C :    0.048421
  55 C :   -0.076565
  56 S :    0.168467
  57 C :    0.064787
  58 C :   -0.137191
  59 C :    0.142061
  60 O :   -0.133299
  61 C :   -0.001029
  62 C :    0.025866
  63 C :    0.237306
  64 C :   -0.309088
  65 C :   -0.210208
  66 N :    0.181273
  67 C :   -0.176924
  68 N :    0.165008
  69 C :   -0.010761
  70 C :   -0.023844
  71 C :   -0.017822
  72 C :   -0.020267
  73 Br:    0.015420
  74 Br:    0.022223
  75 H :    0.008843
  76 H :    0.008629
  77 H :    0.010847
  78 H :    0.008852
  79 H :   -0.010615
  80 H :    0.021133
  81 H :    0.020826
  82 H :    0.011308
  83 H :   -0.001818
  84 H :    0.027316
  85 H :    0.012297
  86 H :    0.009258
Sum of atomic charges:   -0.0000000

LOEWDIN ATOMIC CHARGES
----------------------
   0 C :    0.086083
   1 O :   -0.153429
   2 C :   -0.041037
   3 C :   -0.010907
   4 C :   -0.006458
   5 C :   -0.118766
   6 C :   -0.122973
   7 C :    0.007153
   8 Br:    0.138251
   9 Br:    0.143079
  10 C :    0.075560
  11 C :   -0.133197
  12 C :   -0.019754
  13 N :   -0.043521
  14 C :   -0.020748
  15 N :   -0.045426
  16 C :   -0.109263
  17 C :    0.063199
  18 C :   -0.187214
  19 C :   -0.025750
  20 C :   -0.170741
  21 Cl:    0.149108
  22 C :   -0.198945
  23 S :    0.524133
  24 C :   -0.220878
  25 C :   -0.157130
  26 Cl:    0.152764
  27 C :   -0.067682
  28 C :   -0.181127
  29 S :    0.506083
  30 C :   -0.188551
  31 C :   -0.052158
  32 C :   -0.040460
  33 N :    0.010507
  34 C :   -0.039023
  35 C :    0.056238
  36 O :   -0.098534
  37 C :   -0.011701
  38 C :   -0.011076
  39 C :    0.055460
  40 O :   -0.095566
  41 C :   -0.037016
  42 N :   -0.005278
  43 C :   -0.188633
  44 S :    0.515844
  45 C :   -0.185519
  46 C :   -0.047814
  47 C :   -0.157825
  48 Cl:    0.178912
  49 C :   -0.209154
  50 S :    0.443138
  51 C :   -0.180774
  52 C :   -0.175771
  53 Cl:    0.165847
  54 C :   -0.023688
  55 C :   -0.186267
  56 S :    0.487687
  57 C :    0.054251
  58 C :   -0.099267
  59 C :    0.083823
  60 O :   -0.134884
  61 C :   -0.043933
  62 C :   -0.008121
  63 C :    0.057556
  64 C :   -0.134379
  65 C :   -0.037711
  66 N :   -0.040373
  67 C :   -0.021857
  68 N :   -0.041084
  69 C :   -0.009592
  70 C :   -0.118072
  71 C :   -0.124033
  72 C :    0.007132
  73 Br:    0.138246
  74 Br:    0.142865
  75 H :    0.045016
  76 H :    0.047138
  77 H :    0.051874
  78 H :    0.042390
  79 H :    0.032267
  80 H :    0.047126
  81 H :    0.046804
  82 H :    0.041108
  83 H :    0.041231
  84 H :    0.053167
  85 H :    0.044967
  86 H :    0.047053

  Mayer bond orders larger than 0.100000
B(  0-C ,  1-O ) :   2.1323 B(  0-C ,  2-C ) :   0.9578 B(  0-C , 16-C ) :   0.9795
B(  2-C ,  3-C ) :   1.3290 B(  2-C ,  7-C ) :   1.3730 B(  3-C ,  4-C ) :   1.3686
B(  3-C , 10-C ) :   0.9890 B(  4-C ,  5-C ) :   1.3667 B(  4-C , 75-H ) :   0.9790
B(  5-C ,  6-C ) :   1.4224 B(  5-C ,  9-Br) :   1.0599 B(  6-C ,  7-C ) :   1.3479
B(  6-C ,  8-Br) :   1.0335 B(  7-C , 76-H ) :   1.0084 B( 10-C , 11-C ) :   1.6393
B( 10-C , 16-C ) :   1.0777 B( 11-C , 12-C ) :   1.1422 B( 11-C , 14-C ) :   1.1420
B( 12-C , 13-N ) :   2.9696 B( 14-C , 15-N ) :   2.9592 B( 16-C , 17-C ) :   1.5120
B( 17-C , 18-C ) :   1.2513 B( 17-C , 77-H ) :   0.9396 B( 18-C , 19-C ) :   1.3546
B( 18-C , 23-S ) :   1.0886 B( 19-C , 20-C ) :   1.3039 B( 19-C , 78-H ) :   1.0119
B( 20-C , 21-Cl) :   1.0586 B( 20-C , 22-C ) :   1.4359 B( 22-C , 23-S ) :   1.1428
B( 22-C , 24-C ) :   1.0865 B( 24-C , 25-C ) :   1.5020 B( 24-C , 28-C ) :   0.1078
B( 24-C , 29-S ) :   1.1073 B( 25-C , 26-Cl) :   1.0551 B( 25-C , 27-C ) :   1.2689
B( 27-C , 28-C ) :   1.4153 B( 27-C , 79-H ) :   1.0084 B( 28-C , 29-S ) :   1.1388
B( 28-C , 30-C ) :   1.2099 B( 30-C , 31-C ) :   1.3248 B( 30-C , 43-C ) :   0.1325
B( 30-C , 44-S ) :   1.1615 B( 31-C , 32-C ) :   1.1906 B( 31-C , 42-N ) :   1.4127
B( 32-C , 33-N ) :   1.4325 B( 32-C , 43-C ) :   1.3628 B( 33-N , 34-C ) :   1.7190
B( 34-C , 35-C ) :   0.8925 B( 34-C , 41-C ) :   1.0947 B( 35-C , 36-O ) :   2.2336
B( 35-C , 37-C ) :   1.0287 B( 37-C , 38-C ) :   1.6802 B( 37-C , 80-H ) :   0.9987
B( 38-C , 39-C ) :   1.0209 B( 38-C , 81-H ) :   0.9980 B( 39-C , 40-O ) :   2.2540
B( 39-C , 41-C ) :   0.8921 B( 41-C , 42-N ) :   1.7069 B( 43-C , 44-S ) :   1.1604
B( 43-C , 45-C ) :   1.1876 B( 45-C , 46-C ) :   1.4595 B( 45-C , 49-C ) :   0.1010
B( 45-C , 50-S ) :   1.0888 B( 46-C , 47-C ) :   1.2636 B( 46-C , 82-H ) :   0.9979
B( 47-C , 48-Cl) :   1.0491 B( 47-C , 49-C ) :   1.4348 B( 49-C , 50-S ) :   1.1198
B( 49-C , 51-C ) :   1.2081 B( 51-C , 52-C ) :   1.4142 B( 51-C , 56-S ) :   1.1594
B( 52-C , 53-Cl) :   1.0309 B( 52-C , 54-C ) :   1.3035 B( 54-C , 55-C ) :   1.4082
B( 54-C , 83-H ) :   1.0091 B( 55-C , 56-S ) :   1.0853 B( 55-C , 57-C ) :   1.1512
B( 57-C , 58-C ) :   1.6374 B( 57-C , 84-H ) :   0.9468 B( 58-C , 59-C ) :   0.9445
B( 58-C , 63-C ) :   1.0339 B( 59-C , 60-O ) :   2.2763 B( 59-C , 61-C ) :   0.9213
B( 61-C , 62-C ) :   1.3287 B( 61-C , 72-C ) :   1.3753 B( 62-C , 63-C ) :   1.0082
B( 62-C , 69-C ) :   1.3712 B( 63-C , 64-C ) :   1.6690 B( 64-C , 65-C ) :   1.1489
B( 64-C , 67-C ) :   1.1316 B( 65-C , 66-N ) :   3.0317 B( 67-C , 68-N ) :   2.9953
B( 69-C , 70-C ) :   1.3677 B( 69-C , 85-H ) :   0.9843 B( 70-C , 71-C ) :   1.4219
B( 70-C , 74-Br) :   1.0524 B( 71-C , 72-C ) :   1.3566 B( 71-C , 73-Br) :   1.0348
B( 72-C , 86-H ) :   1.0077

-----------------------------------------------------------------------------
         ABSORPTION SPECTRUM VIA TRANSITION ELECTRIC DIPOLE MOMENTS
-----------------------------------------------------------------------------
State   Energy  Wavelength   fosc         T2         TX        TY        TZ
        (cm-1)    (nm)                  (au**2)     (au)      (au)      (au)
-----------------------------------------------------------------------------
   0   12196.6    819.9   1.119506121  30.21774   2.87168  -3.16690   3.45570
   1   16881.8    592.4   0.074469035   1.45222  -0.93493  -0.13897  -0.74754
   2   18705.3    534.6   0.408928314   7.19710  -1.40988   1.81425  -1.38486
   3   19929.6    501.8   0.461352757   7.62097  -1.26406  -0.06169  -2.45343
   4   21169.2    472.4   0.015560440   0.24199  -0.27104  -0.30355  -0.27638
   5   24461.1    408.8   0.009176322   0.12350  -0.11537   0.09367  -0.31846
   6   24661.1    405.5   0.040376573   0.53900   0.15568  -0.04643   0.71597
   7   25189.3    397.0   0.050836809   0.66441   0.28035  -0.52365   0.55821
   8   25325.4    394.9   0.287517496   3.73752   1.14714  -0.56500   1.44995
   9   25945.4    385.4   0.000751698   0.00954   0.06060  -0.03879   0.06603
  10   26540.7    376.8   0.002861597   0.03550  -0.16741   0.01285  -0.08547
  11   27016.5    370.1   0.014165197   0.17261  -0.21493  -0.04078  -0.35321
  12   27227.4    367.3   0.179425975   2.16947   0.27224   0.23025   1.42910
  13   27582.4    362.6   0.111851321   1.33501   0.44769   0.53401   0.92164
  14   27859.5    358.9   0.052102130   0.61568   0.33757  -0.12104   0.69791
  15   28400.7    352.1   0.116282990   1.34792  -0.06364  -0.90922   0.71916
  16   29348.6    340.7   0.023082663   0.25892  -0.23431   0.44952  -0.04419
  17   29460.0    339.4   0.002473558   0.02764   0.10395  -0.02704  -0.12690
  18   29567.2    338.2   0.168150066   1.87224   0.36879  -1.19392   0.55748
  19   30034.0    333.0   0.131869203   1.44546   0.63151  -0.92808   0.43048
  20   30465.5    328.2   0.070133254   0.75786  -0.36423   0.78775   0.06816
  21   30485.0    328.0   0.023895677   0.25805   0.46439   0.12178  -0.16604
  22   30770.2    325.0   0.001391686   0.01489   0.03948  -0.10633   0.04500
  23   31325.7    319.2   0.027623418   0.29030   0.16261  -0.48884  -0.15779
  24   31648.5    316.0   0.008888697   0.09246  -0.00642   0.13828  -0.27074
  25   31727.6    315.2   0.199429825   2.06933  -0.15206   1.05874   0.96191
  26   32277.3    309.8   0.037361709   0.38107  -0.15870  -0.24858  -0.54230
  27   32405.5    308.6   0.108920498   1.10654   0.10186   0.01239   1.04691
  28   32714.2    305.7   0.037111130   0.37346   0.10359  -0.24332  -0.55093
  29   32779.0    305.1   0.052226808   0.52453  -0.28419  -0.65817   0.10290
  30   33395.5    299.4   0.011797698   0.11630   0.11221   0.31983  -0.03768
  31   33491.2    298.6   0.015224518   0.14965   0.10399  -0.07080  -0.36582
  32   33676.3    296.9   0.014520966   0.14195  -0.36264  -0.03357  -0.09653
  33   33848.6    295.4   0.122181459   1.18834  -0.54907   0.86696  -0.36775
  34   34044.9    293.7   0.004542800   0.04393   0.11971   0.07763  -0.15353
  35   34140.6    292.9   0.010580356   0.10202   0.17929  -0.07685  -0.25293
  36   34403.1    290.7   0.796615566   7.62301   0.67993  -2.58775  -0.68137
  37   34465.5    290.1   0.036661710   0.35019   0.16591  -0.47840  -0.30626
  38   34764.0    287.7   0.152640539   1.44549   1.13482   0.35425   0.17940
  39   34819.3    287.2   0.001879042   0.01777   0.04856   0.09080  -0.08464
  40   34901.9    286.5   0.278222067   2.62433  -0.23684  -1.40140   0.77738
  41   34968.7    286.0   0.002858130   0.02691  -0.02914  -0.00599  -0.16132
  42   35235.5    283.8   0.535102868   4.99956   0.33260  -0.17410   2.20423
  43   35698.0    280.1   0.099777320   0.92016   0.35740   0.51231   0.72799
  44   35766.5    279.6   0.031261761   0.28775   0.17708   0.02687  -0.50564
  45   36261.9    275.8   0.152424516   1.38382  -0.22466  -1.06021  -0.45750
  46   36415.5    274.6   0.007163933   0.06477  -0.16639  -0.02970  -0.19026
  47   36529.5    273.8   0.019268179   0.17365  -0.00158   0.37851  -0.17430
  48   36551.9    273.6   0.027095972   0.24405  -0.29737  -0.34040  -0.19935
  49   36837.6    271.5   0.036166664   0.32322   0.18475   0.32281   0.42997
  50   36976.5    270.4   0.033799085   0.30092   0.06402   0.20875   0.50324
  51   37020.4    270.1   0.030495920   0.27119   0.08850   0.49195   0.14608
  52   37296.6    268.1   0.002554478   0.02255  -0.08708  -0.09033  -0.08249
  53   37576.0    266.1   0.045030135   0.39452   0.33145   0.48950   0.21224
  54   37874.3    264.0   0.015704587   0.13651  -0.06376  -0.35351  -0.08647
  55   37938.1    263.6   0.002004715   0.01740   0.01417   0.09835  -0.08674
  56   38006.7    263.1   0.000144294   0.00125  -0.03507   0.00413  -0.00179
  57   38312.7    261.0   0.083097675   0.71404  -0.49726   0.63108  -0.26175
  58   38403.6    260.4   0.013809702   0.11838   0.11826   0.32286  -0.01264
  59   38547.8    259.4   0.077713988   0.66371   0.16232  -0.41835  -0.67995
  60   38726.0    258.2   0.022012017   0.18713  -0.08083  -0.13286  -0.40366
  61   38933.7    256.8   0.226119271   1.91200   0.64632   0.82563   0.90145
  62   38981.5    256.5   0.002932780   0.02477  -0.09964   0.02511   0.11921
  63   39259.9    254.7   0.053696344   0.45027   0.33488   0.30451   0.49537
  64   39361.6    254.1   0.010430421   0.08724   0.04491  -0.28258   0.07326
  65   39627.7    252.3   0.036289381   0.30148  -0.10453  -0.35258  -0.40772
  66   39850.6    250.9   0.063845725   0.52744  -0.33112  -0.32553  -0.55842
  67   39909.7    250.6   0.026066262   0.21502   0.09361   0.45181   0.04611
  68   40050.9    249.7   0.021034194   0.17290  -0.09091   0.30988   0.26192

FINAL SINGLE POINT ENERGY    -16741.217659662365

DIPOLE MOMENT
-------------
                                X             Y             Z
Electronic contribution:      4.58306    -137.01798     -41.82226
Nuclear contribution   :     -4.68144     136.24323      43.26207
                        -----------------------------------------
Total Dipole Moment    :     -0.09839      -0.77475       1.43981
                        -----------------------------------------
Magnitude (a.u.)       :      1.63798
Magnitude (Debye)      :      4.16341

Rotational constants in cm-1:     0.001022     0.000132     0.000120
Rotational constants in MHz :    30.645307     3.964908     3.592942

                             ****ORCA TERMINATED NORMALLY****
TOTAL RUN TIME: 0 days 0 hours 9 minutes 33 seconds 877 msec
