                         Program Version 4.2.0 -  RELEASE  -
|  1> # ORCA input file
|  2> # SCF done       -201.733248302472          0.000455610925
|  3> ! CAM-B3LYP def2-SVP def2/J RIJCOSX Grid4 TightSCF
|  4> %maxcore 5000
|  5> %tddft
|  6>     Mode sTDDFT
|  7>     Ethresh 5.0
|  8>     maxcore 5000
|  9> end
| 10>
| 11> %pal
| 12>   nprocs 6
| 13>   end
| 14> * xyz 0 1
| 15>    C        6.69111        12.87065        -5.88984
| 16>    C        6.23636        12.29789        -7.05084
| 17>    C        7.05177        11.56151        -7.93181
| 18>    N        7.67437        10.93706        -8.66706
| 19>    C        4.91396        12.45718        -7.50950
| 20>    N        3.84510        12.58738        -7.90761
| 21>    C        8.08645        12.94610        -5.46850
| 22>    C        8.21386        14.00557        -4.52328
| 23>    C        9.41390        14.31601        -3.95298
| 24>    C       10.55587        13.55566        -4.29435
| 25>    C       10.43183        12.48774        -5.22930
| 26>    C        9.17792        12.19888        -5.81701
| 27>    C       11.57549        11.72818        -5.54769
| 28>    C       12.78479        12.00756        -4.97131
| 29>    C       12.90625        13.05952        -4.05160
| 30>    C       11.81590        13.81820        -3.72198
| 31>    C        6.88725        14.60256        -4.28063
| 32>    O        6.61161        15.56064        -3.59564
| 33>    C        5.92929        13.71781        -5.00366
| 34>    C        4.61767        13.74148        -4.62923
| 35>    C        3.62726        12.74621        -4.74772
| 36>    C        3.73730        11.40951        -5.10467
| 37>    C        2.55559        10.71191        -4.91001
| 38>    C        1.50987        11.49779        -4.39147
| 39>    S        2.00783        13.12886        -4.17461
| 40>    C        0.38472        10.72654        -4.09470
| 41>    C        0.57683         9.35811        -4.40271
| 42>    S        2.13893         9.02374        -5.09186
| 43>    C       -0.53981         8.67459        -3.96045
| 44>    C       -1.38270         9.63127        -3.36063
| 45>    N       -0.81704        10.87902        -3.48757
| 46>    C       -1.37968        12.16589        -3.17274
| 47>    C       -2.50920         9.28960        -2.56899
| 48>    C       -3.07012         9.92317        -1.45410
| 49>    C       -3.95789         9.06383        -0.71192
| 50>    N       -4.52433         9.44868         0.42865
| 51>    C       -4.24622        10.65860         0.86450
| 52>    C       -4.86450        11.09357         2.13583
| 53>    O       -5.57747        10.37140         2.80499
| 54>    C       -4.54721        12.47497         2.53566
| 55>    C       -3.73566        13.28443         1.84455
| 56>    C       -3.06155        12.88954         0.59946
| 57>    O       -2.29733        13.62554         0.00422
| 58>    C       -3.37439        11.52208         0.12636
| 59>    N       -2.80713        11.15008        -0.99962
| 60>    C       -4.10286         7.78802        -1.26260
| 61>    S       -3.17084         7.67588        -2.72036
| 62>    C       -4.73220         6.71470        -0.60900
| 63>    C       -4.93851         5.41672        -1.05089
| 64>    C       -5.41760         4.60101        -0.03362
| 65>    C       -5.56106         5.27168         1.19377
| 66>    S       -5.18073         6.94892         1.07219
| 67>    C       -5.87847         4.38976         2.22606
| 68>    C       -6.02872         3.05334         1.78149
| 69>    S       -5.76494         2.88718         0.06560
| 70>    C       -6.28803         2.27532         2.89467
| 71>    C       -6.21826         3.13900         4.00663
| 72>    N       -6.00066         4.42442         3.56905
| 73>    C       -6.05917         5.64637         4.32192
| 74>    C       -6.25800         2.71487         5.35885
| 75>    C       -5.46640         3.17462         6.37529
| 76>    C       -5.55640         2.79362         7.77113
| 77>    C       -6.64645         2.22947         8.38255
| 78>    C       -6.69608         1.89294         9.75040
| 79>    N       -6.78949         1.59348        10.85488
| 80>    C       -7.86585         1.94945         7.73218
| 81>    N       -8.89051         1.72243         7.26556
| 82>    C       -4.31865         3.19677         8.42729
| 83>    C       -3.50050         3.86411         7.47216
| 84>    C       -4.18381         3.89341         6.16893
| 85>    O       -3.73343         4.32719         5.12798
| 86>    C       -2.26956         4.35803         7.79311
| 87>    C       -1.79043         4.20645         9.11349
| 88>    C       -2.59964         3.53501        10.07482
| 89>    C       -3.87089         3.03225         9.71117
| 90>    C       -2.10675         3.38247        11.38658
| 91>    C       -0.87605         3.87015        11.73391
| 92>    C       -0.08133         4.53233        10.78662
| 93>    C       -0.52946         4.69756         9.50408
| 94>    H        9.49171        15.12560        -3.24262
| 95>    H        9.10762        11.37898        -6.51519
| 96>    H       11.47759        10.92040        -6.25810
| 97>    H       13.65468        11.41868        -5.22102
| 98>    H       13.86746        13.26544        -3.60486
| 99>    H       11.90311        14.62923        -3.01376
|100>    H        4.33605        14.60889        -4.03907
|101>    H        4.65199        10.94739        -5.42496
|102>    H       -0.72593         7.62051        -4.00113
|103>    H       -2.45359        12.15293        -3.34678
|104>    H       -0.91710        12.91140        -3.81849
|105>    H       -1.20937        12.43865        -2.13058
|106>    H       -5.01804        12.80407         3.45229
|107>    H       -3.52683        14.29103         2.18101
|108>    H       -4.72347         5.09729        -2.05419
|109>    H       -6.43726         1.21560         2.94093
|110>    H       -6.49394         5.45603         5.30133
|111>    H       -6.67119         6.37317         3.78563
|112>    H       -5.05746         6.06162         4.44948
|113>    H       -6.91516         1.87585         5.55358
|114>    H       -1.66868         4.85921         7.04869
|115>    H       -4.45607         2.52104        10.45915
|116>    H       -2.72192         2.87275        12.11347
|117>    H       -0.50787         3.74798        12.74150
|118>    H        0.88742         4.91034        11.07747
|119>    H        0.07762         5.20628         8.76940
|120> *
|121>
|122>                          ****END OF INPUT****

CARTESIAN COORDINATES (ANGSTROEM)
---------------------------------
  C      6.691110   12.870650   -5.889840
  C      6.236360   12.297890   -7.050840
  C      7.051770   11.561510   -7.931810
  N      7.674370   10.937060   -8.667060
  C      4.913960   12.457180   -7.509500
  N      3.845100   12.587380   -7.907610
  C      8.086450   12.946100   -5.468500
  C      8.213860   14.005570   -4.523280
  C      9.413900   14.316010   -3.952980
  C     10.555870   13.555660   -4.294350
  C     10.431830   12.487740   -5.229300
  C      9.177920   12.198880   -5.817010
  C     11.575490   11.728180   -5.547690
  C     12.784790   12.007560   -4.971310
  C     12.906250   13.059520   -4.051600
  C     11.815900   13.818200   -3.721980
  C      6.887250   14.602560   -4.280630
  O      6.611610   15.560640   -3.595640
  C      5.929290   13.717810   -5.003660
  C      4.617670   13.741480   -4.629230
  C      3.627260   12.746210   -4.747720
  C      3.737300   11.409510   -5.104670
  C      2.555590   10.711910   -4.910010
  C      1.509870   11.497790   -4.391470
  S      2.007830   13.128860   -4.174610
  C      0.384720   10.726540   -4.094700
  C      0.576830    9.358110   -4.402710
  S      2.138930    9.023740   -5.091860
  C     -0.539810    8.674590   -3.960450
  C     -1.382700    9.631270   -3.360630
  N     -0.817040   10.879020   -3.487570
  C     -1.379680   12.165890   -3.172740
  C     -2.509200    9.289600   -2.568990
  C     -3.070120    9.923170   -1.454100
  C     -3.957890    9.063830   -0.711920
  N     -4.524330    9.448680    0.428650
  C     -4.246220   10.658600    0.864500
  C     -4.864500   11.093570    2.135830
  O     -5.577470   10.371400    2.804990
  C     -4.547210   12.474970    2.535660
  C     -3.735660   13.284430    1.844550
  C     -3.061550   12.889540    0.599460
  O     -2.297330   13.625540    0.004220
  C     -3.374390   11.522080    0.126360
  N     -2.807130   11.150080   -0.999620
  C     -4.102860    7.788020   -1.262600
  S     -3.170840    7.675880   -2.720360
  C     -4.732200    6.714700   -0.609000
  C     -4.938510    5.416720   -1.050890
  C     -5.417600    4.601010   -0.033620
  C     -5.561060    5.271680    1.193770
  S     -5.180730    6.948920    1.072190
  C     -5.878470    4.389760    2.226060
  C     -6.028720    3.053340    1.781490
  S     -5.764940    2.887180    0.065600
  C     -6.288030    2.275320    2.894670
  C     -6.218260    3.139000    4.006630
  N     -6.000660    4.424420    3.569050
  C     -6.059170    5.646370    4.321920
  C     -6.258000    2.714870    5.358850
  C     -5.466400    3.174620    6.375290
  C     -5.556400    2.793620    7.771130
  C     -6.646450    2.229470    8.382550
  C     -6.696080    1.892940    9.750400
  N     -6.789490    1.593480   10.854880
  C     -7.865850    1.949450    7.732180
  N     -8.890510    1.722430    7.265560
  C     -4.318650    3.196770    8.427290
  C     -3.500500    3.864110    7.472160
  C     -4.183810    3.893410    6.168930
  O     -3.733430    4.327190    5.127980
  C     -2.269560    4.358030    7.793110
  C     -1.790430    4.206450    9.113490
  C     -2.599640    3.535010   10.074820
  C     -3.870890    3.032250    9.711170
  C     -2.106750    3.382470   11.386580
  C     -0.876050    3.870150   11.733910
  C     -0.081330    4.532330   10.786620
  C     -0.529460    4.697560    9.504080
  H      9.491710   15.125600   -3.242620
  H      9.107620   11.378980   -6.515190
  H     11.477590   10.920400   -6.258100
  H     13.654680   11.418680   -5.221020
  H     13.867460   13.265440   -3.604860
  H     11.903110   14.629230   -3.013760
  H      4.336050   14.608890   -4.039070
  H      4.651990   10.947390   -5.424960
  H     -0.725930    7.620510   -4.001130
  H     -2.453590   12.152930   -3.346780
  H     -0.917100   12.911400   -3.818490
  H     -1.209370   12.438650   -2.130580
  H     -5.018040   12.804070    3.452290
  H     -3.526830   14.291030    2.181010
  H     -4.723470    5.097290   -2.054190
  H     -6.437260    1.215600    2.940930
  H     -6.493940    5.456030    5.301330
  H     -6.671190    6.373170    3.785630
  H     -5.057460    6.061620    4.449480
  H     -6.915160    1.875850    5.553580
  H     -1.668680    4.859210    7.048690
  H     -4.456070    2.521040   10.459150
  H     -2.721920    2.872750   12.113470
  H     -0.507870    3.747980   12.741500
  H      0.887420    4.910340   11.077470
  H      0.077620    5.206280    8.769400

 Total Charge           Charge          ....    0
 Multiplicity           Mult            ....    1
 Number of Electrons    NEL             ....  566
 Basis Dimension        Dim             .... 1256

ORBITAL ENERGIES
----------------

  NO   OCC          E(Eh)            E(eV)
   0   2.0000     -88.998333     -2421.7678
   1   2.0000     -88.972750     -2421.0716
   2   2.0000     -88.967398     -2420.9260
   3   2.0000     -88.961765     -2420.7727
   4   2.0000     -88.958487     -2420.6835
   5   2.0000     -19.234554      -523.3988
   6   2.0000     -19.231944      -523.3278
   7   2.0000     -19.212465      -522.7978
   8   2.0000     -19.206948      -522.6476
   9   2.0000     -14.484947      -394.1554
  10   2.0000     -14.477812      -393.9613
  11   2.0000     -14.455445      -393.3527
  12   2.0000     -14.452109      -393.2619
  13   2.0000     -14.410719      -392.1356
  14   2.0000     -14.410612      -392.1327
  15   2.0000     -14.410151      -392.1201
  16   2.0000     -14.409289      -392.0967
  17   2.0000     -10.382886      -282.5327
  18   2.0000     -10.381725      -282.5011
  19   2.0000     -10.364155      -282.0230
  20   2.0000     -10.359005      -281.8829
  21   2.0000     -10.345423      -281.5133
  22   2.0000     -10.344665      -281.4926
  23   2.0000     -10.339371      -281.3486
  24   2.0000     -10.338934      -281.3367
  25   2.0000     -10.336768      -281.2777
  26   2.0000     -10.336140      -281.2607
  27   2.0000     -10.335968      -281.2560
  28   2.0000     -10.335810      -281.2517
  29   2.0000     -10.335146      -281.2336
  30   2.0000     -10.334785      -281.2238
  31   2.0000     -10.334131      -281.2060
  32   2.0000     -10.324215      -280.9362
  33   2.0000     -10.323670      -280.9213
  34   2.0000     -10.322840      -280.8988
  35   2.0000     -10.320444      -280.8336
  36   2.0000     -10.319673      -280.8126
  37   2.0000     -10.318841      -280.7899
  38   2.0000     -10.316718      -280.7322
  39   2.0000     -10.316321      -280.7214
  40   2.0000     -10.315828      -280.7079
  41   2.0000     -10.315040      -280.6865
  42   2.0000     -10.313790      -280.6525
  43   2.0000     -10.313744      -280.6513
  44   2.0000     -10.313179      -280.6359
  45   2.0000     -10.312309      -280.6122
  46   2.0000     -10.311382      -280.5870
  47   2.0000     -10.311291      -280.5845
  48   2.0000     -10.309990      -280.5491
  49   2.0000     -10.308784      -280.5163
  50   2.0000     -10.308269      -280.5023
  51   2.0000     -10.304701      -280.4052
  52   2.0000     -10.302273      -280.3391
  53   2.0000     -10.300118      -280.2805
  54   2.0000     -10.299163      -280.2545
  55   2.0000     -10.298673      -280.2412
  56   2.0000     -10.298343      -280.2322
  57   2.0000     -10.295950      -280.1670
  58   2.0000     -10.295685      -280.1598
  59   2.0000     -10.295071      -280.1431
  60   2.0000     -10.294605      -280.1304
  61   2.0000     -10.294457      -280.1264
  62   2.0000     -10.293512      -280.1007
  63   2.0000     -10.293109      -280.0897
  64   2.0000     -10.292240      -280.0661
  65   2.0000     -10.292097      -280.0622
  66   2.0000     -10.289558      -279.9931
  67   2.0000     -10.286192      -279.9015
  68   2.0000     -10.285931      -279.8944
  69   2.0000     -10.285491      -279.8824
  70   2.0000     -10.285337      -279.8782
  71   2.0000     -10.284960      -279.8680
  72   2.0000     -10.284503      -279.8556
  73   2.0000     -10.284176      -279.8466
  74   2.0000     -10.284012      -279.8422
  75   2.0000     -10.282795      -279.8091
  76   2.0000     -10.282375      -279.7976
  77   2.0000     -10.282143      -279.7913
  78   2.0000     -10.281694      -279.7791
  79   2.0000      -8.092758      -220.2151
  80   2.0000      -8.067552      -219.5292
  81   2.0000      -8.060867      -219.3473
  82   2.0000      -8.056854      -219.2382
  83   2.0000      -8.053409      -219.1444
  84   2.0000      -6.061969      -164.9546
  85   2.0000      -6.057794      -164.8409
  86   2.0000      -6.055200      -164.7704
  87   2.0000      -6.037016      -164.2756
  88   2.0000      -6.033008      -164.1665
  89   2.0000      -6.030578      -164.1004
  90   2.0000      -6.029258      -164.0644
  91   2.0000      -6.026787      -163.9972
  92   2.0000      -6.026200      -163.9812
  93   2.0000      -6.023400      -163.9051
  94   2.0000      -6.022920      -163.8920
  95   2.0000      -6.022408      -163.8781
  96   2.0000      -6.019506      -163.7991
  97   2.0000      -6.017438      -163.7428
  98   2.0000      -6.013954      -163.6480
  99   2.0000      -1.149392       -31.2765
 100   2.0000      -1.144282       -31.1375
 101   2.0000      -1.128825       -30.7169
 102   2.0000      -1.122577       -30.5469
 103   2.0000      -1.110944       -30.2303
 104   2.0000      -1.104061       -30.0430
 105   2.0000      -1.103677       -30.0326
 106   2.0000      -1.033750       -28.1298
 107   2.0000      -1.016574       -27.6624
 108   2.0000      -1.014196       -27.5977
 109   2.0000      -1.013668       -27.5833
 110   2.0000      -1.009615       -27.4730
 111   2.0000      -0.999133       -27.1878
 112   2.0000      -0.995141       -27.0792
 113   2.0000      -0.992902       -27.0182
 114   2.0000      -0.989419       -26.9235
 115   2.0000      -0.988184       -26.8899
 116   2.0000      -0.969080       -26.3700
 117   2.0000      -0.967302       -26.3216
 118   2.0000      -0.953743       -25.9527
 119   2.0000      -0.949445       -25.8357
 120   2.0000      -0.945736       -25.7348
 121   2.0000      -0.924142       -25.1472
 122   2.0000      -0.920273       -25.0419
 123   2.0000      -0.913871       -24.8677
 124   2.0000      -0.908506       -24.7217
 125   2.0000      -0.896400       -24.3923
 126   2.0000      -0.891195       -24.2506
 127   2.0000      -0.880545       -23.9608
 128   2.0000      -0.879067       -23.9206
 129   2.0000      -0.878131       -23.8952
 130   2.0000      -0.876875       -23.8610
 131   2.0000      -0.872948       -23.7541
 132   2.0000      -0.871385       -23.7116
 133   2.0000      -0.858012       -23.3477
 134   2.0000      -0.850585       -23.1456
 135   2.0000      -0.826348       -22.4861
 136   2.0000      -0.824165       -22.4267
 137   2.0000      -0.823687       -22.4136
 138   2.0000      -0.820229       -22.3196
 139   2.0000      -0.816275       -22.2120
 140   2.0000      -0.810300       -22.0494
 141   2.0000      -0.798211       -21.7204
 142   2.0000      -0.795173       -21.6378
 143   2.0000      -0.786586       -21.4041
 144   2.0000      -0.779004       -21.1978
 145   2.0000      -0.775295       -21.0968
 146   2.0000      -0.767654       -20.8889
 147   2.0000      -0.758003       -20.6263
 148   2.0000      -0.755116       -20.5477
 149   2.0000      -0.743979       -20.2447
 150   2.0000      -0.735552       -20.0154
 151   2.0000      -0.713230       -19.4080
 152   2.0000      -0.706291       -19.2192
 153   2.0000      -0.702161       -19.1068
 154   2.0000      -0.698545       -19.0084
 155   2.0000      -0.695557       -18.9271
 156   2.0000      -0.693795       -18.8791
 157   2.0000      -0.689313       -18.7572
 158   2.0000      -0.685458       -18.6522
 159   2.0000      -0.680159       -18.5081
 160   2.0000      -0.673620       -18.3301
 161   2.0000      -0.673150       -18.3174
 162   2.0000      -0.669407       -18.2155
 163   2.0000      -0.664955       -18.0943
 164   2.0000      -0.649072       -17.6621
 165   2.0000      -0.646332       -17.5876
 166   2.0000      -0.643391       -17.5076
 167   2.0000      -0.639979       -17.4147
 168   2.0000      -0.633090       -17.2273
 169   2.0000      -0.631368       -17.1804
 170   2.0000      -0.626330       -17.0433
 171   2.0000      -0.622690       -16.9443
 172   2.0000      -0.612333       -16.6624
 173   2.0000      -0.607931       -16.5426
 174   2.0000      -0.604721       -16.4553
 175   2.0000      -0.603422       -16.4199
 176   2.0000      -0.602737       -16.4013
 177   2.0000      -0.593845       -16.1593
 178   2.0000      -0.590790       -16.0762
 179   2.0000      -0.582265       -15.8442
 180   2.0000      -0.579511       -15.7693
 181   2.0000      -0.577477       -15.7140
 182   2.0000      -0.573929       -15.6174
 183   2.0000      -0.572235       -15.5713
 184   2.0000      -0.566258       -15.4087
 185   2.0000      -0.565203       -15.3800
 186   2.0000      -0.562799       -15.3145
 187   2.0000      -0.550848       -14.9893
 188   2.0000      -0.548617       -14.9286
 189   2.0000      -0.546105       -14.8603
 190   2.0000      -0.543891       -14.8000
 191   2.0000      -0.543014       -14.7762
 192   2.0000      -0.541118       -14.7246
 193   2.0000      -0.537601       -14.6289
 194   2.0000      -0.534426       -14.5425
 195   2.0000      -0.532910       -14.5012
 196   2.0000      -0.532133       -14.4801
 197   2.0000      -0.530525       -14.4363
 198   2.0000      -0.528131       -14.3712
 199   2.0000      -0.526324       -14.3220
 200   2.0000      -0.522639       -14.2217
 201   2.0000      -0.520649       -14.1676
 202   2.0000      -0.517213       -14.0741
 203   2.0000      -0.516322       -14.0498
 204   2.0000      -0.514702       -14.0058
 205   2.0000      -0.512645       -13.9498
 206   2.0000      -0.512433       -13.9440
 207   2.0000      -0.511794       -13.9266
 208   2.0000      -0.509459       -13.8631
 209   2.0000      -0.507404       -13.8072
 210   2.0000      -0.507162       -13.8006
 211   2.0000      -0.504965       -13.7408
 212   2.0000      -0.503493       -13.7007
 213   2.0000      -0.502005       -13.6603
 214   2.0000      -0.499227       -13.5847
 215   2.0000      -0.498599       -13.5676
 216   2.0000      -0.495686       -13.4883
 217   2.0000      -0.492723       -13.4077
 218   2.0000      -0.492219       -13.3939
 219   2.0000      -0.488032       -13.2800
 220   2.0000      -0.485140       -13.2013
 221   2.0000      -0.482576       -13.1316
 222   2.0000      -0.482016       -13.1163
 223   2.0000      -0.475357       -12.9351
 224   2.0000      -0.474672       -12.9165
 225   2.0000      -0.471251       -12.8234
 226   2.0000      -0.470826       -12.8118
 227   2.0000      -0.468976       -12.7615
 228   2.0000      -0.463397       -12.6097
 229   2.0000      -0.462355       -12.5813
 230   2.0000      -0.459052       -12.4914
 231   2.0000      -0.454165       -12.3584
 232   2.0000      -0.453406       -12.3378
 233   2.0000      -0.445016       -12.1095
 234   2.0000      -0.444354       -12.0915
 235   2.0000      -0.443838       -12.0774
 236   2.0000      -0.443356       -12.0643
 237   2.0000      -0.441060       -12.0019
 238   2.0000      -0.439179       -11.9507
 239   2.0000      -0.438282       -11.9262
 240   2.0000      -0.437801       -11.9132
 241   2.0000      -0.434777       -11.8309
 242   2.0000      -0.431479       -11.7412
 243   2.0000      -0.429745       -11.6940
 244   2.0000      -0.428573       -11.6621
 245   2.0000      -0.425626       -11.5819
 246   2.0000      -0.424384       -11.5481
 247   2.0000      -0.422744       -11.5034
 248   2.0000      -0.421963       -11.4822
 249   2.0000      -0.421555       -11.4711
 250   2.0000      -0.420321       -11.4375
 251   2.0000      -0.417071       -11.3491
 252   2.0000      -0.412276       -11.2186
 253   2.0000      -0.407886       -11.0991
 254   2.0000      -0.405274       -11.0281
 255   2.0000      -0.404313       -11.0019
 256   2.0000      -0.396352       -10.7853
 257   2.0000      -0.395993       -10.7755
 258   2.0000      -0.392652       -10.6846
 259   2.0000      -0.379655       -10.3310
 260   2.0000      -0.379336       -10.3223
 261   2.0000      -0.376129       -10.2350
 262   2.0000      -0.371846       -10.1184
 263   2.0000      -0.369742       -10.0612
 264   2.0000      -0.363007        -9.8779
 265   2.0000      -0.354495        -9.6463
 266   2.0000      -0.352864        -9.6019
 267   2.0000      -0.349109        -9.4997
 268   2.0000      -0.344232        -9.3670
 269   2.0000      -0.343465        -9.3462
 270   2.0000      -0.336654        -9.1608
 271   2.0000      -0.334484        -9.1018
 272   2.0000      -0.331458        -9.0194
 273   2.0000      -0.325792        -8.8653
 274   2.0000      -0.314681        -8.5629
 275   2.0000      -0.311641        -8.4802
 276   2.0000      -0.299554        -8.1513
 277   2.0000      -0.291933        -7.9439
 278   2.0000      -0.290558        -7.9065
 279   2.0000      -0.286058        -7.7840
 280   2.0000      -0.281956        -7.6724
 281   2.0000      -0.260954        -7.1009
 282   2.0000      -0.229266        -6.2386
 283   0.0000      -0.109996        -2.9931
 284   0.0000      -0.098158        -2.6710
 285   0.0000      -0.084604        -2.3022
 286   0.0000      -0.082503        -2.2450
 287   0.0000      -0.055110        -1.4996

MULLIKEN ATOMIC CHARGES
-----------------------
   0 C :    0.254982
   1 C :   -0.339651
   2 C :   -0.175447
   3 N :    0.152555
   4 C :   -0.213587
   5 N :    0.174154
   6 C :    0.039355
   7 C :    0.017398
   8 C :   -0.087206
   9 C :    0.096689
  10 C :    0.097815
  11 C :   -0.088127
  12 C :   -0.022386
  13 C :    0.035237
  14 C :    0.036417
  15 C :   -0.018662
  16 C :    0.137622
  17 O :   -0.148192
  18 C :   -0.149410
  19 C :    0.096092
  20 C :   -0.101574
  21 C :    0.022625
  22 C :   -0.070281
  23 C :   -0.047856
  24 S :    0.170194
  25 C :    0.026555
  26 C :   -0.002769
  27 S :    0.162432
  28 C :   -0.148841
  29 C :    0.109031
  30 N :   -0.173087
  31 C :    0.154231
  32 C :   -0.196932
  33 C :    0.076361
  34 C :   -0.004236
  35 N :    0.035091
  36 C :   -0.111094
  37 C :    0.138795
  38 O :   -0.111208
  39 C :   -0.020537
  40 C :   -0.009680
  41 C :    0.144736
  42 O :   -0.120218
  43 C :   -0.119586
  44 N :    0.042300
  45 C :   -0.092476
  46 S :    0.199782
  47 C :   -0.067490
  48 C :   -0.067490
  49 C :   -0.033640
  50 C :   -0.048761
  51 S :    0.193469
  52 C :    0.035117
  53 C :   -0.009071
  54 S :    0.147746
  55 C :   -0.101897
  56 C :    0.101310
  57 N :   -0.129149
  58 C :    0.115830
  59 C :   -0.030891
  60 C :   -0.121110
  61 C :    0.299804
  62 C :   -0.344755
  63 C :   -0.182418
  64 N :    0.145730
  65 C :   -0.210704
  66 N :    0.162225
  67 C :    0.056176
  68 C :   -0.001921
  69 C :    0.132524
  70 O :   -0.162937
  71 C :   -0.085870
  72 C :    0.099536
  73 C :    0.097837
  74 C :   -0.089986
  75 C :   -0.020058
  76 C :    0.036342
  77 C :    0.037322
  78 C :   -0.019241
  79 H :   -0.012725
  80 H :   -0.007313
  81 H :   -0.011337
  82 H :   -0.006470
  83 H :   -0.007554
  84 H :   -0.017765
  85 H :    0.019281
  86 H :    0.004360
  87 H :   -0.009939
  88 H :    0.029964
  89 H :    0.031027
  90 H :    0.067009
  91 H :    0.019013
  92 H :    0.017877
  93 H :   -0.011049
  94 H :   -0.012651
  95 H :    0.044867
  96 H :    0.046942
  97 H :    0.063474
  98 H :    0.038617
  99 H :   -0.016603
 100 H :   -0.008547
 101 H :   -0.009309
 102 H :   -0.005991
 103 H :   -0.007125
 104 H :   -0.019036
Sum of atomic charges:   -0.0000000

LOEWDIN ATOMIC CHARGES
----------------------
   0 C :    0.065610
   1 C :   -0.149587
   2 C :   -0.021360
   3 N :   -0.056974
   4 C :   -0.022456
   5 N :   -0.043566
   6 C :   -0.022283
   7 C :   -0.055356
   8 C :    0.030024
   9 C :   -0.009817
  10 C :   -0.006299
  11 C :    0.013135
  12 C :   -0.007547
  13 C :   -0.014884
  14 C :   -0.014917
  15 C :   -0.010090
  16 C :    0.082643
  17 O :   -0.148753
  18 C :   -0.100344
  19 C :    0.045911
  20 C :   -0.178326
  21 C :   -0.016389
  22 C :   -0.183868
  23 C :   -0.193288
  24 S :    0.447624
  25 C :   -0.038188
  26 C :   -0.177828
  27 S :    0.399839
  28 C :   -0.081326
  29 C :   -0.016363
  30 N :    0.065224
  31 C :    0.033043
  32 C :   -0.174024
  33 C :   -0.051002
  34 C :   -0.057894
  35 N :   -0.006143
  36 C :   -0.044479
  37 C :    0.054909
  38 O :   -0.107944
  39 C :   -0.008897
  40 C :   -0.012932
  41 C :    0.058601
  42 O :   -0.112210
  43 C :   -0.046873
  44 N :    0.011852
  45 C :   -0.188030
  46 S :    0.508806
  47 C :   -0.177314
  48 C :   -0.061008
  49 C :   -0.179295
  50 C :   -0.215538
  51 S :    0.481613
  52 C :   -0.018812
  53 C :   -0.186418
  54 S :    0.387404
  55 C :   -0.044317
  56 C :   -0.011346
  57 N :    0.078066
  58 C :    0.031478
  59 C :    0.059552
  60 C :   -0.109827
  61 C :    0.073462
  62 C :   -0.144757
  63 C :   -0.018028
  64 N :   -0.057563
  65 C :   -0.026249
  66 N :   -0.055073
  67 C :   -0.025552
  68 C :   -0.054373
  69 C :    0.079042
  70 O :   -0.151055
  71 C :    0.028720
  72 C :   -0.009138
  73 C :   -0.007061
  74 C :    0.018068
  75 C :   -0.005681
  76 C :   -0.014609
  77 C :   -0.013492
  78 C :   -0.010890
  79 H :    0.038661
  80 H :    0.037888
  81 H :    0.033672
  82 H :    0.032402
  83 H :    0.031849
  84 H :    0.031381
  85 H :    0.044811
  86 H :    0.038949
  87 H :    0.023996
  88 H :    0.033732
  89 H :    0.025161
  90 H :    0.031966
  91 H :    0.046182
  92 H :    0.046015
  93 H :    0.032122
  94 H :    0.033644
  95 H :    0.037122
  96 H :    0.031922
  97 H :    0.033354
  98 H :    0.051489
  99 H :    0.037477
 100 H :    0.038764
 101 H :    0.034539
 102 H :    0.032734
 103 H :    0.032095
 104 H :    0.031081

  Mayer bond orders larger than 0.100000
B(  0-C ,  1-C ) :   1.6357 B(  0-C ,  6-C ) :   0.9957 B(  0-C , 18-C ) :   1.0554
B(  1-C ,  2-C ) :   1.1327 B(  1-C ,  4-C ) :   1.1626 B(  2-C ,  3-N ) :   2.9902
B(  4-C ,  5-N ) :   3.0061 B(  6-C ,  7-C ) :   1.2145 B(  6-C , 11-C ) :   1.4636
B(  7-C ,  8-C ) :   1.4787 B(  7-C , 16-C ) :   0.9183 B(  8-C ,  9-C ) :   1.1796
B(  8-C , 79-H ) :   1.0167 B(  9-C , 10-C ) :   1.2599 B(  9-C , 15-C ) :   1.2458
B( 10-C , 11-C ) :   1.1983 B( 10-C , 12-C ) :   1.2424 B( 11-C , 80-H ) :   0.9960
B( 12-C , 13-C ) :   1.4877 B( 12-C , 81-H ) :   0.9981 B( 13-C , 14-C ) :   1.2620
B( 13-C , 82-H ) :   0.9884 B( 14-C , 15-C ) :   1.4878 B( 14-C , 83-H ) :   0.9887
B( 15-C , 84-H ) :   0.9980 B( 16-C , 17-O ) :   2.2612 B( 16-C , 18-C ) :   0.9474
B( 18-C , 19-C ) :   1.6290 B( 19-C , 20-C ) :   1.1860 B( 19-C , 85-H ) :   0.9248
B( 20-C , 21-C ) :   1.4184 B( 20-C , 24-S ) :   1.0620 B( 21-C , 22-C ) :   1.3715
B( 21-C , 86-H ) :   0.9835 B( 22-C , 23-C ) :   1.3930 B( 22-C , 27-S ) :   1.0430
B( 23-C , 24-S ) :   1.0845 B( 23-C , 25-C ) :   1.2778 B( 25-C , 26-C ) :   1.3491
B( 25-C , 30-N ) :   1.2114 B( 26-C , 27-S ) :   1.0208 B( 26-C , 28-C ) :   1.3830
B( 28-C , 29-C ) :   1.3725 B( 28-C , 87-H ) :   0.9981 B( 29-C , 30-N ) :   1.2076
B( 29-C , 32-C ) :   1.1356 B( 30-N , 31-C ) :   0.9445 B( 31-C , 88-H ) :   0.9679
B( 31-C , 89-H ) :   0.9595 B( 31-C , 90-H ) :   0.9535 B( 32-C , 33-C ) :   1.3102
B( 32-C , 45-C ) :   0.1118 B( 32-C , 46-S ) :   1.1788 B( 33-C , 34-C ) :   1.1734
B( 33-C , 44-N ) :   1.4348 B( 34-C , 35-N ) :   1.4177 B( 34-C , 45-C ) :   1.3270
B( 35-N , 36-C ) :   1.6948 B( 36-C , 37-C ) :   0.9026 B( 36-C , 43-C ) :   1.0881
B( 37-C , 38-O ) :   2.2412 B( 37-C , 39-C ) :   1.0205 B( 39-C , 40-C ) :   1.6805
B( 39-C , 91-H ) :   0.9991 B( 40-C , 41-C ) :   1.0352 B( 40-C , 92-H ) :   0.9995
B( 41-C , 42-O ) :   2.1930 B( 41-C , 43-C ) :   0.9044 B( 43-C , 44-N ) :   1.7000
B( 45-C , 46-S ) :   1.1428 B( 45-C , 47-C ) :   1.2308 B( 47-C , 48-C ) :   1.4330
B( 47-C , 51-S ) :   1.1013 B( 48-C , 49-C ) :   1.3121 B( 48-C , 93-H ) :   1.0033
B( 49-C , 50-C ) :   1.4041 B( 49-C , 54-S ) :   1.0452 B( 50-C , 51-S ) :   1.0265
B( 50-C , 52-C ) :   1.2739 B( 52-C , 53-C ) :   1.3262 B( 52-C , 57-N ) :   1.2512
B( 53-C , 54-S ) :   1.0083 B( 53-C , 55-C ) :   1.3866 B( 55-C , 56-C ) :   1.3201
B( 55-C , 94-H ) :   1.0185 B( 56-C , 57-N ) :   1.1578 B( 56-C , 59-C ) :   1.1970
B( 57-N , 58-C ) :   0.9566 B( 58-C , 95-H ) :   0.9670 B( 58-C , 96-H ) :   0.9665
B( 58-C , 97-H ) :   0.9572 B( 59-C , 60-C ) :   1.5386 B( 59-C , 98-H ) :   0.9472
B( 60-C , 61-C ) :   1.0701 B( 60-C , 69-C ) :   0.9577 B( 61-C , 62-C ) :   1.6388
B( 61-C , 67-C ) :   0.9902 B( 62-C , 63-C ) :   1.1442 B( 62-C , 65-C ) :   1.1425
B( 63-C , 64-N ) :   2.9669 B( 65-C , 66-N ) :   2.9992 B( 67-C , 68-C ) :   1.2137
B( 67-C , 74-C ) :   1.4536 B( 68-C , 69-C ) :   0.9467 B( 68-C , 71-C ) :   1.4762
B( 69-C , 70-O ) :   2.1849 B( 71-C , 72-C ) :   1.1748 B( 71-C , 99-H ) :   1.0165
B( 72-C , 73-C ) :   1.2577 B( 72-C , 78-C ) :   1.2451 B( 73-C , 74-C ) :   1.2008
B( 73-C , 75-C ) :   1.2424 B( 74-C ,100-H ) :   0.9906 B( 75-C , 76-C ) :   1.4875
B( 75-C ,101-H ) :   0.9969 B( 76-C , 77-C ) :   1.2610 B( 76-C ,102-H ) :   0.9887
B( 77-C , 78-C ) :   1.4878 B( 77-C ,103-H ) :   0.9885 B( 78-C ,104-H ) :   0.9971

-----------------------------------------------------------------------------
         ABSORPTION SPECTRUM VIA TRANSITION ELECTRIC DIPOLE MOMENTS
-----------------------------------------------------------------------------
State   Energy  Wavelength   fosc         T2         TX        TY        TZ
        (cm-1)    (nm)                  (au**2)     (au)      (au)      (au)
-----------------------------------------------------------------------------
   0   10281.2    972.7   0.920140248  29.46366  -3.20670  -2.86512   3.31238
   1   14108.0    708.8   0.169944085   3.96568   1.56893  -1.13109  -0.47410
   2   17815.9    561.3   0.866593397  16.01340  -2.54972  -1.63313   2.61633
   3   18458.3    541.8   0.501608698   8.94643   1.98267  -0.35325   2.21148
   4   19485.7    513.2   0.058664433   0.99114   0.04443  -0.56846  -0.81610
   5   21598.6    463.0   0.017629615   0.26872   0.32660   0.40146   0.02961
   6   22501.2    444.4   0.051962623   0.76026   0.46585  -0.08145  -0.73253
   7   22771.4    439.1   0.013011550   0.18811   0.07735   0.42364  -0.05152
   8   24169.7    413.7   0.023505832   0.32017   0.35629  -0.10577   0.42666
   9   24692.3    405.0   0.007934952   0.10579   0.16212  -0.18685   0.21118
  10   25353.8    394.4   0.034669092   0.45017   0.34388   0.19221   0.54311
  11   25408.1    393.6   0.012164821   0.15762   0.00250   0.29566   0.26495
  12   25683.5    389.4   0.152568359   1.95563   0.89105   1.04837  -0.25016
  13   26263.4    380.8   0.083092427   1.04156   0.73549   0.18526  -0.68286
  14   26494.8    377.4   0.006882599   0.08552   0.00088  -0.04605   0.28879
  15   26636.8    375.4   0.015852141   0.19592  -0.02208  -0.28970  -0.33393
  16   27090.8    369.1   0.000366718   0.00446   0.04152  -0.03008   0.04275
  17   27202.8    367.6   0.276982376   3.35208   1.80935   0.18738  -0.20787
  18   27279.8    366.6   0.072523201   0.87521   0.39235   0.71918  -0.45172
  19   27515.3    363.4   0.162322767   1.94214  -0.76933  -0.74058  -0.89544
  20   27783.6    359.9   0.043738272   0.51826  -0.47323  -0.12690  -0.52746
  21   28273.7    353.7   0.003853540   0.04487  -0.00264  -0.08660  -0.19330
  22   28888.0    346.2   0.088358158   1.00694  -0.75797  -0.65543   0.05317
  23   29071.7    344.0   0.104241336   1.18044  -0.01968  -0.63063   0.88451
  24   29683.7    336.9   0.084877326   0.94135  -0.33097  -0.64331   0.64650
  25   29964.9    333.7   0.021339699   0.23445  -0.32960  -0.34996   0.05783
  26   30296.0    330.1   0.006151288   0.06684  -0.18055  -0.05568  -0.17648
  27   30429.2    328.6   0.040485864   0.43801   0.35301   0.37946   0.41158
  28   30567.1    327.1   0.007404708   0.07975   0.09352   0.11942   0.23821
  29   31774.1    314.7   0.004437916   0.04598  -0.17952   0.01956  -0.11564
  30   32105.8    311.5   0.417657985   4.28265   1.85430   0.37892   0.83705
  31   32414.3    308.5   0.005848462   0.05940   0.04092   0.23952   0.01887
  32   32794.8    304.9   0.030432095   0.30549   0.36566  -0.29482  -0.29132
  33   32946.2    303.5   0.112696310   1.12611   0.97990   0.01426   0.40707
  34   33406.2    299.3   0.259700057   2.55929  -1.35526  -0.36893  -0.76580
  35   33626.1    297.4   0.018954229   0.18557  -0.30725  -0.23631   0.18794
  36   33692.5    296.8   0.042189997   0.41224   0.59037   0.12838   0.21731
  37   33874.3    295.2   0.037799066   0.36736   0.04981   0.41868   0.43541
  38   34101.0    293.2   0.089605300   0.86505   0.78883   0.07378   0.48720
  39   34128.3    293.0   0.070905742   0.68398  -0.73594  -0.23198  -0.29759
  40   34358.4    291.0   0.061646477   0.59068  -0.32560  -0.59033  -0.36901
  41   34622.4    288.8   0.238605346   2.26881   1.46887   0.17341   0.28487
  42   34718.3    288.0   0.419311501   3.97607  -1.32674  -0.93733  -1.15639
  43   34931.0    286.3   0.089615474   0.84459  -0.78034  -0.34214  -0.34439
  44   34984.3    285.8   0.009596324   0.09030   0.16274   0.25154   0.02340
  45   35142.5    284.6   0.019708310   0.18463  -0.38959   0.18121   0.00215
  46   35337.2    283.0   0.026717785   0.24891  -0.47746  -0.13183  -0.05967
  47   35352.3    282.9   0.021314102   0.19848  -0.09925  -0.38849   0.19419
  48   35573.7    281.1   0.045751084   0.42340  -0.53851  -0.36401   0.03006
  49   35637.2    280.6   0.051153779   0.47255  -0.34435   0.13491   0.57946
  50   35719.2    280.0   0.004504877   0.04152  -0.03622   0.17652  -0.09513
  51   35965.4    278.0   0.000413952   0.00379   0.01006   0.05770   0.01895
  52   36085.2    277.1   0.012393497   0.11307   0.02409   0.24033  -0.23395
  53   36507.4    273.9   0.007756339   0.06994   0.08962   0.04580  -0.24457
  54   36734.1    272.2   0.167529422   1.50140  -1.14148  -0.36704   0.25241
  55   37034.8    270.0   0.497099953   4.41885   0.08013   1.61413   1.34425
  56   37185.0    268.9   0.006552016   0.05801  -0.12529  -0.17572  -0.10693
  57   37333.1    267.9   0.273256107   2.40963  -1.44301  -0.25782  -0.51077
  58   37697.3    265.3   0.069086451   0.60333   0.60953   0.01955  -0.48107
  59   37850.0    264.2   0.020670726   0.17979  -0.04142  -0.13372   0.40024
  60   38389.7    260.5   0.023808154   0.20417   0.34344  -0.10709  -0.27340
  61   38452.4    260.1   0.029495153   0.25252  -0.43577   0.16079   0.19178
  62   38717.3    258.3   0.015062674   0.12808   0.24064   0.15915   0.21175
  63   38948.4    256.8   0.004250123   0.03592  -0.00885   0.06526  -0.17773
  64   39164.1    255.3   0.070147234   0.58966  -0.21813  -0.43011  -0.59756
  65   39343.6    254.2   0.020816211   0.17418  -0.27959  -0.30462  -0.05672
  66   39468.9    253.4   0.022153172   0.18478  -0.12958  -0.27326  -0.30549
  67   39626.1    252.4   0.009976696   0.08289  -0.14374  -0.22096   0.11576
  68   39744.6    251.6   0.002048227   0.01697  -0.09824  -0.01561   0.08409
  69   39819.2    251.1   0.091694795   0.75810   0.11486  -0.14384  -0.85101
  70   39915.9    250.5   0.104113981   0.85869  -0.03322  -0.16780   0.91073
  71   40260.7    248.4   0.018415835   0.15059  -0.17293  -0.19099   0.29017

FINAL SINGLE POINT ENERGY     -5103.497146272521

DIPOLE MOMENT
-------------
                                X             Y             Z
Electronic contribution:    -30.09613      -3.86168     -29.38288
Nuclear contribution   :     31.97970       4.50122      30.65339
                        -----------------------------------------
Total Dipole Moment    :      1.88357       0.63954       1.27051
                        -----------------------------------------
Magnitude (a.u.)       :      2.36030
Magnitude (Debye)      :      5.99941

Rotational constants in cm-1:     0.001045     0.000222     0.000203
Rotational constants in MHz :    31.317372     6.652372     6.088715

                             ****ORCA TERMINATED NORMALLY****
TOTAL RUN TIME: 0 days 0 hours 11 minutes 39 seconds 18 msec
