                         Program Version 4.2.0 -  RELEASE  -
|  1> # ORCA input file
|  2> # SCF done       -183.345720839007          0.000758605023
|  3> ! CAM-B3LYP def2-SVP def2/J RIJCOSX Grid4 TightSCF
|  4> %maxcore 5000
|  5> %tddft
|  6>     Mode sTDDFT
|  7>     Ethresh 5.0
|  8>     maxcore 5000
|  9> end
| 10>
| 11> %pal
| 12>   nprocs 6
| 13>   end
| 14> * xyz 0 1
| 15>    C        3.75953         0.92683        -2.11779
| 16>    C        3.12027         1.76362        -3.17816
| 17>    O        3.44089         1.79264        -4.34497
| 18>    C        2.02088         2.46976        -2.50016
| 19>    C        2.07452         2.20784        -1.13007
| 20>    C        3.23901         1.37476        -0.84348
| 21>    C        3.85630         1.26219         0.37400
| 22>    C        5.12458         0.67319         0.55395
| 23>    N        6.16844         0.23469         0.74165
| 24>    C        3.34394         1.79009         1.57747
| 25>    N        2.96633         2.17173         2.59182
| 26>    C        1.11532         2.74747        -0.26341
| 27>    C        0.12815         3.54146        -0.78667
| 28>    C        0.05253         3.83566        -2.16581
| 29>    C        1.01992         3.28827        -3.05842
| 30>    C        0.93869         3.58033        -4.43516
| 31>    C       -0.06092         4.38499        -4.90835
| 32>    C       -1.01546         4.92850        -4.03357
| 33>    C       -0.96137         4.66092        -2.69308
| 34>    C        4.57616        -0.08958        -2.49410
| 35>    C        5.01572        -1.21976        -1.76035
| 36>    C        4.46915        -1.81533        -0.63891
| 37>    C        5.17912        -2.94898        -0.25274
| 38>    C        6.27851        -3.23123        -1.07637
| 39>    S        6.41473        -2.09737        -2.35721
| 40>    C        6.97969        -4.36285        -0.64852
| 41>    C        6.41448        -4.93801         0.49629
| 42>    S        5.00430        -4.08391         1.05503
| 43>    C        7.09314        -6.07488         0.94074
| 44>    C        8.17003        -6.37109         0.13505
| 45>    S        8.36140        -5.23786        -1.18439
| 46>    C        9.08296        -7.47202         0.27169
| 47>    C       10.07344        -7.74087        -0.61901
| 48>    C       10.93422        -8.86645        -0.43466
| 49>    C       11.94231        -9.18093        -1.32772
| 50>    C       12.77439       -10.29611        -1.13829
| 51>    N       13.44435       -11.21614        -0.98208
| 52>    C       12.18298        -8.40495        -2.47285
| 53>    N       12.37569        -7.76533        -3.40746
| 54>    C       10.67778        -9.64659         0.73466
| 55>    C        9.67281        -9.31119         1.58578
| 56>    O        8.86256        -8.23846         1.37426
| 57>    C        9.36876       -10.04433         2.78322
| 58>    C        8.39567        -9.75637         3.71429
| 59>    C        8.39277       -10.68251         4.75967
| 60>    C        9.36515       -11.68082         4.62335
| 61>    S       10.29417       -11.47277         3.18979
| 62>    C        9.34264       -12.59315         5.68286
| 63>    C        8.35541       -12.27991         6.62804
| 64>    S        7.43887       -10.86237         6.20472
| 65>    C        8.32844       -13.14993         7.71508
| 66>    C        9.28742       -14.13937         7.60891
| 67>    S       10.21752       -14.00136         6.12671
| 68>    C        9.55891       -15.23145         8.47222
| 69>    C        9.27468       -15.37896         9.79043
| 70>    C        9.28495       -16.75055        10.38320
| 71>    O        9.75213       -17.74049         9.86654
| 72>    C        8.57216       -16.62114        11.66475
| 73>    C        8.28282       -15.27633        11.90288
| 74>    C        8.84346       -14.46422        10.82690
| 75>    C        9.13623       -13.12888        10.90771
| 76>    C        9.91760       -12.43843         9.95839
| 77>    N       10.57983       -11.83725         9.23920
| 78>    C        8.76861       -12.29893        11.98746
| 79>    N        8.47861       -11.57172        12.82660
| 80>    C        7.58142       -14.89100        13.05274
| 81>    C        7.19111       -15.85917        13.94090
| 82>    C        7.47890       -17.22653        13.73620
| 83>    C        8.18774       -17.63159        12.56752
| 84>    C        8.47029       -18.99780        12.36519
| 85>    C        8.06746       -19.92581        13.28564
| 86>    C        7.36970       -19.53249        14.43897
| 87>    C        7.08136       -18.21368        14.66055
| 88>    H        1.14309         2.53513         0.79298
| 89>    H       -0.62196         3.96205        -0.13270
| 90>    H        1.67730         3.15753        -5.09763
| 91>    H       -0.12291         4.60858        -5.96277
| 92>    H       -1.79584         5.56143        -4.42927
| 93>    H       -1.69424         5.07859        -2.01809
| 94>    H        4.88740        -0.05806        -3.53446
| 95>    H        3.57665        -1.46892        -0.15097
| 96>    H        6.81689        -6.65827         1.79868
| 97>    H       10.20998        -7.10420        -1.47896
| 98>    H       11.29238       -10.50837         0.94226
| 99>    H        7.73143        -8.91643         3.63676
|100>    H        7.62033       -13.08658         8.52097
|101>    H       10.00863       -16.10167         8.00282
|102>    H        7.34155       -13.85575        13.23291
|103>    H        6.64555       -15.57945        14.83050
|104>    H        9.00673       -19.28851        11.47586
|105>    H        8.28438       -20.97204        13.13062
|106>    H        7.06106       -20.28242        15.15207
|107>    H        6.54551       -17.90848        15.54761
|108> *
|109>
|110>                          ****END OF INPUT****

CARTESIAN COORDINATES (ANGSTROEM)
---------------------------------
  C      3.759530    0.926830   -2.117790
  C      3.120270    1.763620   -3.178160
  O      3.440890    1.792640   -4.344970
  C      2.020880    2.469760   -2.500160
  C      2.074520    2.207840   -1.130070
  C      3.239010    1.374760   -0.843480
  C      3.856300    1.262190    0.374000
  C      5.124580    0.673190    0.553950
  N      6.168440    0.234690    0.741650
  C      3.343940    1.790090    1.577470
  N      2.966330    2.171730    2.591820
  C      1.115320    2.747470   -0.263410
  C      0.128150    3.541460   -0.786670
  C      0.052530    3.835660   -2.165810
  C      1.019920    3.288270   -3.058420
  C      0.938690    3.580330   -4.435160
  C     -0.060920    4.384990   -4.908350
  C     -1.015460    4.928500   -4.033570
  C     -0.961370    4.660920   -2.693080
  C      4.576160   -0.089580   -2.494100
  C      5.015720   -1.219760   -1.760350
  C      4.469150   -1.815330   -0.638910
  C      5.179120   -2.948980   -0.252740
  C      6.278510   -3.231230   -1.076370
  S      6.414730   -2.097370   -2.357210
  C      6.979690   -4.362850   -0.648520
  C      6.414480   -4.938010    0.496290
  S      5.004300   -4.083910    1.055030
  C      7.093140   -6.074880    0.940740
  C      8.170030   -6.371090    0.135050
  S      8.361400   -5.237860   -1.184390
  C      9.082960   -7.472020    0.271690
  C     10.073440   -7.740870   -0.619010
  C     10.934220   -8.866450   -0.434660
  C     11.942310   -9.180930   -1.327720
  C     12.774390  -10.296110   -1.138290
  N     13.444350  -11.216140   -0.982080
  C     12.182980   -8.404950   -2.472850
  N     12.375690   -7.765330   -3.407460
  C     10.677780   -9.646590    0.734660
  C      9.672810   -9.311190    1.585780
  O      8.862560   -8.238460    1.374260
  C      9.368760  -10.044330    2.783220
  C      8.395670   -9.756370    3.714290
  C      8.392770  -10.682510    4.759670
  C      9.365150  -11.680820    4.623350
  S     10.294170  -11.472770    3.189790
  C      9.342640  -12.593150    5.682860
  C      8.355410  -12.279910    6.628040
  S      7.438870  -10.862370    6.204720
  C      8.328440  -13.149930    7.715080
  C      9.287420  -14.139370    7.608910
  S     10.217520  -14.001360    6.126710
  C      9.558910  -15.231450    8.472220
  C      9.274680  -15.378960    9.790430
  C      9.284950  -16.750550   10.383200
  O      9.752130  -17.740490    9.866540
  C      8.572160  -16.621140   11.664750
  C      8.282820  -15.276330   11.902880
  C      8.843460  -14.464220   10.826900
  C      9.136230  -13.128880   10.907710
  C      9.917600  -12.438430    9.958390
  N     10.579830  -11.837250    9.239200
  C      8.768610  -12.298930   11.987460
  N      8.478610  -11.571720   12.826600
  C      7.581420  -14.891000   13.052740
  C      7.191110  -15.859170   13.940900
  C      7.478900  -17.226530   13.736200
  C      8.187740  -17.631590   12.567520
  C      8.470290  -18.997800   12.365190
  C      8.067460  -19.925810   13.285640
  C      7.369700  -19.532490   14.438970
  C      7.081360  -18.213680   14.660550
  H      1.143090    2.535130    0.792980
  H     -0.621960    3.962050   -0.132700
  H      1.677300    3.157530   -5.097630
  H     -0.122910    4.608580   -5.962770
  H     -1.795840    5.561430   -4.429270
  H     -1.694240    5.078590   -2.018090
  H      4.887400   -0.058060   -3.534460
  H      3.576650   -1.468920   -0.150970
  H      6.816890   -6.658270    1.798680
  H     10.209980   -7.104200   -1.478960
  H     11.292380  -10.508370    0.942260
  H      7.731430   -8.916430    3.636760
  H      7.620330  -13.086580    8.520970
  H     10.008630  -16.101670    8.002820
  H      7.341550  -13.855750   13.232910
  H      6.645550  -15.579450   14.830500
  H      9.006730  -19.288510   11.475860
  H      8.284380  -20.972040   13.130620
  H      7.061060  -20.282420   15.152070
  H      6.545510  -17.908480   15.547610

 Total Charge           Charge          ....    0
 Multiplicity           Mult            ....    1
 Number of Electrons    NEL             ....  530
 Basis Dimension        Dim             .... 1146

ORBITAL ENERGIES
----------------

  NO   OCC          E(Eh)            E(eV)
   0   2.0000     -88.987684     -2421.4780
   1   2.0000     -88.987425     -2421.4709
   2   2.0000     -88.981405     -2421.3071
   3   2.0000     -88.981262     -2421.3032
   4   2.0000     -88.978213     -2421.2203
   5   2.0000     -88.978015     -2421.2149
   6   2.0000     -19.328561      -525.9569
   7   2.0000     -19.224121      -523.1149
   8   2.0000     -19.223940      -523.1100
   9   2.0000     -14.421764      -392.4362
  10   2.0000     -14.421748      -392.4357
  11   2.0000     -14.421140      -392.4192
  12   2.0000     -14.420907      -392.4128
  13   2.0000     -14.395437      -391.7197
  14   2.0000     -14.395335      -391.7170
  15   2.0000     -10.392778      -282.8019
  16   2.0000     -10.392717      -282.8002
  17   2.0000     -10.374525      -282.3052
  18   2.0000     -10.374338      -282.3001
  19   2.0000     -10.351887      -281.6892
  20   2.0000     -10.351821      -281.6874
  21   2.0000     -10.349214      -281.6164
  22   2.0000     -10.349159      -281.6149
  23   2.0000     -10.337284      -281.2918
  24   2.0000     -10.335793      -281.2512
  25   2.0000     -10.335462      -281.2422
  26   2.0000     -10.332033      -281.1489
  27   2.0000     -10.331757      -281.1414
  28   2.0000     -10.330822      -281.1160
  29   2.0000     -10.330310      -281.1020
  30   2.0000     -10.328706      -281.0584
  31   2.0000     -10.328699      -281.0582
  32   2.0000     -10.326991      -281.0117
  33   2.0000     -10.326621      -281.0016
  34   2.0000     -10.326589      -281.0008
  35   2.0000     -10.326468      -280.9975
  36   2.0000     -10.324532      -280.9448
  37   2.0000     -10.324282      -280.9380
  38   2.0000     -10.324213      -280.9361
  39   2.0000     -10.324208      -280.9360
  40   2.0000     -10.322045      -280.8771
  41   2.0000     -10.321957      -280.8747
  42   2.0000     -10.317063      -280.7416
  43   2.0000     -10.315442      -280.6974
  44   2.0000     -10.315273      -280.6928
  45   2.0000     -10.314885      -280.6823
  46   2.0000     -10.314679      -280.6767
  47   2.0000     -10.311289      -280.5844
  48   2.0000     -10.310935      -280.5748
  49   2.0000     -10.307300      -280.4759
  50   2.0000     -10.307167      -280.4723
  51   2.0000     -10.305446      -280.4254
  52   2.0000     -10.305077      -280.4154
  53   2.0000     -10.301862      -280.3279
  54   2.0000     -10.301715      -280.3239
  55   2.0000     -10.301251      -280.3113
  56   2.0000     -10.301112      -280.3075
  57   2.0000     -10.301093      -280.3070
  58   2.0000     -10.300975      -280.3038
  59   2.0000     -10.300261      -280.2844
  60   2.0000     -10.300153      -280.2814
  61   2.0000     -10.299103      -280.2528
  62   2.0000     -10.299046      -280.2513
  63   2.0000     -10.297004      -280.1957
  64   2.0000     -10.296885      -280.1925
  65   2.0000     -10.288364      -279.9606
  66   2.0000     -10.288259      -279.9578
  67   2.0000     -10.287810      -279.9455
  68   2.0000     -10.287738      -279.9436
  69   2.0000     -10.286059      -279.8979
  70   2.0000     -10.285878      -279.8930
  71   2.0000     -10.282229      -279.7937
  72   2.0000     -10.282075      -279.7895
  73   2.0000      -8.082513      -219.9364
  74   2.0000      -8.082242      -219.9290
  75   2.0000      -8.076653      -219.7769
  76   2.0000      -8.076536      -219.7737
  77   2.0000      -8.073379      -219.6878
  78   2.0000      -8.073170      -219.6821
  79   2.0000      -6.052132      -164.6869
  80   2.0000      -6.051848      -164.6792
  81   2.0000      -6.047992      -164.5742
  82   2.0000      -6.047734      -164.5672
  83   2.0000      -6.046154      -164.5242
  84   2.0000      -6.046033      -164.5209
  85   2.0000      -6.044007      -164.4658
  86   2.0000      -6.043733      -164.4583
  87   2.0000      -6.043142      -164.4423
  88   2.0000      -6.042917      -164.4361
  89   2.0000      -6.042034      -164.4121
  90   2.0000      -6.041929      -164.4092
  91   2.0000      -6.039260      -164.3366
  92   2.0000      -6.039067      -164.3314
  93   2.0000      -6.038317      -164.3110
  94   2.0000      -6.038176      -164.3071
  95   2.0000      -6.034299      -164.2016
  96   2.0000      -6.034082      -164.1957
  97   2.0000      -1.237200       -33.6659
  98   2.0000      -1.139407       -31.0048
  99   2.0000      -1.139261       -31.0009
 100   2.0000      -1.042765       -28.3751
 101   2.0000      -1.041748       -28.3474
 102   2.0000      -1.025604       -27.9081
 103   2.0000      -1.025480       -27.9047
 104   2.0000      -1.007483       -27.4150
 105   2.0000      -1.005078       -27.3496
 106   2.0000      -1.005002       -27.3475
 107   2.0000      -1.003832       -27.3156
 108   2.0000      -0.999015       -27.1846
 109   2.0000      -0.998384       -27.1674
 110   2.0000      -0.996362       -27.1124
 111   2.0000      -0.974913       -26.5287
 112   2.0000      -0.974519       -26.5180
 113   2.0000      -0.974305       -26.5122
 114   2.0000      -0.961996       -26.1773
 115   2.0000      -0.961176       -26.1549
 116   2.0000      -0.948816       -25.8186
 117   2.0000      -0.928847       -25.2752
 118   2.0000      -0.927436       -25.2368
 119   2.0000      -0.923142       -25.1200
 120   2.0000      -0.910629       -24.7795
 121   2.0000      -0.910477       -24.7753
 122   2.0000      -0.897018       -24.4091
 123   2.0000      -0.896696       -24.4003
 124   2.0000      -0.884713       -24.0743
 125   2.0000      -0.876226       -23.8433
 126   2.0000      -0.874380       -23.7931
 127   2.0000      -0.861486       -23.4422
 128   2.0000      -0.860172       -23.4065
 129   2.0000      -0.858639       -23.3648
 130   2.0000      -0.856758       -23.3136
 131   2.0000      -0.844850       -22.9895
 132   2.0000      -0.843955       -22.9652
 133   2.0000      -0.822676       -22.3861
 134   2.0000      -0.816575       -22.2201
 135   2.0000      -0.811880       -22.0924
 136   2.0000      -0.804553       -21.8930
 137   2.0000      -0.794001       -21.6059
 138   2.0000      -0.786770       -21.4091
 139   2.0000      -0.779019       -21.1982
 140   2.0000      -0.775817       -21.1110
 141   2.0000      -0.758339       -20.6355
 142   2.0000      -0.752789       -20.4844
 143   2.0000      -0.724919       -19.7261
 144   2.0000      -0.719677       -19.5834
 145   2.0000      -0.719285       -19.5727
 146   2.0000      -0.718919       -19.5628
 147   2.0000      -0.711825       -19.3697
 148   2.0000      -0.708760       -19.2863
 149   2.0000      -0.690829       -18.7984
 150   2.0000      -0.690136       -18.7796
 151   2.0000      -0.683900       -18.6099
 152   2.0000      -0.681452       -18.5432
 153   2.0000      -0.671974       -18.2853
 154   2.0000      -0.670968       -18.2580
 155   2.0000      -0.668548       -18.1921
 156   2.0000      -0.655830       -17.8460
 157   2.0000      -0.652935       -17.7673
 158   2.0000      -0.652397       -17.7526
 159   2.0000      -0.648054       -17.6344
 160   2.0000      -0.636035       -17.3074
 161   2.0000      -0.635095       -17.2818
 162   2.0000      -0.631229       -17.1766
 163   2.0000      -0.616144       -16.7661
 164   2.0000      -0.609393       -16.5824
 165   2.0000      -0.604937       -16.4612
 166   2.0000      -0.604287       -16.4435
 167   2.0000      -0.594962       -16.1897
 168   2.0000      -0.593889       -16.1605
 169   2.0000      -0.593583       -16.1522
 170   2.0000      -0.592894       -16.1335
 171   2.0000      -0.592715       -16.1286
 172   2.0000      -0.584877       -15.9153
 173   2.0000      -0.581525       -15.8241
 174   2.0000      -0.580190       -15.7878
 175   2.0000      -0.576809       -15.6958
 176   2.0000      -0.569615       -15.5000
 177   2.0000      -0.565854       -15.3977
 178   2.0000      -0.559003       -15.2113
 179   2.0000      -0.555764       -15.1231
 180   2.0000      -0.543877       -14.7996
 181   2.0000      -0.543669       -14.7940
 182   2.0000      -0.541150       -14.7254
 183   2.0000      -0.540054       -14.6956
 184   2.0000      -0.539497       -14.6805
 185   2.0000      -0.537605       -14.6290
 186   2.0000      -0.531919       -14.4742
 187   2.0000      -0.531744       -14.4695
 188   2.0000      -0.525078       -14.2881
 189   2.0000      -0.523624       -14.2485
 190   2.0000      -0.517883       -14.0923
 191   2.0000      -0.517784       -14.0896
 192   2.0000      -0.512516       -13.9463
 193   2.0000      -0.511426       -13.9166
 194   2.0000      -0.510513       -13.8918
 195   2.0000      -0.509143       -13.8545
 196   2.0000      -0.507475       -13.8091
 197   2.0000      -0.506882       -13.7930
 198   2.0000      -0.502641       -13.6775
 199   2.0000      -0.501482       -13.6460
 200   2.0000      -0.495284       -13.4774
 201   2.0000      -0.493746       -13.4355
 202   2.0000      -0.490201       -13.3391
 203   2.0000      -0.489767       -13.3272
 204   2.0000      -0.488922       -13.3042
 205   2.0000      -0.484459       -13.1828
 206   2.0000      -0.484244       -13.1769
 207   2.0000      -0.481498       -13.1022
 208   2.0000      -0.480794       -13.0831
 209   2.0000      -0.478960       -13.0332
 210   2.0000      -0.478235       -13.0134
 211   2.0000      -0.473969       -12.8974
 212   2.0000      -0.470064       -12.7911
 213   2.0000      -0.465394       -12.6640
 214   2.0000      -0.464595       -12.6423
 215   2.0000      -0.456336       -12.4175
 216   2.0000      -0.455406       -12.3922
 217   2.0000      -0.450970       -12.2715
 218   2.0000      -0.447979       -12.1901
 219   2.0000      -0.446863       -12.1598
 220   2.0000      -0.445046       -12.1103
 221   2.0000      -0.443831       -12.0773
 222   2.0000      -0.443329       -12.0636
 223   2.0000      -0.441396       -12.0110
 224   2.0000      -0.439834       -11.9685
 225   2.0000      -0.438993       -11.9456
 226   2.0000      -0.435506       -11.8507
 227   2.0000      -0.434678       -11.8282
 228   2.0000      -0.433841       -11.8054
 229   2.0000      -0.433138       -11.7863
 230   2.0000      -0.432836       -11.7781
 231   2.0000      -0.431362       -11.7380
 232   2.0000      -0.430486       -11.7141
 233   2.0000      -0.430265       -11.7081
 234   2.0000      -0.426237       -11.5985
 235   2.0000      -0.425304       -11.5731
 236   2.0000      -0.424279       -11.5452
 237   2.0000      -0.416957       -11.3460
 238   2.0000      -0.415433       -11.3045
 239   2.0000      -0.412871       -11.2348
 240   2.0000      -0.412867       -11.2347
 241   2.0000      -0.409928       -11.1547
 242   2.0000      -0.404972       -11.0198
 243   2.0000      -0.404829       -11.0160
 244   2.0000      -0.401698       -10.9308
 245   2.0000      -0.397144       -10.8068
 246   2.0000      -0.385417       -10.4877
 247   2.0000      -0.382168       -10.3993
 248   2.0000      -0.371947       -10.1212
 249   2.0000      -0.367239        -9.9931
 250   2.0000      -0.354693        -9.6517
 251   2.0000      -0.353108        -9.6086
 252   2.0000      -0.350908        -9.5487
 253   2.0000      -0.343006        -9.3337
 254   2.0000      -0.340061        -9.2535
 255   2.0000      -0.333114        -9.0645
 256   2.0000      -0.321913        -8.7597
 257   2.0000      -0.319701        -8.6995
 258   2.0000      -0.304674        -8.2906
 259   2.0000      -0.302843        -8.2408
 260   2.0000      -0.299658        -8.1541
 261   2.0000      -0.299156        -8.1405
 262   2.0000      -0.292233        -7.9521
 263   2.0000      -0.270539        -7.3617
 264   2.0000      -0.266707        -7.2575
 265   0.0000      -0.100113        -2.7242
 266   0.0000      -0.096805        -2.6342
 267   0.0000      -0.081273        -2.2115
 268   0.0000      -0.078444        -2.1346
 269   0.0000      -0.063375        -1.7245

MULLIKEN ATOMIC CHARGES
-----------------------
   0 C :   -0.114202
   1 C :    0.115358
   2 O :   -0.148273
   3 C :    0.013152
   4 C :   -0.010327
   5 C :    0.258616
   6 C :   -0.340621
   7 C :   -0.208506
   8 N :    0.183561
   9 C :   -0.174783
  10 N :    0.162610
  11 C :   -0.024375
  12 C :    0.006569
  13 C :    0.078930
  14 C :    0.037074
  15 C :   -0.025972
  16 C :    0.037619
  17 C :    0.039072
  18 C :   -0.019769
  19 C :    0.077276
  20 C :   -0.113099
  21 C :    0.009725
  22 C :   -0.043035
  23 C :   -0.055354
  24 S :    0.186492
  25 C :   -0.067054
  26 C :   -0.016165
  27 S :    0.178861
  28 C :   -0.031205
  29 C :   -0.093207
  30 S :    0.179606
  31 C :    0.273991
  32 C :   -0.186541
  33 C :    0.298908
  34 C :   -0.346026
  35 C :   -0.178483
  36 N :    0.128601
  37 C :   -0.175587
  38 N :    0.128117
  39 C :   -0.186338
  40 C :    0.272375
  41 O :   -0.235811
  42 C :   -0.090723
  43 C :   -0.035011
  44 C :   -0.014951
  45 C :   -0.064961
  46 S :    0.177785
  47 C :   -0.055588
  48 C :   -0.040748
  49 S :    0.177555
  50 C :    0.008818
  51 C :   -0.114903
  52 S :    0.187308
  53 C :    0.074733
  54 C :   -0.117444
  55 C :    0.115870
  56 O :   -0.146787
  57 C :    0.014731
  58 C :   -0.010131
  59 C :    0.258047
  60 C :   -0.334331
  61 C :   -0.203565
  62 N :    0.181304
  63 C :   -0.178046
  64 N :    0.160113
  65 C :   -0.024195
  66 C :    0.006765
  67 C :    0.079816
  68 C :    0.034565
  69 C :   -0.025140
  70 C :    0.039143
  71 C :    0.038440
  72 C :   -0.019459
  73 H :    0.001730
  74 H :   -0.011295
  75 H :    0.001599
  76 H :   -0.004395
  77 H :   -0.004771
  78 H :   -0.019305
  79 H :    0.025370
  80 H :    0.004329
  81 H :   -0.006438
  82 H :    0.037341
  83 H :    0.036877
  84 H :   -0.004844
  85 H :    0.004684
  86 H :    0.026518
  87 H :    0.001225
  88 H :   -0.011257
  89 H :    0.001038
  90 H :   -0.004526
  91 H :   -0.004406
  92 H :   -0.020266
Sum of atomic charges:   -0.0000000

LOEWDIN ATOMIC CHARGES
----------------------
   0 C :   -0.084474
   1 C :    0.087759
   2 O :   -0.138903
   3 C :   -0.033042
   4 C :   -0.005033
   5 C :    0.065778
   6 C :   -0.136542
   7 C :   -0.020258
   8 N :   -0.036615
   9 C :   -0.022290
  10 N :   -0.046394
  11 C :   -0.018654
  12 C :    0.020461
  13 C :   -0.008981
  14 C :   -0.002517
  15 C :   -0.001846
  16 C :   -0.010691
  17 C :   -0.011015
  18 C :   -0.011909
  19 C :    0.040638
  20 C :   -0.171393
  21 C :   -0.028108
  22 C :   -0.182651
  23 C :   -0.203415
  24 S :    0.460227
  25 C :   -0.205602
  26 C :   -0.186905
  27 S :    0.421471
  28 C :   -0.039228
  29 C :   -0.181608
  30 S :    0.462497
  31 C :    0.077273
  32 C :   -0.059130
  33 C :    0.054866
  34 C :   -0.176992
  35 C :   -0.030246
  36 N :   -0.069539
  37 C :   -0.030278
  38 N :   -0.069635
  39 C :   -0.059199
  40 C :    0.077578
  41 O :   -0.004908
  42 C :   -0.181904
  43 C :   -0.039264
  44 C :   -0.187270
  45 C :   -0.205211
  46 S :    0.462499
  47 C :   -0.203405
  48 C :   -0.182506
  49 S :    0.421371
  50 C :   -0.030146
  51 C :   -0.171453
  52 S :    0.460813
  53 C :    0.040792
  54 C :   -0.083649
  55 C :    0.087488
  56 O :   -0.138739
  57 C :   -0.032966
  58 C :   -0.005076
  59 C :    0.065399
  60 C :   -0.135367
  61 C :   -0.020066
  62 N :   -0.036988
  63 C :   -0.021983
  64 N :   -0.046186
  65 C :   -0.018355
  66 C :    0.020640
  67 C :   -0.008925
  68 C :   -0.002635
  69 C :   -0.001789
  70 C :   -0.010559
  71 C :   -0.011085
  72 C :   -0.011694
  73 H :    0.039699
  74 H :    0.036290
  75 H :    0.035913
  76 H :    0.033498
  77 H :    0.032760
  78 H :    0.030957
  79 H :    0.046887
  80 H :    0.038198
  81 H :    0.037904
  82 H :    0.041635
  83 H :    0.041579
  84 H :    0.038162
  85 H :    0.038140
  86 H :    0.047112
  87 H :    0.039587
  88 H :    0.036335
  89 H :    0.035859
  90 H :    0.033451
  91 H :    0.032903
  92 H :    0.030805

  Mayer bond orders larger than 0.100000
B(  0-C ,  1-C ) :   0.9533 B(  0-C ,  5-C ) :   1.0226 B(  0-C , 19-C ) :   1.7060
B(  1-C ,  2-O ) :   2.1941 B(  1-C ,  3-C ) :   0.9397 B(  3-C ,  4-C ) :   1.4147
B(  3-C , 14-C ) :   1.2383 B(  4-C ,  5-C ) :   1.0045 B(  4-C , 11-C ) :   1.2586
B(  5-C ,  6-C ) :   1.6532 B(  6-C ,  7-C ) :   1.1676 B(  6-C ,  9-C ) :   1.1224
B(  7-C ,  8-N ) :   3.0107 B(  9-C , 10-N ) :   2.9966 B( 11-C , 12-C ) :   1.4697
B( 11-C , 73-H ) :   0.9864 B( 12-C , 13-C ) :   1.2245 B( 12-C , 74-H ) :   0.9934
B( 13-C , 14-C ) :   1.2392 B( 13-C , 18-C ) :   1.2402 B( 14-C , 15-C ) :   1.2753
B( 15-C , 16-C ) :   1.4767 B( 15-C , 75-H ) :   0.9862 B( 16-C , 17-C ) :   1.2551
B( 16-C , 76-H ) :   0.9873 B( 17-C , 18-C ) :   1.4961 B( 17-C , 77-H ) :   0.9889
B( 18-C , 78-H ) :   0.9974 B( 19-C , 20-C ) :   1.1113 B( 19-C , 79-H ) :   0.9242
B( 20-C , 21-C ) :   1.4750 B( 20-C , 24-S ) :   1.0883 B( 21-C , 22-C ) :   1.3221
B( 21-C , 80-H ) :   0.9898 B( 22-C , 23-C ) :   1.4400 B( 22-C , 27-S ) :   1.0526
B( 23-C , 24-S ) :   1.0962 B( 23-C , 25-C ) :   1.3054 B( 25-C , 26-C ) :   1.4578
B( 25-C , 30-S ) :   1.0818 B( 26-C , 27-S ) :   1.0527 B( 26-C , 28-C ) :   1.2524
B( 28-C , 29-C ) :   1.4956 B( 28-C , 81-H ) :   1.0120 B( 29-C , 30-S ) :   1.1086
B( 29-C , 31-C ) :   1.1044 B( 31-C , 32-C ) :   1.5560 B( 31-C , 41-O ) :   1.1378
B( 32-C , 33-C ) :   1.1358 B( 32-C , 82-H ) :   0.9568 B( 33-C , 34-C ) :   1.5468
B( 33-C , 39-C ) :   1.1355 B( 34-C , 35-C ) :   1.1326 B( 34-C , 37-C ) :   1.1319
B( 35-C , 36-N ) :   3.0046 B( 37-C , 38-N ) :   3.0039 B( 39-C , 40-C ) :   1.5549
B( 39-C , 83-H ) :   0.9576 B( 40-C , 41-O ) :   1.1360 B( 40-C , 42-C ) :   1.1061
B( 42-C , 43-C ) :   1.4938 B( 42-C , 46-S ) :   1.1073 B( 43-C , 44-C ) :   1.2537
B( 43-C , 84-H ) :   1.0122 B( 44-C , 45-C ) :   1.4555 B( 44-C , 49-S ) :   1.0529
B( 45-C , 46-S ) :   1.0825 B( 45-C , 47-C ) :   1.3057 B( 47-C , 48-C ) :   1.4417
B( 47-C , 52-S ) :   1.0948 B( 48-C , 49-S ) :   1.0521 B( 48-C , 50-C ) :   1.3192
B( 50-C , 51-C ) :   1.4786 B( 50-C , 85-H ) :   0.9911 B( 51-C , 52-S ) :   1.0900
B( 51-C , 53-C ) :   1.1039 B( 53-C , 54-C ) :   1.7105 B( 53-C , 86-H ) :   0.9254
B( 54-C , 55-C ) :   0.9535 B( 54-C , 59-C ) :   1.0220 B( 55-C , 56-O ) :   2.1973
B( 55-C , 57-C ) :   0.9397 B( 57-C , 58-C ) :   1.4133 B( 57-C , 68-C ) :   1.2352
B( 58-C , 59-C ) :   1.0036 B( 58-C , 65-C ) :   1.2601 B( 59-C , 60-C ) :   1.6539
B( 60-C , 61-C ) :   1.1639 B( 60-C , 63-C ) :   1.1238 B( 61-C , 62-N ) :   3.0112
B( 63-C , 64-N ) :   2.9957 B( 65-C , 66-C ) :   1.4694 B( 65-C , 87-H ) :   0.9866
B( 66-C , 67-C ) :   1.2227 B( 66-C , 88-H ) :   0.9938 B( 67-C , 68-C ) :   1.2400
B( 67-C , 72-C ) :   1.2423 B( 68-C , 69-C ) :   1.2753 B( 69-C , 70-C ) :   1.4755
B( 69-C , 89-H ) :   0.9863 B( 70-C , 71-C ) :   1.2558 B( 70-C , 90-H ) :   0.9875
B( 71-C , 72-C ) :   1.4942 B( 71-C , 91-H ) :   0.9891 B( 72-C , 92-H ) :   0.9973

-----------------------------------------------------------------------------
         ABSORPTION SPECTRUM VIA TRANSITION ELECTRIC DIPOLE MOMENTS
-----------------------------------------------------------------------------
State   Energy  Wavelength   fosc         T2         TX        TY        TZ
        (cm-1)    (nm)                  (au**2)     (au)      (au)      (au)
-----------------------------------------------------------------------------
   0   20476.8    488.4   1.731398968  27.83625  -1.43838   4.05132  -3.05845
   1   21131.1    473.2   0.710529402  11.06971   1.92451  -1.30465  -2.37989
   2   24772.1    403.7   0.605413439   8.04572  -0.57336   2.16283  -1.74332
   3   24896.5    401.7   0.372406025   4.92441   1.70714  -0.68488  -1.24137
   4   25668.0    389.6   0.058473875   0.74997  -0.18102   0.64673  -0.54676
   5   26723.8    374.2   0.071012462   0.87481   0.01762   0.58559   0.72909
   6   27416.8    364.7   0.344341114   4.13473   0.40912  -1.56085   1.23738
   7   27544.1    363.1   0.189792936   2.26844  -1.42498  -0.18301   0.45208
   8   27660.6    361.5   0.043160136   0.51369  -0.17532   0.36194  -0.59325
   9   27707.6    360.9   0.074310641   0.88293   0.52023  -0.48436  -0.61456
  10   29460.0    339.4   0.000965731   0.01079   0.07664   0.05564  -0.04270
  11   29952.5    333.9   0.003929762   0.04319  -0.11508   0.06187   0.16162
  12   30177.0    331.4   0.008029530   0.08760   0.03989  -0.26013   0.13541
  13   30595.9    326.8   0.126979219   1.36629   0.69262  -0.39409  -0.85514
  14   30760.2    325.1   0.010467782   0.11203   0.05399  -0.06768  -0.32332
  15   30783.5    324.8   0.036173547   0.38685   0.29579  -0.46499   0.28835
  16   30822.6    324.4   0.207316091   2.21431   1.38989   0.21120  -0.48777
  17   31616.3    316.3   0.055915919   0.58224   0.21719  -0.57455   0.45273
  18   32155.3    311.0   0.382830211   3.91949  -0.49053   1.55417  -1.12403
  19   32219.6    310.4   0.175319579   1.79137   0.26072   0.89627   0.95921
  20   32290.8    309.7   0.060824248   0.62012  -0.11133   0.45648  -0.63194
  21   32705.4    305.8   0.461260209   4.64303   0.30867  -1.66967   1.32663
  22   32737.3    305.5   0.252745459   2.54165   1.58842   0.12164  -0.06153
  23   32962.0    303.4   0.008110481   0.08100   0.08523  -0.13934  -0.23308
  24   33068.0    302.4   0.052813804   0.52579  -0.43148   0.23445   0.53353
  25   33342.7    299.9   0.046315473   0.45730   0.51151  -0.12265  -0.42499
  26   34520.5    289.7   0.100045116   0.95410   0.74589   0.52115  -0.35518
  27   34578.0    289.2   0.246348985   2.34545  -0.64315   1.06633  -0.89149
  28   34906.5    286.5   0.176958729   1.66894  -0.18413   1.10057  -0.65099
  29   35020.4    285.5   0.090770449   0.85329   0.25022   0.44302   0.77099
  30   35621.8    280.7   0.001882835   0.01740  -0.03513   0.12662   0.01160
  31   35735.9    279.8   0.097116775   0.89467   0.29169  -0.43911  -0.78535
  32   35922.9    278.4   0.051557007   0.47249  -0.48190   0.19457   0.44990
  33   36453.3    274.3   0.057854110   0.52248  -0.11481   0.56086  -0.44129
  34   37261.0    268.4   0.032229355   0.28476  -0.16427   0.47633  -0.17572
  35   37348.1    267.8   0.016186560   0.14268  -0.03401   0.18943  -0.32502
  36   37478.4    266.8   0.002160723   0.01898   0.00008  -0.12925   0.04770
  37   38002.8    263.1   0.010607851   0.09189   0.24651   0.05495  -0.16766
  38   38128.6    262.3   0.025473566   0.21994  -0.15386   0.34743  -0.27489
  39   38581.5    259.2   0.055634954   0.47473  -0.57989  -0.30461  -0.21369
  40   39223.9    254.9   0.014839205   0.12455  -0.10871  -0.21009  -0.26190
  41   39302.3    254.4   0.036797156   0.30823  -0.49370   0.05853   0.24711
  42   39326.3    254.3   0.074222007   0.62133   0.72615   0.06151  -0.30044
  43   39361.9    254.1   0.007738582   0.06472   0.15311  -0.17246   0.10741
  44   40159.5    249.0   0.271615251   2.22659   0.09881  -1.23807   0.82705
  45   40199.4    248.8   0.115218731   0.94358   0.70797  -0.33060   0.57712

FINAL SINGLE POINT ENERGY     -5161.192162537621

DIPOLE MOMENT
-------------
                                X             Y             Z
Electronic contribution:     27.93674      -2.63091     -15.98651
Nuclear contribution   :    -33.42184       1.97455      17.58294
                        -----------------------------------------
Total Dipole Moment    :     -5.48510      -0.65636       1.59643
                        -----------------------------------------
Magnitude (a.u.)       :      5.75028
Magnitude (Debye)      :     14.61606

Rotational constants in cm-1:     0.001365     0.000195     0.000174
Rotational constants in MHz :    40.929771     5.844559     5.225222

                             ****ORCA TERMINATED NORMALLY****
TOTAL RUN TIME: 0 days 0 hours 9 minutes 6 seconds 296 msec
