                         Program Version 4.2.0 -  RELEASE  -
|  1> # ORCA input file
|  2> # SCF done       -196.937724094500          0.000623763321
|  3> ! CAM-B3LYP def2-SVP def2/J RIJCOSX Grid4 TightSCF
|  4> %maxcore 5000
|  5> %tddft
|  6>     Mode sTDDFT
|  7>     Ethresh 5.0
|  8>     maxcore 5000
|  9> end
| 10>
| 11> %pal
| 12>   nprocs 6
| 13>   end
| 14> * xyz 0 1
| 15>    C       -0.62497        -2.44790        -4.09447
| 16>    C       -2.11098        -2.31938        -4.06919
| 17>    O       -2.74874        -1.55685        -3.37778
| 18>    C       -2.58996        -3.26207        -5.09664
| 19>    C       -1.51607        -4.01165        -5.58013
| 20>    C       -0.30841        -3.64092        -4.85156
| 21>    C        0.80046        -4.42546        -4.68181
| 22>    C        1.79594        -4.14058        -3.72248
| 23>    N        2.59335        -3.96482        -2.91595
| 24>    C        1.02217        -5.64078        -5.35991
| 25>    N        1.25770        -6.62842        -5.89534
| 26>    C       -1.70373        -4.96439        -6.58911
| 27>    C       -2.96562        -5.14968        -7.09060
| 28>    C       -4.07667        -4.41837        -6.61547
| 29>    C       -3.89641        -3.44323        -5.59119
| 30>    C       -5.00835        -2.71366        -5.12383
| 31>    C       -6.25058        -2.94336        -5.64809
| 32>    C       -6.43447        -3.90392        -6.65559
| 33>    C       -5.37294        -4.62486        -7.12962
| 34>    C        0.15107        -1.46657        -3.56845
| 35>    C        1.50604        -1.15775        -3.84732
| 36>    C        2.32300        -0.34124        -3.08687
| 37>    C        3.57522        -0.16216        -3.66601
| 38>    C        3.72001        -0.81193        -4.90266
| 39>    S        2.29495        -1.67094        -5.33496
| 40>    C        4.96703        -0.58755        -5.48286
| 41>    C        5.77797         0.23647        -4.68494
| 42>    S        4.99832         0.72909        -3.20677
| 43>    C        7.02233         0.50201        -5.24291
| 44>    C        7.18277        -0.11650        -6.47239
| 45>    S        5.77029        -1.05471        -6.93444
| 46>    C        8.29175        -0.05124        -7.36409
| 47>    C        9.44756         0.73843        -7.16146
| 48>    C       10.49431         0.80485        -8.14486
| 49>    N       11.56923         1.58663        -7.91766
| 50>    C       11.65634         2.26447        -6.82102
| 51>    C       10.62413         2.19518        -5.84940
| 52>    N        9.57481         1.46321        -6.02900
| 53>    F       10.70427         2.88808        -4.71545
| 54>    F       12.73134         3.02160        -6.63413
| 55>    C       10.46219         0.09517        -9.36626
| 56>    C        9.32994        -0.73024        -9.55230
| 57>    C        8.27568        -0.78794        -8.56992
| 58>    N        7.29650        -1.61053        -8.94591
| 59>    S        7.65596        -2.25023       -10.37091
| 60>    N        9.06410        -1.51834       -10.59644
| 61>    C       11.48628         0.23811       -10.34232
| 62>    C       11.54636        -0.40258       -11.57083
| 63>    C       12.64858        -0.00005       -12.31137
| 64>    C       13.44745         0.95401       -11.65894
| 65>    S       12.82362         1.34227       -10.09578
| 66>    C       14.52505         1.35683       -12.44865
| 67>    C       14.54741         0.70772       -13.69620
| 68>    S       13.23109        -0.41149       -13.90119
| 69>    C       15.60638         1.09013       -14.50834
| 70>    C       16.41041         2.04126       -13.90147
| 71>    S       15.82365         2.47186       -12.30262
| 72>    C       17.52874         2.73208       -14.42327
| 73>    C       18.31874         2.41365       -15.48314
| 74>    C       19.12928         3.48693       -16.13008
| 75>    O       19.36040         4.58042       -15.66405
| 76>    C       19.51550         2.93883       -17.44218
| 77>    C       19.11385         1.60504       -17.52474
| 78>    C       18.50327         1.20730       -16.25906
| 79>    C       18.38019        -0.07948       -15.80477
| 80>    C       18.02614        -0.40604       -14.47948
| 81>    N       17.77591        -0.72098       -13.40465
| 82>    C       18.67339        -1.22434       -16.57377
| 83>    N       18.87846        -2.19195       -17.15614
| 84>    C       19.33853         0.86271       -18.69105
| 85>    C       19.96480         1.47121       -19.74757
| 86>    C       20.39478         2.81515       -19.69251
| 87>    C       20.16824         3.58144       -18.51194
| 88>    C       20.59513         4.92411       -18.46293
| 89>    C       21.22380         5.48459       -19.54043
| 90>    C       21.45081         4.73419       -20.70542
| 91>    C       21.04601         3.42978       -20.78127
| 92>    H       -0.87074        -5.53088        -6.97307
| 93>    H       -3.12923        -5.87568        -7.87392
| 94>    H       -4.85498        -1.97811        -4.35004
| 95>    H       -7.10203        -2.38485        -5.28909
| 96>    H       -7.42417        -4.06898        -7.05510
| 97>    H       -5.51201        -5.36477        -7.90457
| 98>    H       -0.36046        -0.76816        -2.91283
| 99>    H        2.02016         0.07631        -2.14436
|100>    H        7.78147         1.11294        -4.79522
|101>    H       10.81059        -1.11602       -11.88964
|102>    H       15.75644         0.73048       -15.50969
|103>    H       17.74539         3.69297       -13.96604
|104>    H       19.01498        -0.16294       -18.76423
|105>    H       20.14054         0.91521       -20.65716
|106>    H       20.41484         5.49064       -17.56306
|107>    H       21.55111         6.51279       -19.50237
|108>    H       21.94893         5.19727       -21.54431
|109>    H       21.21994         2.85028       -21.67638
|110> *
|111>
|112>                          ****END OF INPUT****

CARTESIAN COORDINATES (ANGSTROEM)
---------------------------------
  C     -0.624970   -2.447900   -4.094470
  C     -2.110980   -2.319380   -4.069190
  O     -2.748740   -1.556850   -3.377780
  C     -2.589960   -3.262070   -5.096640
  C     -1.516070   -4.011650   -5.580130
  C     -0.308410   -3.640920   -4.851560
  C      0.800460   -4.425460   -4.681810
  C      1.795940   -4.140580   -3.722480
  N      2.593350   -3.964820   -2.915950
  C      1.022170   -5.640780   -5.359910
  N      1.257700   -6.628420   -5.895340
  C     -1.703730   -4.964390   -6.589110
  C     -2.965620   -5.149680   -7.090600
  C     -4.076670   -4.418370   -6.615470
  C     -3.896410   -3.443230   -5.591190
  C     -5.008350   -2.713660   -5.123830
  C     -6.250580   -2.943360   -5.648090
  C     -6.434470   -3.903920   -6.655590
  C     -5.372940   -4.624860   -7.129620
  C      0.151070   -1.466570   -3.568450
  C      1.506040   -1.157750   -3.847320
  C      2.323000   -0.341240   -3.086870
  C      3.575220   -0.162160   -3.666010
  C      3.720010   -0.811930   -4.902660
  S      2.294950   -1.670940   -5.334960
  C      4.967030   -0.587550   -5.482860
  C      5.777970    0.236470   -4.684940
  S      4.998320    0.729090   -3.206770
  C      7.022330    0.502010   -5.242910
  C      7.182770   -0.116500   -6.472390
  S      5.770290   -1.054710   -6.934440
  C      8.291750   -0.051240   -7.364090
  C      9.447560    0.738430   -7.161460
  C     10.494310    0.804850   -8.144860
  N     11.569230    1.586630   -7.917660
  C     11.656340    2.264470   -6.821020
  C     10.624130    2.195180   -5.849400
  N      9.574810    1.463210   -6.029000
  F     10.704270    2.888080   -4.715450
  F     12.731340    3.021600   -6.634130
  C     10.462190    0.095170   -9.366260
  C      9.329940   -0.730240   -9.552300
  C      8.275680   -0.787940   -8.569920
  N      7.296500   -1.610530   -8.945910
  S      7.655960   -2.250230  -10.370910
  N      9.064100   -1.518340  -10.596440
  C     11.486280    0.238110  -10.342320
  C     11.546360   -0.402580  -11.570830
  C     12.648580   -0.000050  -12.311370
  C     13.447450    0.954010  -11.658940
  S     12.823620    1.342270  -10.095780
  C     14.525050    1.356830  -12.448650
  C     14.547410    0.707720  -13.696200
  S     13.231090   -0.411490  -13.901190
  C     15.606380    1.090130  -14.508340
  C     16.410410    2.041260  -13.901470
  S     15.823650    2.471860  -12.302620
  C     17.528740    2.732080  -14.423270
  C     18.318740    2.413650  -15.483140
  C     19.129280    3.486930  -16.130080
  O     19.360400    4.580420  -15.664050
  C     19.515500    2.938830  -17.442180
  C     19.113850    1.605040  -17.524740
  C     18.503270    1.207300  -16.259060
  C     18.380190   -0.079480  -15.804770
  C     18.026140   -0.406040  -14.479480
  N     17.775910   -0.720980  -13.404650
  C     18.673390   -1.224340  -16.573770
  N     18.878460   -2.191950  -17.156140
  C     19.338530    0.862710  -18.691050
  C     19.964800    1.471210  -19.747570
  C     20.394780    2.815150  -19.692510
  C     20.168240    3.581440  -18.511940
  C     20.595130    4.924110  -18.462930
  C     21.223800    5.484590  -19.540430
  C     21.450810    4.734190  -20.705420
  C     21.046010    3.429780  -20.781270
  H     -0.870740   -5.530880   -6.973070
  H     -3.129230   -5.875680   -7.873920
  H     -4.854980   -1.978110   -4.350040
  H     -7.102030   -2.384850   -5.289090
  H     -7.424170   -4.068980   -7.055100
  H     -5.512010   -5.364770   -7.904570
  H     -0.360460   -0.768160   -2.912830
  H      2.020160    0.076310   -2.144360
  H      7.781470    1.112940   -4.795220
  H     10.810590   -1.116020  -11.889640
  H     15.756440    0.730480  -15.509690
  H     17.745390    3.692970  -13.966040
  H     19.014980   -0.162940  -18.764230
  H     20.140540    0.915210  -20.657160
  H     20.414840    5.490640  -17.563060
  H     21.551110    6.512790  -19.502370
  H     21.948930    5.197270  -21.544310
  H     21.219940    2.850280  -21.676380

 Total Charge           Charge          ....    0
 Multiplicity           Mult            ....    1
 Number of Electrons    NEL             ....  568
 Basis Dimension        Dim             .... 1196

ORBITAL ENERGIES
----------------

  NO   OCC          E(Eh)            E(eV)
   0   2.0000     -89.049084     -2423.1488
   1   2.0000     -88.969616     -2420.9863
   2   2.0000     -88.969269     -2420.9769
   3   2.0000     -88.962680     -2420.7976
   4   2.0000     -88.962641     -2420.7965
   5   2.0000     -88.962325     -2420.7879
   6   2.0000     -88.961864     -2420.7754
   7   2.0000     -24.822737      -675.4610
   8   2.0000     -24.820605      -675.4030
   9   2.0000     -19.215685      -522.8854
  10   2.0000     -19.215456      -522.8791
  11   2.0000     -14.463168      -393.5628
  12   2.0000     -14.460190      -393.4818
  13   2.0000     -14.457592      -393.4111
  14   2.0000     -14.457492      -393.4084
  15   2.0000     -14.413878      -392.2216
  16   2.0000     -14.413405      -392.2087
  17   2.0000     -14.412273      -392.1779
  18   2.0000     -14.409059      -392.0904
  19   2.0000     -10.438904      -284.0570
  20   2.0000     -10.437014      -284.0056
  21   2.0000     -10.366591      -282.0893
  22   2.0000     -10.366314      -282.0818
  23   2.0000     -10.352129      -281.6957
  24   2.0000     -10.350501      -281.6514
  25   2.0000     -10.346103      -281.5318
  26   2.0000     -10.344584      -281.4904
  27   2.0000     -10.342661      -281.4381
  28   2.0000     -10.342101      -281.4229
  29   2.0000     -10.340330      -281.3747
  30   2.0000     -10.338652      -281.3290
  31   2.0000     -10.320895      -280.8458
  32   2.0000     -10.320551      -280.8365
  33   2.0000     -10.318752      -280.7875
  34   2.0000     -10.318262      -280.7742
  35   2.0000     -10.318223      -280.7731
  36   2.0000     -10.317789      -280.7613
  37   2.0000     -10.317530      -280.7543
  38   2.0000     -10.317384      -280.7503
  39   2.0000     -10.316971      -280.7390
  40   2.0000     -10.316750      -280.7330
  41   2.0000     -10.316681      -280.7312
  42   2.0000     -10.315890      -280.7096
  43   2.0000     -10.313205      -280.6366
  44   2.0000     -10.311211      -280.5823
  45   2.0000     -10.311024      -280.5772
  46   2.0000     -10.310819      -280.5716
  47   2.0000     -10.308124      -280.4983
  48   2.0000     -10.307749      -280.4881
  49   2.0000     -10.307529      -280.4821
  50   2.0000     -10.307460      -280.4803
  51   2.0000     -10.307249      -280.4745
  52   2.0000     -10.305832      -280.4359
  53   2.0000     -10.301744      -280.3247
  54   2.0000     -10.300397      -280.2880
  55   2.0000     -10.295433      -280.1530
  56   2.0000     -10.295183      -280.1462
  57   2.0000     -10.294589      -280.1300
  58   2.0000     -10.294488      -280.1273
  59   2.0000     -10.294376      -280.1242
  60   2.0000     -10.294002      -280.1140
  61   2.0000     -10.293855      -280.1100
  62   2.0000     -10.293762      -280.1075
  63   2.0000     -10.293723      -280.1064
  64   2.0000     -10.293531      -280.1012
  65   2.0000     -10.290358      -280.0149
  66   2.0000     -10.290160      -280.0095
  67   2.0000     -10.286344      -279.9057
  68   2.0000     -10.286014      -279.8967
  69   2.0000     -10.282889      -279.8116
  70   2.0000     -10.282630      -279.8046
  71   2.0000     -10.282356      -279.7971
  72   2.0000     -10.282061      -279.7891
  73   2.0000     -10.280346      -279.7424
  74   2.0000     -10.280182      -279.7380
  75   2.0000     -10.276418      -279.6356
  76   2.0000     -10.276205      -279.6298
  77   2.0000      -8.140126      -221.5041
  78   2.0000      -8.064776      -219.4537
  79   2.0000      -8.064036      -219.4336
  80   2.0000      -8.057919      -219.2671
  81   2.0000      -8.057085      -219.2444
  82   2.0000      -8.056191      -219.2201
  83   2.0000      -8.055984      -219.2145
  84   2.0000      -6.111263      -166.2959
  85   2.0000      -6.103406      -166.0821
  86   2.0000      -6.102904      -166.0685
  87   2.0000      -6.034238      -164.2000
  88   2.0000      -6.033613      -164.1830
  89   2.0000      -6.030187      -164.0897
  90   2.0000      -6.029533      -164.0719
  91   2.0000      -6.027653      -164.0208
  92   2.0000      -6.026833      -163.9985
  93   2.0000      -6.026497      -163.9893
  94   2.0000      -6.025946      -163.9743
  95   2.0000      -6.025791      -163.9701
  96   2.0000      -6.025559      -163.9638
  97   2.0000      -6.023814      -163.9163
  98   2.0000      -6.022994      -163.8940
  99   2.0000      -6.021477      -163.8527
 100   2.0000      -6.021207      -163.8454
 101   2.0000      -6.018843      -163.7810
 102   2.0000      -6.018012      -163.7584
 103   2.0000      -6.017690      -163.7497
 104   2.0000      -6.017585      -163.7468
 105   2.0000      -1.350122       -36.7387
 106   2.0000      -1.335894       -36.3515
 107   2.0000      -1.146780       -31.2055
 108   2.0000      -1.130878       -30.7727
 109   2.0000      -1.130486       -30.7621
 110   2.0000      -1.121065       -30.5057
 111   2.0000      -1.046984       -28.4899
 112   2.0000      -1.025699       -27.9107
 113   2.0000      -1.024779       -27.8856
 114   2.0000      -1.016687       -27.6655
 115   2.0000      -1.016005       -27.6469
 116   2.0000      -1.004203       -27.3258
 117   2.0000      -0.997393       -27.1404
 118   2.0000      -0.996528       -27.1169
 119   2.0000      -0.993764       -27.0417
 120   2.0000      -0.991051       -26.9679
 121   2.0000      -0.989229       -26.9183
 122   2.0000      -0.981682       -26.7129
 123   2.0000      -0.972144       -26.4534
 124   2.0000      -0.966722       -26.3058
 125   2.0000      -0.965626       -26.2760
 126   2.0000      -0.937204       -25.5026
 127   2.0000      -0.930531       -25.3210
 128   2.0000      -0.919975       -25.0338
 129   2.0000      -0.918745       -25.0003
 130   2.0000      -0.901783       -24.5388
 131   2.0000      -0.901147       -24.5214
 132   2.0000      -0.892062       -24.2742
 133   2.0000      -0.890835       -24.2409
 134   2.0000      -0.886275       -24.1168
 135   2.0000      -0.885803       -24.1039
 136   2.0000      -0.866725       -23.5848
 137   2.0000      -0.861310       -23.4375
 138   2.0000      -0.853894       -23.2357
 139   2.0000      -0.849551       -23.1175
 140   2.0000      -0.841680       -22.9033
 141   2.0000      -0.839933       -22.8557
 142   2.0000      -0.836880       -22.7727
 143   2.0000      -0.834729       -22.7141
 144   2.0000      -0.821633       -22.3578
 145   2.0000      -0.808307       -21.9951
 146   2.0000      -0.799958       -21.7680
 147   2.0000      -0.795056       -21.6346
 148   2.0000      -0.790619       -21.5138
 149   2.0000      -0.778299       -21.1786
 150   2.0000      -0.774425       -21.0732
 151   2.0000      -0.769627       -20.9426
 152   2.0000      -0.767144       -20.8750
 153   2.0000      -0.752256       -20.4699
 154   2.0000      -0.751034       -20.4367
 155   2.0000      -0.729076       -19.8392
 156   2.0000      -0.713412       -19.4129
 157   2.0000      -0.712487       -19.3878
 158   2.0000      -0.712020       -19.3751
 159   2.0000      -0.706204       -19.2168
 160   2.0000      -0.702238       -19.1089
 161   2.0000      -0.691677       -18.8215
 162   2.0000      -0.686156       -18.6713
 163   2.0000      -0.683459       -18.5979
 164   2.0000      -0.675234       -18.3741
 165   2.0000      -0.674346       -18.3499
 166   2.0000      -0.673125       -18.3167
 167   2.0000      -0.665706       -18.1148
 168   2.0000      -0.655509       -17.8373
 169   2.0000      -0.653711       -17.7884
 170   2.0000      -0.649148       -17.6642
 171   2.0000      -0.643571       -17.5125
 172   2.0000      -0.637288       -17.3415
 173   2.0000      -0.635687       -17.2979
 174   2.0000      -0.630478       -17.1562
 175   2.0000      -0.627522       -17.0758
 176   2.0000      -0.627326       -17.0704
 177   2.0000      -0.625151       -17.0112
 178   2.0000      -0.621248       -16.9050
 179   2.0000      -0.612542       -16.6681
 180   2.0000      -0.607488       -16.5306
 181   2.0000      -0.594935       -16.1890
 182   2.0000      -0.593794       -16.1580
 183   2.0000      -0.588300       -16.0085
 184   2.0000      -0.587071       -15.9750
 185   2.0000      -0.586740       -15.9660
 186   2.0000      -0.577173       -15.7057
 187   2.0000      -0.575297       -15.6546
 188   2.0000      -0.574333       -15.6284
 189   2.0000      -0.572485       -15.5781
 190   2.0000      -0.568137       -15.4598
 191   2.0000      -0.565752       -15.3949
 192   2.0000      -0.557175       -15.1615
 193   2.0000      -0.552192       -15.0259
 194   2.0000      -0.551546       -15.0083
 195   2.0000      -0.548653       -14.9296
 196   2.0000      -0.544778       -14.8242
 197   2.0000      -0.535191       -14.5633
 198   2.0000      -0.534733       -14.5508
 199   2.0000      -0.533292       -14.5116
 200   2.0000      -0.531545       -14.4641
 201   2.0000      -0.528718       -14.3872
 202   2.0000      -0.525568       -14.3014
 203   2.0000      -0.524369       -14.2688
 204   2.0000      -0.522897       -14.2288
 205   2.0000      -0.521329       -14.1861
 206   2.0000      -0.519994       -14.1498
 207   2.0000      -0.518559       -14.1107
 208   2.0000      -0.515505       -14.0276
 209   2.0000      -0.512341       -13.9415
 210   2.0000      -0.509279       -13.8582
 211   2.0000      -0.508283       -13.8311
 212   2.0000      -0.504588       -13.7305
 213   2.0000      -0.504452       -13.7268
 214   2.0000      -0.499350       -13.5880
 215   2.0000      -0.499226       -13.5846
 216   2.0000      -0.496389       -13.5074
 217   2.0000      -0.494729       -13.4623
 218   2.0000      -0.490698       -13.3526
 219   2.0000      -0.488372       -13.2893
 220   2.0000      -0.486924       -13.2499
 221   2.0000      -0.484636       -13.1876
 222   2.0000      -0.480702       -13.0806
 223   2.0000      -0.478356       -13.0167
 224   2.0000      -0.476709       -12.9719
 225   2.0000      -0.474364       -12.9081
 226   2.0000      -0.472456       -12.8562
 227   2.0000      -0.470419       -12.8008
 228   2.0000      -0.469414       -12.7734
 229   2.0000      -0.463143       -12.6028
 230   2.0000      -0.461455       -12.5568
 231   2.0000      -0.459292       -12.4980
 232   2.0000      -0.456126       -12.4118
 233   2.0000      -0.451343       -12.2817
 234   2.0000      -0.447751       -12.1839
 235   2.0000      -0.446513       -12.1502
 236   2.0000      -0.445992       -12.1360
 237   2.0000      -0.441334       -12.0093
 238   2.0000      -0.439685       -11.9644
 239   2.0000      -0.439107       -11.9487
 240   2.0000      -0.437642       -11.9089
 241   2.0000      -0.437090       -11.8938
 242   2.0000      -0.436197       -11.8695
 243   2.0000      -0.432464       -11.7680
 244   2.0000      -0.431613       -11.7448
 245   2.0000      -0.429757       -11.6943
 246   2.0000      -0.428800       -11.6682
 247   2.0000      -0.428445       -11.6586
 248   2.0000      -0.425001       -11.5649
 249   2.0000      -0.424433       -11.5494
 250   2.0000      -0.420611       -11.4454
 251   2.0000      -0.419092       -11.4041
 252   2.0000      -0.418296       -11.3824
 253   2.0000      -0.417939       -11.3727
 254   2.0000      -0.412608       -11.2276
 255   2.0000      -0.412189       -11.2162
 256   2.0000      -0.406364       -11.0577
 257   2.0000      -0.402779       -10.9602
 258   2.0000      -0.400018       -10.8850
 259   2.0000      -0.396498       -10.7893
 260   2.0000      -0.393824       -10.7165
 261   2.0000      -0.388995       -10.5851
 262   2.0000      -0.378508       -10.2997
 263   2.0000      -0.376091       -10.2340
 264   2.0000      -0.369582       -10.0568
 265   2.0000      -0.366636        -9.9767
 266   2.0000      -0.364454        -9.9173
 267   2.0000      -0.362234        -9.8569
 268   2.0000      -0.350046        -9.5252
 269   2.0000      -0.348910        -9.4943
 270   2.0000      -0.339502        -9.2383
 271   2.0000      -0.336724        -9.1627
 272   2.0000      -0.335597        -9.1321
 273   2.0000      -0.333107        -9.0643
 274   2.0000      -0.329585        -8.9685
 275   2.0000      -0.317463        -8.6386
 276   2.0000      -0.313303        -8.5254
 277   2.0000      -0.299667        -8.1543
 278   2.0000      -0.292844        -7.9687
 279   2.0000      -0.291849        -7.9416
 280   2.0000      -0.287316        -7.8183
 281   2.0000      -0.286915        -7.8073
 282   2.0000      -0.268257        -7.2996
 283   2.0000      -0.236196        -6.4272
 284   0.0000      -0.121615        -3.3093
 285   0.0000      -0.084910        -2.3105
 286   0.0000      -0.082888        -2.2555
 287   0.0000      -0.067693        -1.8420
 288   0.0000      -0.066734        -1.8159

MULLIKEN ATOMIC CHARGES
-----------------------
   0 C :   -0.122972
   1 C :    0.121916
   2 O :   -0.150743
   3 C :    0.008625
   4 C :   -0.006053
   5 C :    0.235490
   6 C :   -0.311804
   7 C :   -0.208839
   8 N :    0.175457
   9 C :   -0.178254
  10 N :    0.156938
  11 C :   -0.018772
  12 C :    0.002092
  13 C :    0.080552
  14 C :    0.035558
  15 C :   -0.029294
  16 C :    0.038495
  17 C :    0.038812
  18 C :   -0.021807
  19 C :    0.044214
  20 C :   -0.092520
  21 C :    0.008546
  22 C :   -0.013899
  23 C :   -0.074399
  24 S :    0.164705
  25 C :   -0.040174
  26 C :   -0.003410
  27 S :    0.165368
  28 C :   -0.056331
  29 C :   -0.170654
  30 S :    0.172628
  31 C :    0.203037
  32 C :   -0.070144
  33 C :   -0.054924
  34 N :   -0.048519
  35 C :    0.154927
  36 C :    0.140730
  37 N :   -0.000793
  38 F :   -0.140354
  39 F :   -0.133028
  40 C :    0.175726
  41 C :    0.001251
  42 C :   -0.025048
  43 N :   -0.330233
  44 S :    0.560545
  45 N :   -0.296709
  46 C :   -0.168903
  47 C :   -0.051046
  48 C :   -0.004176
  49 C :   -0.044462
  50 S :    0.174368
  51 C :   -0.067481
  52 C :   -0.038627
  53 S :    0.165545
  54 C :    0.010521
  55 C :   -0.115767
  56 S :    0.177687
  57 C :    0.085629
  58 C :   -0.129298
  59 C :    0.116015
  60 O :   -0.151447
  61 C :    0.012835
  62 C :   -0.007447
  63 C :    0.256807
  64 C :   -0.340003
  65 C :   -0.205843
  66 N :    0.181415
  67 C :   -0.178855
  68 N :    0.157903
  69 C :   -0.022566
  70 C :    0.004469
  71 C :    0.077890
  72 C :    0.035684
  73 C :   -0.028570
  74 C :    0.039509
  75 C :    0.039520
  76 C :   -0.021455
  77 H :    0.000499
  78 H :   -0.012752
  79 H :    0.001008
  80 H :   -0.007206
  81 H :   -0.007620
  82 H :   -0.020907
  83 H :    0.024828
  84 H :   -0.002060
  85 H :    0.004265
  86 H :    0.000425
  87 H :    0.001607
  88 H :    0.021096
  89 H :    0.000165
  90 H :   -0.013595
  91 H :    0.000430
  92 H :   -0.007166
  93 H :   -0.007205
  94 H :   -0.021603
Sum of atomic charges:   -0.0000000

LOEWDIN ATOMIC CHARGES
----------------------
   0 C :   -0.095270
   1 C :    0.087452
   2 O :   -0.143980
   3 C :   -0.033506
   4 C :   -0.003385
   5 C :    0.059386
   6 C :   -0.137836
   7 C :   -0.035750
   8 N :   -0.044772
   9 C :   -0.020561
  10 N :   -0.050301
  11 C :   -0.017717
  12 C :    0.018178
  13 C :   -0.009938
  14 C :   -0.003028
  15 C :   -0.002595
  16 C :   -0.012659
  17 C :   -0.013467
  18 C :   -0.012725
  19 C :    0.045022
  20 C :   -0.172845
  21 C :   -0.020980
  22 C :   -0.190532
  23 C :   -0.195657
  24 S :    0.455890
  25 C :   -0.219306
  26 C :   -0.184015
  27 S :    0.411373
  28 C :   -0.049051
  29 C :   -0.154313
  30 S :    0.465311
  31 C :   -0.043472
  32 C :   -0.007166
  33 C :   -0.013846
  34 N :   -0.051895
  35 C :    0.063004
  36 C :    0.059922
  37 N :   -0.030126
  38 F :   -0.029053
  39 F :   -0.022810
  40 C :   -0.039988
  41 C :   -0.037374
  42 C :   -0.045655
  43 N :   -0.298014
  44 S :    0.680638
  45 N :   -0.278252
  46 C :   -0.158597
  47 C :   -0.047540
  48 C :   -0.184100
  49 C :   -0.219055
  50 S :    0.464018
  51 C :   -0.198123
  52 C :   -0.185202
  53 S :    0.409669
  54 C :   -0.026725
  55 C :   -0.177112
  56 S :    0.452477
  57 C :    0.042946
  58 C :   -0.092339
  59 C :    0.087033
  60 O :   -0.143370
  61 C :   -0.033270
  62 C :   -0.005071
  63 C :    0.065282
  64 C :   -0.139345
  65 C :   -0.020622
  66 N :   -0.037803
  67 C :   -0.022115
  68 N :   -0.050888
  69 C :   -0.018197
  70 C :    0.017978
  71 C :   -0.009732
  72 C :   -0.002999
  73 C :   -0.002417
  74 C :   -0.012500
  75 C :   -0.013088
  76 C :   -0.012674
  77 H :    0.039408
  78 H :    0.035291
  79 H :    0.035498
  80 H :    0.032396
  81 H :    0.031627
  82 H :    0.030164
  83 H :    0.051284
  84 H :    0.040337
  85 H :    0.033167
  86 H :    0.032833
  87 H :    0.037100
  88 H :    0.045500
  89 H :    0.039315
  90 H :    0.035314
  91 H :    0.035502
  92 H :    0.032491
  93 H :    0.031745
  94 H :    0.030175

  Mayer bond orders larger than 0.100000
B(  0-C ,  1-C ) :   0.9568 B(  0-C ,  5-C ) :   1.0242 B(  0-C , 19-C ) :   1.6553
B(  1-C ,  2-O ) :   2.1971 B(  1-C ,  3-C ) :   0.9395 B(  3-C ,  4-C ) :   1.4165
B(  3-C , 14-C ) :   1.2383 B(  4-C ,  5-C ) :   1.0053 B(  4-C , 11-C ) :   1.2608
B(  5-C ,  6-C ) :   1.6603 B(  6-C ,  7-C ) :   1.1479 B(  6-C ,  9-C ) :   1.1328
B(  7-C ,  8-N ) :   3.0314 B(  9-C , 10-N ) :   2.9983 B( 11-C , 12-C ) :   1.4669
B( 11-C , 77-H ) :   0.9873 B( 12-C , 13-C ) :   1.2238 B( 12-C , 78-H ) :   0.9948
B( 13-C , 14-C ) :   1.2427 B( 13-C , 18-C ) :   1.2397 B( 14-C , 15-C ) :   1.2735
B( 15-C , 16-C ) :   1.4759 B( 15-C , 79-H ) :   0.9876 B( 16-C , 17-C ) :   1.2545
B( 16-C , 80-H ) :   0.9874 B( 17-C , 18-C ) :   1.4950 B( 17-C , 81-H ) :   0.9895
B( 18-C , 82-H ) :   0.9982 B( 19-C , 20-C ) :   1.1383 B( 19-C , 83-H ) :   0.9480
B( 20-C , 21-C ) :   1.4512 B( 20-C , 24-S ) :   1.0838 B( 21-C , 22-C ) :   1.2907
B( 21-C , 84-H ) :   1.0049 B( 22-C , 23-C ) :   1.4207 B( 22-C , 27-S ) :   1.0432
B( 23-C , 24-S ) :   1.0890 B( 23-C , 25-C ) :   1.3267 B( 25-C , 26-C ) :   1.4154
B( 25-C , 30-S ) :   1.0412 B( 26-C , 27-S ) :   1.0513 B( 26-C , 28-C ) :   1.2607
B( 28-C , 29-C ) :   1.4680 B( 28-C , 85-H ) :   0.9913 B( 29-C , 30-S ) :   1.0933
B( 29-C , 31-C ) :   1.1874 B( 31-C , 32-C ) :   1.3009 B( 31-C , 40-C ) :   0.1245
B( 31-C , 42-C ) :   1.1847 B( 32-C , 33-C ) :   1.1148 B( 32-C , 37-N ) :   1.4227
B( 33-C , 34-N ) :   1.3782 B( 33-C , 40-C ) :   1.2909 B( 34-N , 35-C ) :   1.6550
B( 35-C , 36-C ) :   1.1045 B( 35-C , 39-F ) :   1.1904 B( 36-C , 37-N ) :   1.6706
B( 36-C , 38-F ) :   1.1743 B( 40-C , 41-C ) :   1.2020 B( 40-C , 46-C ) :   1.1985
B( 41-C , 42-C ) :   1.1150 B( 41-C , 45-N ) :   1.4992 B( 42-C , 43-N ) :   1.4688
B( 43-N , 44-S ) :   1.2755 B( 43-N , 45-N ) :   0.1525 B( 44-S , 45-N ) :   1.2822
B( 46-C , 47-C ) :   1.4710 B( 46-C , 50-S ) :   1.0851 B( 47-C , 48-C ) :   1.2676
B( 47-C , 86-H ) :   0.9862 B( 48-C , 49-C ) :   1.4265 B( 48-C , 53-S ) :   1.0459
B( 49-C , 50-S ) :   1.0307 B( 49-C , 51-C ) :   1.3206 B( 51-C , 52-C ) :   1.4212
B( 51-C , 56-S ) :   1.0941 B( 52-C , 53-S ) :   1.0460 B( 52-C , 54-C ) :   1.3412
B( 54-C , 55-C ) :   1.4510 B( 54-C , 87-H ) :   0.9877 B( 55-C , 56-S ) :   1.0809
B( 55-C , 57-C ) :   1.1359 B( 57-C , 58-C ) :   1.6732 B( 57-C , 88-H ) :   0.9274
B( 58-C , 59-C ) :   0.9596 B( 58-C , 63-C ) :   1.0335 B( 59-C , 60-O ) :   2.1921
B( 59-C , 61-C ) :   0.9379 B( 61-C , 62-C ) :   1.4194 B( 61-C , 72-C ) :   1.2362
B( 62-C , 63-C ) :   0.9994 B( 62-C , 69-C ) :   1.2594 B( 63-C , 64-C ) :   1.6475
B( 64-C , 65-C ) :   1.1624 B( 64-C , 67-C ) :   1.1280 B( 65-C , 66-N ) :   3.0142
B( 67-C , 68-N ) :   2.9953 B( 69-C , 70-C ) :   1.4684 B( 69-C , 89-H ) :   0.9864
B( 70-C , 71-C ) :   1.2256 B( 70-C , 90-H ) :   0.9935 B( 71-C , 72-C ) :   1.2406
B( 71-C , 76-C ) :   1.2400 B( 72-C , 73-C ) :   1.2746 B( 73-C , 74-C ) :   1.4767
B( 73-C , 91-H ) :   0.9863 B( 74-C , 75-C ) :   1.2543 B( 74-C , 92-H ) :   0.9871
B( 75-C , 76-C ) :   1.4965 B( 75-C , 93-H ) :   0.9888 B( 76-C , 94-H ) :   0.9973

-----------------------------------------------------------------------------
         ABSORPTION SPECTRUM VIA TRANSITION ELECTRIC DIPOLE MOMENTS
-----------------------------------------------------------------------------
State   Energy  Wavelength   fosc         T2         TX        TY        TZ
        (cm-1)    (nm)                  (au**2)     (au)      (au)      (au)
-----------------------------------------------------------------------------
   0   10083.8    991.7   1.093731235  35.70780   4.82464   0.95973  -3.39257
   1   18102.6    552.4   0.073116128   1.32968   0.14700   0.54235   1.00694
   2   19226.7    520.1   0.752877073  12.89122   3.11087   0.95001  -1.52026
   3   19606.3    510.0   0.082343346   1.38264   0.44853   0.94629   0.53478
   4   20488.9    488.1   0.034077823   0.54756   0.23302   0.43059   0.55484
   5   20582.6    485.8   0.007078377   0.11322  -0.28379  -0.12411  -0.13145
   6   23614.0    423.5   0.656346323   9.15037  -2.48602  -0.72045   1.56557
   7   24057.5    415.7   0.072241112   0.98857   0.90329   0.29154   0.29606
   8   25419.8    393.4   0.068661650   0.88924  -0.78082  -0.44431   0.28663
   9   26431.1    378.3   0.058769866   0.73201   0.82666  -0.15734   0.15453
  10   26530.9    376.9   0.141192516   1.75201   1.28483   0.26300   0.17903
  11   26666.6    375.0   0.009532959   0.11769   0.30710  -0.03324   0.14923
  12   26944.8    371.1   0.146081626   1.78483   0.39932   0.84968  -0.95048
  13   27280.7    366.6   0.047224424   0.56988  -0.17168   0.37467   0.63248
  14   28513.6    350.7   0.011316870   0.13066  -0.26308   0.23524  -0.07820
  15   28575.3    350.0   0.060271118   0.69437   0.33056   0.57607   0.50324
  16   29631.4    337.5   0.094723798   1.05241  -0.08283   0.76822   0.67482
  17   29750.9    336.1   0.064218518   0.71062  -0.35193  -0.75805  -0.11009
  18   29998.0    333.4   0.049636590   0.54473   0.61486  -0.39957  -0.08380
  19   30299.7    330.0   0.073621313   0.79991  -0.27053  -0.55444  -0.64755
  20   30488.3    328.0   0.006624646   0.07153   0.14702   0.05232   0.21721
  21   30563.1    327.2   0.002896279   0.03120  -0.03286  -0.12350   0.12192
  22   30874.9    323.9   0.104158005   1.11061   0.13553  -1.04038  -0.09922
  23   30989.6    322.7   0.032835388   0.34882  -0.39628   0.24064  -0.36589
  24   31087.2    321.7   0.193515674   2.04932   1.32165   0.23888  -0.49547
  25   31221.0    320.3   0.090883591   0.95833   0.28814   0.08984  -0.93125
  26   31355.4    318.9   0.025349349   0.26615   0.25873  -0.43619  -0.09460
  27   31615.9    316.3   0.007733596   0.08053  -0.25958  -0.00673   0.11447
  28   31744.0    315.0   0.020921001   0.21697   0.21487  -0.36575   0.19243
  29   32215.0    310.4   0.012867625   0.13150  -0.19301  -0.11044  -0.28644
  30   32431.9    308.3   0.059657276   0.60557   0.46169  -0.48529  -0.39612
  31   32774.0    305.1   0.280201105   2.81459  -1.52616  -0.45858   0.52454
  32   32916.4    303.8   0.272624843   2.72664   1.34089  -0.46696  -0.84297
  33   33045.9    302.6   0.110131179   1.09716  -0.76121  -0.20195  -0.69060
  34   33113.8    302.0   0.381264642   3.79048   0.23786  -0.87651   1.72210
  35   33618.0    297.5   0.379354337   3.71491  -0.86271  -1.69118   0.33252
  36   33847.5    295.4   0.346092234   3.36620  -1.80164  -0.16058   0.30744
  37   34058.4    293.6   0.048021761   0.46418   0.56181   0.37858  -0.07227
  38   34412.5    290.6   0.219771290   2.10247   0.74712  -0.55055   1.11408
  39   34923.6    286.3   0.282932631   2.66710  -0.87684  -1.18354  -0.70534
  40   35490.3    281.8   0.122202728   1.13357   0.44405   0.50359   0.82630
  41   35652.8    280.5   0.003636471   0.03358   0.12302  -0.06417  -0.11970
  42   35903.9    278.5   0.061748626   0.56619  -0.59396  -0.07168   0.45636
  43   36589.9    273.3   0.005063750   0.04556  -0.12701  -0.11220  -0.12977
  44   36600.4    273.2   0.000874690   0.00787  -0.00506   0.03368   0.08190
  45   36994.9    270.3   0.012930668   0.11507  -0.19304  -0.27452   0.04944
  46   37161.9    269.1   0.022980381   0.20358  -0.14023   0.42371   0.06625
  47   37507.2    266.6   0.123243606   1.08175  -0.60765  -0.37819  -0.75464
  48   37646.6    265.6   0.337307258   2.94969  -0.72801  -1.15953  -1.03691
  49   37857.2    264.2   0.004243921   0.03691   0.00559  -0.16238  -0.10250
  50   37905.7    263.8   0.009471044   0.08226  -0.20295   0.19474   0.05609
  51   38437.8    260.2   0.009102126   0.07796   0.15471  -0.04456  -0.22812
  52   38982.7    256.5   0.001565955   0.01322   0.04097  -0.10584  -0.01855
  53   39163.7    255.3   0.011330861   0.09525  -0.16710   0.13726   0.22019
  54   39237.8    254.9   0.005846175   0.04905   0.16063   0.05967  -0.14032
  55   39660.2    252.1   0.028894648   0.23985   0.01133   0.47118  -0.13307
  56   39778.9    251.4   0.028904563   0.23922   0.11209  -0.45580   0.13747
  57   39968.8    250.2   0.037460144   0.30855   0.28287  -0.21137  -0.42879
  58   40128.3    249.2   0.045908671   0.37663  -0.44106  -0.42640  -0.01679

FINAL SINGLE POINT ENERGY     -5791.823649335039

DIPOLE MOMENT
-------------
                                X             Y             Z
Electronic contribution:     16.38623       4.96446      39.02175
Nuclear contribution   :    -18.14646      -2.87927     -41.36397
                        -----------------------------------------
Total Dipole Moment    :     -1.76023       2.08519      -2.34222
                        -----------------------------------------
Magnitude (a.u.)       :      3.59616
Magnitude (Debye)      :      9.14072

Rotational constants in cm-1:     0.001914     0.000167     0.000159
Rotational constants in MHz :    57.391254     5.012470     4.769915

                             ****ORCA TERMINATED NORMALLY****
TOTAL RUN TIME: 0 days 0 hours 9 minutes 34 seconds 475 msec
