                         Program Version 4.2.0 -  RELEASE  -
|  1> # ORCA input file
|  2> # SCF done       -196.125425662975          0.000383695550
|  3> ! CAM-B3LYP def2-SVP def2/J RIJCOSX Grid4 TightSCF
|  4> %maxcore 5000
|  5> %tddft
|  6>     Mode sTDDFT
|  7>     Ethresh 5.0
|  8>     maxcore 5000
|  9> end
| 10>
| 11> %pal
| 12>   nprocs 6
| 13>   end
| 14> * xyz 0 1
| 15>    C       -0.14216         0.83505        -1.37276
| 16>    C        0.24393         1.81534        -2.28270
| 17>    C       -0.43159         3.14938        -2.25110
| 18>    C        1.25600         1.55951        -3.22055
| 19>    C        1.66565         2.61349        -4.19910
| 20>    C        1.88149         0.31739        -3.23411
| 21>    C        1.49605        -0.64628        -2.32483
| 22>    C        0.47929        -0.40221        -1.38933
| 23>    C        0.28936        -1.60233        -0.58184
| 24>    C       -0.71170        -1.77607         0.33935
| 25>    C       -1.65985        -0.78420         0.66685
| 26>    N       -2.45892        -0.02349         0.98597
| 27>    C       -0.98504        -2.95402         1.06607
| 28>    N       -1.29783        -3.87017         1.68517
| 29>    C        1.29833        -2.56990        -0.98357
| 30>    C        2.02307        -2.01048        -2.14829
| 31>    O        2.88112        -2.52915        -2.83661
| 32>    C        1.54908        -3.72335        -0.28582
| 33>    C        2.47113        -4.76221        -0.49455
| 34>    C        3.36357        -5.04384        -1.52735
| 35>    C        4.09459        -6.19047        -1.29465
| 36>    C        3.77439        -6.81342        -0.07840
| 37>    S        2.55303        -5.98795         0.77937
| 38>    C        4.59446        -7.95099         0.08304
| 39>    C        5.43961        -8.06436        -1.02491
| 40>    C        5.18035        -6.95437        -2.01588
| 41>    C        6.42429        -6.08778        -2.22750
| 42>    C        4.67284        -7.50619        -3.35138
| 43>    C        6.30545        -9.14113        -0.92880
| 44>    C        6.13010        -9.85432         0.24996
| 45>    S        4.85808        -9.17891         1.24633
| 46>    C        6.89345       -10.98550         0.67179
| 47>    C        6.68644       -11.66680         1.86707
| 48>    F        5.68668       -11.28364         2.68334
| 49>    C        7.46832       -12.74161         2.30215
| 50>    F        7.13809       -13.28178         3.49028
| 51>    C        8.55171       -13.25277         1.59486
| 52>    C        8.77431       -12.59670         0.35584
| 53>    C        7.97110       -11.50504        -0.09242
| 54>    N        8.44659       -11.13016        -1.28835
| 55>    N        9.44314       -11.94039        -1.51521
| 56>    N        9.69428       -12.82567        -0.59120
| 57>    C       10.22313       -11.85761        -2.71161
| 58>    C        9.38673       -14.31415         2.05911
| 59>    C       10.52464       -14.79607         1.42534
| 60>    C       11.14085       -15.80372         2.14827
| 61>    C       10.46927       -16.10402         3.33690
| 62>    S        9.07546       -15.13945         3.57215
| 63>    C       11.17115       -17.12451         4.01466
| 64>    C       12.30283       -17.47271         3.26542
| 65>    C       12.37241       -16.66399         1.99225
| 66>    C       13.64312       -15.81332         1.92496
| 67>    C       12.26133       -17.57717         0.76746
| 68>    C       13.04312       -18.48135         3.84812
| 69>    C       12.49110       -18.92490         5.04874
| 70>    S       11.03401       -18.02835         5.45626
| 71>    C       12.95877       -19.89104         5.95779
| 72>    C       13.91096       -20.85650         5.79631
| 73>    C       14.55079       -21.43446         7.01114
| 74>    O       14.17006       -21.31571         8.15423
| 75>    C       15.75804       -22.12224         6.51884
| 76>    C       15.77957       -22.08324         5.11391
| 77>    C       16.84502       -22.64436         4.43290
| 78>    C       17.87934       -23.24590         5.14516
| 79>    C       17.84490       -23.29385         6.54716
| 80>    C       16.77477       -22.72450         7.23053
| 81>    C       18.95096       -23.95090         7.30940
| 82>    C       19.03043       -23.84430         4.40102
| 83>    C       14.56213       -21.42732         4.64162
| 84>    C       14.03488       -21.56261         3.38111
| 85>    C       12.73634       -21.15310         3.02191
| 86>    N       11.67831       -20.86508         2.68091
| 87>    C       14.70267       -22.19361         2.31375
| 88>    N       15.21096       -22.66549         1.39814
| 89>    H       -0.91999         1.05916        -0.66091
| 90>    H       -1.18962         3.17916        -1.47336
| 91>    H       -0.90693         3.36063        -3.20841
| 92>    H        0.29310         3.94084        -2.06199
| 93>    H        0.81838         2.91651        -4.81343
| 94>    H        2.45430         2.24774        -4.85099
| 95>    H        2.02727         3.49973        -3.67837
| 96>    H        2.66446         0.09826        -3.94491
| 97>    H        0.95903        -3.86368         0.61269
| 98>    H        3.45162        -4.40872        -2.38919
| 99>    H        6.78742        -5.70843        -1.27507
|100>    H        6.18326        -5.24430        -2.86915
|101>    H        7.21253        -6.67409        -2.69315
|102>    H        3.78718        -8.11806        -3.19600
|103>    H        5.44127        -8.11704        -3.81859
|104>    H        4.41794        -6.68634        -4.01790
|105>    H        7.04596        -9.42293        -1.65305
|106>    H        9.72020       -11.18143        -3.39841
|107>    H       10.31690       -12.84872        -3.15406
|108>    H       11.22051       -11.47808        -2.48380
|109>    H       10.85667       -14.39954         0.48464
|110>    H       13.71630       -15.17101         2.79982
|111>    H       13.62585       -15.18977         1.03474
|112>    H       14.52051       -16.45430         1.88789
|113>    H       11.38134       -18.21029         0.84862
|114>    H       13.13760       -18.21684         0.69762
|115>    H       12.18571       -16.98013        -0.13782
|116>    H       13.97124       -18.86050         3.46014
|117>    H       12.56366       -19.81907         6.96714
|118>    H       16.89415       -22.61370         3.35561
|119>    H       16.73004       -22.74963         8.30907
|120>    H       19.90463       -23.47050         7.09267
|121>    H       19.03987       -24.99968         7.02780
|122>    H       18.76809       -23.89299         8.37884
|123>    H       18.90314       -23.72061         3.32912
|124>    H       19.11458       -24.90816         4.62001
|125>    H       19.96639       -23.37239         4.69866
|126> *
|127>
|128>                          ****END OF INPUT****

CARTESIAN COORDINATES (ANGSTROEM)
---------------------------------
  C     -0.142160    0.835050   -1.372760
  C      0.243930    1.815340   -2.282700
  C     -0.431590    3.149380   -2.251100
  C      1.256000    1.559510   -3.220550
  C      1.665650    2.613490   -4.199100
  C      1.881490    0.317390   -3.234110
  C      1.496050   -0.646280   -2.324830
  C      0.479290   -0.402210   -1.389330
  C      0.289360   -1.602330   -0.581840
  C     -0.711700   -1.776070    0.339350
  C     -1.659850   -0.784200    0.666850
  N     -2.458920   -0.023490    0.985970
  C     -0.985040   -2.954020    1.066070
  N     -1.297830   -3.870170    1.685170
  C      1.298330   -2.569900   -0.983570
  C      2.023070   -2.010480   -2.148290
  O      2.881120   -2.529150   -2.836610
  C      1.549080   -3.723350   -0.285820
  C      2.471130   -4.762210   -0.494550
  C      3.363570   -5.043840   -1.527350
  C      4.094590   -6.190470   -1.294650
  C      3.774390   -6.813420   -0.078400
  S      2.553030   -5.987950    0.779370
  C      4.594460   -7.950990    0.083040
  C      5.439610   -8.064360   -1.024910
  C      5.180350   -6.954370   -2.015880
  C      6.424290   -6.087780   -2.227500
  C      4.672840   -7.506190   -3.351380
  C      6.305450   -9.141130   -0.928800
  C      6.130100   -9.854320    0.249960
  S      4.858080   -9.178910    1.246330
  C      6.893450  -10.985500    0.671790
  C      6.686440  -11.666800    1.867070
  F      5.686680  -11.283640    2.683340
  C      7.468320  -12.741610    2.302150
  F      7.138090  -13.281780    3.490280
  C      8.551710  -13.252770    1.594860
  C      8.774310  -12.596700    0.355840
  C      7.971100  -11.505040   -0.092420
  N      8.446590  -11.130160   -1.288350
  N      9.443140  -11.940390   -1.515210
  N      9.694280  -12.825670   -0.591200
  C     10.223130  -11.857610   -2.711610
  C      9.386730  -14.314150    2.059110
  C     10.524640  -14.796070    1.425340
  C     11.140850  -15.803720    2.148270
  C     10.469270  -16.104020    3.336900
  S      9.075460  -15.139450    3.572150
  C     11.171150  -17.124510    4.014660
  C     12.302830  -17.472710    3.265420
  C     12.372410  -16.663990    1.992250
  C     13.643120  -15.813320    1.924960
  C     12.261330  -17.577170    0.767460
  C     13.043120  -18.481350    3.848120
  C     12.491100  -18.924900    5.048740
  S     11.034010  -18.028350    5.456260
  C     12.958770  -19.891040    5.957790
  C     13.910960  -20.856500    5.796310
  C     14.550790  -21.434460    7.011140
  O     14.170060  -21.315710    8.154230
  C     15.758040  -22.122240    6.518840
  C     15.779570  -22.083240    5.113910
  C     16.845020  -22.644360    4.432900
  C     17.879340  -23.245900    5.145160
  C     17.844900  -23.293850    6.547160
  C     16.774770  -22.724500    7.230530
  C     18.950960  -23.950900    7.309400
  C     19.030430  -23.844300    4.401020
  C     14.562130  -21.427320    4.641620
  C     14.034880  -21.562610    3.381110
  C     12.736340  -21.153100    3.021910
  N     11.678310  -20.865080    2.680910
  C     14.702670  -22.193610    2.313750
  N     15.210960  -22.665490    1.398140
  H     -0.919990    1.059160   -0.660910
  H     -1.189620    3.179160   -1.473360
  H     -0.906930    3.360630   -3.208410
  H      0.293100    3.940840   -2.061990
  H      0.818380    2.916510   -4.813430
  H      2.454300    2.247740   -4.850990
  H      2.027270    3.499730   -3.678370
  H      2.664460    0.098260   -3.944910
  H      0.959030   -3.863680    0.612690
  H      3.451620   -4.408720   -2.389190
  H      6.787420   -5.708430   -1.275070
  H      6.183260   -5.244300   -2.869150
  H      7.212530   -6.674090   -2.693150
  H      3.787180   -8.118060   -3.196000
  H      5.441270   -8.117040   -3.818590
  H      4.417940   -6.686340   -4.017900
  H      7.045960   -9.422930   -1.653050
  H      9.720200  -11.181430   -3.398410
  H     10.316900  -12.848720   -3.154060
  H     11.220510  -11.478080   -2.483800
  H     10.856670  -14.399540    0.484640
  H     13.716300  -15.171010    2.799820
  H     13.625850  -15.189770    1.034740
  H     14.520510  -16.454300    1.887890
  H     11.381340  -18.210290    0.848620
  H     13.137600  -18.216840    0.697620
  H     12.185710  -16.980130   -0.137820
  H     13.971240  -18.860500    3.460140
  H     12.563660  -19.819070    6.967140
  H     16.894150  -22.613700    3.355610
  H     16.730040  -22.749630    8.309070
  H     19.904630  -23.470500    7.092670
  H     19.039870  -24.999680    7.027800
  H     18.768090  -23.892990    8.378840
  H     18.903140  -23.720610    3.329120
  H     19.114580  -24.908160    4.620010
  H     19.966390  -23.372390    4.698660

 Total Charge           Charge          ....    0
 Multiplicity           Mult            ....    1
 Number of Electrons    NEL             ....  538
 Basis Dimension        Dim             .... 1237

ORBITAL ENERGIES
----------------

  NO   OCC          E(Eh)            E(eV)
   0   2.0000     -88.969508     -2420.9834
   1   2.0000     -88.968264     -2420.9495
   2   2.0000     -88.967840     -2420.9380
   3   2.0000     -88.966941     -2420.9135
   4   2.0000     -24.805019      -674.9789
   5   2.0000     -24.804465      -674.9638
   6   2.0000     -19.208755      -522.6968
   7   2.0000     -19.204150      -522.5715
   8   2.0000     -14.557724      -396.1358
   9   2.0000     -14.460999      -393.5038
  10   2.0000     -14.459569      -393.4649
  11   2.0000     -14.408020      -392.0622
  12   2.0000     -14.407934      -392.0598
  13   2.0000     -14.405680      -391.9985
  14   2.0000     -14.402862      -391.9218
  15   2.0000     -10.380759      -282.4748
  16   2.0000     -10.380260      -282.4612
  17   2.0000     -10.359399      -281.8936
  18   2.0000     -10.355024      -281.7745
  19   2.0000     -10.337717      -281.3036
  20   2.0000     -10.333553      -281.1903
  21   2.0000     -10.332561      -281.1633
  22   2.0000     -10.329641      -281.0838
  23   2.0000     -10.328907      -281.0638
  24   2.0000     -10.324690      -280.9491
  25   2.0000     -10.324215      -280.9362
  26   2.0000     -10.317993      -280.7669
  27   2.0000     -10.317696      -280.7588
  28   2.0000     -10.317458      -280.7523
  29   2.0000     -10.317383      -280.7503
  30   2.0000     -10.316450      -280.7249
  31   2.0000     -10.315913      -280.7103
  32   2.0000     -10.312313      -280.6123
  33   2.0000     -10.311603      -280.5930
  34   2.0000     -10.311545      -280.5914
  35   2.0000     -10.309685      -280.5408
  36   2.0000     -10.309068      -280.5240
  37   2.0000     -10.308810      -280.5170
  38   2.0000     -10.307848      -280.4908
  39   2.0000     -10.306813      -280.4626
  40   2.0000     -10.306015      -280.4409
  41   2.0000     -10.305408      -280.4244
  42   2.0000     -10.298093      -280.2254
  43   2.0000     -10.297355      -280.2053
  44   2.0000     -10.294144      -280.1179
  45   2.0000     -10.291964      -280.0586
  46   2.0000     -10.291108      -280.0353
  47   2.0000     -10.290862      -280.0286
  48   2.0000     -10.290334      -280.0142
  49   2.0000     -10.289112      -279.9810
  50   2.0000     -10.288403      -279.9617
  51   2.0000     -10.286051      -279.8977
  52   2.0000     -10.284253      -279.8487
  53   2.0000     -10.282933      -279.8128
  54   2.0000     -10.282701      -279.8065
  55   2.0000     -10.281520      -279.7744
  56   2.0000     -10.281264      -279.7674
  57   2.0000     -10.281133      -279.7639
  58   2.0000     -10.280080      -279.7352
  59   2.0000     -10.279846      -279.7288
  60   2.0000     -10.279712      -279.7252
  61   2.0000     -10.279704      -279.7250
  62   2.0000     -10.279263      -279.7130
  63   2.0000     -10.278590      -279.6947
  64   2.0000     -10.278384      -279.6890
  65   2.0000     -10.277422      -279.6629
  66   2.0000     -10.272792      -279.5369
  67   2.0000     -10.272032      -279.5162
  68   2.0000     -10.271550      -279.5031
  69   2.0000     -10.269206      -279.4393
  70   2.0000     -10.268614      -279.4232
  71   2.0000     -10.267262      -279.3864
  72   2.0000     -10.267231      -279.3856
  73   2.0000     -10.262439      -279.2551
  74   2.0000      -8.064603      -219.4490
  75   2.0000      -8.063309      -219.4138
  76   2.0000      -8.062322      -219.3869
  77   2.0000      -8.061396      -219.3617
  78   2.0000      -6.033836      -164.1890
  79   2.0000      -6.032485      -164.1523
  80   2.0000      -6.031736      -164.1319
  81   2.0000      -6.030820      -164.1070
  82   2.0000      -6.029823      -164.0798
  83   2.0000      -6.028504      -164.0439
  84   2.0000      -6.027437      -164.0149
  85   2.0000      -6.026757      -163.9964
  86   2.0000      -6.026509      -163.9896
  87   2.0000      -6.025528      -163.9630
  88   2.0000      -6.024396      -163.9321
  89   2.0000      -6.023477      -163.9071
  90   2.0000      -1.327679       -36.1280
  91   2.0000      -1.309780       -35.6409
  92   2.0000      -1.236638       -33.6506
  93   2.0000      -1.122395       -30.5419
  94   2.0000      -1.118972       -30.4488
  95   2.0000      -1.020233       -27.7619
  96   2.0000      -1.019697       -27.7474
  97   2.0000      -1.010780       -27.5047
  98   2.0000      -1.009405       -27.4673
  99   2.0000      -1.007430       -27.4136
 100   2.0000      -1.003604       -27.3095
 101   2.0000      -0.988260       -26.8919
 102   2.0000      -0.987042       -26.8588
 103   2.0000      -0.986647       -26.8480
 104   2.0000      -0.982872       -26.7453
 105   2.0000      -0.980512       -26.6811
 106   2.0000      -0.977067       -26.5873
 107   2.0000      -0.948915       -25.8213
 108   2.0000      -0.947414       -25.7804
 109   2.0000      -0.941784       -25.6272
 110   2.0000      -0.934213       -25.4212
 111   2.0000      -0.925867       -25.1941
 112   2.0000      -0.897012       -24.4089
 113   2.0000      -0.896158       -24.3857
 114   2.0000      -0.894107       -24.3299
 115   2.0000      -0.889517       -24.2050
 116   2.0000      -0.887302       -24.1447
 117   2.0000      -0.866051       -23.5665
 118   2.0000      -0.864754       -23.5311
 119   2.0000      -0.862633       -23.4734
 120   2.0000      -0.851630       -23.1740
 121   2.0000      -0.837277       -22.7835
 122   2.0000      -0.835634       -22.7388
 123   2.0000      -0.834320       -22.7030
 124   2.0000      -0.827930       -22.5291
 125   2.0000      -0.827012       -22.5041
 126   2.0000      -0.822014       -22.3682
 127   2.0000      -0.819271       -22.2935
 128   2.0000      -0.802744       -21.8438
 129   2.0000      -0.801079       -21.7985
 130   2.0000      -0.792539       -21.5661
 131   2.0000      -0.779093       -21.2002
 132   2.0000      -0.777390       -21.1539
 133   2.0000      -0.768481       -20.9114
 134   2.0000      -0.758106       -20.6291
 135   2.0000      -0.749990       -20.4083
 136   2.0000      -0.747325       -20.3358
 137   2.0000      -0.742884       -20.2149
 138   2.0000      -0.733059       -19.9475
 139   2.0000      -0.731927       -19.9167
 140   2.0000      -0.709907       -19.3175
 141   2.0000      -0.706411       -19.2224
 142   2.0000      -0.706356       -19.2209
 143   2.0000      -0.698652       -19.0113
 144   2.0000      -0.689152       -18.7528
 145   2.0000      -0.681306       -18.5393
 146   2.0000      -0.674066       -18.3423
 147   2.0000      -0.670415       -18.2429
 148   2.0000      -0.667270       -18.1573
 149   2.0000      -0.662369       -18.0240
 150   2.0000      -0.655839       -17.8463
 151   2.0000      -0.647196       -17.6111
 152   2.0000      -0.644348       -17.5336
 153   2.0000      -0.636452       -17.3187
 154   2.0000      -0.634063       -17.2537
 155   2.0000      -0.631265       -17.1776
 156   2.0000      -0.627937       -17.0870
 157   2.0000      -0.627629       -17.0786
 158   2.0000      -0.625275       -17.0146
 159   2.0000      -0.622238       -16.9320
 160   2.0000      -0.621617       -16.9151
 161   2.0000      -0.603719       -16.4280
 162   2.0000      -0.599670       -16.3178
 163   2.0000      -0.593960       -16.1625
 164   2.0000      -0.590698       -16.0737
 165   2.0000      -0.587516       -15.9871
 166   2.0000      -0.582302       -15.8452
 167   2.0000      -0.577472       -15.7138
 168   2.0000      -0.575466       -15.6592
 169   2.0000      -0.566500       -15.4153
 170   2.0000      -0.563532       -15.3345
 171   2.0000      -0.556504       -15.1432
 172   2.0000      -0.554225       -15.0812
 173   2.0000      -0.552706       -15.0399
 174   2.0000      -0.551904       -15.0181
 175   2.0000      -0.542419       -14.7600
 176   2.0000      -0.539331       -14.6760
 177   2.0000      -0.534294       -14.5389
 178   2.0000      -0.534100       -14.5336
 179   2.0000      -0.533554       -14.5187
 180   2.0000      -0.531690       -14.4680
 181   2.0000      -0.531397       -14.4600
 182   2.0000      -0.531124       -14.4526
 183   2.0000      -0.528413       -14.3789
 184   2.0000      -0.525079       -14.2881
 185   2.0000      -0.522419       -14.2158
 186   2.0000      -0.521176       -14.1819
 187   2.0000      -0.518241       -14.1021
 188   2.0000      -0.517477       -14.0813
 189   2.0000      -0.517047       -14.0696
 190   2.0000      -0.515709       -14.0332
 191   2.0000      -0.514761       -14.0074
 192   2.0000      -0.510323       -13.8866
 193   2.0000      -0.506756       -13.7895
 194   2.0000      -0.505267       -13.7490
 195   2.0000      -0.503480       -13.7004
 196   2.0000      -0.496711       -13.5162
 197   2.0000      -0.494841       -13.4653
 198   2.0000      -0.490724       -13.3533
 199   2.0000      -0.486616       -13.2415
 200   2.0000      -0.486208       -13.2304
 201   2.0000      -0.485324       -13.2063
 202   2.0000      -0.485283       -13.2052
 203   2.0000      -0.483064       -13.1448
 204   2.0000      -0.481935       -13.1141
 205   2.0000      -0.481707       -13.1079
 206   2.0000      -0.481140       -13.0925
 207   2.0000      -0.478202       -13.0125
 208   2.0000      -0.476995       -12.9797
 209   2.0000      -0.474314       -12.9067
 210   2.0000      -0.472647       -12.8614
 211   2.0000      -0.470478       -12.8023
 212   2.0000      -0.469575       -12.7778
 213   2.0000      -0.468950       -12.7608
 214   2.0000      -0.467785       -12.7291
 215   2.0000      -0.465384       -12.6637
 216   2.0000      -0.464896       -12.6505
 217   2.0000      -0.461268       -12.5517
 218   2.0000      -0.455945       -12.4069
 219   2.0000      -0.444104       -12.0847
 220   2.0000      -0.442415       -12.0387
 221   2.0000      -0.440395       -11.9838
 222   2.0000      -0.439880       -11.9697
 223   2.0000      -0.438911       -11.9434
 224   2.0000      -0.437584       -11.9073
 225   2.0000      -0.437441       -11.9034
 226   2.0000      -0.437133       -11.8950
 227   2.0000      -0.435564       -11.8523
 228   2.0000      -0.435294       -11.8449
 229   2.0000      -0.434610       -11.8263
 230   2.0000      -0.432501       -11.7690
 231   2.0000      -0.430821       -11.7232
 232   2.0000      -0.430778       -11.7221
 233   2.0000      -0.429935       -11.6991
 234   2.0000      -0.429034       -11.6746
 235   2.0000      -0.425304       -11.5731
 236   2.0000      -0.420375       -11.4390
 237   2.0000      -0.419696       -11.4205
 238   2.0000      -0.416226       -11.3261
 239   2.0000      -0.413333       -11.2474
 240   2.0000      -0.409821       -11.1518
 241   2.0000      -0.408285       -11.1100
 242   2.0000      -0.407972       -11.1015
 243   2.0000      -0.407644       -11.0926
 244   2.0000      -0.405876       -11.0444
 245   2.0000      -0.404587       -11.0094
 246   2.0000      -0.403704       -10.9853
 247   2.0000      -0.403438       -10.9781
 248   2.0000      -0.397794       -10.8245
 249   2.0000      -0.395003       -10.7486
 250   2.0000      -0.387900       -10.5553
 251   2.0000      -0.373328       -10.1588
 252   2.0000      -0.368892       -10.0381
 253   2.0000      -0.346023        -9.4158
 254   2.0000      -0.334025        -9.0893
 255   2.0000      -0.331324        -9.0158
 256   2.0000      -0.330403        -8.9907
 257   2.0000      -0.329098        -8.9552
 258   2.0000      -0.328988        -8.9522
 259   2.0000      -0.328896        -8.9497
 260   2.0000      -0.325963        -8.8699
 261   2.0000      -0.324182        -8.8214
 262   2.0000      -0.323987        -8.8161
 263   2.0000      -0.318920        -8.6783
 264   2.0000      -0.302563        -8.2332
 265   2.0000      -0.299397        -8.1470
 266   2.0000      -0.291607        -7.9350
 267   2.0000      -0.256599        -6.9824
 268   2.0000      -0.232627        -6.3301
 269   0.0000      -0.093119        -2.5339
 270   0.0000      -0.079366        -2.1597
 271   0.0000      -0.059906        -1.6301
 272   0.0000      -0.051094        -1.3903
 273   0.0000      -0.042698        -1.1619

MULLIKEN ATOMIC CHARGES
-----------------------
   0 C :   -0.082099
   1 C :   -0.080366
   2 C :    0.114880
   3 C :   -0.073874
   4 C :    0.120015
   5 C :   -0.086396
   6 C :   -0.003890
   7 C :    0.040009
   8 C :    0.312922
   9 C :   -0.362509
  10 C :   -0.181168
  11 N :    0.137712
  12 C :   -0.192750
  13 N :    0.148560
  14 C :   -0.099855
  15 C :    0.156846
  16 O :   -0.169155
  17 C :    0.037879
  18 C :   -0.119649
  19 C :   -0.013502
  20 C :   -0.003430
  21 C :   -0.068555
  22 S :    0.169930
  23 C :   -0.080198
  24 C :    0.036913
  25 C :   -0.106256
  26 C :    0.100870
  27 C :    0.105913
  28 C :   -0.067611
  29 C :   -0.137168
  30 S :    0.177709
  31 C :    0.102442
  32 C :    0.112300
  33 F :   -0.176271
  34 C :    0.113932
  35 F :   -0.176390
  36 C :    0.104959
  37 C :   -0.037494
  38 C :   -0.045102
  39 N :   -0.064727
  40 N :   -0.057760
  41 N :   -0.070155
  42 C :    0.144903
  43 C :   -0.137818
  44 C :   -0.066558
  45 C :    0.037045
  46 C :   -0.081225
  47 S :    0.176421
  48 C :   -0.065373
  49 C :   -0.003711
  50 C :   -0.113842
  51 C :    0.103576
  52 C :    0.107325
  53 C :    0.009853
  54 C :   -0.118993
  55 S :    0.175983
  56 C :    0.082133
  57 C :   -0.147195
  58 C :    0.134964
  59 O :   -0.149874
  60 C :    0.008628
  61 C :    0.026513
  62 C :   -0.085339
  63 C :   -0.080799
  64 C :   -0.077994
  65 C :   -0.085296
  66 C :    0.117941
  67 C :    0.115117
  68 C :    0.273779
  69 C :   -0.358923
  70 C :   -0.204310
  71 N :    0.170988
  72 C :   -0.175298
  73 N :    0.145230
  74 H :   -0.015624
  75 H :    0.025911
  76 H :    0.024544
  77 H :    0.024465
  78 H :    0.025662
  79 H :    0.013535
  80 H :    0.025645
  81 H :   -0.023525
  82 H :    0.005836
  83 H :    0.008352
  84 H :    0.020931
  85 H :    0.021589
  86 H :    0.009372
  87 H :    0.021833
  88 H :    0.010770
  89 H :    0.019119
  90 H :   -0.014805
  91 H :    0.054263
  92 H :    0.057665
  93 H :    0.056772
  94 H :   -0.015828
  95 H :    0.020804
  96 H :    0.012205
  97 H :    0.011976
  98 H :    0.036974
  99 H :    0.014216
 100 H :    0.008085
 101 H :   -0.005183
 102 H :    0.017430
 103 H :   -0.013457
 104 H :   -0.018405
 105 H :    0.024838
 106 H :    0.027478
 107 H :    0.016507
 108 H :    0.023411
 109 H :    0.027286
 110 H :    0.024046
Sum of atomic charges:   -0.0000000

LOEWDIN ATOMIC CHARGES
----------------------
   0 C :   -0.006226
   1 C :   -0.006323
   2 C :   -0.042397
   3 C :   -0.009082
   4 C :   -0.042784
   5 C :    0.003778
   6 C :   -0.047058
   7 C :   -0.018738
   8 C :    0.079961
   9 C :   -0.149872
  10 C :   -0.016861
  11 N :   -0.062991
  12 C :   -0.025214
  13 N :   -0.057665
  14 C :   -0.108902
  15 C :    0.088354
  16 O :   -0.154534
  17 C :    0.041702
  18 C :   -0.179206
  19 C :   -0.006433
  20 C :   -0.043710
  21 C :   -0.167604
  22 S :    0.460115
  23 C :   -0.205423
  24 C :   -0.025401
  25 C :   -0.035213
  26 C :   -0.024214
  27 C :   -0.023419
  28 C :   -0.046531
  29 C :   -0.159767
  30 S :    0.461796
  31 C :   -0.066787
  32 C :    0.057731
  33 F :   -0.051385
  34 C :    0.057004
  35 F :   -0.051471
  36 C :   -0.065036
  37 C :   -0.040141
  38 C :   -0.042874
  39 N :   -0.082905
  40 N :    0.154992
  41 N :   -0.085320
  42 C :    0.034496
  43 C :   -0.162465
  44 C :   -0.044178
  45 C :   -0.026566
  46 C :   -0.201955
  47 S :    0.460595
  48 C :   -0.167479
  49 C :   -0.034885
  50 C :   -0.035008
  51 C :   -0.025148
  52 C :   -0.022017
  53 C :   -0.008598
  54 C :   -0.184145
  55 S :    0.463711
  56 C :    0.044782
  57 C :   -0.107654
  58 C :    0.082482
  59 O :   -0.149762
  60 C :   -0.048969
  61 C :   -0.016387
  62 C :   -0.010291
  63 C :   -0.005785
  64 C :   -0.009799
  65 C :    0.005809
  66 C :   -0.042987
  67 C :   -0.042468
  68 C :    0.070114
  69 C :   -0.154118
  70 C :   -0.017542
  71 N :   -0.050084
  72 C :   -0.020919
  73 N :   -0.063079
  74 H :    0.035591
  75 H :    0.035873
  76 H :    0.036936
  77 H :    0.036744
  78 H :    0.037433
  79 H :    0.031809
  80 H :    0.037369
  81 H :    0.033473
  82 H :    0.041983
  83 H :    0.034199
  84 H :    0.029865
  85 H :    0.028110
  86 H :    0.023293
  87 H :    0.030448
  88 H :    0.023717
  89 H :    0.027213
  90 H :    0.027853
  91 H :    0.042978
  92 H :    0.043316
  93 H :    0.041994
  94 H :    0.027673
  95 H :    0.029446
  96 H :    0.024682
  97 H :    0.024211
  98 H :    0.035914
  99 H :    0.025249
 100 H :    0.022936
 101 H :    0.034319
 102 H :    0.044134
 103 H :    0.034806
 104 H :    0.035517
 105 H :    0.036922
 106 H :    0.037986
 107 H :    0.032760
 108 H :    0.035050
 109 H :    0.038154
 110 H :    0.036399

  Mayer bond orders larger than 0.100000
B(  0-C ,  1-C ) :   1.3737 B(  0-C ,  7-C ) :   1.3476 B(  0-C , 74-H ) :   0.9856
B(  1-C ,  2-C ) :   1.0945 B(  1-C ,  3-C ) :   1.3788 B(  2-C , 75-H ) :   0.9511
B(  2-C , 76-H ) :   0.9400 B(  2-C , 77-H ) :   0.9404 B(  3-C ,  4-C ) :   1.0929
B(  3-C ,  5-C ) :   1.3450 B(  4-C , 78-H ) :   0.9406 B(  4-C , 79-H ) :   0.9517
B(  4-C , 80-H ) :   0.9405 B(  5-C ,  6-C ) :   1.3584 B(  5-C , 81-H ) :   1.0114
B(  6-C ,  7-C ) :   1.3381 B(  6-C , 15-C ) :   0.9564 B(  7-C ,  8-C ) :   0.9782
B(  8-C ,  9-C ) :   1.6114 B(  8-C , 14-C ) :   1.0889 B(  9-C , 10-C ) :   1.1485
B(  9-C , 12-C ) :   1.1370 B( 10-C , 11-N ) :   2.9640 B( 12-C , 13-N ) :   2.9797
B( 14-C , 15-C ) :   0.9452 B( 14-C , 17-C ) :   1.5594 B( 15-C , 16-O ) :   2.1483
B( 17-C , 18-C ) :   1.2488 B( 17-C , 82-H ) :   0.9121 B( 18-C , 19-C ) :   1.3790
B( 18-C , 22-S ) :   1.0732 B( 19-C , 20-C ) :   1.3444 B( 19-C , 83-H ) :   0.9809
B( 20-C , 21-C ) :   1.4604 B( 20-C , 25-C ) :   0.9347 B( 21-C , 22-S ) :   1.1304
B( 21-C , 23-C ) :   1.1841 B( 23-C , 24-C ) :   1.5057 B( 23-C , 30-S ) :   1.0639
B( 24-C , 25-C ) :   0.9450 B( 24-C , 28-C ) :   1.2859 B( 25-C , 26-C ) :   1.0373
B( 25-C , 27-C ) :   1.0345 B( 26-C , 84-H ) :   0.9643 B( 26-C , 85-H ) :   0.9650
B( 26-C , 86-H ) :   0.9643 B( 27-C , 87-H ) :   0.9634 B( 27-C , 88-H ) :   0.9644
B( 27-C , 89-H ) :   0.9649 B( 28-C , 29-C ) :   1.4620 B( 28-C , 90-H ) :   0.9919
B( 29-C , 30-S ) :   1.1094 B( 29-C , 31-C ) :   1.1502 B( 31-C , 32-C ) :   1.3547
B( 31-C , 36-C ) :   0.1243 B( 31-C , 38-C ) :   1.1722 B( 32-C , 33-F ) :   1.1338
B( 32-C , 34-C ) :   1.2080 B( 34-C , 35-F ) :   1.1355 B( 34-C , 36-C ) :   1.3562
B( 36-C , 37-C ) :   1.1695 B( 36-C , 43-C ) :   1.1485 B( 37-C , 38-C ) :   1.2217
B( 37-C , 41-N ) :   1.4770 B( 38-C , 39-N ) :   1.4792 B( 39-N , 40-N ) :   1.2301
B( 39-N , 41-N ) :   0.1613 B( 40-N , 41-N ) :   1.2159 B( 40-N , 42-C ) :   0.9530
B( 42-C , 91-H ) :   0.9671 B( 42-C , 92-H ) :   0.9692 B( 42-C , 93-H ) :   0.9699
B( 43-C , 44-C ) :   1.4634 B( 43-C , 47-S ) :   1.1070 B( 44-C , 45-C ) :   1.2872
B( 44-C , 94-H ) :   0.9905 B( 45-C , 46-C ) :   1.5070 B( 45-C , 50-C ) :   0.9408
B( 46-C , 47-S ) :   1.0655 B( 46-C , 48-C ) :   1.1883 B( 48-C , 49-C ) :   1.4795
B( 48-C , 55-S ) :   1.1218 B( 49-C , 50-C ) :   0.9382 B( 49-C , 53-C ) :   1.4021
B( 50-C , 51-C ) :   1.0367 B( 50-C , 52-C ) :   1.0345 B( 51-C , 95-H ) :   0.9644
B( 51-C , 96-H ) :   0.9645 B( 51-C , 97-H ) :   0.9648 B( 52-C , 98-H ) :   0.9623
B( 52-C , 99-H ) :   0.9637 B( 52-C ,100-H ) :   0.9635 B( 53-C , 54-C ) :   1.3663
B( 53-C ,101-H ) :   0.9880 B( 54-C , 55-S ) :   1.0848 B( 54-C , 56-C ) :   1.1762
B( 56-C , 57-C ) :   1.6229 B( 56-C ,102-H ) :   0.9268 B( 57-C , 58-C ) :   0.9476
B( 57-C , 68-C ) :   1.0563 B( 58-C , 59-O ) :   2.2579 B( 58-C , 60-C ) :   0.9198
B( 60-C , 61-C ) :   1.3371 B( 60-C , 65-C ) :   1.3659 B( 61-C , 62-C ) :   1.3532
B( 61-C , 68-C ) :   0.9969 B( 62-C , 63-C ) :   1.3698 B( 62-C ,103-H ) :   0.9883
B( 63-C , 64-C ) :   1.3815 B( 63-C , 67-C ) :   1.0943 B( 64-C , 65-C ) :   1.3491
B( 64-C , 66-C ) :   1.0939 B( 65-C ,104-H ) :   1.0105 B( 66-C ,105-H ) :   0.9402
B( 66-C ,106-H ) :   0.9405 B( 66-C ,107-H ) :   0.9517 B( 67-C ,108-H ) :   0.9513
B( 67-C ,109-H ) :   0.9394 B( 67-C ,110-H ) :   0.9409 B( 68-C , 69-C ) :   1.6210
B( 69-C , 70-C ) :   1.1740 B( 69-C , 72-C ) :   1.1322 B( 70-C , 71-N ) :   2.9882
B( 72-C , 73-N ) :   2.9852

-----------------------------------------------------------------------------
         ABSORPTION SPECTRUM VIA TRANSITION ELECTRIC DIPOLE MOMENTS
-----------------------------------------------------------------------------
State   Energy  Wavelength   fosc         T2         TX        TY        TZ
        (cm-1)    (nm)                  (au**2)     (au)      (au)      (au)
-----------------------------------------------------------------------------
   0   16005.0    624.8   3.113850060  64.04972  -4.49168   6.38152  -1.77503
   1   19495.3    512.9   0.166090933   2.80474  -1.06779   1.28935  -0.04609
   2   23564.1    424.4   0.125210548   1.74931   0.11891  -0.31667   1.27863
   3   24156.4    414.0   0.015786051   0.21514  -0.03493   0.26133  -0.38161
   4   25616.7    390.4   0.011484465   0.14759   0.27196   0.18470   0.19878
   5   26998.6    370.4   0.100778440   1.22886  -0.44119   0.99465  -0.21185
   6   28225.8    354.3   0.061302007   0.71500   0.43505  -0.53114  -0.49358
   7   29790.5    335.7   0.223531107   2.47022  -1.08806   0.48350  -1.02595
   8   30122.3    332.0   0.170792618   1.86663  -0.00464  -1.17495   0.69720
   9   30894.6    323.7   0.022481010   0.23956  -0.30833  -0.25913   0.27811
  10   31464.1    317.8   0.018806679   0.19678   0.43628  -0.07495  -0.02856
  11   31667.7    315.8   0.062600255   0.65078   0.39595  -0.33476   0.61801
  12   32251.6    310.1   0.024286559   0.24791  -0.02451   0.49222  -0.07086
  13   32772.5    305.1   0.069435749   0.69751   0.55325  -0.16247   0.60418
  14   33365.7    299.7   0.018443892   0.18198  -0.00936   0.18297  -0.38525
  15   33967.9    294.4   0.011212959   0.10867   0.01458  -0.24399   0.22121
  16   34432.0    290.4   0.005236809   0.05007  -0.08484  -0.10383  -0.17914
  17   34492.8    289.9   0.073103628   0.69773   0.70193   0.01321  -0.45260
  18   34597.0    289.0   0.024969940   0.23760   0.45381   0.17537   0.03006
  19   34964.4    286.0   0.220573008   2.07683   0.50265  -0.87399   1.02972
  20   35410.5    282.4   0.149669601   1.39148  -0.35527  -0.69521   0.88428
  21   35563.6    281.2   0.115882773   1.07272   0.51350  -0.80704   0.39716
  22   35652.8    280.5   0.023086439   0.21318   0.18450   0.12734  -0.40363
  23   35827.8    279.1   0.015063119   0.13841   0.36960  -0.01750  -0.03877
  24   36092.5    277.1   0.162535225   1.48254  -0.52527  -0.26062   1.06710
  25   36339.1    275.2   0.166858831   1.51165   1.17864   0.18899  -0.29449
  26   36736.1    272.2   0.027355080   0.24514   0.11107  -0.04625   0.48028
  27   37352.1    267.7   0.507588908   4.47376  -1.43330  -0.44211   1.49129
  28   37446.6    267.0   0.420930934   3.70061  -0.67884   0.22613  -1.78568
  29   38415.6    260.3   0.044607496   0.38228   0.07927  -0.12132   0.60106
  30   38965.2    256.6   0.036821145   0.31110   0.11217  -0.46396   0.28855
  31   39620.2    252.4   0.025996948   0.21601   0.36287  -0.23173   0.17503
  32   40027.7    249.8   0.005349839   0.04400  -0.02540   0.17600   0.11127

FINAL SINGLE POINT ENERGY     -4592.374869130721

DIPOLE MOMENT
-------------
                                X             Y             Z
Electronic contribution:    -49.00900     -15.89649      42.81776
Nuclear contribution   :     53.63429      16.95749     -45.47343
                        -----------------------------------------
Total Dipole Moment    :      4.62530       1.06100      -2.65567
                        -----------------------------------------
Magnitude (a.u.)       :      5.43798
Magnitude (Debye)      :     13.82226

Rotational constants in cm-1:     0.003573     0.000161     0.000157
Rotational constants in MHz :   107.108425     4.841549     4.715782

                             ****ORCA TERMINATED NORMALLY****
TOTAL RUN TIME: 0 days 0 hours 11 minutes 5 seconds 294 msec
