                         Program Version 4.2.0 -  RELEASE  -
|  1> # ORCA input file
|  2> # SCF done       -217.964804176413          0.000482924299
|  3> ! CAM-B3LYP def2-SVP def2/J RIJCOSX Grid4 TightSCF
|  4> %maxcore 5000
|  5> %tddft
|  6>     Mode sTDDFT
|  7>     Ethresh 5.0
|  8>     maxcore 5000
|  9> end
| 10>
| 11> %pal
| 12>   nprocs 6
| 13>   end
| 14> * xyz 0 1
| 15>    C        2.31441        -1.49871         3.34292
| 16>    C        2.39213        -0.15229         3.12256
| 17>    F        3.40792         0.55611         3.63268
| 18>    C        1.40856         0.50822         2.35860
| 19>    F        1.50957         1.82945         2.16068
| 20>    C        0.36132        -0.18804         1.82371
| 21>    C        0.25439        -1.57698         2.03160
| 22>    C        1.24695        -2.24617         2.80517
| 23>    C        1.16120        -3.63966         3.02632
| 24>    C        0.11577        -4.34392         2.48770
| 25>    C       -0.86984        -3.66654         1.72067
| 26>    C       -0.81562        -2.32210         1.48996
| 27>    C       -1.88758        -4.62857         1.25640
| 28>    O       -2.83751        -4.35620         0.55296
| 29>    C       -1.50207        -5.93581         1.84195
| 30>    C       -0.22935        -5.76171         2.53023
| 31>    C        0.56289        -6.74291         3.06490
| 32>    C        0.31047        -8.13210         3.03490
| 33>    N        0.20591        -9.27569         3.03970
| 34>    C        1.79788        -6.49585         3.70313
| 35>    N        2.80500        -6.36532         4.23796
| 36>    C       -2.21613        -7.10179         1.86704
| 37>    C       -3.42036        -7.47690         1.22899
| 38>    C       -4.19231        -6.86455         0.26878
| 39>    C       -5.29995        -7.63065        -0.13860
| 40>    C       -5.37739        -8.88193         0.54214
| 41>    S       -4.06634        -9.06291         1.66592
| 42>    C       -6.37613        -9.79448         0.29058
| 43>    C       -7.33093        -9.46786        -0.67672
| 44>    C       -7.25426        -8.21839        -1.35748
| 45>    C       -6.26289        -7.30353        -1.10023
| 46>    S       -8.53785        -8.05280        -2.52444
| 47>    C       -9.16146        -9.64096        -2.11118
| 48>    C       -8.41953       -10.24374        -1.12361
| 49>    C      -10.29645       -10.14953        -2.81832
| 50>    C      -10.89830       -11.40859        -2.58499
| 51>    C      -11.99900       -11.89860        -3.37803
| 52>    N      -12.51918       -13.11247        -3.09185
| 53>    C      -12.03260       -13.81479        -2.12467
| 54>    C      -10.94973       -13.33380        -1.34612
| 55>    N      -10.42202       -12.18014        -1.58285
| 56>    F      -10.44395       -14.05016        -0.34467
| 57>    F      -12.58671       -15.00092        -1.88356
| 58>    C      -12.55411       -11.15561        -4.44692
| 59>    C      -11.98344        -9.88163        -4.64336
| 60>    C      -10.88572        -9.39224        -3.85106
| 61>    N      -10.51501        -8.16790        -4.23164
| 62>    S      -11.44100        -7.68391        -5.44517
| 63>    N      -12.35966        -8.99037        -5.56274
| 64>    C      -13.59725       -11.61765        -5.30966
| 65>    C      -14.23799       -12.83325        -5.31218
| 66>    C      -15.19637       -12.96843        -6.33695
| 67>    C      -15.28371       -11.79653        -7.14143
| 68>    S      -14.17527       -10.56919        -6.59465
| 69>    C      -16.14065       -11.70461        -8.21191
| 70>    C      -16.93814       -12.81344        -8.51053
| 71>    C      -16.85620       -13.98169        -7.69942
| 72>    C      -16.00266       -14.07298        -6.62482
| 73>    S      -17.94124       -15.21646        -8.26314
| 74>    C      -18.45313       -14.20629        -9.60395
| 75>    C      -17.84507       -12.97448        -9.57681
| 76>    C      -19.43966       -14.70550       -10.49098
| 77>    C      -19.75111       -14.30676       -11.75343
| 78>    C      -21.07685       -14.69269       -12.31761
| 79>    O      -21.84065       -15.51420       -11.86910
| 80>    C      -21.26759       -13.81955       -13.49289
| 81>    C      -22.36548       -13.68723       -14.29326
| 82>    C      -22.33279       -12.75599       -15.35525
| 83>    C      -21.15950       -11.97394       -15.56346
| 84>    C      -21.13610       -11.04102       -16.61970
| 85>    C      -22.22483       -10.89331       -17.43229
| 86>    C      -23.38416       -11.66830       -17.22639
| 87>    C      -23.43826       -12.58079       -16.21034
| 88>    F      -24.43677       -11.50093       -18.03748
| 89>    F      -22.20062       -10.00656       -18.43537
| 90>    C      -20.03512       -12.13843       -14.72267
| 91>    C      -20.08592       -13.05394       -13.70555
| 92>    C      -19.08512       -13.45914       -12.72027
| 93>    C      -17.73493       -13.26761       -12.85118
| 94>    C      -16.76669       -13.88527       -12.03370
| 95>    N      -15.93578       -14.38885       -11.42309
| 96>    C      -17.14847       -12.49026       -13.87136
| 97>    N      -16.62295       -11.85109       -14.66660
| 98>    H        3.07640        -1.98836         3.92908
| 99>    H       -0.38344         0.33126         1.24108
|100>    H        1.92566        -4.11255         3.62087
|101>    H       -1.57935        -1.83618         0.90190
|102>    H       -1.81018        -7.89269         2.48748
|103>    H       -3.96676        -5.89338        -0.13112
|104>    H       -6.42353       -10.73723         0.81157
|105>    H       -6.21396        -6.36095        -1.62101
|106>    H       -8.64922       -11.21883        -0.73913
|107>    H      -14.01809       -13.60638        -4.60141
|108>    H      -16.19011       -10.81427        -8.81804
|109>    H      -15.94625       -14.96553        -6.02283
|110>    H      -18.06905       -12.18866       -10.27703
|111>    H      -20.08575       -15.48043       -10.08838
|112>    H      -23.24721       -14.28458       -14.11825
|113>    H      -20.25532       -10.44288       -16.79374
|114>    H      -24.33278       -13.16618       -16.06611
|115>    H      -19.16363       -11.52832       -14.89893
|116> *
|117>
|118>                          ****END OF INPUT****

CARTESIAN COORDINATES (ANGSTROEM)
---------------------------------
  C      2.314410   -1.498710    3.342920
  C      2.392130   -0.152290    3.122560
  F      3.407920    0.556110    3.632680
  C      1.408560    0.508220    2.358600
  F      1.509570    1.829450    2.160680
  C      0.361320   -0.188040    1.823710
  C      0.254390   -1.576980    2.031600
  C      1.246950   -2.246170    2.805170
  C      1.161200   -3.639660    3.026320
  C      0.115770   -4.343920    2.487700
  C     -0.869840   -3.666540    1.720670
  C     -0.815620   -2.322100    1.489960
  C     -1.887580   -4.628570    1.256400
  O     -2.837510   -4.356200    0.552960
  C     -1.502070   -5.935810    1.841950
  C     -0.229350   -5.761710    2.530230
  C      0.562890   -6.742910    3.064900
  C      0.310470   -8.132100    3.034900
  N      0.205910   -9.275690    3.039700
  C      1.797880   -6.495850    3.703130
  N      2.805000   -6.365320    4.237960
  C     -2.216130   -7.101790    1.867040
  C     -3.420360   -7.476900    1.228990
  C     -4.192310   -6.864550    0.268780
  C     -5.299950   -7.630650   -0.138600
  C     -5.377390   -8.881930    0.542140
  S     -4.066340   -9.062910    1.665920
  C     -6.376130   -9.794480    0.290580
  C     -7.330930   -9.467860   -0.676720
  C     -7.254260   -8.218390   -1.357480
  C     -6.262890   -7.303530   -1.100230
  S     -8.537850   -8.052800   -2.524440
  C     -9.161460   -9.640960   -2.111180
  C     -8.419530  -10.243740   -1.123610
  C    -10.296450  -10.149530   -2.818320
  C    -10.898300  -11.408590   -2.584990
  C    -11.999000  -11.898600   -3.378030
  N    -12.519180  -13.112470   -3.091850
  C    -12.032600  -13.814790   -2.124670
  C    -10.949730  -13.333800   -1.346120
  N    -10.422020  -12.180140   -1.582850
  F    -10.443950  -14.050160   -0.344670
  F    -12.586710  -15.000920   -1.883560
  C    -12.554110  -11.155610   -4.446920
  C    -11.983440   -9.881630   -4.643360
  C    -10.885720   -9.392240   -3.851060
  N    -10.515010   -8.167900   -4.231640
  S    -11.441000   -7.683910   -5.445170
  N    -12.359660   -8.990370   -5.562740
  C    -13.597250  -11.617650   -5.309660
  C    -14.237990  -12.833250   -5.312180
  C    -15.196370  -12.968430   -6.336950
  C    -15.283710  -11.796530   -7.141430
  S    -14.175270  -10.569190   -6.594650
  C    -16.140650  -11.704610   -8.211910
  C    -16.938140  -12.813440   -8.510530
  C    -16.856200  -13.981690   -7.699420
  C    -16.002660  -14.072980   -6.624820
  S    -17.941240  -15.216460   -8.263140
  C    -18.453130  -14.206290   -9.603950
  C    -17.845070  -12.974480   -9.576810
  C    -19.439660  -14.705500  -10.490980
  C    -19.751110  -14.306760  -11.753430
  C    -21.076850  -14.692690  -12.317610
  O    -21.840650  -15.514200  -11.869100
  C    -21.267590  -13.819550  -13.492890
  C    -22.365480  -13.687230  -14.293260
  C    -22.332790  -12.755990  -15.355250
  C    -21.159500  -11.973940  -15.563460
  C    -21.136100  -11.041020  -16.619700
  C    -22.224830  -10.893310  -17.432290
  C    -23.384160  -11.668300  -17.226390
  C    -23.438260  -12.580790  -16.210340
  F    -24.436770  -11.500930  -18.037480
  F    -22.200620  -10.006560  -18.435370
  C    -20.035120  -12.138430  -14.722670
  C    -20.085920  -13.053940  -13.705550
  C    -19.085120  -13.459140  -12.720270
  C    -17.734930  -13.267610  -12.851180
  C    -16.766690  -13.885270  -12.033700
  N    -15.935780  -14.388850  -11.423090
  C    -17.148470  -12.490260  -13.871360
  N    -16.622950  -11.851090  -14.666600
  H      3.076400   -1.988360    3.929080
  H     -0.383440    0.331260    1.241080
  H      1.925660   -4.112550    3.620870
  H     -1.579350   -1.836180    0.901900
  H     -1.810180   -7.892690    2.487480
  H     -3.966760   -5.893380   -0.131120
  H     -6.423530  -10.737230    0.811570
  H     -6.213960   -6.360950   -1.621010
  H     -8.649220  -11.218830   -0.739130
  H    -14.018090  -13.606380   -4.601410
  H    -16.190110  -10.814270   -8.818040
  H    -15.946250  -14.965530   -6.022830
  H    -18.069050  -12.188660  -10.277030
  H    -20.085750  -15.480430  -10.088380
  H    -23.247210  -14.284580  -14.118250
  H    -20.255320  -10.442880  -16.793740
  H    -24.332780  -13.166180  -16.066110
  H    -19.163630  -11.528320  -14.898930

 Total Charge           Charge          ....    0
 Multiplicity           Mult            ....    1
 Number of Electrons    NEL             ....  596
 Basis Dimension        Dim             .... 1272

ORBITAL ENERGIES
----------------

  NO   OCC          E(Eh)            E(eV)
   0   2.0000     -89.052573     -2423.2437
   1   2.0000     -88.957347     -2420.6525
   2   2.0000     -88.954824     -2420.5838
   3   2.0000     -88.950153     -2420.4567
   4   2.0000     -88.949356     -2420.4350
   5   2.0000     -24.823690      -675.4869
   6   2.0000     -24.823498      -675.4817
   7   2.0000     -24.800581      -674.8581
   8   2.0000     -24.799979      -674.8417
   9   2.0000     -24.799210      -674.8208
  10   2.0000     -24.798012      -674.7882
  11   2.0000     -19.222596      -523.0734
  12   2.0000     -19.219497      -522.9891
  13   2.0000     -14.461934      -393.5292
  14   2.0000     -14.461747      -393.5241
  15   2.0000     -14.459252      -393.4562
  16   2.0000     -14.459041      -393.4505
  17   2.0000     -14.421045      -392.4166
  18   2.0000     -14.418249      -392.3405
  19   2.0000     -14.417518      -392.3206
  20   2.0000     -14.416329      -392.2883
  21   2.0000     -10.439787      -284.0810
  22   2.0000     -10.439370      -284.0697
  23   2.0000     -10.383898      -282.5602
  24   2.0000     -10.383530      -282.5502
  25   2.0000     -10.382418      -282.5200
  26   2.0000     -10.381568      -282.4968
  27   2.0000     -10.373678      -282.2821
  28   2.0000     -10.370688      -282.2008
  29   2.0000     -10.355902      -281.7984
  30   2.0000     -10.355549      -281.7888
  31   2.0000     -10.348598      -281.5997
  32   2.0000     -10.347176      -281.5610
  33   2.0000     -10.347120      -281.5594
  34   2.0000     -10.346855      -281.5522
  35   2.0000     -10.344482      -281.4877
  36   2.0000     -10.343500      -281.4609
  37   2.0000     -10.326067      -280.9866
  38   2.0000     -10.325183      -280.9625
  39   2.0000     -10.324917      -280.9553
  40   2.0000     -10.324012      -280.9306
  41   2.0000     -10.323582      -280.9189
  42   2.0000     -10.320070      -280.8234
  43   2.0000     -10.319875      -280.8181
  44   2.0000     -10.319341      -280.8035
  45   2.0000     -10.319330      -280.8032
  46   2.0000     -10.318943      -280.7927
  47   2.0000     -10.318721      -280.7867
  48   2.0000     -10.316903      -280.7372
  49   2.0000     -10.313681      -280.6495
  50   2.0000     -10.313247      -280.6377
  51   2.0000     -10.311585      -280.5925
  52   2.0000     -10.311477      -280.5895
  53   2.0000     -10.311449      -280.5888
  54   2.0000     -10.311175      -280.5813
  55   2.0000     -10.310720      -280.5689
  56   2.0000     -10.308285      -280.5027
  57   2.0000     -10.305931      -280.4386
  58   2.0000     -10.305589      -280.4293
  59   2.0000     -10.304212      -280.3919
  60   2.0000     -10.303663      -280.3769
  61   2.0000     -10.303579      -280.3746
  62   2.0000     -10.303363      -280.3688
  63   2.0000     -10.303153      -280.3631
  64   2.0000     -10.303015      -280.3593
  65   2.0000     -10.302045      -280.3329
  66   2.0000     -10.301981      -280.3312
  67   2.0000     -10.301540      -280.3192
  68   2.0000     -10.301172      -280.3092
  69   2.0000     -10.298262      -280.2300
  70   2.0000     -10.297076      -280.1977
  71   2.0000     -10.293983      -280.1135
  72   2.0000     -10.293564      -280.1021
  73   2.0000     -10.291434      -280.0441
  74   2.0000     -10.290950      -280.0310
  75   2.0000     -10.290690      -280.0239
  76   2.0000     -10.290042      -280.0063
  77   2.0000     -10.289382      -279.9883
  78   2.0000     -10.289260      -279.9850
  79   2.0000     -10.288757      -279.9713
  80   2.0000     -10.288571      -279.9662
  81   2.0000     -10.280246      -279.7397
  82   2.0000     -10.280128      -279.7365
  83   2.0000      -8.143454      -221.5946
  84   2.0000      -8.053473      -219.1461
  85   2.0000      -8.050805      -219.0735
  86   2.0000      -8.044836      -218.9111
  87   2.0000      -8.044146      -218.8923
  88   2.0000      -6.114498      -166.3839
  89   2.0000      -6.106783      -166.1740
  90   2.0000      -6.106289      -166.1606
  91   2.0000      -6.023079      -163.8963
  92   2.0000      -6.020356      -163.8222
  93   2.0000      -6.019096      -163.7879
  94   2.0000      -6.016441      -163.7157
  95   2.0000      -6.014648      -163.6669
  96   2.0000      -6.014632      -163.6664
  97   2.0000      -6.013965      -163.6483
  98   2.0000      -6.012037      -163.5958
  99   2.0000      -6.010278      -163.5480
 100   2.0000      -6.009602      -163.5296
 101   2.0000      -6.006004      -163.4317
 102   2.0000      -6.005256      -163.4113
 103   2.0000      -1.351299       -36.7707
 104   2.0000      -1.337571       -36.3972
 105   2.0000      -1.323389       -36.0113
 106   2.0000      -1.321591       -35.9623
 107   2.0000      -1.308515       -35.6065
 108   2.0000      -1.306701       -35.5571
 109   2.0000      -1.149907       -31.2906
 110   2.0000      -1.137667       -30.9575
 111   2.0000      -1.135420       -30.8964
 112   2.0000      -1.121627       -30.5210
 113   2.0000      -1.046373       -28.4733
 114   2.0000      -1.024383       -27.8749
 115   2.0000      -1.021536       -27.7974
 116   2.0000      -1.011713       -27.5301
 117   2.0000      -1.008390       -27.4397
 118   2.0000      -1.007362       -27.4117
 119   2.0000      -1.005617       -27.3642
 120   2.0000      -1.003527       -27.3073
 121   2.0000      -0.997793       -27.1513
 122   2.0000      -0.995504       -27.0890
 123   2.0000      -0.992492       -27.0071
 124   2.0000      -0.984989       -26.8029
 125   2.0000      -0.983060       -26.7504
 126   2.0000      -0.978803       -26.6346
 127   2.0000      -0.970207       -26.4007
 128   2.0000      -0.936875       -25.4937
 129   2.0000      -0.935012       -25.4430
 130   2.0000      -0.925112       -25.1736
 131   2.0000      -0.918860       -25.0034
 132   2.0000      -0.905002       -24.6264
 133   2.0000      -0.900572       -24.5058
 134   2.0000      -0.895651       -24.3719
 135   2.0000      -0.894079       -24.3291
 136   2.0000      -0.893000       -24.2998
 137   2.0000      -0.887813       -24.1586
 138   2.0000      -0.882068       -24.0023
 139   2.0000      -0.881086       -23.9756
 140   2.0000      -0.873702       -23.7747
 141   2.0000      -0.866108       -23.5680
 142   2.0000      -0.843733       -22.9591
 143   2.0000      -0.841582       -22.9006
 144   2.0000      -0.839056       -22.8319
 145   2.0000      -0.836690       -22.7675
 146   2.0000      -0.831279       -22.6203
 147   2.0000      -0.820628       -22.3304
 148   2.0000      -0.820209       -22.3190
 149   2.0000      -0.800011       -21.7694
 150   2.0000      -0.794662       -21.6238
 151   2.0000      -0.787635       -21.4326
 152   2.0000      -0.780538       -21.2395
 153   2.0000      -0.773049       -21.0357
 154   2.0000      -0.769737       -20.9456
 155   2.0000      -0.769343       -20.9349
 156   2.0000      -0.763092       -20.7648
 157   2.0000      -0.749593       -20.3975
 158   2.0000      -0.743768       -20.2390
 159   2.0000      -0.733043       -19.9471
 160   2.0000      -0.723387       -19.6844
 161   2.0000      -0.721060       -19.6211
 162   2.0000      -0.714767       -19.4498
 163   2.0000      -0.707197       -19.2438
 164   2.0000      -0.699821       -19.0431
 165   2.0000      -0.692602       -18.8466
 166   2.0000      -0.692178       -18.8351
 167   2.0000      -0.687595       -18.7104
 168   2.0000      -0.686496       -18.6805
 169   2.0000      -0.685750       -18.6602
 170   2.0000      -0.678855       -18.4726
 171   2.0000      -0.674158       -18.3448
 172   2.0000      -0.667449       -18.1622
 173   2.0000      -0.665334       -18.1047
 174   2.0000      -0.658630       -17.9222
 175   2.0000      -0.657737       -17.8979
 176   2.0000      -0.655519       -17.8376
 177   2.0000      -0.653012       -17.7694
 178   2.0000      -0.645276       -17.5589
 179   2.0000      -0.643219       -17.5029
 180   2.0000      -0.633694       -17.2437
 181   2.0000      -0.631093       -17.1729
 182   2.0000      -0.628781       -17.1100
 183   2.0000      -0.626810       -17.0564
 184   2.0000      -0.626628       -17.0514
 185   2.0000      -0.619023       -16.8445
 186   2.0000      -0.614219       -16.7138
 187   2.0000      -0.612132       -16.6570
 188   2.0000      -0.607838       -16.5401
 189   2.0000      -0.601330       -16.3630
 190   2.0000      -0.593167       -16.1409
 191   2.0000      -0.590015       -16.0551
 192   2.0000      -0.587906       -15.9977
 193   2.0000      -0.586143       -15.9498
 194   2.0000      -0.585588       -15.9347
 195   2.0000      -0.578876       -15.7520
 196   2.0000      -0.578514       -15.7422
 197   2.0000      -0.575285       -15.6543
 198   2.0000      -0.575098       -15.6492
 199   2.0000      -0.569773       -15.5043
 200   2.0000      -0.568029       -15.4569
 201   2.0000      -0.565034       -15.3754
 202   2.0000      -0.561156       -15.2698
 203   2.0000      -0.556982       -15.1562
 204   2.0000      -0.554714       -15.0945
 205   2.0000      -0.549485       -14.9523
 206   2.0000      -0.549311       -14.9475
 207   2.0000      -0.547773       -14.9057
 208   2.0000      -0.545444       -14.8423
 209   2.0000      -0.541570       -14.7369
 210   2.0000      -0.541418       -14.7327
 211   2.0000      -0.539388       -14.6775
 212   2.0000      -0.537919       -14.6375
 213   2.0000      -0.534449       -14.5431
 214   2.0000      -0.533461       -14.5162
 215   2.0000      -0.533232       -14.5100
 216   2.0000      -0.531111       -14.4523
 217   2.0000      -0.528194       -14.3729
 218   2.0000      -0.526483       -14.3263
 219   2.0000      -0.525853       -14.3092
 220   2.0000      -0.521774       -14.1982
 221   2.0000      -0.520826       -14.1724
 222   2.0000      -0.518987       -14.1223
 223   2.0000      -0.516173       -14.0458
 224   2.0000      -0.515795       -14.0355
 225   2.0000      -0.513595       -13.9756
 226   2.0000      -0.512043       -13.9334
 227   2.0000      -0.511317       -13.9136
 228   2.0000      -0.507715       -13.8156
 229   2.0000      -0.506702       -13.7881
 230   2.0000      -0.499427       -13.5901
 231   2.0000      -0.498637       -13.5686
 232   2.0000      -0.493308       -13.4236
 233   2.0000      -0.492853       -13.4112
 234   2.0000      -0.491292       -13.3687
 235   2.0000      -0.489834       -13.3291
 236   2.0000      -0.488465       -13.2918
 237   2.0000      -0.484355       -13.1800
 238   2.0000      -0.478870       -13.0307
 239   2.0000      -0.475458       -12.9379
 240   2.0000      -0.474271       -12.9056
 241   2.0000      -0.471509       -12.8304
 242   2.0000      -0.470095       -12.7919
 243   2.0000      -0.465916       -12.6782
 244   2.0000      -0.464456       -12.6385
 245   2.0000      -0.460566       -12.5326
 246   2.0000      -0.459897       -12.5144
 247   2.0000      -0.456571       -12.4239
 248   2.0000      -0.453410       -12.3379
 249   2.0000      -0.451434       -12.2841
 250   2.0000      -0.450246       -12.2518
 251   2.0000      -0.449203       -12.2234
 252   2.0000      -0.447712       -12.1829
 253   2.0000      -0.447142       -12.1673
 254   2.0000      -0.445633       -12.1263
 255   2.0000      -0.444735       -12.1019
 256   2.0000      -0.441560       -12.0155
 257   2.0000      -0.440685       -11.9917
 258   2.0000      -0.437068       -11.8932
 259   2.0000      -0.432925       -11.7805
 260   2.0000      -0.431706       -11.7473
 261   2.0000      -0.431273       -11.7355
 262   2.0000      -0.430696       -11.7198
 263   2.0000      -0.428028       -11.6472
 264   2.0000      -0.425589       -11.5809
 265   2.0000      -0.424101       -11.5404
 266   2.0000      -0.421588       -11.4720
 267   2.0000      -0.418446       -11.3865
 268   2.0000      -0.417583       -11.3630
 269   2.0000      -0.412655       -11.2289
 270   2.0000      -0.409381       -11.1398
 271   2.0000      -0.407682       -11.0936
 272   2.0000      -0.405706       -11.0398
 273   2.0000      -0.391603       -10.6561
 274   2.0000      -0.390534       -10.6270
 275   2.0000      -0.388515       -10.5720
 276   2.0000      -0.386270       -10.5109
 277   2.0000      -0.383758       -10.4426
 278   2.0000      -0.379810       -10.3352
 279   2.0000      -0.376853       -10.2547
 280   2.0000      -0.374289       -10.1849
 281   2.0000      -0.361286        -9.8311
 282   2.0000      -0.354309        -9.6412
 283   2.0000      -0.350919        -9.5490
 284   2.0000      -0.347591        -9.4584
 285   2.0000      -0.342583        -9.3221
 286   2.0000      -0.340083        -9.2541
 287   2.0000      -0.336888        -9.1672
 288   2.0000      -0.326933        -8.8963
 289   2.0000      -0.320288        -8.7155
 290   2.0000      -0.319001        -8.6805
 291   2.0000      -0.308441        -8.3931
 292   2.0000      -0.304796        -8.2939
 293   2.0000      -0.298669        -8.1272
 294   2.0000      -0.289946        -7.8898
 295   2.0000      -0.281072        -7.6484
 296   2.0000      -0.266788        -7.2597
 297   2.0000      -0.245856        -6.6901
 298   0.0000      -0.124846        -3.3972
 299   0.0000      -0.098037        -2.6677
 300   0.0000      -0.094865        -2.5814
 301   0.0000      -0.062148        -1.6911
 302   0.0000      -0.061586        -1.6758

MULLIKEN ATOMIC CHARGES
-----------------------
   0 C :   -0.110055
   1 C :    0.242639
   2 F :   -0.171314
   3 C :    0.242247
   4 F :   -0.171799
   5 C :   -0.108289
   6 C :    0.119958
   7 C :    0.115164
   8 C :   -0.084953
   9 C :    0.048209
  10 C :    0.001688
  11 C :   -0.085892
  12 C :    0.160796
  13 O :   -0.154825
  14 C :   -0.086900
  15 C :    0.315348
  16 C :   -0.348880
  17 C :   -0.199077
  18 N :    0.159737
  19 C :   -0.181773
  20 N :    0.147083
  21 C :    0.051886
  22 C :   -0.097950
  23 C :    0.000513
  24 C :    0.093431
  25 C :   -0.033029
  26 S :    0.123798
  27 C :   -0.051925
  28 C :    0.133581
  29 C :   -0.018614
  30 C :   -0.045943
  31 S :    0.135282
  32 C :   -0.150125
  33 C :   -0.042154
  34 C :    0.202719
  35 C :   -0.071263
  36 C :   -0.073299
  37 N :    0.001496
  38 C :    0.145877
  39 C :    0.146500
  40 N :   -0.002339
  41 F :   -0.139786
  42 F :   -0.139657
  43 C :    0.203294
  44 C :   -0.014560
  45 C :   -0.021547
  46 N :   -0.319557
  47 S :    0.568302
  48 N :   -0.320762
  49 C :   -0.152848
  50 C :   -0.039221
  51 C :    0.130603
  52 C :   -0.016202
  53 S :    0.134721
  54 C :   -0.048687
  55 C :    0.093644
  56 C :   -0.023135
  57 C :   -0.052201
  58 S :    0.134259
  59 C :   -0.103138
  60 C :    0.019685
  61 C :    0.090431
  62 C :   -0.129561
  63 C :    0.138064
  64 O :   -0.139954
  65 C :    0.014041
  66 C :   -0.079324
  67 C :    0.111049
  68 C :    0.111073
  69 C :   -0.105660
  70 C :    0.240996
  71 C :    0.238588
  72 C :   -0.101531
  73 F :   -0.171251
  74 F :   -0.170940
  75 C :   -0.080295
  76 C :    0.031926
  77 C :    0.272145
  78 C :   -0.335418
  79 C :   -0.208933
  80 N :    0.185494
  81 C :   -0.173351
  82 N :    0.152222
  83 H :    0.008161
  84 H :   -0.001046
  85 H :   -0.004898
  86 H :   -0.011365
  87 H :    0.014293
  88 H :    0.009390
  89 H :   -0.024877
  90 H :   -0.023153
  91 H :   -0.005458
  92 H :   -0.003993
  93 H :   -0.029021
  94 H :   -0.025238
  95 H :   -0.005712
  96 H :    0.028059
  97 H :   -0.007996
  98 H :    0.005790
  99 H :    0.000520
 100 H :   -0.004030
Sum of atomic charges:   -0.0000000

LOEWDIN ATOMIC CHARGES
----------------------
   0 C :   -0.029030
   1 C :    0.066588
   2 F :   -0.048864
   3 C :    0.067793
   4 F :   -0.049379
   5 C :   -0.033705
   6 C :   -0.008575
   7 C :   -0.006435
   8 C :    0.017613
   9 C :   -0.023360
  10 C :   -0.051819
  11 C :    0.029075
  12 C :    0.088180
  13 O :   -0.141042
  14 C :   -0.092731
  15 C :    0.075744
  16 C :   -0.138292
  17 C :   -0.026566
  18 N :   -0.046063
  19 C :   -0.016536
  20 N :   -0.053373
  21 C :    0.055131
  22 C :   -0.169576
  23 C :    0.007868
  24 C :   -0.051202
  25 C :   -0.146446
  26 S :    0.404461
  27 C :   -0.033227
  28 C :   -0.035826
  29 C :   -0.158386
  30 C :   -0.019926
  31 S :    0.427051
  32 C :   -0.145679
  33 C :   -0.033560
  34 C :   -0.039013
  35 C :   -0.003078
  36 C :   -0.004709
  37 N :   -0.028053
  38 C :    0.059356
  39 C :    0.060319
  40 N :   -0.028996
  41 F :   -0.028339
  42 F :   -0.028549
  43 C :   -0.035102
  44 C :   -0.046232
  45 C :   -0.045860
  46 N :   -0.295796
  47 S :    0.687965
  48 N :   -0.294563
  49 C :   -0.148662
  50 C :   -0.030039
  51 C :   -0.038979
  52 C :   -0.155294
  53 S :    0.426800
  54 C :   -0.024992
  55 C :   -0.041577
  56 C :   -0.143921
  57 C :   -0.028857
  58 S :    0.412918
  59 C :   -0.170269
  60 C :   -0.006290
  61 C :    0.054824
  62 C :   -0.089289
  63 C :    0.083279
  64 O :   -0.139103
  65 C :   -0.054288
  66 C :    0.031314
  67 C :   -0.009376
  68 C :   -0.005584
  69 C :   -0.030465
  70 C :    0.067432
  71 C :    0.067189
  72 C :   -0.032471
  73 F :   -0.048824
  74 F :   -0.048291
  75 C :    0.013312
  76 C :   -0.020481
  77 C :    0.064575
  78 C :   -0.136548
  79 C :   -0.020983
  80 N :   -0.033813
  81 C :   -0.019607
  82 N :   -0.051131
  83 H :    0.048018
  84 H :    0.044611
  85 H :    0.040122
  86 H :    0.039621
  87 H :    0.044102
  88 H :    0.034661
  89 H :    0.033390
  90 H :    0.034324
  91 H :    0.029610
  92 H :    0.029810
  93 H :    0.032115
  94 H :    0.033362
  95 H :    0.033795
  96 H :    0.047566
  97 H :    0.041138
  98 H :    0.047285
  99 H :    0.045223
 100 H :    0.039478

  Mayer bond orders larger than 0.100000
B(  0-C ,  1-C ) :   1.4410 B(  0-C ,  5-C ) :   0.1089 B(  0-C ,  7-C ) :   1.1867
B(  0-C , 83-H ) :   1.0072 B(  1-C ,  2-F ) :   1.1347 B(  1-C ,  3-C ) :   1.1903
B(  3-C ,  4-F ) :   1.1333 B(  3-C ,  5-C ) :   1.4427 B(  5-C ,  6-C ) :   1.1909
B(  5-C , 84-H ) :   1.0078 B(  6-C ,  7-C ) :   1.2573 B(  6-C , 11-C ) :   1.1874
B(  7-C ,  8-C ) :   1.2173 B(  8-C ,  9-C ) :   1.4461 B(  8-C , 85-H ) :   0.9902
B(  9-C , 10-C ) :   1.2244 B(  9-C , 15-C ) :   0.9816 B( 10-C , 11-C ) :   1.4676
B( 10-C , 12-C ) :   0.9517 B( 11-C , 86-H ) :   1.0170 B( 12-C , 13-O ) :   2.1699
B( 12-C , 14-C ) :   0.9382 B( 14-C , 15-C ) :   1.0757 B( 14-C , 21-C ) :   1.5986
B( 15-C , 16-C ) :   1.6297 B( 16-C , 17-C ) :   1.1349 B( 16-C , 19-C ) :   1.1475
B( 17-C , 18-N ) :   2.9834 B( 19-C , 20-N ) :   2.9616 B( 21-C , 22-C ) :   1.2022
B( 21-C , 87-H ) :   0.9169 B( 22-C , 23-C ) :   1.4958 B( 22-C , 26-S ) :   1.0605
B( 23-C , 24-C ) :   1.1722 B( 23-C , 88-H ) :   0.9800 B( 24-C , 25-C ) :   1.2538
B( 24-C , 30-C ) :   1.2890 B( 25-C , 26-S ) :   1.0589 B( 25-C , 27-C ) :   1.3833
B( 27-C , 28-C ) :   1.3096 B( 27-C , 30-C ) :   0.1000 B( 27-C , 89-H ) :   1.0032
B( 28-C , 29-C ) :   1.2509 B( 28-C , 33-C ) :   1.1373 B( 29-C , 30-C ) :   1.4064
B( 29-C , 31-S ) :   1.0062 B( 30-C , 90-H ) :   1.0023 B( 31-S , 32-C ) :   1.0836
B( 32-C , 33-C ) :   1.5233 B( 32-C , 34-C ) :   1.1576 B( 33-C , 91-H ) :   0.9916
B( 34-C , 35-C ) :   1.3008 B( 34-C , 43-C ) :   0.1284 B( 34-C , 45-C ) :   1.2032
B( 35-C , 36-C ) :   1.1067 B( 35-C , 40-N ) :   1.4270 B( 36-C , 37-N ) :   1.4291
B( 36-C , 43-C ) :   1.3011 B( 37-N , 38-C ) :   1.6701 B( 38-C , 39-C ) :   1.1028
B( 38-C , 42-F ) :   1.1757 B( 39-C , 40-N ) :   1.6716 B( 39-C , 41-F ) :   1.1750
B( 43-C , 44-C ) :   1.1991 B( 43-C , 49-C ) :   1.1626 B( 44-C , 45-C ) :   1.1205
B( 44-C , 48-N ) :   1.4642 B( 45-C , 46-N ) :   1.4677 B( 46-N , 47-S ) :   1.2832
B( 46-N , 48-N ) :   0.1560 B( 47-S , 48-N ) :   1.2852 B( 49-C , 50-C ) :   1.5217
B( 49-C , 53-S ) :   1.0818 B( 50-C , 51-C ) :   1.1353 B( 50-C , 92-H ) :   0.9916
B( 51-C , 52-C ) :   1.2570 B( 51-C , 57-C ) :   1.3113 B( 52-C , 53-S ) :   1.0083
B( 52-C , 54-C ) :   1.4026 B( 54-C , 55-C ) :   1.2983 B( 54-C , 57-C ) :   0.1005
B( 54-C , 93-H ) :   1.0010 B( 55-C , 56-C ) :   1.2697 B( 55-C , 60-C ) :   1.2017
B( 56-C , 57-C ) :   1.3841 B( 56-C , 58-S ) :   1.0511 B( 57-C , 94-H ) :   1.0019
B( 58-S , 59-C ) :   1.0710 B( 59-C , 60-C ) :   1.5057 B( 59-C , 61-C ) :   1.1094
B( 60-C , 95-H ) :   0.9922 B( 61-C , 62-C ) :   1.6844 B( 61-C , 96-H ) :   0.9286
B( 62-C , 63-C ) :   0.9392 B( 62-C , 77-C ) :   1.0345 B( 63-C , 64-O ) :   2.2715
B( 63-C , 65-C ) :   0.9155 B( 65-C , 66-C ) :   1.4762 B( 65-C , 76-C ) :   1.2227
B( 66-C , 67-C ) :   1.1940 B( 66-C , 97-H ) :   1.0154 B( 67-C , 68-C ) :   1.2566
B( 67-C , 72-C ) :   1.1940 B( 68-C , 69-C ) :   1.1884 B( 68-C , 75-C ) :   1.2171
B( 69-C , 70-C ) :   1.4431 B( 69-C , 72-C ) :   0.1086 B( 69-C , 98-H ) :   1.0064
B( 70-C , 71-C ) :   1.1920 B( 70-C , 74-F ) :   1.1346 B( 71-C , 72-C ) :   1.4434
B( 71-C , 73-F ) :   1.1336 B( 72-C , 99-H ) :   1.0064 B( 75-C , 76-C ) :   1.4560
B( 75-C ,100-H ) :   0.9926 B( 76-C , 77-C ) :   0.9964 B( 77-C , 78-C ) :   1.6541
B( 78-C , 79-C ) :   1.1661 B( 78-C , 81-C ) :   1.1285 B( 79-C , 80-N ) :   3.0076
B( 81-C , 82-N ) :   2.9835

-----------------------------------------------------------------------------
         ABSORPTION SPECTRUM VIA TRANSITION ELECTRIC DIPOLE MOMENTS
-----------------------------------------------------------------------------
State   Energy  Wavelength   fosc         T2         TX        TY        TZ
        (cm-1)    (nm)                  (au**2)     (au)      (au)      (au)
-----------------------------------------------------------------------------
   0   11638.6    859.2   1.271736784  35.97266  -4.49923  -1.96692  -3.44395
   1   16199.2    617.3   0.009108611   0.18511   0.33900  -0.24790  -0.09348
   2   18239.2    548.3   0.141705342   2.55774  -1.19866  -0.51738  -0.92373
   3   18692.7    535.0   0.320381766   5.64249  -1.14033  -0.37915  -2.04900
   4   19684.0    508.0   0.570909782   9.54837  -2.60656  -1.11437  -1.22978
   5   21988.6    454.8   0.090325421   1.35235   0.50033   0.75638  -0.72794
   6   23810.3    420.0   0.246127426   3.40308  -1.04427  -0.13631  -1.51460
   7   24448.9    409.0   0.256619953   3.45547  -1.46824  -1.06494  -0.40698
   8   25752.0    388.3   0.045806495   0.58559  -0.43558  -0.01764  -0.62893
   9   26768.3    373.6   0.093641209   1.15165  -0.75102  -0.76643   0.01456
  10   26871.9    372.1   0.026098508   0.31974   0.20851   0.47282   0.22957
  11   27261.1    366.8   0.064954040   0.78440  -0.81308  -0.14051  -0.32182
  12   27293.4    366.4   0.056864450   0.68590  -0.48945   0.66596   0.05322
  13   28040.1    356.6   0.113164822   1.32864  -0.71951  -0.85001  -0.29737
  14   28344.7    352.8   0.218575549   2.53866  -1.06988  -0.14447  -1.17181
  15   28418.6    351.9   0.033389880   0.38680   0.40580   0.14497   0.44846
  16   28804.1    347.2   0.176648662   2.01898   0.97491   1.00622   0.23675
  17   28921.9    345.8   0.044402279   0.50542  -0.63435  -0.20404  -0.24777
  18   29004.2    344.8   0.074527295   0.84592  -0.56982   0.24168  -0.68031
  19   29206.2    342.4   0.001437854   0.01621   0.07169  -0.06382   0.08364
  20   29443.6    339.6   0.068608227   0.76712  -0.24871  -0.83741  -0.06325
  21   29976.5    333.6   0.032964373   0.36203  -0.41476   0.21296  -0.38033
  22   30872.1    323.9   0.128340836   1.36859   0.14993   1.07355  -0.44001
  23   31075.6    321.8   0.080133124   0.84892   0.29013   0.77771  -0.39990
  24   31345.9    319.0   0.046247224   0.48571  -0.54550   0.09276  -0.42373
  25   31728.0    315.2   0.007305296   0.07580  -0.24071   0.10613   0.08123
  26   31878.2    313.7   0.169176145   1.74711   0.97746   0.58993   0.66608
  27   32188.0    310.7   0.209409919   2.14180   0.79132  -0.66963   1.03306
  28   32756.2    305.3   0.344136841   3.45870   1.42532   0.33464   1.14681
  29   32772.9    305.1   0.047823237   0.48040   0.16065   0.67319  -0.03745
  30   33286.4    300.4   0.420698115   4.16082   0.20167   2.01687  -0.22885
  31   33299.1    300.3   0.153688323   1.51944  -0.91474   0.51470  -0.64635
  32   33792.5    295.9   0.058048459   0.56552   0.36950   0.48697   0.43800
  33   33909.4    294.9   0.178900113   1.73686   0.50085  -1.04078   0.63466
  34   34040.5    293.8   0.203798245   1.97097  -1.25203  -0.55934  -0.30089
  35   34185.7    292.5   0.019677168   0.18949  -0.00732   0.39447   0.18394
  36   34569.0    289.3   0.057059107   0.54339   0.46380  -0.13553   0.55670
  37   34815.1    287.2   0.045002540   0.42555   0.35735  -0.45802   0.29676
  38   35068.9    285.2   0.057983898   0.54433   0.52480  -0.30155   0.42188
  39   35251.0    283.7   0.048030041   0.44856   0.51685   0.39166   0.16739
  40   35687.3    280.2   0.126617190   1.16803  -0.03055   1.05724  -0.22215
  41   35870.0    278.8   0.266451093   2.44546  -1.23128  -0.05242  -0.96264
  42   36229.0    276.0   0.029233219   0.26564  -0.20220  -0.43681  -0.18426
  43   36288.9    275.6   0.012872812   0.11678  -0.28136  -0.02027  -0.19290
  44   36603.8    273.2   0.088668430   0.79748   0.89132   0.05294  -0.01479
  45   36665.8    272.7   0.042220706   0.37909  -0.26481   0.45817  -0.31472
  46   36706.4    272.4   0.099406735   0.89156  -0.25284   0.82377  -0.38604
  47   36748.9    272.1   0.185906935   1.66543   0.00075   1.18521  -0.51060
  48   37086.1    269.6   0.058928819   0.52311   0.27898  -0.56359   0.35727
  49   37135.5    269.3   0.430902635   3.82001   0.62508  -1.47038   1.12574
  50   37618.2    265.8   0.028884818   0.25278  -0.10453   0.46193  -0.16875
  51   37920.1    263.7   0.125243034   1.08733   0.65423   0.77786   0.23287
  52   38178.7    261.9   0.067742241   0.58414   0.05583   0.59759  -0.47318
  53   38657.0    258.7   0.060051220   0.51141   0.41412   0.58192   0.03583
  54   38863.2    257.3   0.036789339   0.31164   0.48447  -0.04313   0.27399
  55   38989.7    256.5   0.017606506   0.14866  -0.26941  -0.27141   0.04910
  56   39239.7    254.8   0.103826937   0.87108  -0.74990   0.23628  -0.50290
  57   39616.1    252.4   0.010092107   0.08387   0.16636   0.13803   0.19271
  58   39798.0    251.3   0.010891439   0.09009  -0.01812   0.17169  -0.24554
  59   40032.7    249.8   0.014127916   0.11618  -0.28160  -0.18836  -0.03745
  60   40224.0    248.6   0.039813842   0.32585   0.02061  -0.19534   0.53598

FINAL SINGLE POINT ENERGY     -5546.904658069659

DIPOLE MOMENT
-------------
                                X             Y             Z
Electronic contribution:     -0.48239       4.47265       0.31654
Nuclear contribution   :     -2.36842      -2.98871      -0.65984
                        -----------------------------------------
Total Dipole Moment    :     -2.85081       1.48393      -0.34330
                        -----------------------------------------
Magnitude (a.u.)       :      3.23218
Magnitude (Debye)      :      8.21556

Rotational constants in cm-1:     0.001517     0.000120     0.000112
Rotational constants in MHz :    45.464907     3.582591     3.364240

                             ****ORCA TERMINATED NORMALLY****
TOTAL RUN TIME: 0 days 0 hours 10 minutes 46 seconds 737 msec
