                         Program Version 4.2.0 -  RELEASE  -
|  1> # ORCA input file
|  2> # SCF done       -208.257274306167          0.000426285351
|  3> ! CAM-B3LYP def2-SVP def2/J RIJCOSX Grid4 TightSCF
|  4> %maxcore 5000
|  5> %tddft
|  6>     Mode sTDDFT
|  7>     Ethresh 5.0
|  8>     maxcore 5000
|  9> end
| 10>
| 11> %pal
| 12>   nprocs 6
| 13>   end
| 14> * xyz 0 1
| 15>    C      -10.68520         2.74495         1.49604
| 16>    C      -11.45024         3.37054         2.43988
| 17>    F      -11.79535         4.65599         2.28380
| 18>    C      -11.88579         2.67579         3.58579
| 19>    F      -12.63713         3.31387         4.49453
| 20>    C      -11.54847         1.36475         3.77311
| 21>    C      -10.76031         0.69262         2.81898
| 22>    C      -10.32045         1.39332         1.65897
| 23>    C       -9.52887         0.73941         0.68690
| 24>    C       -9.18818        -0.57481         0.86998
| 25>    C       -9.63524        -1.26611         2.02785
| 26>    C      -10.39815        -0.66256         2.98495
| 27>    C       -9.15439        -2.66205         1.98737
| 28>    O       -9.34288        -3.49052         2.85622
| 29>    C       -8.44483        -2.80433         0.69897
| 30>    C       -8.39637        -1.49930         0.06283
| 31>    C       -7.68389        -1.14660        -1.05499
| 32>    C       -6.82462        -1.98706        -1.79431
| 33>    N       -6.08891        -2.58723        -2.44104
| 34>    C       -7.67838         0.15205        -1.60620
| 35>    N       -7.63418         1.18492        -2.10560
| 36>    C       -7.99596        -3.95202         0.09051
| 37>    C       -7.92620        -5.27869         0.53866
| 38>    C       -8.15448        -5.87010         1.78238
| 39>    C       -7.94543        -7.23191         1.76325
| 40>    C       -7.55183        -7.71508         0.50337
| 41>    S       -7.42462        -6.47834        -0.66236
| 42>    C       -7.38658        -9.11457         0.57895
| 43>    C       -7.66868        -9.53290         1.88647
| 44>    C       -8.03861        -8.36017         2.76286
| 45>    C       -9.45881        -8.49642         3.31804
| 46>    C       -7.02945        -8.17486         3.90029
| 47>    C       -7.54626       -10.90349         2.04442
| 48>    C       -7.17422       -11.52411         0.86106
| 49>    S       -6.96590       -10.41029        -0.46419
| 50>    C       -6.96916       -12.91136         0.61553
| 51>    N       -6.62137       -13.26506        -0.61443
| 52>    N       -6.42433       -14.49062        -0.97233
| 53>    C       -6.55260       -15.52083        -0.14664
| 54>    C       -6.91343       -15.28078         1.21219
| 55>    C       -7.12894       -13.92135         1.60957
| 56>    N       -7.45920       -13.82041         2.89271
| 57>    S       -7.49437       -15.29708         3.53569
| 58>    N       -7.09297       -16.13120         2.21729
| 59>    C       -6.32333       -16.81884        -0.68323
| 60>    C       -6.39923       -18.04454        -0.03834
| 61>    C       -6.11676       -19.09293        -0.89805
| 62>    C       -5.82688       -18.65928        -2.19849
| 63>    S       -5.89964       -16.95457        -2.36993
| 64>    C       -5.56243       -19.78874        -3.00177
| 65>    C       -5.66696       -20.94655        -2.22057
| 66>    C       -6.04972       -20.59866        -0.80167
| 67>    C       -7.41806       -21.18961        -0.44751
| 68>    C       -4.98531       -21.05017         0.20160
| 69>    C       -5.40141       -22.09830        -2.93568
| 70>    C       -5.13732       -21.84579        -4.27998
| 71>    S       -5.16534       -20.12193        -4.62972
| 72>    C       -4.79213       -22.81548        -5.24235
| 73>    C       -4.79007       -22.72294        -6.60363
| 74>    C       -3.94215       -23.64509        -7.40256
| 75>    O       -3.39684       -24.65274        -7.01372
| 76>    C       -3.86250       -23.02868        -8.74439
| 77>    C       -3.10976       -23.40382        -9.81917
| 78>    C       -3.17157       -22.63441       -11.00312
| 79>    C       -4.01156       -21.48391       -11.04790
| 80>    C       -4.06079       -20.71696       -12.22911
| 81>    C       -3.31469       -21.07694       -13.31598
| 82>    C       -2.48598       -22.21569       -13.27139
| 83>    C       -2.41509       -22.97915       -12.14007
| 84>    F       -1.76403       -22.54471       -14.35173
| 85>    F       -3.36423       -20.34738       -14.43864
| 86>    C       -4.78760       -21.12491        -9.92180
| 87>    C       -4.71825       -21.89093        -8.79004
| 88>    C       -5.41900       -21.79182        -7.51236
| 89>    C       -6.62287       -21.16423        -7.31949
| 90>    C       -7.41165       -21.35266        -6.16632
| 91>    N       -8.09717       -21.53126        -5.26279
| 92>    C       -7.24651       -20.35573        -8.28986
| 93>    N       -7.78438       -19.68054        -9.04633
| 94>    H      -10.35935         3.29161         0.62490
| 95>    H      -11.88976         0.84675         4.65571
| 96>    H       -9.21794         1.29711        -0.18125
| 97>    H      -10.72205        -1.21250         3.85552
| 98>    H       -7.65100        -3.83485        -0.93042
| 99>    H       -8.46712        -5.29669         2.63511
|100>    H      -10.17011        -8.63872         2.50780
|101>    H       -9.72974        -7.59754         3.86552
|102>    H       -9.51693        -9.35029         3.98812
|103>    H       -6.02264        -8.07556         3.50110
|104>    H       -7.05770        -9.03313         4.56666
|105>    H       -7.27050        -7.27934         4.46695
|106>    H       -7.71306       -11.45657         2.95049
|107>    H       -6.65172       -18.12601         1.00297
|108>    H       -8.16089       -20.88467        -1.18053
|109>    H       -7.73001       -20.84357         0.53455
|110>    H       -7.36414       -22.27510        -0.43879
|111>    H       -4.01654       -20.62968        -0.05839
|112>    H       -4.90722       -22.13435         0.20081
|113>    H       -5.25295       -20.71795         1.20129
|114>    H       -5.42343       -23.09713        -2.53877
|115>    H       -4.39309       -23.74472        -4.84536
|116>    H       -2.47501       -24.27535        -9.76845
|117>    H       -4.69297       -19.84439       -12.28097
|118>    H       -1.77560       -23.84771       -12.12222
|119>    H       -5.41044       -20.24619        -9.97725
|120> *
|121>
|122>                          ****END OF INPUT****

CARTESIAN COORDINATES (ANGSTROEM)
---------------------------------
  C    -10.685200    2.744950    1.496040
  C    -11.450240    3.370540    2.439880
  F    -11.795350    4.655990    2.283800
  C    -11.885790    2.675790    3.585790
  F    -12.637130    3.313870    4.494530
  C    -11.548470    1.364750    3.773110
  C    -10.760310    0.692620    2.818980
  C    -10.320450    1.393320    1.658970
  C     -9.528870    0.739410    0.686900
  C     -9.188180   -0.574810    0.869980
  C     -9.635240   -1.266110    2.027850
  C    -10.398150   -0.662560    2.984950
  C     -9.154390   -2.662050    1.987370
  O     -9.342880   -3.490520    2.856220
  C     -8.444830   -2.804330    0.698970
  C     -8.396370   -1.499300    0.062830
  C     -7.683890   -1.146600   -1.054990
  C     -6.824620   -1.987060   -1.794310
  N     -6.088910   -2.587230   -2.441040
  C     -7.678380    0.152050   -1.606200
  N     -7.634180    1.184920   -2.105600
  C     -7.995960   -3.952020    0.090510
  C     -7.926200   -5.278690    0.538660
  C     -8.154480   -5.870100    1.782380
  C     -7.945430   -7.231910    1.763250
  C     -7.551830   -7.715080    0.503370
  S     -7.424620   -6.478340   -0.662360
  C     -7.386580   -9.114570    0.578950
  C     -7.668680   -9.532900    1.886470
  C     -8.038610   -8.360170    2.762860
  C     -9.458810   -8.496420    3.318040
  C     -7.029450   -8.174860    3.900290
  C     -7.546260  -10.903490    2.044420
  C     -7.174220  -11.524110    0.861060
  S     -6.965900  -10.410290   -0.464190
  C     -6.969160  -12.911360    0.615530
  N     -6.621370  -13.265060   -0.614430
  N     -6.424330  -14.490620   -0.972330
  C     -6.552600  -15.520830   -0.146640
  C     -6.913430  -15.280780    1.212190
  C     -7.128940  -13.921350    1.609570
  N     -7.459200  -13.820410    2.892710
  S     -7.494370  -15.297080    3.535690
  N     -7.092970  -16.131200    2.217290
  C     -6.323330  -16.818840   -0.683230
  C     -6.399230  -18.044540   -0.038340
  C     -6.116760  -19.092930   -0.898050
  C     -5.826880  -18.659280   -2.198490
  S     -5.899640  -16.954570   -2.369930
  C     -5.562430  -19.788740   -3.001770
  C     -5.666960  -20.946550   -2.220570
  C     -6.049720  -20.598660   -0.801670
  C     -7.418060  -21.189610   -0.447510
  C     -4.985310  -21.050170    0.201600
  C     -5.401410  -22.098300   -2.935680
  C     -5.137320  -21.845790   -4.279980
  S     -5.165340  -20.121930   -4.629720
  C     -4.792130  -22.815480   -5.242350
  C     -4.790070  -22.722940   -6.603630
  C     -3.942150  -23.645090   -7.402560
  O     -3.396840  -24.652740   -7.013720
  C     -3.862500  -23.028680   -8.744390
  C     -3.109760  -23.403820   -9.819170
  C     -3.171570  -22.634410  -11.003120
  C     -4.011560  -21.483910  -11.047900
  C     -4.060790  -20.716960  -12.229110
  C     -3.314690  -21.076940  -13.315980
  C     -2.485980  -22.215690  -13.271390
  C     -2.415090  -22.979150  -12.140070
  F     -1.764030  -22.544710  -14.351730
  F     -3.364230  -20.347380  -14.438640
  C     -4.787600  -21.124910   -9.921800
  C     -4.718250  -21.890930   -8.790040
  C     -5.419000  -21.791820   -7.512360
  C     -6.622870  -21.164230   -7.319490
  C     -7.411650  -21.352660   -6.166320
  N     -8.097170  -21.531260   -5.262790
  C     -7.246510  -20.355730   -8.289860
  N     -7.784380  -19.680540   -9.046330
  H    -10.359350    3.291610    0.624900
  H    -11.889760    0.846750    4.655710
  H     -9.217940    1.297110   -0.181250
  H    -10.722050   -1.212500    3.855520
  H     -7.651000   -3.834850   -0.930420
  H     -8.467120   -5.296690    2.635110
  H    -10.170110   -8.638720    2.507800
  H     -9.729740   -7.597540    3.865520
  H     -9.516930   -9.350290    3.988120
  H     -6.022640   -8.075560    3.501100
  H     -7.057700   -9.033130    4.566660
  H     -7.270500   -7.279340    4.466950
  H     -7.713060  -11.456570    2.950490
  H     -6.651720  -18.126010    1.002970
  H     -8.160890  -20.884670   -1.180530
  H     -7.730010  -20.843570    0.534550
  H     -7.364140  -22.275100   -0.438790
  H     -4.016540  -20.629680   -0.058390
  H     -4.907220  -22.134350    0.200810
  H     -5.252950  -20.717950    1.201290
  H     -5.423430  -23.097130   -2.538770
  H     -4.393090  -23.744720   -4.845360
  H     -2.475010  -24.275350   -9.768450
  H     -4.692970  -19.844390  -12.280970
  H     -1.775600  -23.847710  -12.122220
  H     -5.410440  -20.246190   -9.977250

 Total Charge           Charge          ....    0
 Multiplicity           Mult            ....    1
 Number of Electrons    NEL             ....  574
 Basis Dimension        Dim             .... 1256

ORBITAL ENERGIES
----------------

  NO   OCC          E(Eh)            E(eV)
   0   2.0000     -89.056168     -2423.3415
   1   2.0000     -88.977791     -2421.2088
   2   2.0000     -88.977120     -2421.1905
   3   2.0000     -88.973828     -2421.1009
   4   2.0000     -88.973159     -2421.0827
   5   2.0000     -24.795642      -674.7237
   6   2.0000     -24.795348      -674.7157
   7   2.0000     -24.794608      -674.6956
   8   2.0000     -24.794412      -674.6903
   9   2.0000     -19.216225      -522.9001
  10   2.0000     -19.211435      -522.7697
  11   2.0000     -14.472518      -393.8172
  12   2.0000     -14.472372      -393.8133
  13   2.0000     -14.452491      -393.2723
  14   2.0000     -14.451723      -393.2514
  15   2.0000     -14.412731      -392.1903
  16   2.0000     -14.411695      -392.1622
  17   2.0000     -14.411050      -392.1446
  18   2.0000     -14.409765      -392.1096
  19   2.0000     -10.378390      -282.4103
  20   2.0000     -10.378177      -282.4045
  21   2.0000     -10.377753      -282.3930
  22   2.0000     -10.377469      -282.3853
  23   2.0000     -10.367670      -282.1186
  24   2.0000     -10.363664      -282.0096
  25   2.0000     -10.354421      -281.7581
  26   2.0000     -10.354108      -281.7496
  27   2.0000     -10.346181      -281.5339
  28   2.0000     -10.345784      -281.5231
  29   2.0000     -10.339670      -281.3567
  30   2.0000     -10.339005      -281.3386
  31   2.0000     -10.337217      -281.2900
  32   2.0000     -10.336066      -281.2587
  33   2.0000     -10.327256      -281.0189
  34   2.0000     -10.324868      -280.9540
  35   2.0000     -10.321944      -280.8744
  36   2.0000     -10.320603      -280.8379
  37   2.0000     -10.318767      -280.7879
  38   2.0000     -10.318367      -280.7770
  39   2.0000     -10.317410      -280.7510
  40   2.0000     -10.316829      -280.7352
  41   2.0000     -10.316195      -280.7179
  42   2.0000     -10.316057      -280.7142
  43   2.0000     -10.315453      -280.6977
  44   2.0000     -10.314911      -280.6830
  45   2.0000     -10.313390      -280.6416
  46   2.0000     -10.313339      -280.6402
  47   2.0000     -10.307458      -280.4802
  48   2.0000     -10.307094      -280.4703
  49   2.0000     -10.306963      -280.4667
  50   2.0000     -10.306549      -280.4555
  51   2.0000     -10.305921      -280.4384
  52   2.0000     -10.305249      -280.4201
  53   2.0000     -10.304633      -280.4033
  54   2.0000     -10.302776      -280.3528
  55   2.0000     -10.301269      -280.3118
  56   2.0000     -10.299533      -280.2645
  57   2.0000     -10.299039      -280.2511
  58   2.0000     -10.298553      -280.2379
  59   2.0000     -10.298229      -280.2290
  60   2.0000     -10.298198      -280.2282
  61   2.0000     -10.297970      -280.2220
  62   2.0000     -10.297357      -280.2053
  63   2.0000     -10.297218      -280.2016
  64   2.0000     -10.295084      -280.1435
  65   2.0000     -10.293191      -280.0920
  66   2.0000     -10.291699      -280.0514
  67   2.0000     -10.291455      -280.0447
  68   2.0000     -10.290674      -280.0235
  69   2.0000     -10.290588      -280.0211
  70   2.0000     -10.290320      -280.0139
  71   2.0000     -10.289279      -279.9855
  72   2.0000     -10.289056      -279.9794
  73   2.0000     -10.288858      -279.9741
  74   2.0000     -10.287962      -279.9497
  75   2.0000     -10.275496      -279.6104
  76   2.0000     -10.273564      -279.5579
  77   2.0000     -10.272961      -279.5415
  78   2.0000     -10.272070      -279.5172
  79   2.0000      -8.147888      -221.7153
  80   2.0000      -8.072356      -219.6600
  81   2.0000      -8.072180      -219.6552
  82   2.0000      -8.068074      -219.5435
  83   2.0000      -8.067394      -219.5250
  84   2.0000      -6.119106      -166.5093
  85   2.0000      -6.111212      -166.2945
  86   2.0000      -6.110341      -166.2708
  87   2.0000      -6.041720      -164.4036
  88   2.0000      -6.041354      -164.3936
  89   2.0000      -6.037574      -164.2907
  90   2.0000      -6.037481      -164.2882
  91   2.0000      -6.037358      -164.2849
  92   2.0000      -6.036801      -164.2697
  93   2.0000      -6.034415      -164.2048
  94   2.0000      -6.034413      -164.2047
  95   2.0000      -6.033193      -164.1715
  96   2.0000      -6.032503      -164.1528
  97   2.0000      -6.030203      -164.0902
  98   2.0000      -6.029534      -164.0720
  99   2.0000      -1.317783       -35.8587
 100   2.0000      -1.317743       -35.8576
 101   2.0000      -1.302937       -35.4547
 102   2.0000      -1.302893       -35.4535
 103   2.0000      -1.159396       -31.5488
 104   2.0000      -1.131051       -30.7775
 105   2.0000      -1.130786       -30.7702
 106   2.0000      -1.126814       -30.6622
 107   2.0000      -1.029101       -28.0033
 108   2.0000      -1.027153       -27.9503
 109   2.0000      -1.016943       -27.6724
 110   2.0000      -1.015614       -27.6363
 111   2.0000      -1.013341       -27.5744
 112   2.0000      -1.000572       -27.2269
 113   2.0000      -1.000554       -27.2265
 114   2.0000      -0.992863       -27.0172
 115   2.0000      -0.990543       -26.9541
 116   2.0000      -0.989327       -26.9210
 117   2.0000      -0.987702       -26.8767
 118   2.0000      -0.977940       -26.6111
 119   2.0000      -0.977273       -26.5929
 120   2.0000      -0.956247       -26.0208
 121   2.0000      -0.943767       -25.6812
 122   2.0000      -0.929364       -25.2893
 123   2.0000      -0.928750       -25.2726
 124   2.0000      -0.925173       -25.1752
 125   2.0000      -0.922118       -25.0921
 126   2.0000      -0.902248       -24.5514
 127   2.0000      -0.900383       -24.5007
 128   2.0000      -0.890500       -24.2317
 129   2.0000      -0.889854       -24.2142
 130   2.0000      -0.884122       -24.0582
 131   2.0000      -0.882693       -24.0193
 132   2.0000      -0.865677       -23.5563
 133   2.0000      -0.858058       -23.3490
 134   2.0000      -0.844648       -22.9840
 135   2.0000      -0.843648       -22.9568
 136   2.0000      -0.837563       -22.7912
 137   2.0000      -0.837069       -22.7778
 138   2.0000      -0.836225       -22.7548
 139   2.0000      -0.835201       -22.7270
 140   2.0000      -0.828144       -22.5349
 141   2.0000      -0.813260       -22.1299
 142   2.0000      -0.805355       -21.9148
 143   2.0000      -0.785698       -21.3799
 144   2.0000      -0.785191       -21.3661
 145   2.0000      -0.776829       -21.1386
 146   2.0000      -0.771252       -20.9868
 147   2.0000      -0.763750       -20.7827
 148   2.0000      -0.762536       -20.7497
 149   2.0000      -0.753578       -20.5059
 150   2.0000      -0.746901       -20.3242
 151   2.0000      -0.735034       -20.0013
 152   2.0000      -0.725622       -19.7452
 153   2.0000      -0.717644       -19.5281
 154   2.0000      -0.716935       -19.5088
 155   2.0000      -0.714005       -19.4291
 156   2.0000      -0.710848       -19.3432
 157   2.0000      -0.705291       -19.1919
 158   2.0000      -0.699354       -19.0304
 159   2.0000      -0.685710       -18.6591
 160   2.0000      -0.680481       -18.5168
 161   2.0000      -0.676199       -18.4003
 162   2.0000      -0.667117       -18.1532
 163   2.0000      -0.660165       -17.9640
 164   2.0000      -0.657549       -17.8928
 165   2.0000      -0.652447       -17.7540
 166   2.0000      -0.648943       -17.6586
 167   2.0000      -0.643611       -17.5135
 168   2.0000      -0.642085       -17.4720
 169   2.0000      -0.638853       -17.3841
 170   2.0000      -0.638205       -17.3664
 171   2.0000      -0.637510       -17.3475
 172   2.0000      -0.634400       -17.2629
 173   2.0000      -0.630560       -17.1584
 174   2.0000      -0.619671       -16.8621
 175   2.0000      -0.617407       -16.8005
 176   2.0000      -0.614249       -16.7146
 177   2.0000      -0.611157       -16.6304
 178   2.0000      -0.603939       -16.4340
 179   2.0000      -0.589050       -16.0289
 180   2.0000      -0.587845       -15.9961
 181   2.0000      -0.585212       -15.9244
 182   2.0000      -0.583393       -15.8749
 183   2.0000      -0.582398       -15.8478
 184   2.0000      -0.582391       -15.8477
 185   2.0000      -0.577011       -15.7013
 186   2.0000      -0.573086       -15.5945
 187   2.0000      -0.572303       -15.5732
 188   2.0000      -0.564216       -15.3531
 189   2.0000      -0.563117       -15.3232
 190   2.0000      -0.556582       -15.1454
 191   2.0000      -0.551898       -15.0179
 192   2.0000      -0.551143       -14.9974
 193   2.0000      -0.549859       -14.9624
 194   2.0000      -0.544184       -14.8080
 195   2.0000      -0.544106       -14.8059
 196   2.0000      -0.540554       -14.7092
 197   2.0000      -0.540469       -14.7069
 198   2.0000      -0.539587       -14.6829
 199   2.0000      -0.536033       -14.5862
 200   2.0000      -0.534017       -14.5313
 201   2.0000      -0.533057       -14.5052
 202   2.0000      -0.531539       -14.4639
 203   2.0000      -0.528739       -14.3877
 204   2.0000      -0.526983       -14.3399
 205   2.0000      -0.525611       -14.3026
 206   2.0000      -0.524321       -14.2675
 207   2.0000      -0.523136       -14.2353
 208   2.0000      -0.521073       -14.1791
 209   2.0000      -0.517021       -14.0689
 210   2.0000      -0.514764       -14.0074
 211   2.0000      -0.511319       -13.9137
 212   2.0000      -0.508880       -13.8473
 213   2.0000      -0.508035       -13.8243
 214   2.0000      -0.505245       -13.7484
 215   2.0000      -0.504642       -13.7320
 216   2.0000      -0.501627       -13.6500
 217   2.0000      -0.497851       -13.5472
 218   2.0000      -0.497167       -13.5286
 219   2.0000      -0.493988       -13.4421
 220   2.0000      -0.492384       -13.3985
 221   2.0000      -0.489318       -13.3150
 222   2.0000      -0.487997       -13.2791
 223   2.0000      -0.484574       -13.1859
 224   2.0000      -0.483872       -13.1668
 225   2.0000      -0.482001       -13.1159
 226   2.0000      -0.480186       -13.0665
 227   2.0000      -0.477744       -13.0001
 228   2.0000      -0.473781       -12.8922
 229   2.0000      -0.471876       -12.8404
 230   2.0000      -0.466695       -12.6994
 231   2.0000      -0.465867       -12.6769
 232   2.0000      -0.464122       -12.6294
 233   2.0000      -0.462136       -12.5754
 234   2.0000      -0.460523       -12.5315
 235   2.0000      -0.459714       -12.5095
 236   2.0000      -0.450571       -12.2607
 237   2.0000      -0.449035       -12.2189
 238   2.0000      -0.448179       -12.1956
 239   2.0000      -0.446690       -12.1550
 240   2.0000      -0.445811       -12.1311
 241   2.0000      -0.444678       -12.1003
 242   2.0000      -0.443263       -12.0618
 243   2.0000      -0.442567       -12.0429
 244   2.0000      -0.442370       -12.0375
 245   2.0000      -0.440917       -11.9980
 246   2.0000      -0.438937       -11.9441
 247   2.0000      -0.438581       -11.9344
 248   2.0000      -0.434386       -11.8202
 249   2.0000      -0.432591       -11.7714
 250   2.0000      -0.427286       -11.6270
 251   2.0000      -0.425450       -11.5771
 252   2.0000      -0.423899       -11.5349
 253   2.0000      -0.422866       -11.5068
 254   2.0000      -0.420180       -11.4337
 255   2.0000      -0.419728       -11.4214
 256   2.0000      -0.418246       -11.3811
 257   2.0000      -0.416729       -11.3398
 258   2.0000      -0.415438       -11.3046
 259   2.0000      -0.414864       -11.2890
 260   2.0000      -0.411850       -11.2070
 261   2.0000      -0.408317       -11.1109
 262   2.0000      -0.402320       -10.9477
 263   2.0000      -0.399565       -10.8727
 264   2.0000      -0.399240       -10.8639
 265   2.0000      -0.398271       -10.8375
 266   2.0000      -0.387883       -10.5548
 267   2.0000      -0.387227       -10.5370
 268   2.0000      -0.383444       -10.4340
 269   2.0000      -0.379322       -10.3219
 270   2.0000      -0.368891       -10.0380
 271   2.0000      -0.357177        -9.7193
 272   2.0000      -0.340128        -9.2554
 273   2.0000      -0.338451        -9.2097
 274   2.0000      -0.337330        -9.1792
 275   2.0000      -0.336248        -9.1498
 276   2.0000      -0.332355        -9.0438
 277   2.0000      -0.330987        -9.0066
 278   2.0000      -0.327467        -8.9108
 279   2.0000      -0.315310        -8.5800
 280   2.0000      -0.313990        -8.5441
 281   2.0000      -0.313313        -8.5257
 282   2.0000      -0.308791        -8.4026
 283   2.0000      -0.298072        -8.1109
 284   2.0000      -0.295277        -8.0349
 285   2.0000      -0.266432        -7.2500
 286   2.0000      -0.244829        -6.6621
 287   0.0000      -0.114749        -3.1225
 288   0.0000      -0.093677        -2.5491
 289   0.0000      -0.083813        -2.2807
 290   0.0000      -0.057787        -1.5725
 291   0.0000      -0.054987        -1.4963

MULLIKEN ATOMIC CHARGES
-----------------------
   0 C :   -0.109529
   1 C :    0.241455
   2 F :   -0.172304
   3 C :    0.239154
   4 F :   -0.174052
   5 C :   -0.107108
   6 C :    0.119579
   7 C :    0.113850
   8 C :   -0.086106
   9 C :    0.049519
  10 C :    0.005645
  11 C :   -0.088872
  12 C :    0.156508
  13 O :   -0.166874
  14 C :   -0.101733
  15 C :    0.312542
  16 C :   -0.357040
  17 C :   -0.199297
  18 N :    0.153764
  19 C :   -0.183702
  20 N :    0.142303
  21 C :    0.042380
  22 C :   -0.118752
  23 C :   -0.006993
  24 C :   -0.003151
  25 C :   -0.069028
  26 S :    0.180247
  27 C :   -0.076463
  28 C :    0.022508
  29 C :   -0.107219
  30 C :    0.101790
  31 C :    0.101530
  32 C :   -0.054939
  33 C :   -0.133141
  34 S :    0.220293
  35 C :    0.016348
  36 N :   -0.057335
  37 N :   -0.057753
  38 C :    0.015264
  39 C :    0.029165
  40 C :    0.026514
  41 N :   -0.260338
  42 S :    0.541572
  43 N :   -0.261158
  44 C :   -0.134520
  45 C :   -0.052858
  46 C :    0.017097
  47 C :   -0.073697
  48 S :    0.219566
  49 C :   -0.070977
  50 C :    0.028914
  51 C :   -0.113394
  52 C :    0.106722
  53 C :    0.102488
  54 C :   -0.005236
  55 C :   -0.092033
  56 S :    0.180654
  57 C :    0.043106
  58 C :   -0.142479
  59 C :    0.140724
  60 O :   -0.145898
  61 C :    0.015787
  62 C :   -0.087546
  63 C :    0.115799
  64 C :    0.113209
  65 C :   -0.110009
  66 C :    0.242820
  67 C :    0.239889
  68 C :   -0.108536
  69 F :   -0.172971
  70 F :   -0.172189
  71 C :   -0.082496
  72 C :    0.037586
  73 C :    0.247536
  74 C :   -0.319336
  75 C :   -0.207680
  76 N :    0.165334
  77 C :   -0.173158
  78 N :    0.149874
  79 H :    0.006416
  80 H :   -0.002849
  81 H :   -0.006315
  82 H :   -0.014741
  83 H :    0.010288
  84 H :    0.010446
  85 H :    0.022499
  86 H :    0.022884
  87 H :    0.013160
  88 H :    0.022930
  89 H :    0.013838
  90 H :    0.020353
  91 H :   -0.009948
  92 H :   -0.010477
  93 H :    0.035382
  94 H :    0.011931
  95 H :    0.014605
  96 H :    0.022417
  97 H :    0.013564
  98 H :    0.014100
  99 H :   -0.009330
 100 H :    0.025391
 101 H :   -0.009941
 102 H :    0.005556
 103 H :   -0.000879
 104 H :   -0.002415
Sum of atomic charges:   -0.0000000

LOEWDIN ATOMIC CHARGES
----------------------
   0 C :   -0.029307
   1 C :    0.065364
   2 F :   -0.050364
   3 C :    0.066661
   4 F :   -0.051288
   5 C :   -0.034553
   6 C :   -0.009453
   7 C :   -0.007305
   8 C :    0.016248
   9 C :   -0.022354
  10 C :   -0.050277
  11 C :    0.025959
  12 C :    0.086835
  13 O :   -0.153121
  14 C :   -0.108917
  15 C :    0.076371
  16 C :   -0.147441
  17 C :   -0.026432
  18 N :   -0.054503
  19 C :   -0.017174
  20 N :   -0.059407
  21 C :    0.047046
  22 C :   -0.176154
  23 C :   -0.002524
  24 C :   -0.040307
  25 C :   -0.165908
  26 S :    0.467730
  27 C :   -0.195236
  28 C :   -0.025154
  29 C :   -0.036186
  30 C :   -0.023582
  31 C :   -0.023205
  32 C :   -0.038064
  33 C :   -0.170939
  34 S :    0.491796
  35 C :   -0.031937
  36 N :   -0.059545
  37 N :   -0.061934
  38 C :   -0.029079
  39 C :   -0.052745
  40 C :   -0.052685
  41 N :   -0.268462
  42 S :    0.666457
  43 N :   -0.267766
  44 C :   -0.174050
  45 C :   -0.035802
  46 C :   -0.028057
  47 C :   -0.190378
  48 S :    0.491691
  49 C :   -0.163154
  50 C :   -0.036465
  51 C :   -0.035820
  52 C :   -0.022094
  53 C :   -0.024392
  54 C :   -0.006112
  55 C :   -0.178362
  56 S :    0.479194
  57 C :    0.052687
  58 C :   -0.108854
  59 C :    0.081760
  60 O :   -0.148200
  61 C :   -0.052799
  62 C :    0.028497
  63 C :   -0.009929
  64 C :   -0.006056
  65 C :   -0.030525
  66 C :    0.066392
  67 C :    0.066115
  68 C :   -0.033446
  69 F :   -0.050799
  70 F :   -0.049820
  71 C :    0.012796
  72 C :   -0.019004
  73 C :    0.060857
  74 C :   -0.145967
  75 C :   -0.033846
  76 N :   -0.053337
  77 C :   -0.019920
  78 N :   -0.054361
  79 H :    0.047510
  80 H :    0.043800
  81 H :    0.039740
  82 H :    0.038286
  83 H :    0.043181
  84 H :    0.035234
  85 H :    0.030443
  86 H :    0.028871
  87 H :    0.024627
  88 H :    0.030577
  89 H :    0.024848
  90 H :    0.027751
  91 H :    0.031960
  92 H :    0.031781
  93 H :    0.035699
  94 H :    0.024251
  95 H :    0.025458
  96 H :    0.030192
  97 H :    0.024860
  98 H :    0.025421
  99 H :    0.037245
 100 H :    0.051383
 101 H :    0.040092
 102 H :    0.047078
 103 H :    0.044437
 104 H :    0.039675

  Mayer bond orders larger than 0.100000
B(  0-C ,  1-C ) :   1.4403 B(  0-C ,  5-C ) :   0.1090 B(  0-C ,  7-C ) :   1.1885
B(  0-C , 79-H ) :   1.0070 B(  1-C ,  2-F ) :   1.1330 B(  1-C ,  3-C ) :   1.1936
B(  3-C ,  4-F ) :   1.1307 B(  3-C ,  5-C ) :   1.4414 B(  5-C ,  6-C ) :   1.1919
B(  5-C , 80-H ) :   1.0074 B(  6-C ,  7-C ) :   1.2586 B(  6-C , 11-C ) :   1.1844
B(  7-C ,  8-C ) :   1.2129 B(  8-C ,  9-C ) :   1.4526 B(  8-C , 81-H ) :   0.9899
B(  9-C , 10-C ) :   1.2239 B(  9-C , 15-C ) :   0.9767 B( 10-C , 11-C ) :   1.4718
B( 10-C , 12-C ) :   0.9501 B( 11-C , 82-H ) :   1.0165 B( 12-C , 13-O ) :   2.1546
B( 12-C , 14-C ) :   0.9553 B( 14-C , 15-C ) :   1.0962 B( 14-C , 21-C ) :   1.5341
B( 15-C , 16-C ) :   1.6119 B( 16-C , 17-C ) :   1.1386 B( 16-C , 19-C ) :   1.1511
B( 17-C , 18-N ) :   2.9829 B( 19-C , 20-N ) :   2.9603 B( 21-C , 22-C ) :   1.2635
B( 21-C , 83-H ) :   0.9130 B( 22-C , 23-C ) :   1.3656 B( 22-C , 26-S ) :   1.0721
B( 23-C , 24-C ) :   1.3571 B( 23-C , 84-H ) :   0.9802 B( 24-C , 25-C ) :   1.4499
B( 24-C , 29-C ) :   0.9360 B( 25-C , 26-S ) :   1.1359 B( 25-C , 27-C ) :   1.1912
B( 27-C , 28-C ) :   1.5019 B( 27-C , 34-S ) :   1.0754 B( 28-C , 29-C ) :   0.9417
B( 28-C , 32-C ) :   1.2992 B( 29-C , 30-C ) :   1.0376 B( 29-C , 31-C ) :   1.0312
B( 30-C , 85-H ) :   0.9640 B( 30-C , 86-H ) :   0.9649 B( 30-C , 87-H ) :   0.9643
B( 31-C , 88-H ) :   0.9641 B( 31-C , 89-H ) :   0.9653 B( 31-C , 90-H ) :   0.9658
B( 32-C , 33-C ) :   1.4691 B( 32-C , 91-H ) :   0.9923 B( 33-C , 34-S ) :   1.1067
B( 33-C , 35-C ) :   1.1689 B( 35-C , 36-N ) :   1.7015 B( 35-C , 38-C ) :   0.1176
B( 35-C , 40-C ) :   1.1206 B( 36-N , 37-N ) :   1.2402 B( 37-N , 38-C ) :   1.6988
B( 38-C , 39-C ) :   1.1189 B( 38-C , 44-C ) :   1.1750 B( 39-C , 40-C ) :   1.1881
B( 39-C , 43-N ) :   1.5520 B( 40-C , 41-N ) :   1.5538 B( 41-N , 42-S ) :   1.2676
B( 41-N , 43-N ) :   0.1432 B( 42-S , 43-N ) :   1.2689 B( 44-C , 45-C ) :   1.4665
B( 44-C , 48-S ) :   1.1016 B( 45-C , 46-C ) :   1.3038 B( 45-C , 92-H ) :   0.9914
B( 46-C , 47-C ) :   1.4999 B( 46-C , 51-C ) :   0.9415 B( 47-C , 48-S ) :   1.0790
B( 47-C , 49-C ) :   1.2003 B( 49-C , 50-C ) :   1.4766 B( 49-C , 56-S ) :   1.1199
B( 50-C , 51-C ) :   0.9350 B( 50-C , 54-C ) :   1.3434 B( 51-C , 52-C ) :   1.0352
B( 51-C , 53-C ) :   1.0337 B( 52-C , 93-H ) :   0.9632 B( 52-C , 94-H ) :   0.9644
B( 52-C , 95-H ) :   0.9638 B( 53-C , 96-H ) :   0.9649 B( 53-C , 97-H ) :   0.9646
B( 53-C , 98-H ) :   0.9656 B( 54-C , 55-C ) :   1.3660 B( 54-C , 99-H ) :   1.0110
B( 55-C , 56-S ) :   1.0915 B( 55-C , 57-C ) :   1.1766 B( 57-C , 58-C ) :   1.5942
B( 57-C ,100-H ) :   0.9472 B( 58-C , 59-C ) :   0.9500 B( 58-C , 73-C ) :   1.0506
B( 59-C , 60-O ) :   2.2698 B( 59-C , 61-C ) :   0.9158 B( 61-C , 62-C ) :   1.4768
B( 61-C , 72-C ) :   1.2226 B( 62-C , 63-C ) :   1.1912 B( 62-C ,101-H ) :   1.0168
B( 63-C , 64-C ) :   1.2588 B( 63-C , 68-C ) :   1.1924 B( 64-C , 65-C ) :   1.1891
B( 64-C , 71-C ) :   1.2121 B( 65-C , 66-C ) :   1.4413 B( 65-C , 68-C ) :   0.1093
B( 65-C ,102-H ) :   1.0075 B( 66-C , 67-C ) :   1.1930 B( 66-C , 70-F ) :   1.1329
B( 67-C , 68-C ) :   1.4425 B( 67-C , 69-F ) :   1.1324 B( 68-C ,103-H ) :   1.0075
B( 71-C , 72-C ) :   1.4601 B( 71-C ,104-H ) :   0.9947 B( 72-C , 73-C ) :   0.9970
B( 73-C , 74-C ) :   1.6483 B( 74-C , 75-C ) :   1.1524 B( 74-C , 77-C ) :   1.1366
B( 75-C , 76-N ) :   3.0217 B( 77-C , 78-N ) :   2.9877

-----------------------------------------------------------------------------
         ABSORPTION SPECTRUM VIA TRANSITION ELECTRIC DIPOLE MOMENTS
-----------------------------------------------------------------------------
State   Energy  Wavelength   fosc         T2         TX        TY        TZ
        (cm-1)    (nm)                  (au**2)     (au)      (au)      (au)
-----------------------------------------------------------------------------
   0   13494.8    741.0   1.989582304  48.53670   1.04836  -6.35565  -2.65394
   1   18548.1    539.1   0.675400856  11.98773   0.34152  -1.99934   2.80602
   2   19756.4    506.2   0.000972437   0.01620   0.01574  -0.12466  -0.02042
   3   20531.3    487.1   0.274496034   4.40145   0.05490  -2.09329  -0.12880
   4   21488.6    465.4   0.119944421   1.83759   0.22953  -1.31987  -0.20702
   5   26189.1    381.8   0.018801419   0.23634   0.40755   0.20109  -0.17265
   6   26504.2    377.3   0.029754090   0.36958   0.30731   0.00641  -0.52450
   7   26697.3    374.6   0.239327822   2.95122   0.89702  -1.25083  -0.76289
   8   27513.9    363.5   0.003981442   0.04764   0.03173   0.10572  -0.18830
   9   28102.5    355.8   0.300605831   3.52151  -0.82333   1.00529   1.35389
  10   28456.1    351.4   0.077468829   0.89625   0.52319  -0.74443  -0.26143
  11   28708.3    348.3   0.007676929   0.08803  -0.00413  -0.15995   0.24987
  12   29026.0    344.5   0.010772027   0.12218  -0.12689   0.10325   0.30889
  13   29289.0    341.4   0.082686307   0.92941  -0.33449   0.84155   0.33062
  14   29729.6    336.4   0.008315052   0.09208   0.00529  -0.24318   0.18142
  15   29855.8    334.9   0.183915593   2.02799  -0.75290   0.63503   1.02852
  16   30909.0    323.5   0.082379684   0.87743   0.27576  -0.43040  -0.78494
  17   31066.0    321.9   0.049354344   0.52302   0.00609   0.70227  -0.17260
  18   31857.1    313.9   0.195946135   2.02491   0.25765  -1.35398  -0.35394
  19   32385.9    308.8   0.041342983   0.42026  -0.32620   0.03529   0.55912
  20   32503.4    307.7   0.102521552   1.03839  -0.07472  -0.64603   0.78451
  21   33179.3    301.4   0.003185435   0.03161  -0.13425   0.02015  -0.11480
  22   33312.5    300.2   0.009401848   0.09291   0.00804  -0.08427   0.29283
  23   33451.5    298.9   0.279546349   2.75115  -1.22022   0.43918   1.03408
  24   33665.2    297.0   0.506080430   4.94896  -1.39681   0.92396   1.46431
  25   34019.0    294.0   0.016428726   0.15899   0.12662   0.00398  -0.37807
  26   34119.9    293.1   0.000051685   0.00050   0.00157  -0.01850   0.01241
  27   34239.0    292.1   0.009648870   0.09278   0.04829  -0.29825   0.03863
  28   34371.7    290.9   0.128145437   1.22738   0.53263  -0.29466  -0.92567
  29   34612.7    288.9   0.095592824   0.90921   0.00269  -0.67644   0.67204
  30   34784.0    287.5   0.157460388   1.49028   0.64497  -0.14669  -1.02605
  31   35429.4    282.3   0.058390929   0.54257   0.25235  -0.16608  -0.67179
  32   35852.7    278.9   0.030112903   0.27651  -0.24299   0.27167   0.37903
  33   36244.1    275.9   0.071365840   0.64823  -0.36225   0.29339   0.65645
  34   36481.6    274.1   0.021471559   0.19376   0.14545  -0.41409  -0.03362
  35   36872.3    271.2   0.014734819   0.13156   0.11017  -0.27387   0.21076
  36   37006.3    270.2   0.039879205   0.35477  -0.16860   0.56575  -0.07918
  37   37104.8    269.5   0.026735688   0.23721  -0.30336   0.37896  -0.03966
  38   37497.3    266.7   0.367948841   3.23045   1.26576  -0.35767  -1.22490
  39   37800.5    264.5   0.241243989   2.10104  -0.80613   0.00780   1.20463
  40   37936.2    263.6   0.055887925   0.48500  -0.30641   0.24884   0.57375
  41   37998.9    263.2   0.002937276   0.02545  -0.01485  -0.03803   0.15421
  42   38876.3    257.2   0.008082041   0.06844   0.02718   0.15335  -0.21020
  43   38942.3    256.8   0.014686420   0.12416  -0.10828   0.07972   0.32569
  44   39035.5    256.2   0.005901808   0.04977   0.12160  -0.13059  -0.13392
  45   39647.4    252.2   0.138748801   1.15210   0.26089  -0.94264   0.44212
  46   39732.4    251.7   0.002304733   0.01910   0.12715  -0.02075   0.04998
  47   39841.0    251.0   0.007460364   0.06165  -0.05276   0.13875  -0.19903
  48   40081.0    249.5   0.025234169   0.20727   0.38065  -0.23328   0.08919

FINAL SINGLE POINT ENERGY     -5276.030661045465

DIPOLE MOMENT
-------------
                                X             Y             Z
Electronic contribution:      2.13301      32.03650     -47.58456
Nuclear contribution   :     -2.06228     -34.81907      52.23807
                        -----------------------------------------
Total Dipole Moment    :      0.07073      -2.78257       4.65351
                        -----------------------------------------
Magnitude (a.u.)       :      5.42243
Magnitude (Debye)      :     13.78273

Rotational constants in cm-1:     0.001187     0.000150     0.000135
Rotational constants in MHz :    35.579808     4.485398     4.055528

                             ****ORCA TERMINATED NORMALLY****
TOTAL RUN TIME: 0 days 0 hours 12 minutes 57 seconds 506 msec
