                         Program Version 4.2.0 -  RELEASE  -
|  1> # ORCA input file
|  2> # SCF done       -226.332867083852          0.000475172081
|  3> ! CAM-B3LYP def2-SVP def2/J RIJCOSX Grid4 TightSCF
|  4> %maxcore 5000
|  5> %tddft
|  6>     Mode sTDDFT
|  7>     Ethresh 5.0
|  8>     maxcore 5000
|  9> end
| 10>
| 11> %pal
| 12>   nprocs 6
| 13>   end
| 14> * xyz 0 1
| 15>    C       -3.98634         3.44892        -1.81530
| 16>    C       -4.47168         4.46118        -1.03592
| 17>    F       -4.33126         5.73633        -1.42328
| 18>    C       -5.12438         4.17978         0.18075
| 19>    F       -5.59111         5.19246         0.92494
| 20>    C       -5.28300         2.88916         0.60145
| 21>    C       -4.79465         1.82420        -0.17995
| 22>    C       -4.13362         2.10714        -1.40997
| 23>    C       -3.63349         1.05458        -2.21078
| 24>    C       -3.79260        -0.24108        -1.79526
| 25>    C       -4.46060        -0.51318        -0.57136
| 26>    C       -4.94961         0.48025         0.22634
| 27>    C       -4.52507        -1.97284        -0.35742
| 28>    O       -5.00844        -2.51433         0.61741
| 29>    C       -3.90686        -2.58210        -1.55336
| 30>    C       -3.39114        -1.51328        -2.39050
| 31>    C       -2.61011        -1.63525        -3.51219
| 32>    C       -2.12237        -2.83741        -4.06678
| 33>    N       -1.66305        -3.75801        -4.57854
| 34>    C       -2.14050        -0.53963        -4.26693
| 35>    N       -1.72872         0.30288        -4.92953
| 36>    C       -3.87819        -3.90563        -1.92565
| 37>    C       -4.30198        -5.07075        -1.27301
| 38>    C       -4.80609        -5.31267         0.00765
| 39>    C       -5.09010        -6.64267         0.21920
| 40>    C       -4.80788        -7.45538        -0.89590
| 41>    S       -4.17860        -6.56801        -2.20972
| 42>    C       -5.14606        -8.78641        -0.59300
| 43>    C       -5.64641        -8.83978         0.71758
| 44>    C       -5.64245        -7.47087         1.35494
| 45>    C       -7.05649        -7.02388         1.73522
| 46>    C       -4.71677        -7.42712         2.57444
| 47>    C       -6.02116       -10.11261         1.09432
| 48>    C       -5.81476       -11.05111         0.08246
| 49>    S       -5.13293       -10.32122        -1.36024
| 50>    C       -6.09316       -12.44358         0.09654
| 51>    C       -6.67465       -13.14115         1.18434
| 52>    C       -6.94784       -14.55025         1.11638
| 53>    N       -7.50699       -15.16755         2.17508
| 54>    C       -7.79445       -14.49593         3.24224
| 55>    C       -7.52387       -13.10723         3.30831
| 56>    N       -6.98821       -12.47556         2.31530
| 57>    F       -7.81068       -12.39970         4.40080
| 58>    F       -8.34301       -15.14604         4.26324
| 59>    C       -6.65959       -15.34901        -0.01636
| 60>    C       -6.06643       -14.65833        -1.10061
| 61>    C       -5.79961       -13.24289        -1.03389
| 62>    N       -5.24866       -12.79130        -2.15933
| 63>    S       -5.07914       -14.00454        -3.19507
| 64>    N       -5.69376       -15.16791        -2.27580
| 65>    C       -6.95693       -16.73465        -0.04929
| 66>    C       -6.69068       -17.61749        -1.09836
| 67>    C       -7.11124       -18.90119        -0.82352
| 68>    C       -7.71147       -19.01337         0.44106
| 69>    S       -7.74351       -17.52603         1.29842
| 70>    C       -8.11631       -20.34709         0.63028
| 71>    C       -7.77149       -21.10121        -0.50547
| 72>    C       -7.09702       -20.23132        -1.53879
| 73>    C       -5.66611       -20.69308        -1.82740
| 74>    C       -7.92445       -20.18017        -2.82678
| 75>    C       -8.17397       -22.41511        -0.41890
| 76>    C       -8.83472       -22.69551         0.78083
| 77>    S       -8.90943       -21.27850         1.82052
| 78>    C       -9.36544       -23.90188         1.26110
| 79>    C       -9.64208       -25.07024         0.60163
| 80>    C       -9.75771       -26.31813         1.40064
| 81>    O       -9.83452       -26.40347         2.60519
| 82>    C       -9.70301       -27.41880         0.41634
| 83>    C       -9.65792       -28.76468         0.63505
| 84>    C       -9.57195       -29.63774        -0.47314
| 85>    C       -9.52962       -29.09380        -1.78939
| 86>    C       -9.43352       -29.96915        -2.88943
| 87>    C       -9.38557       -31.32075        -2.69226
| 88>    C       -9.43037       -31.85762        -1.39037
| 89>    C       -9.52179       -31.03473        -0.30284
| 90>    F       -9.38078       -33.18690        -1.22660
| 91>    F       -9.29416       -32.15093        -3.74008
| 92>    C       -9.58837       -27.69416        -1.98448
| 93>    C       -9.68044       -26.86891        -0.89657
| 94>    C       -9.78842       -25.41345        -0.79028
| 95>    C      -10.20452       -24.58681        -1.80567
| 96>    C      -10.56942       -23.23921        -1.62475
| 97>    N      -10.90297       -22.14457        -1.52827
| 98>    C      -10.38904       -25.00922        -3.13683
| 99>    N      -10.52464       -25.28849        -4.24234
|100>    H       -3.48804         3.68178        -2.74340
|101>    H       -5.78524         2.69017         1.53521
|102>    H       -3.14183         1.30413        -3.13670
|103>    H       -5.45012         0.24324         1.15290
|104>    H       -3.47733        -4.10198        -2.91330
|105>    H       -4.94985        -4.52007         0.71848
|106>    H       -7.71247        -7.06243         0.86857
|107>    H       -7.03415        -6.00420         2.11054
|108>    H       -7.45772        -7.67631         2.50627
|109>    H       -3.71296        -7.74403         2.30063
|110>    H       -5.09271        -8.08939         3.34984
|111>    H       -4.66866        -6.41477         2.96680
|112>    H       -6.43095       -10.38813         2.04643
|113>    H       -6.21064       -17.28962        -2.00118
|114>    H       -5.08517       -20.72660        -0.90843
|115>    H       -5.18703       -20.00421        -2.51813
|116>    H       -5.67560       -21.68534        -2.27136
|117>    H       -8.95294       -19.90749        -2.60383
|118>    H       -7.92516       -21.15414        -3.30956
|119>    H       -7.50414       -19.44744        -3.51065
|120>    H       -7.97094       -23.16819        -1.15877
|121>    H       -9.52095       -23.95400         2.33510
|122>    H       -9.68642       -29.15900         1.63934
|123>    H       -9.40223       -29.57521        -3.89328
|124>    H       -9.55479       -31.46100         0.68756
|125>    H       -9.54953       -27.31070        -2.99163
|126> *
|127>
|128>                          ****END OF INPUT****

CARTESIAN COORDINATES (ANGSTROEM)
---------------------------------
  C     -3.986340    3.448920   -1.815300
  C     -4.471680    4.461180   -1.035920
  F     -4.331260    5.736330   -1.423280
  C     -5.124380    4.179780    0.180750
  F     -5.591110    5.192460    0.924940
  C     -5.283000    2.889160    0.601450
  C     -4.794650    1.824200   -0.179950
  C     -4.133620    2.107140   -1.409970
  C     -3.633490    1.054580   -2.210780
  C     -3.792600   -0.241080   -1.795260
  C     -4.460600   -0.513180   -0.571360
  C     -4.949610    0.480250    0.226340
  C     -4.525070   -1.972840   -0.357420
  O     -5.008440   -2.514330    0.617410
  C     -3.906860   -2.582100   -1.553360
  C     -3.391140   -1.513280   -2.390500
  C     -2.610110   -1.635250   -3.512190
  C     -2.122370   -2.837410   -4.066780
  N     -1.663050   -3.758010   -4.578540
  C     -2.140500   -0.539630   -4.266930
  N     -1.728720    0.302880   -4.929530
  C     -3.878190   -3.905630   -1.925650
  C     -4.301980   -5.070750   -1.273010
  C     -4.806090   -5.312670    0.007650
  C     -5.090100   -6.642670    0.219200
  C     -4.807880   -7.455380   -0.895900
  S     -4.178600   -6.568010   -2.209720
  C     -5.146060   -8.786410   -0.593000
  C     -5.646410   -8.839780    0.717580
  C     -5.642450   -7.470870    1.354940
  C     -7.056490   -7.023880    1.735220
  C     -4.716770   -7.427120    2.574440
  C     -6.021160  -10.112610    1.094320
  C     -5.814760  -11.051110    0.082460
  S     -5.132930  -10.321220   -1.360240
  C     -6.093160  -12.443580    0.096540
  C     -6.674650  -13.141150    1.184340
  C     -6.947840  -14.550250    1.116380
  N     -7.506990  -15.167550    2.175080
  C     -7.794450  -14.495930    3.242240
  C     -7.523870  -13.107230    3.308310
  N     -6.988210  -12.475560    2.315300
  F     -7.810680  -12.399700    4.400800
  F     -8.343010  -15.146040    4.263240
  C     -6.659590  -15.349010   -0.016360
  C     -6.066430  -14.658330   -1.100610
  C     -5.799610  -13.242890   -1.033890
  N     -5.248660  -12.791300   -2.159330
  S     -5.079140  -14.004540   -3.195070
  N     -5.693760  -15.167910   -2.275800
  C     -6.956930  -16.734650   -0.049290
  C     -6.690680  -17.617490   -1.098360
  C     -7.111240  -18.901190   -0.823520
  C     -7.711470  -19.013370    0.441060
  S     -7.743510  -17.526030    1.298420
  C     -8.116310  -20.347090    0.630280
  C     -7.771490  -21.101210   -0.505470
  C     -7.097020  -20.231320   -1.538790
  C     -5.666110  -20.693080   -1.827400
  C     -7.924450  -20.180170   -2.826780
  C     -8.173970  -22.415110   -0.418900
  C     -8.834720  -22.695510    0.780830
  S     -8.909430  -21.278500    1.820520
  C     -9.365440  -23.901880    1.261100
  C     -9.642080  -25.070240    0.601630
  C     -9.757710  -26.318130    1.400640
  O     -9.834520  -26.403470    2.605190
  C     -9.703010  -27.418800    0.416340
  C     -9.657920  -28.764680    0.635050
  C     -9.571950  -29.637740   -0.473140
  C     -9.529620  -29.093800   -1.789390
  C     -9.433520  -29.969150   -2.889430
  C     -9.385570  -31.320750   -2.692260
  C     -9.430370  -31.857620   -1.390370
  C     -9.521790  -31.034730   -0.302840
  F     -9.380780  -33.186900   -1.226600
  F     -9.294160  -32.150930   -3.740080
  C     -9.588370  -27.694160   -1.984480
  C     -9.680440  -26.868910   -0.896570
  C     -9.788420  -25.413450   -0.790280
  C    -10.204520  -24.586810   -1.805670
  C    -10.569420  -23.239210   -1.624750
  N    -10.902970  -22.144570   -1.528270
  C    -10.389040  -25.009220   -3.136830
  N    -10.524640  -25.288490   -4.242340
  H     -3.488040    3.681780   -2.743400
  H     -5.785240    2.690170    1.535210
  H     -3.141830    1.304130   -3.136700
  H     -5.450120    0.243240    1.152900
  H     -3.477330   -4.101980   -2.913300
  H     -4.949850   -4.520070    0.718480
  H     -7.712470   -7.062430    0.868570
  H     -7.034150   -6.004200    2.110540
  H     -7.457720   -7.676310    2.506270
  H     -3.712960   -7.744030    2.300630
  H     -5.092710   -8.089390    3.349840
  H     -4.668660   -6.414770    2.966800
  H     -6.430950  -10.388130    2.046430
  H     -6.210640  -17.289620   -2.001180
  H     -5.085170  -20.726600   -0.908430
  H     -5.187030  -20.004210   -2.518130
  H     -5.675600  -21.685340   -2.271360
  H     -8.952940  -19.907490   -2.603830
  H     -7.925160  -21.154140   -3.309560
  H     -7.504140  -19.447440   -3.510650
  H     -7.970940  -23.168190   -1.158770
  H     -9.520950  -23.954000    2.335100
  H     -9.686420  -29.159000    1.639340
  H     -9.402230  -29.575210   -3.893280
  H     -9.554790  -31.461000    0.687560
  H     -9.549530  -27.310700   -2.991630

 Total Charge           Charge          ....    0
 Multiplicity           Mult            ....    1
 Number of Electrons    NEL             ....  616
 Basis Dimension        Dim             .... 1340

ORBITAL ENERGIES
----------------

  NO   OCC          E(Eh)            E(eV)
   0   2.0000     -89.052193     -2423.2334
   1   2.0000     -88.977415     -2421.1986
   2   2.0000     -88.975364     -2421.1428
   3   2.0000     -88.970507     -2421.0106
   4   2.0000     -88.970431     -2421.0085
   5   2.0000     -24.826396      -675.5606
   6   2.0000     -24.824399      -675.5062
   7   2.0000     -24.796299      -674.7416
   8   2.0000     -24.795579      -674.7220
   9   2.0000     -24.795029      -674.7070
  10   2.0000     -24.793746      -674.6721
  11   2.0000     -19.214704      -522.8587
  12   2.0000     -19.210690      -522.7494
  13   2.0000     -14.466952      -393.6658
  14   2.0000     -14.464098      -393.5881
  15   2.0000     -14.461701      -393.5229
  16   2.0000     -14.461040      -393.5049
  17   2.0000     -14.415065      -392.2539
  18   2.0000     -14.414165      -392.2294
  19   2.0000     -14.411316      -392.1519
  20   2.0000     -14.408570      -392.0771
  21   2.0000     -10.442443      -284.1533
  22   2.0000     -10.440512      -284.1008
  23   2.0000     -10.378979      -282.4264
  24   2.0000     -10.378579      -282.4155
  25   2.0000     -10.377617      -282.3893
  26   2.0000     -10.376713      -282.3647
  27   2.0000     -10.366145      -282.0771
  28   2.0000     -10.362355      -281.9740
  29   2.0000     -10.356162      -281.8055
  30   2.0000     -10.353972      -281.7459
  31   2.0000     -10.350022      -281.6384
  32   2.0000     -10.348143      -281.5873
  33   2.0000     -10.340651      -281.3834
  34   2.0000     -10.339221      -281.3445
  35   2.0000     -10.336094      -281.2594
  36   2.0000     -10.334492      -281.2158
  37   2.0000     -10.326042      -280.9859
  38   2.0000     -10.324810      -280.9524
  39   2.0000     -10.324450      -280.9426
  40   2.0000     -10.323238      -280.9096
  41   2.0000     -10.322640      -280.8933
  42   2.0000     -10.320818      -280.8437
  43   2.0000     -10.320270      -280.8288
  44   2.0000     -10.320087      -280.8239
  45   2.0000     -10.318192      -280.7723
  46   2.0000     -10.317612      -280.7565
  47   2.0000     -10.316563      -280.7280
  48   2.0000     -10.316264      -280.7198
  49   2.0000     -10.314669      -280.6764
  50   2.0000     -10.312383      -280.6142
  51   2.0000     -10.309790      -280.5436
  52   2.0000     -10.308755      -280.5155
  53   2.0000     -10.308020      -280.4955
  54   2.0000     -10.307618      -280.4845
  55   2.0000     -10.306042      -280.4417
  56   2.0000     -10.305624      -280.4303
  57   2.0000     -10.305086      -280.4156
  58   2.0000     -10.303063      -280.3606
  59   2.0000     -10.302772      -280.3527
  60   2.0000     -10.301701      -280.3235
  61   2.0000     -10.300889      -280.3014
  62   2.0000     -10.299689      -280.2688
  63   2.0000     -10.299522      -280.2642
  64   2.0000     -10.298878      -280.2467
  65   2.0000     -10.298245      -280.2295
  66   2.0000     -10.297470      -280.2084
  67   2.0000     -10.297444      -280.2077
  68   2.0000     -10.296974      -280.1949
  69   2.0000     -10.296461      -280.1809
  70   2.0000     -10.293455      -280.0991
  71   2.0000     -10.292541      -280.0743
  72   2.0000     -10.290545      -280.0200
  73   2.0000     -10.288939      -279.9763
  74   2.0000     -10.288910      -279.9755
  75   2.0000     -10.287875      -279.9473
  76   2.0000     -10.286603      -279.9127
  77   2.0000     -10.286558      -279.9115
  78   2.0000     -10.285959      -279.8952
  79   2.0000     -10.285162      -279.8735
  80   2.0000     -10.283901      -279.8392
  81   2.0000     -10.273143      -279.5464
  82   2.0000     -10.271008      -279.4883
  83   2.0000     -10.270624      -279.4779
  84   2.0000     -10.267019      -279.3798
  85   2.0000      -8.143249      -221.5891
  86   2.0000      -8.072549      -219.6652
  87   2.0000      -8.070533      -219.6104
  88   2.0000      -8.064159      -219.4369
  89   2.0000      -8.063690      -219.4242
  90   2.0000      -6.114396      -166.3812
  91   2.0000      -6.106613      -166.1694
  92   2.0000      -6.105933      -166.1509
  93   2.0000      -6.041762      -164.4047
  94   2.0000      -6.039685      -164.3482
  95   2.0000      -6.037738      -164.2952
  96   2.0000      -6.035726      -164.2405
  97   2.0000      -6.034727      -164.2133
  98   2.0000      -6.033691      -164.1851
  99   2.0000      -6.033263      -164.1734
 100   2.0000      -6.032722      -164.1587
 101   2.0000      -6.029213      -164.0632
 102   2.0000      -6.028681      -164.0487
 103   2.0000      -6.026169      -163.9804
 104   2.0000      -6.025763      -163.9693
 105   2.0000      -1.353422       -36.8285
 106   2.0000      -1.339309       -36.4445
 107   2.0000      -1.318714       -35.8840
 108   2.0000      -1.317137       -35.8411
 109   2.0000      -1.303894       -35.4808
 110   2.0000      -1.302284       -35.4369
 111   2.0000      -1.149997       -31.2930
 112   2.0000      -1.129317       -30.7303
 113   2.0000      -1.126365       -30.6499
 114   2.0000      -1.124977       -30.6122
 115   2.0000      -1.050593       -28.5881
 116   2.0000      -1.025860       -27.9151
 117   2.0000      -1.024924       -27.8896
 118   2.0000      -1.017488       -27.6872
 119   2.0000      -1.014604       -27.6088
 120   2.0000      -1.007287       -27.4097
 121   2.0000      -1.002085       -27.2681
 122   2.0000      -0.999750       -27.2046
 123   2.0000      -0.995828       -27.0979
 124   2.0000      -0.992702       -27.0128
 125   2.0000      -0.988794       -26.9065
 126   2.0000      -0.984074       -26.7780
 127   2.0000      -0.978772       -26.6337
 128   2.0000      -0.976384       -26.5688
 129   2.0000      -0.971812       -26.4443
 130   2.0000      -0.940630       -25.5958
 131   2.0000      -0.934795       -25.4371
 132   2.0000      -0.927144       -25.2289
 133   2.0000      -0.925137       -25.1743
 134   2.0000      -0.902065       -24.5464
 135   2.0000      -0.899513       -24.4770
 136   2.0000      -0.897356       -24.4183
 137   2.0000      -0.895425       -24.3658
 138   2.0000      -0.890642       -24.2356
 139   2.0000      -0.888513       -24.1777
 140   2.0000      -0.883243       -24.0343
 141   2.0000      -0.879608       -23.9354
 142   2.0000      -0.861927       -23.4542
 143   2.0000      -0.850864       -23.1532
 144   2.0000      -0.844097       -22.9690
 145   2.0000      -0.841049       -22.8861
 146   2.0000      -0.838054       -22.8046
 147   2.0000      -0.835931       -22.7468
 148   2.0000      -0.833258       -22.6741
 149   2.0000      -0.831979       -22.6393
 150   2.0000      -0.826330       -22.4856
 151   2.0000      -0.816196       -22.2098
 152   2.0000      -0.810560       -22.0564
 153   2.0000      -0.791610       -21.5408
 154   2.0000      -0.782806       -21.3012
 155   2.0000      -0.782253       -21.2862
 156   2.0000      -0.781932       -21.2774
 157   2.0000      -0.765248       -20.8235
 158   2.0000      -0.762810       -20.7571
 159   2.0000      -0.759712       -20.6728
 160   2.0000      -0.757645       -20.6166
 161   2.0000      -0.745725       -20.2922
 162   2.0000      -0.735384       -20.0108
 163   2.0000      -0.724087       -19.7034
 164   2.0000      -0.718881       -19.5617
 165   2.0000      -0.714542       -19.4437
 166   2.0000      -0.713937       -19.4272
 167   2.0000      -0.710415       -19.3314
 168   2.0000      -0.706031       -19.2121
 169   2.0000      -0.696712       -18.9585
 170   2.0000      -0.692163       -18.8347
 171   2.0000      -0.686412       -18.6782
 172   2.0000      -0.681592       -18.5471
 173   2.0000      -0.680402       -18.5147
 174   2.0000      -0.673082       -18.3155
 175   2.0000      -0.671402       -18.2698
 176   2.0000      -0.661150       -17.9908
 177   2.0000      -0.656352       -17.8603
 178   2.0000      -0.652580       -17.7576
 179   2.0000      -0.649787       -17.6816
 180   2.0000      -0.641115       -17.4456
 181   2.0000      -0.640073       -17.4173
 182   2.0000      -0.639305       -17.3964
 183   2.0000      -0.638294       -17.3689
 184   2.0000      -0.636366       -17.3164
 185   2.0000      -0.635787       -17.3007
 186   2.0000      -0.632902       -17.2221
 187   2.0000      -0.631275       -17.1779
 188   2.0000      -0.628812       -17.1108
 189   2.0000      -0.620031       -16.8719
 190   2.0000      -0.615518       -16.7491
 191   2.0000      -0.611991       -16.6531
 192   2.0000      -0.604301       -16.4439
 193   2.0000      -0.600284       -16.3346
 194   2.0000      -0.588374       -16.0105
 195   2.0000      -0.585453       -15.9310
 196   2.0000      -0.583392       -15.8749
 197   2.0000      -0.583261       -15.8713
 198   2.0000      -0.581773       -15.8308
 199   2.0000      -0.580613       -15.7993
 200   2.0000      -0.576845       -15.6967
 201   2.0000      -0.575909       -15.6713
 202   2.0000      -0.573849       -15.6152
 203   2.0000      -0.567910       -15.4536
 204   2.0000      -0.561941       -15.2912
 205   2.0000      -0.559680       -15.2297
 206   2.0000      -0.556463       -15.1421
 207   2.0000      -0.554812       -15.0972
 208   2.0000      -0.552981       -15.0474
 209   2.0000      -0.551662       -15.0115
 210   2.0000      -0.549264       -14.9462
 211   2.0000      -0.545059       -14.8318
 212   2.0000      -0.543538       -14.7904
 213   2.0000      -0.538483       -14.6529
 214   2.0000      -0.538124       -14.6431
 215   2.0000      -0.536722       -14.6049
 216   2.0000      -0.534100       -14.5336
 217   2.0000      -0.533046       -14.5049
 218   2.0000      -0.531718       -14.4688
 219   2.0000      -0.530775       -14.4431
 220   2.0000      -0.529982       -14.4215
 221   2.0000      -0.529633       -14.4120
 222   2.0000      -0.527531       -14.3548
 223   2.0000      -0.525770       -14.3069
 224   2.0000      -0.525446       -14.2981
 225   2.0000      -0.522484       -14.2175
 226   2.0000      -0.518823       -14.1179
 227   2.0000      -0.516823       -14.0635
 228   2.0000      -0.514546       -14.0015
 229   2.0000      -0.512400       -13.9431
 230   2.0000      -0.509913       -13.8754
 231   2.0000      -0.508264       -13.8306
 232   2.0000      -0.505340       -13.7510
 233   2.0000      -0.503502       -13.7010
 234   2.0000      -0.499810       -13.6005
 235   2.0000      -0.496692       -13.5157
 236   2.0000      -0.495674       -13.4880
 237   2.0000      -0.493544       -13.4300
 238   2.0000      -0.491726       -13.3805
 239   2.0000      -0.490810       -13.3556
 240   2.0000      -0.489493       -13.3198
 241   2.0000      -0.487471       -13.2648
 242   2.0000      -0.484712       -13.1897
 243   2.0000      -0.482694       -13.1348
 244   2.0000      -0.481418       -13.1000
 245   2.0000      -0.478806       -13.0290
 246   2.0000      -0.477304       -12.9881
 247   2.0000      -0.473061       -12.8726
 248   2.0000      -0.469646       -12.7797
 249   2.0000      -0.467159       -12.7121
 250   2.0000      -0.465686       -12.6720
 251   2.0000      -0.465205       -12.6589
 252   2.0000      -0.464623       -12.6430
 253   2.0000      -0.462499       -12.5852
 254   2.0000      -0.460710       -12.5366
 255   2.0000      -0.459605       -12.5065
 256   2.0000      -0.452119       -12.3028
 257   2.0000      -0.451378       -12.2826
 258   2.0000      -0.449897       -12.2423
 259   2.0000      -0.446089       -12.1387
 260   2.0000      -0.445717       -12.1286
 261   2.0000      -0.444670       -12.1001
 262   2.0000      -0.442770       -12.0484
 263   2.0000      -0.441850       -12.0234
 264   2.0000      -0.440236       -11.9794
 265   2.0000      -0.438741       -11.9388
 266   2.0000      -0.437639       -11.9088
 267   2.0000      -0.433885       -11.8066
 268   2.0000      -0.429411       -11.6849
 269   2.0000      -0.428256       -11.6534
 270   2.0000      -0.427298       -11.6274
 271   2.0000      -0.426754       -11.6126
 272   2.0000      -0.426149       -11.5961
 273   2.0000      -0.424656       -11.5555
 274   2.0000      -0.422552       -11.4982
 275   2.0000      -0.421956       -11.4820
 276   2.0000      -0.421813       -11.4781
 277   2.0000      -0.417106       -11.3500
 278   2.0000      -0.414558       -11.2807
 279   2.0000      -0.413263       -11.2454
 280   2.0000      -0.412313       -11.2196
 281   2.0000      -0.408519       -11.1164
 282   2.0000      -0.405201       -11.0261
 283   2.0000      -0.400890       -10.9088
 284   2.0000      -0.399946       -10.8831
 285   2.0000      -0.397314       -10.8115
 286   2.0000      -0.384995       -10.4762
 287   2.0000      -0.383891       -10.4462
 288   2.0000      -0.373494       -10.1633
 289   2.0000      -0.372893       -10.1469
 290   2.0000      -0.367910       -10.0113
 291   2.0000      -0.367388        -9.9971
 292   2.0000      -0.353222        -9.6117
 293   2.0000      -0.349196        -9.5021
 294   2.0000      -0.338107        -9.2004
 295   2.0000      -0.336521        -9.1572
 296   2.0000      -0.336100        -9.1458
 297   2.0000      -0.334193        -9.0939
 298   2.0000      -0.330288        -8.9876
 299   2.0000      -0.328644        -8.9429
 300   2.0000      -0.325734        -8.8637
 301   2.0000      -0.314913        -8.5692
 302   2.0000      -0.313539        -8.5318
 303   2.0000      -0.303140        -8.2489
 304   2.0000      -0.298479        -8.1220
 305   2.0000      -0.292283        -7.9534
 306   2.0000      -0.264620        -7.2007
 307   2.0000      -0.232880        -6.3370
 308   0.0000      -0.129085        -3.5126
 309   0.0000      -0.092105        -2.5063
 310   0.0000      -0.087524        -2.3816
 311   0.0000      -0.056744        -1.5441
 312   0.0000      -0.056589        -1.5399

MULLIKEN ATOMIC CHARGES
-----------------------
   0 C :   -0.107851
   1 C :    0.239256
   2 F :   -0.173341
   3 C :    0.237406
   4 F :   -0.173287
   5 C :   -0.104333
   6 C :    0.116794
   7 C :    0.113965
   8 C :   -0.083458
   9 C :    0.046273
  10 C :    0.004421
  11 C :   -0.087956
  12 C :    0.156649
  13 O :   -0.165104
  14 C :   -0.102044
  15 C :    0.318781
  16 C :   -0.364118
  17 C :   -0.195201
  18 N :    0.152666
  19 C :   -0.184438
  20 N :    0.139945
  21 C :    0.039988
  22 C :   -0.114372
  23 C :   -0.013227
  24 C :    0.000425
  25 C :   -0.065525
  26 S :    0.172881
  27 C :   -0.059890
  28 C :    0.050679
  29 C :   -0.106792
  30 C :    0.101662
  31 C :    0.105280
  32 C :   -0.065388
  33 C :   -0.181907
  34 S :    0.178134
  35 C :    0.201878
  36 C :   -0.072953
  37 C :   -0.059109
  38 N :   -0.047297
  39 C :    0.155466
  40 C :    0.140841
  41 N :    0.001967
  42 F :   -0.142570
  43 F :   -0.134741
  44 C :    0.174810
  45 C :   -0.003026
  46 C :   -0.028039
  47 N :   -0.329109
  48 S :    0.557318
  49 N :   -0.293176
  50 C :   -0.178359
  51 C :   -0.060973
  52 C :    0.042115
  53 C :   -0.053697
  54 S :    0.178039
  55 C :   -0.063829
  56 C :    0.001251
  57 C :   -0.110534
  58 C :    0.106818
  59 C :    0.105174
  60 C :    0.003215
  61 C :   -0.113759
  62 S :    0.181215
  63 C :    0.079391
  64 C :   -0.148700
  65 C :    0.136279
  66 O :   -0.149462
  67 C :    0.013040
  68 C :   -0.081417
  69 C :    0.109244
  70 C :    0.109726
  71 C :   -0.105279
  72 C :    0.239248
  73 C :    0.239356
  74 C :   -0.103026
  75 F :   -0.173709
  76 F :   -0.173027
  77 C :   -0.084658
  78 C :    0.037451
  79 C :    0.278125
  80 C :   -0.357477
  81 C :   -0.202123
  82 N :    0.168167
  83 C :   -0.171106
  84 N :    0.144741
  85 H :    0.007028
  86 H :   -0.004291
  87 H :   -0.008336
  88 H :   -0.015100
  89 H :    0.005147
  90 H :    0.008084
  91 H :    0.020725
  92 H :    0.021439
  93 H :    0.015647
  94 H :    0.020069
  95 H :    0.014516
  96 H :    0.020116
  97 H :   -0.004141
  98 H :   -0.006813
  99 H :    0.019701
 100 H :    0.015405
 101 H :    0.012038
 102 H :    0.037054
 103 H :    0.014286
 104 H :    0.011205
 105 H :   -0.001589
 106 H :    0.021378
 107 H :   -0.010680
 108 H :    0.004143
 109 H :   -0.001515
 110 H :   -0.006209
Sum of atomic charges:   -0.0000000

LOEWDIN ATOMIC CHARGES
----------------------
   0 C :   -0.029487
   1 C :    0.065044
   2 F :   -0.050696
   3 C :    0.066193
   4 F :   -0.051292
   5 C :   -0.034499
   6 C :   -0.009549
   7 C :   -0.007447
   8 C :    0.015879
   9 C :   -0.022222
  10 C :   -0.050084
  11 C :    0.025722
  12 C :    0.086403
  13 O :   -0.153396
  14 C :   -0.110680
  15 C :    0.076864
  16 C :   -0.149879
  17 C :   -0.025703
  18 N :   -0.057274
  19 C :   -0.017370
  20 N :   -0.061369
  21 C :    0.044661
  22 C :   -0.175768
  23 C :   -0.003400
  24 C :   -0.039069
  25 C :   -0.163827
  26 S :    0.462136
  27 C :   -0.203291
  28 C :   -0.023419
  29 C :   -0.036214
  30 C :   -0.023584
  31 C :   -0.022861
  32 C :   -0.040844
  33 C :   -0.152409
  34 S :    0.481343
  35 C :   -0.049219
  36 C :   -0.006936
  37 C :   -0.015693
  38 N :   -0.052962
  39 C :    0.062308
  40 C :    0.059076
  41 N :   -0.029743
  42 F :   -0.031289
  43 F :   -0.024304
  44 C :   -0.042711
  45 C :   -0.038028
  46 C :   -0.046349
  47 N :   -0.299217
  48 S :    0.675882
  49 N :   -0.277146
  50 C :   -0.158114
  51 C :   -0.036548
  52 C :   -0.025000
  53 C :   -0.198639
  54 S :    0.480534
  55 C :   -0.164530
  56 C :   -0.029236
  57 C :   -0.035859
  58 C :   -0.024266
  59 C :   -0.022042
  60 C :   -0.006017
  61 C :   -0.180186
  62 S :    0.467814
  63 C :    0.047461
  64 C :   -0.109233
  65 C :    0.080751
  66 O :   -0.149419
  67 C :   -0.052441
  68 C :    0.028230
  69 C :   -0.010288
  70 C :   -0.006907
  71 C :   -0.030954
  72 C :    0.065750
  73 C :    0.065921
  74 C :   -0.033209
  75 F :   -0.050906
  76 F :   -0.050375
  77 C :    0.010959
  78 C :   -0.019501
  79 C :    0.066846
  80 C :   -0.153098
  81 C :   -0.016794
  82 N :   -0.049054
  83 C :   -0.021194
  84 N :   -0.060271
  85 H :    0.047461
  86 H :    0.043562
  87 H :    0.039396
  88 H :    0.038155
  89 H :    0.042338
  90 H :    0.034882
  91 H :    0.029801
  92 H :    0.028303
  93 H :    0.025655
  94 H :    0.029706
  95 H :    0.025487
  96 H :    0.027654
  97 H :    0.029433
  98 H :    0.029577
  99 H :    0.029227
 100 H :    0.026130
 101 H :    0.024558
 102 H :    0.035556
 103 H :    0.025435
 104 H :    0.024362
 105 H :    0.035787
 106 H :    0.045320
 107 H :    0.040033
 108 H :    0.046563
 109 H :    0.044384
 110 H :    0.038773

  Mayer bond orders larger than 0.100000
B(  0-C ,  1-C ) :   1.4398 B(  0-C ,  5-C ) :   0.1090 B(  0-C ,  7-C ) :   1.1893
B(  0-C , 85-H ) :   1.0064 B(  1-C ,  2-F ) :   1.1316 B(  1-C ,  3-C ) :   1.1944
B(  3-C ,  4-F ) :   1.1320 B(  3-C ,  5-C ) :   1.4422 B(  5-C ,  6-C ) :   1.1934
B(  5-C , 86-H ) :   1.0066 B(  6-C ,  7-C ) :   1.2572 B(  6-C , 11-C ) :   1.1843
B(  7-C ,  8-C ) :   1.2140 B(  8-C ,  9-C ) :   1.4543 B(  8-C , 87-H ) :   0.9891
B(  9-C , 10-C ) :   1.2238 B(  9-C , 15-C ) :   0.9748 B( 10-C , 11-C ) :   1.4736
B( 10-C , 12-C ) :   0.9494 B( 11-C , 88-H ) :   1.0159 B( 12-C , 13-O ) :   2.1529
B( 12-C , 14-C ) :   0.9550 B( 14-C , 15-C ) :   1.1012 B( 14-C , 21-C ) :   1.5258
B( 15-C , 16-C ) :   1.6054 B( 16-C , 17-C ) :   1.1397 B( 16-C , 19-C ) :   1.1528
B( 17-C , 18-N ) :   2.9760 B( 19-C , 20-N ) :   2.9585 B( 21-C , 22-C ) :   1.2755
B( 21-C , 89-H ) :   0.9095 B( 22-C , 23-C ) :   1.3535 B( 22-C , 26-S ) :   1.0692
B( 23-C , 24-C ) :   1.3609 B( 23-C , 90-H ) :   0.9819 B( 24-C , 25-C ) :   1.4326
B( 24-C , 29-C ) :   0.9330 B( 25-C , 26-S ) :   1.1301 B( 25-C , 27-C ) :   1.2011
B( 27-C , 28-C ) :   1.4647 B( 27-C , 34-S ) :   1.0507 B( 28-C , 29-C ) :   0.9399
B( 28-C , 32-C ) :   1.3108 B( 29-C , 30-C ) :   1.0377 B( 29-C , 31-C ) :   1.0353
B( 30-C , 91-H ) :   0.9639 B( 30-C , 92-H ) :   0.9647 B( 30-C , 93-H ) :   0.9645
B( 31-C , 94-H ) :   0.9635 B( 31-C , 95-H ) :   0.9647 B( 31-C , 96-H ) :   0.9650
B( 32-C , 33-C ) :   1.3962 B( 32-C , 97-H ) :   0.9970 B( 33-C , 34-S ) :   1.1145
B( 33-C , 35-C ) :   1.1937 B( 35-C , 36-C ) :   1.2886 B( 35-C , 44-C ) :   0.1234
B( 35-C , 46-C ) :   1.1804 B( 36-C , 37-C ) :   1.1149 B( 36-C , 41-N ) :   1.4341
B( 37-C , 38-N ) :   1.3886 B( 37-C , 44-C ) :   1.2789 B( 38-N , 39-C ) :   1.6495
B( 39-C , 40-C ) :   1.1111 B( 39-C , 43-F ) :   1.1883 B( 40-C , 41-N ) :   1.6618
B( 40-C , 42-F ) :   1.1721 B( 44-C , 45-C ) :   1.1967 B( 44-C , 50-C ) :   1.2077
B( 45-C , 46-C ) :   1.1118 B( 45-C , 49-N ) :   1.5093 B( 46-C , 47-N ) :   1.4787
B( 47-N , 48-S ) :   1.2706 B( 47-N , 49-N ) :   0.1512 B( 48-S , 49-N ) :   1.2780
B( 50-C , 51-C ) :   1.4014 B( 50-C , 54-S ) :   1.1014 B( 51-C , 52-C ) :   1.3188
B( 51-C , 98-H ) :   0.9910 B( 52-C , 53-C ) :   1.4709 B( 52-C , 57-C ) :   0.9343
B( 53-C , 54-S ) :   1.0441 B( 53-C , 55-C ) :   1.2043 B( 55-C , 56-C ) :   1.4535
B( 55-C , 62-S ) :   1.1214 B( 56-C , 57-C ) :   0.9354 B( 56-C , 60-C ) :   1.4194
B( 57-C , 58-C ) :   1.0366 B( 57-C , 59-C ) :   1.0376 B( 58-C , 99-H ) :   0.9637
B( 58-C ,100-H ) :   0.9645 B( 58-C ,101-H ) :   0.9646 B( 59-C ,102-H ) :   0.9618
B( 59-C ,103-H ) :   0.9635 B( 59-C ,104-H ) :   0.9634 B( 60-C , 61-C ) :   1.3431
B( 60-C ,105-H ) :   0.9878 B( 61-C , 62-S ) :   1.0832 B( 61-C , 63-C ) :   1.1987
B( 63-C , 64-C ) :   1.5855 B( 63-C ,106-H ) :   0.9271 B( 64-C , 65-C ) :   0.9570
B( 64-C , 79-C ) :   1.0706 B( 65-C , 66-O ) :   2.2592 B( 65-C , 67-C ) :   0.9143
B( 67-C , 68-C ) :   1.4827 B( 67-C , 78-C ) :   1.2223 B( 68-C , 69-C ) :   1.1867
B( 68-C ,107-H ) :   1.0167 B( 69-C , 70-C ) :   1.2612 B( 69-C , 74-C ) :   1.1960
B( 70-C , 71-C ) :   1.1890 B( 70-C , 77-C ) :   1.2114 B( 71-C , 72-C ) :   1.4409
B( 71-C , 74-C ) :   0.1085 B( 71-C ,108-H ) :   1.0076 B( 72-C , 73-C ) :   1.1924
B( 72-C , 76-F ) :   1.1331 B( 73-C , 74-C ) :   1.4404 B( 73-C , 75-F ) :   1.1314
B( 74-C ,109-H ) :   1.0078 B( 77-C , 78-C ) :   1.4581 B( 77-C ,110-H ) :   0.9943
B( 78-C , 79-C ) :   0.9938 B( 79-C , 80-C ) :   1.6156 B( 80-C , 81-C ) :   1.1763
B( 80-C , 83-C ) :   1.1313 B( 81-C , 82-N ) :   2.9794 B( 83-C , 84-N ) :   2.9798

-----------------------------------------------------------------------------
         ABSORPTION SPECTRUM VIA TRANSITION ELECTRIC DIPOLE MOMENTS
-----------------------------------------------------------------------------
State   Energy  Wavelength   fosc         T2         TX        TY        TZ
        (cm-1)    (nm)                  (au**2)     (au)      (au)      (au)
-----------------------------------------------------------------------------
   0    8472.3   1180.3   1.351577814  52.51898   1.69631   7.03980  -0.28773
   1   16363.1    611.1   0.052838000   1.06306  -0.32208  -0.41776  -0.88589
   2   17540.0    570.1   0.804359129  15.09715   1.22032   3.68254   0.21643
   3   18560.8    538.8   0.722537009  12.81558  -0.75638  -3.32101   1.10198
   4   23598.8    423.8   0.083270818   1.16166   0.44520   0.98095   0.03444
   5   25035.6    399.4   0.168877235   2.22069  -0.12391  -1.43638   0.37704
   6   25246.4    396.1   0.007930590   0.10341   0.20178  -0.02673  -0.24896
   7   25570.2    391.1   0.021458444   0.27627   0.28831  -0.26983  -0.34690
   8   26178.7    382.0   0.044459946   0.55911  -0.00174  -0.09970   0.74106
   9   26398.2    378.8   0.001047419   0.01306   0.11088  -0.01580  -0.02277
  10   26569.2    376.4   0.013136431   0.16277   0.18504  -0.32357   0.15439
  11   26618.6    375.7   0.062032261   0.76720   0.28971  -0.76957  -0.30170
  12   27118.3    368.8   0.321963255   3.90858  -0.13020  -1.97107  -0.08077
  13   27388.3    365.1   0.072009524   0.86557  -0.12020   0.92150   0.04415
  14   28487.9    351.0   0.032797283   0.37901   0.02628  -0.54502   0.28508
  15   28773.9    347.5   0.031943267   0.36547  -0.01101   0.60273  -0.04545
  16   29141.6    343.2   0.004988055   0.05635   0.01394  -0.21754   0.09397
  17   29518.5    338.8   0.037114945   0.41393   0.34958  -0.25979  -0.47353
  18   29682.8    336.9   0.040659977   0.45096   0.22668   0.06402  -0.62887
  19   30078.6    332.5   0.208935315   2.28681   0.29247   1.48358   0.01646
  20   30345.1    329.5   0.000607112   0.00659  -0.05088  -0.04854  -0.04052
  21   30726.2    325.5   0.015094665   0.16173  -0.09612   0.12718   0.36921
  22   30996.8    322.6   0.000066694   0.00071  -0.01330  -0.01543  -0.01713
  23   31361.4    318.9   0.031643887   0.33218  -0.33972   0.37778   0.27212
  24   31589.2    316.6   0.036810570   0.38363   0.13743   0.41976  -0.43422
  25   31797.5    314.5   0.264982214   2.74347  -0.44402   1.56394   0.31688
  26   31932.6    313.2   0.052985484   0.54626   0.13798  -0.72489   0.04193
  27   32223.9    310.3   0.194800679   1.99016   0.47617  -0.04465  -1.32719
  28   32797.1    304.9   0.196598484   1.97342  -0.42957   1.31838   0.22528
  29   33315.5    300.2   0.050297841   0.49703  -0.17678  -0.36186   0.57864
  30   33541.2    298.1   0.061958163   0.60813  -0.04344   0.19420   0.75401
  31   33833.2    295.6   0.060253403   0.58629   0.28488  -0.60110  -0.37923
  32   34024.5    293.9   0.033895168   0.32796  -0.09918  -0.55410   0.10535
  33   34325.1    291.3   0.075966583   0.72859  -0.15089   0.83215   0.11558
  34   34608.1    288.9   0.138902793   1.32132   0.34409  -0.97537  -0.50158
  35   34936.4    286.2   0.072898321   0.68693   0.31723   0.44295  -0.62458
  36   34950.9    286.1   0.050721634   0.47776  -0.27904   0.30412   0.55444
  37   35284.1    283.4   0.071435186   0.66651   0.12287  -0.78928  -0.16870
  38   35447.6    282.1   0.044182783   0.41034  -0.15894  -0.41079   0.46511
  39   35717.2    280.0   0.381123904   3.51289  -0.70576  -0.05956   1.73529
  40   35766.5    279.6   0.021908306   0.20165  -0.05192   0.42652  -0.13053
  41   36199.2    276.2   0.088355187   0.80354   0.48778  -0.31982  -0.68068
  42   36451.6    274.3   0.112113851   1.01255  -0.20146  -0.30360   0.93797
  43   36517.3    273.8   0.080430528   0.72510   0.17313  -0.83014   0.07743
  44   36634.6    273.0   0.768654252   6.90740   0.86455  -2.37342  -0.72582
  45   37167.3    269.1   0.010248234   0.09077  -0.14291  -0.05981   0.25841
  46   37342.5    267.8   0.002190853   0.01931  -0.07265   0.07655  -0.09043
  47   37497.0    266.7   0.019785216   0.17371  -0.00593   0.32533  -0.26044
  48   37765.7    264.8   0.001436462   0.01252   0.04336   0.06865  -0.07700
  49   38326.3    260.9   0.003366544   0.02892  -0.00212   0.16883  -0.02026
  50   38466.6    260.0   0.248313926   2.12517   0.50541   0.07409  -1.36537
  51   38951.2    256.7   0.022933965   0.19384   0.12762   0.12879  -0.40120
  52   39123.5    255.6   0.034779035   0.29265  -0.19674  -0.27213   0.42414
  53   39325.0    254.3   0.102738495   0.86008   0.44236   0.38792  -0.71688
  54   39735.2    251.7   0.021482936   0.17799  -0.13230  -0.27851  -0.28795
  55   39980.9    250.1   0.001643775   0.01354  -0.11487   0.01495  -0.01079

FINAL SINGLE POINT ENERGY     -5627.781175605175

DIPOLE MOMENT
-------------
                                X             Y             Z
Electronic contribution:     -6.73159       0.96729       3.66328
Nuclear contribution   :      6.87250      -2.15228      -1.64992
                        -----------------------------------------
Total Dipole Moment    :      0.14091      -1.18499       2.01336
                        -----------------------------------------
Magnitude (a.u.)       :      2.34044
Magnitude (Debye)      :      5.94893

Rotational constants in cm-1:     0.002583     0.000116     0.000113
Rotational constants in MHz :    77.440496     3.486927     3.378767

                             ****ORCA TERMINATED NORMALLY****
TOTAL RUN TIME: 0 days 0 hours 12 minutes 57 seconds 123 msec
