                         Program Version 4.2.0 -  RELEASE  -
|  1> # ORCA input file
|  2> # SCF done       -220.580275482324          0.000421631700
|  3> ! CAM-B3LYP def2-SVP def2/J RIJCOSX Grid4 TightSCF
|  4> %maxcore 5000
|  5> %tddft
|  6>     Mode sTDDFT
|  7>     Ethresh 5.0
|  8>     maxcore 5000
|  9> end
| 10>
| 11> %pal
| 12>   nprocs 6
| 13>   end
| 14> * xyz 0 1
| 15>    C       -3.78974         2.42917        -3.10789
| 16>    C       -3.29176         3.41325        -2.30103
| 17>    F       -3.32744         4.69250        -2.69836
| 18>    C       -2.73623         3.09834        -1.04478
| 19>    F       -2.25489         4.08415        -0.27464
| 20>    C       -2.68749         1.80294        -0.61186
| 21>    C       -3.19413         0.76659        -1.41976
| 22>    C       -3.75416         1.08315        -2.69110
| 23>    C       -4.26679         0.05980        -3.52090
| 24>    C       -4.22449        -1.24064        -3.09096
| 25>    C       -3.67251        -1.54444        -1.81762
| 26>    C       -3.16419        -0.58047        -0.99606
| 27>    C       -3.76204        -2.99777        -1.57431
| 28>    O       -3.35074        -3.56857        -0.58454
| 29>    C       -4.43878        -3.56375        -2.76111
| 30>    C       -4.66637        -2.48749        -3.71115
| 31>    C       -5.17143        -2.58491        -4.98325
| 32>    C       -5.56207        -3.76633        -5.64831
| 33>    N       -5.89471        -4.66919        -6.27673
| 34>    C       -5.35734        -1.48211        -5.84408
| 35>    N       -5.53949        -0.63413        -6.59645
| 36>    C       -4.86141        -4.85271        -2.97001
| 37>    C       -4.76882        -6.01252        -2.18480
| 38>    C       -4.19166        -6.28901        -0.95187
| 39>    C       -4.38382        -7.60417        -0.56286
| 40>    C       -5.11057        -8.37834        -1.49307
| 41>    S       -5.55193        -7.44820        -2.86734
| 42>    C       -5.28730        -9.68668        -1.04881
| 43>    C       -4.71134        -9.90897         0.22308
| 44>    S       -3.91560        -8.50105         0.86440
| 45>    C       -4.98919       -11.21992         0.58132
| 46>    C       -5.70720       -11.77657        -0.48391
| 47>    N       -5.88005       -10.83549        -1.46495
| 48>    C       -6.66700       -10.93863        -2.66256
| 49>    C       -6.18876       -13.13216        -0.56418
| 50>    C       -6.74074       -13.76452         0.56645
| 51>    C       -7.22062       -15.11620         0.52059
| 52>    N       -7.76121       -15.66543         1.62697
| 53>    C       -7.84695       -14.96949         2.71280
| 54>    C       -7.39075       -13.62412         2.74943
| 55>    N       -6.86636       -13.05891         1.71417
| 56>    F       -7.50146       -12.90279         3.86193
| 57>    F       -8.38377       -15.54778         3.78332
| 58>    C       -7.15748       -15.91355        -0.64331
| 59>    C       -6.55928       -15.29615        -1.76591
| 60>    C       -6.09282       -13.92634        -1.72338
| 61>    N       -5.52411       -13.56778        -2.87900
| 62>    S       -5.58290       -14.79880        -3.90386
| 63>    N       -6.32496       -15.85524        -2.95378
| 64>    C       -7.66389       -17.24122        -0.66132
| 65>    C       -7.65394       -18.12634        -1.72912
| 66>    C       -8.25964       -19.33460        -1.41419
| 67>    C       -8.74499       -19.38989        -0.09691
| 68>    S       -8.42973       -17.92051         0.75857
| 69>    C       -9.36202       -20.61206         0.17048
| 70>    C       -9.33725       -21.48878        -0.94538
| 71>    S       -8.55474       -20.79315        -2.33499
| 72>    C       -9.95780       -22.66307        -0.56997
| 73>    C      -10.37205       -22.48812         0.76639
| 74>    N      -10.00802       -21.22397         1.18417
| 75>    C      -10.19266       -20.67885         2.50097
| 76>    C      -11.15827       -23.33396         1.57297
| 77>    C      -11.42047       -24.66699         1.42949
| 78>    C      -12.63515       -25.23470         2.06858
| 79>    O      -13.34420       -24.69140         2.88589
| 80>    C      -12.81389       -26.56499         1.45131
| 81>    C      -13.83885       -27.45270         1.60466
| 82>    C      -13.80899       -28.66772         0.88338
| 83>    C      -12.71461       -28.93665         0.01109
| 84>    C      -12.69410       -30.14781        -0.70889
| 85>    C      -13.71010       -31.05093        -0.56715
| 86>    C      -14.79117       -30.78447         0.29650
| 87>    C      -14.84094       -29.61804         1.00719
| 88>    F      -15.77439       -31.68729         0.41505
| 89>    F      -13.68755       -32.20245        -1.25136
| 90>    C      -11.66325       -28.00029        -0.12234
| 91>    C      -11.71003       -26.83390         0.59218
| 92>    C      -10.77098       -25.71761         0.68344
| 93>    C       -9.44024       -25.77341         0.35281
| 94>    C       -8.51560       -24.77750         0.72325
| 95>    N       -7.73268       -24.00686         1.05612
| 96>    C       -8.83950       -26.86678        -0.30110
| 97>    N       -8.31340       -27.72644        -0.85083
| 98>    H       -4.21062         2.68730        -4.06714
| 99>    H       -2.25956         1.57806         0.35251
|100>    H       -4.68415         0.33588        -4.47525
|101>    H       -2.74824        -0.84314        -0.03525
|102>    H       -5.38731        -5.02569        -3.90172
|103>    H       -3.66533        -5.54665        -0.38047
|104>    H       -4.70359       -11.73275         1.47518
|105>    H       -7.54554       -11.55672        -2.47827
|106>    H       -6.08633       -11.38615        -3.47124
|107>    H       -6.98606        -9.94014        -2.95967
|108>    H       -7.22168       -17.87803        -2.67976
|109>    H      -10.14292       -23.52465        -1.17900
|110>    H       -9.74285       -21.33209         3.25046
|111>    H      -11.25520       -20.55919         2.72474
|112>    H       -9.71223       -19.70309         2.54513
|113>    H      -11.72187       -22.85400         2.36729
|114>    H      -14.66180       -27.23240         2.26742
|115>    H      -11.87216       -30.36920        -1.37166
|116>    H      -15.67548       -29.42893         1.66411
|117>    H      -10.85009       -28.22565        -0.79393
|118> *
|119>
|120>                          ****END OF INPUT****

CARTESIAN COORDINATES (ANGSTROEM)
---------------------------------
  C     -3.789740    2.429170   -3.107890
  C     -3.291760    3.413250   -2.301030
  F     -3.327440    4.692500   -2.698360
  C     -2.736230    3.098340   -1.044780
  F     -2.254890    4.084150   -0.274640
  C     -2.687490    1.802940   -0.611860
  C     -3.194130    0.766590   -1.419760
  C     -3.754160    1.083150   -2.691100
  C     -4.266790    0.059800   -3.520900
  C     -4.224490   -1.240640   -3.090960
  C     -3.672510   -1.544440   -1.817620
  C     -3.164190   -0.580470   -0.996060
  C     -3.762040   -2.997770   -1.574310
  O     -3.350740   -3.568570   -0.584540
  C     -4.438780   -3.563750   -2.761110
  C     -4.666370   -2.487490   -3.711150
  C     -5.171430   -2.584910   -4.983250
  C     -5.562070   -3.766330   -5.648310
  N     -5.894710   -4.669190   -6.276730
  C     -5.357340   -1.482110   -5.844080
  N     -5.539490   -0.634130   -6.596450
  C     -4.861410   -4.852710   -2.970010
  C     -4.768820   -6.012520   -2.184800
  C     -4.191660   -6.289010   -0.951870
  C     -4.383820   -7.604170   -0.562860
  C     -5.110570   -8.378340   -1.493070
  S     -5.551930   -7.448200   -2.867340
  C     -5.287300   -9.686680   -1.048810
  C     -4.711340   -9.908970    0.223080
  S     -3.915600   -8.501050    0.864400
  C     -4.989190  -11.219920    0.581320
  C     -5.707200  -11.776570   -0.483910
  N     -5.880050  -10.835490   -1.464950
  C     -6.667000  -10.938630   -2.662560
  C     -6.188760  -13.132160   -0.564180
  C     -6.740740  -13.764520    0.566450
  C     -7.220620  -15.116200    0.520590
  N     -7.761210  -15.665430    1.626970
  C     -7.846950  -14.969490    2.712800
  C     -7.390750  -13.624120    2.749430
  N     -6.866360  -13.058910    1.714170
  F     -7.501460  -12.902790    3.861930
  F     -8.383770  -15.547780    3.783320
  C     -7.157480  -15.913550   -0.643310
  C     -6.559280  -15.296150   -1.765910
  C     -6.092820  -13.926340   -1.723380
  N     -5.524110  -13.567780   -2.879000
  S     -5.582900  -14.798800   -3.903860
  N     -6.324960  -15.855240   -2.953780
  C     -7.663890  -17.241220   -0.661320
  C     -7.653940  -18.126340   -1.729120
  C     -8.259640  -19.334600   -1.414190
  C     -8.744990  -19.389890   -0.096910
  S     -8.429730  -17.920510    0.758570
  C     -9.362020  -20.612060    0.170480
  C     -9.337250  -21.488780   -0.945380
  S     -8.554740  -20.793150   -2.334990
  C     -9.957800  -22.663070   -0.569970
  C    -10.372050  -22.488120    0.766390
  N    -10.008020  -21.223970    1.184170
  C    -10.192660  -20.678850    2.500970
  C    -11.158270  -23.333960    1.572970
  C    -11.420470  -24.666990    1.429490
  C    -12.635150  -25.234700    2.068580
  O    -13.344200  -24.691400    2.885890
  C    -12.813890  -26.564990    1.451310
  C    -13.838850  -27.452700    1.604660
  C    -13.808990  -28.667720    0.883380
  C    -12.714610  -28.936650    0.011090
  C    -12.694100  -30.147810   -0.708890
  C    -13.710100  -31.050930   -0.567150
  C    -14.791170  -30.784470    0.296500
  C    -14.840940  -29.618040    1.007190
  F    -15.774390  -31.687290    0.415050
  F    -13.687550  -32.202450   -1.251360
  C    -11.663250  -28.000290   -0.122340
  C    -11.710030  -26.833900    0.592180
  C    -10.770980  -25.717610    0.683440
  C     -9.440240  -25.773410    0.352810
  C     -8.515600  -24.777500    0.723250
  N     -7.732680  -24.006860    1.056120
  C     -8.839500  -26.866780   -0.301100
  N     -8.313400  -27.726440   -0.850830
  H     -4.210620    2.687300   -4.067140
  H     -2.259560    1.578060    0.352510
  H     -4.684150    0.335880   -4.475250
  H     -2.748240   -0.843140   -0.035250
  H     -5.387310   -5.025690   -3.901720
  H     -3.665330   -5.546650   -0.380470
  H     -4.703590  -11.732750    1.475180
  H     -7.545540  -11.556720   -2.478270
  H     -6.086330  -11.386150   -3.471240
  H     -6.986060   -9.940140   -2.959670
  H     -7.221680  -17.878030   -2.679760
  H    -10.142920  -23.524650   -1.179000
  H     -9.742850  -21.332090    3.250460
  H    -11.255200  -20.559190    2.724740
  H     -9.712230  -19.703090    2.545130
  H    -11.721870  -22.854000    2.367290
  H    -14.661800  -27.232400    2.267420
  H    -11.872160  -30.369200   -1.371660
  H    -15.675480  -29.428930    1.664110
  H    -10.850090  -28.225650   -0.793930

 Total Charge           Charge          ....    0
 Multiplicity           Mult            ....    1
 Number of Electrons    NEL             ....  600
 Basis Dimension        Dim             .... 1282

ORBITAL ENERGIES
----------------

  NO   OCC          E(Eh)            E(eV)
   0   2.0000     -89.053739     -2423.2754
   1   2.0000     -88.973573     -2421.0940
   2   2.0000     -88.970847     -2421.0198
   3   2.0000     -88.960976     -2420.7512
   4   2.0000     -88.960775     -2420.7458
   5   2.0000     -24.828235      -675.6106
   6   2.0000     -24.822845      -675.4639
   7   2.0000     -24.796386      -674.7440
   8   2.0000     -24.795869      -674.7299
   9   2.0000     -24.795460      -674.7188
  10   2.0000     -24.794250      -674.6858
  11   2.0000     -19.215790      -522.8882
  12   2.0000     -19.212146      -522.7891
  13   2.0000     -14.487718      -394.2309
  14   2.0000     -14.484849      -394.1528
  15   2.0000     -14.468473      -393.7072
  16   2.0000     -14.462544      -393.5458
  17   2.0000     -14.462311      -393.5395
  18   2.0000     -14.461858      -393.5272
  19   2.0000     -14.413823      -392.2201
  20   2.0000     -14.413301      -392.2059
  21   2.0000     -14.412476      -392.1834
  22   2.0000     -14.409974      -392.1153
  23   2.0000     -10.443786      -284.1899
  24   2.0000     -10.440105      -284.0897
  25   2.0000     -10.379218      -282.4329
  26   2.0000     -10.378775      -282.4208
  27   2.0000     -10.378207      -282.4054
  28   2.0000     -10.377264      -282.3797
  29   2.0000     -10.366840      -282.0960
  30   2.0000     -10.363668      -282.0097
  31   2.0000     -10.356715      -281.8205
  32   2.0000     -10.354832      -281.7693
  33   2.0000     -10.351821      -281.6874
  34   2.0000     -10.351554      -281.6801
  35   2.0000     -10.339232      -281.3448
  36   2.0000     -10.338571      -281.3268
  37   2.0000     -10.338007      -281.3115
  38   2.0000     -10.336309      -281.2653
  39   2.0000     -10.331531      -281.1352
  40   2.0000     -10.330210      -281.0993
  41   2.0000     -10.328681      -281.0577
  42   2.0000     -10.327954      -281.0379
  43   2.0000     -10.327047      -281.0132
  44   2.0000     -10.324480      -280.9434
  45   2.0000     -10.323013      -280.9035
  46   2.0000     -10.322873      -280.8997
  47   2.0000     -10.321932      -280.8740
  48   2.0000     -10.321583      -280.8646
  49   2.0000     -10.320670      -280.8397
  50   2.0000     -10.319125      -280.7977
  51   2.0000     -10.317646      -280.7574
  52   2.0000     -10.317214      -280.7457
  53   2.0000     -10.316464      -280.7252
  54   2.0000     -10.314185      -280.6632
  55   2.0000     -10.313804      -280.6529
  56   2.0000     -10.312017      -280.6042
  57   2.0000     -10.311567      -280.5920
  58   2.0000     -10.311101      -280.5793
  59   2.0000     -10.308326      -280.5038
  60   2.0000     -10.307961      -280.4939
  61   2.0000     -10.306713      -280.4599
  62   2.0000     -10.306305      -280.4488
  63   2.0000     -10.305353      -280.4229
  64   2.0000     -10.303940      -280.3845
  65   2.0000     -10.302710      -280.3510
  66   2.0000     -10.302631      -280.3488
  67   2.0000     -10.300264      -280.2844
  68   2.0000     -10.299704      -280.2692
  69   2.0000     -10.299210      -280.2557
  70   2.0000     -10.298383      -280.2332
  71   2.0000     -10.298116      -280.2260
  72   2.0000     -10.297939      -280.2212
  73   2.0000     -10.297894      -280.2200
  74   2.0000     -10.297076      -280.1977
  75   2.0000     -10.295716      -280.1607
  76   2.0000     -10.294835      -280.1367
  77   2.0000     -10.293118      -280.0900
  78   2.0000     -10.293015      -280.0872
  79   2.0000     -10.291918      -280.0573
  80   2.0000     -10.291213      -280.0382
  81   2.0000     -10.288518      -279.9648
  82   2.0000     -10.279192      -279.7110
  83   2.0000      -8.144910      -221.6343
  84   2.0000      -8.068344      -219.5508
  85   2.0000      -8.063656      -219.4232
  86   2.0000      -8.055974      -219.2142
  87   2.0000      -8.055768      -219.2086
  88   2.0000      -6.115952      -166.4235
  89   2.0000      -6.108188      -166.2123
  90   2.0000      -6.107799      -166.2017
  91   2.0000      -6.037800      -164.2969
  92   2.0000      -6.033801      -164.1881
  93   2.0000      -6.033511      -164.1802
  94   2.0000      -6.030048      -164.0859
  95   2.0000      -6.028876      -164.0540
  96   2.0000      -6.025920      -163.9736
  97   2.0000      -6.025696      -163.9675
  98   2.0000      -6.025328      -163.9575
  99   2.0000      -6.022019      -163.8675
 100   2.0000      -6.021776      -163.8608
 101   2.0000      -6.016585      -163.7196
 102   2.0000      -6.016425      -163.7152
 103   2.0000      -1.354293       -36.8522
 104   2.0000      -1.339401       -36.4470
 105   2.0000      -1.318994       -35.8917
 106   2.0000      -1.317639       -35.8548
 107   2.0000      -1.304175       -35.4884
 108   2.0000      -1.302765       -35.4500
 109   2.0000      -1.150831       -31.3157
 110   2.0000      -1.130646       -30.7665
 111   2.0000      -1.127353       -30.6768
 112   2.0000      -1.125480       -30.6259
 113   2.0000      -1.113458       -30.2987
 114   2.0000      -1.109790       -30.1989
 115   2.0000      -1.051019       -28.5997
 116   2.0000      -1.017017       -27.6744
 117   2.0000      -1.016705       -27.6659
 118   2.0000      -1.013293       -27.5731
 119   2.0000      -1.012572       -27.5535
 120   2.0000      -1.002360       -27.2756
 121   2.0000      -1.001485       -27.2518
 122   2.0000      -1.001008       -27.2388
 123   2.0000      -0.991735       -26.9865
 124   2.0000      -0.990584       -26.9552
 125   2.0000      -0.983824       -26.7712
 126   2.0000      -0.978730       -26.6326
 127   2.0000      -0.977690       -26.6043
 128   2.0000      -0.954657       -25.9775
 129   2.0000      -0.952007       -25.9054
 130   2.0000      -0.931836       -25.3565
 131   2.0000      -0.927881       -25.2489
 132   2.0000      -0.917381       -24.9632
 133   2.0000      -0.910660       -24.7803
 134   2.0000      -0.901130       -24.5210
 135   2.0000      -0.896555       -24.3965
 136   2.0000      -0.894476       -24.3399
 137   2.0000      -0.890844       -24.2411
 138   2.0000      -0.888687       -24.1824
 139   2.0000      -0.885810       -24.1041
 140   2.0000      -0.879483       -23.9320
 141   2.0000      -0.874891       -23.8070
 142   2.0000      -0.863157       -23.4877
 143   2.0000      -0.855077       -23.2678
 144   2.0000      -0.838302       -22.8114
 145   2.0000      -0.836721       -22.7683
 146   2.0000      -0.828776       -22.5521
 147   2.0000      -0.826803       -22.4985
 148   2.0000      -0.824743       -22.4424
 149   2.0000      -0.819017       -22.2866
 150   2.0000      -0.811356       -22.0781
 151   2.0000      -0.794381       -21.6162
 152   2.0000      -0.788339       -21.4518
 153   2.0000      -0.785540       -21.3756
 154   2.0000      -0.777421       -21.1547
 155   2.0000      -0.767977       -20.8977
 156   2.0000      -0.764129       -20.7930
 157   2.0000      -0.762333       -20.7441
 158   2.0000      -0.759401       -20.6644
 159   2.0000      -0.746079       -20.3019
 160   2.0000      -0.736745       -20.0479
 161   2.0000      -0.726481       -19.7685
 162   2.0000      -0.718078       -19.5399
 163   2.0000      -0.715111       -19.4592
 164   2.0000      -0.708303       -19.2739
 165   2.0000      -0.700386       -19.0585
 166   2.0000      -0.696728       -18.9589
 167   2.0000      -0.693324       -18.8663
 168   2.0000      -0.689467       -18.7613
 169   2.0000      -0.685192       -18.6450
 170   2.0000      -0.679769       -18.4974
 171   2.0000      -0.677840       -18.4450
 172   2.0000      -0.672772       -18.3070
 173   2.0000      -0.665975       -18.1221
 174   2.0000      -0.660722       -17.9792
 175   2.0000      -0.657739       -17.8980
 176   2.0000      -0.652203       -17.7474
 177   2.0000      -0.650689       -17.7062
 178   2.0000      -0.647688       -17.6245
 179   2.0000      -0.645099       -17.5540
 180   2.0000      -0.640050       -17.4166
 181   2.0000      -0.639434       -17.3999
 182   2.0000      -0.637263       -17.3408
 183   2.0000      -0.636178       -17.3113
 184   2.0000      -0.629237       -17.1224
 185   2.0000      -0.626854       -17.0576
 186   2.0000      -0.623904       -16.9773
 187   2.0000      -0.613065       -16.6823
 188   2.0000      -0.610518       -16.6130
 189   2.0000      -0.605583       -16.4787
 190   2.0000      -0.597643       -16.2627
 191   2.0000      -0.596000       -16.2180
 192   2.0000      -0.592514       -16.1231
 193   2.0000      -0.586471       -15.9587
 194   2.0000      -0.583557       -15.8794
 195   2.0000      -0.583362       -15.8741
 196   2.0000      -0.582275       -15.8445
 197   2.0000      -0.581117       -15.8130
 198   2.0000      -0.579672       -15.7737
 199   2.0000      -0.578432       -15.7399
 200   2.0000      -0.575176       -15.6513
 201   2.0000      -0.573315       -15.6007
 202   2.0000      -0.570705       -15.5297
 203   2.0000      -0.566228       -15.4078
 204   2.0000      -0.558971       -15.2104
 205   2.0000      -0.557993       -15.1838
 206   2.0000      -0.554471       -15.0879
 207   2.0000      -0.551987       -15.0203
 208   2.0000      -0.550482       -14.9794
 209   2.0000      -0.545597       -14.8464
 210   2.0000      -0.545289       -14.8381
 211   2.0000      -0.544035       -14.8039
 212   2.0000      -0.542383       -14.7590
 213   2.0000      -0.536058       -14.5869
 214   2.0000      -0.535375       -14.5683
 215   2.0000      -0.532608       -14.4930
 216   2.0000      -0.531555       -14.4643
 217   2.0000      -0.530287       -14.4298
 218   2.0000      -0.528709       -14.3869
 219   2.0000      -0.526615       -14.3299
 220   2.0000      -0.524234       -14.2651
 221   2.0000      -0.523405       -14.2426
 222   2.0000      -0.520364       -14.1598
 223   2.0000      -0.519258       -14.1297
 224   2.0000      -0.517613       -14.0850
 225   2.0000      -0.516377       -14.0513
 226   2.0000      -0.514488       -13.9999
 227   2.0000      -0.513592       -13.9755
 228   2.0000      -0.512888       -13.9564
 229   2.0000      -0.510313       -13.8863
 230   2.0000      -0.509654       -13.8684
 231   2.0000      -0.507622       -13.8131
 232   2.0000      -0.500856       -13.6290
 233   2.0000      -0.498034       -13.5522
 234   2.0000      -0.495759       -13.4903
 235   2.0000      -0.495307       -13.4780
 236   2.0000      -0.494220       -13.4484
 237   2.0000      -0.493004       -13.4153
 238   2.0000      -0.491187       -13.3659
 239   2.0000      -0.488153       -13.2833
 240   2.0000      -0.484555       -13.1854
 241   2.0000      -0.482734       -13.1359
 242   2.0000      -0.479047       -13.0355
 243   2.0000      -0.476538       -12.9673
 244   2.0000      -0.474535       -12.9128
 245   2.0000      -0.473597       -12.8872
 246   2.0000      -0.465768       -12.6742
 247   2.0000      -0.463603       -12.6153
 248   2.0000      -0.462340       -12.5809
 249   2.0000      -0.461360       -12.5543
 250   2.0000      -0.459112       -12.4931
 251   2.0000      -0.458768       -12.4837
 252   2.0000      -0.456499       -12.4220
 253   2.0000      -0.448329       -12.1996
 254   2.0000      -0.446301       -12.1445
 255   2.0000      -0.444262       -12.0890
 256   2.0000      -0.443863       -12.0781
 257   2.0000      -0.441841       -12.0231
 258   2.0000      -0.440926       -11.9982
 259   2.0000      -0.440552       -11.9880
 260   2.0000      -0.438633       -11.9358
 261   2.0000      -0.431168       -11.7327
 262   2.0000      -0.430284       -11.7086
 263   2.0000      -0.427729       -11.6391
 264   2.0000      -0.426585       -11.6080
 265   2.0000      -0.424802       -11.5595
 266   2.0000      -0.424537       -11.5522
 267   2.0000      -0.423405       -11.5214
 268   2.0000      -0.422596       -11.4994
 269   2.0000      -0.419692       -11.4204
 270   2.0000      -0.418399       -11.3852
 271   2.0000      -0.415058       -11.2943
 272   2.0000      -0.413930       -11.2636
 273   2.0000      -0.406323       -11.0566
 274   2.0000      -0.404529       -11.0078
 275   2.0000      -0.403084       -10.9685
 276   2.0000      -0.397115       -10.8060
 277   2.0000      -0.396164       -10.7802
 278   2.0000      -0.389504       -10.5990
 279   2.0000      -0.383830       -10.4445
 280   2.0000      -0.383286       -10.4297
 281   2.0000      -0.370706       -10.0874
 282   2.0000      -0.369514       -10.0550
 283   2.0000      -0.365549        -9.9471
 284   2.0000      -0.353624        -9.6226
 285   2.0000      -0.349184        -9.5018
 286   2.0000      -0.344080        -9.3629
 287   2.0000      -0.342919        -9.3313
 288   2.0000      -0.337547        -9.1851
 289   2.0000      -0.334953        -9.1145
 290   2.0000      -0.327382        -8.9085
 291   2.0000      -0.315123        -8.5749
 292   2.0000      -0.314228        -8.5506
 293   2.0000      -0.304673        -8.2906
 294   2.0000      -0.298695        -8.1279
 295   2.0000      -0.294312        -8.0086
 296   2.0000      -0.286454        -7.7948
 297   2.0000      -0.286053        -7.7839
 298   2.0000      -0.262636        -7.1467
 299   2.0000      -0.238737        -6.4964
 300   0.0000      -0.123991        -3.3740
 301   0.0000      -0.091333        -2.4853
 302   0.0000      -0.088277        -2.4021
 303   0.0000      -0.056834        -1.5465
 304   0.0000      -0.055589        -1.5127

MULLIKEN ATOMIC CHARGES
-----------------------
   0 C :   -0.107822
   1 C :    0.239635
   2 F :   -0.173249
   3 C :    0.237294
   4 F :   -0.172752
   5 C :   -0.104039
   6 C :    0.118084
   7 C :    0.114166
   8 C :   -0.083751
   9 C :    0.044281
  10 C :    0.002286
  11 C :   -0.086764
  12 C :    0.155834
  13 O :   -0.162129
  14 C :   -0.097528
  15 C :    0.328928
  16 C :   -0.369276
  17 C :   -0.184909
  18 N :    0.143127
  19 C :   -0.182529
  20 N :    0.139876
  21 C :    0.044770
  22 C :   -0.098055
  23 C :   -0.009623
  24 C :   -0.059075
  25 C :   -0.040492
  26 S :    0.148153
  27 C :    0.017287
  28 C :   -0.010493
  29 S :    0.160605
  30 C :   -0.077099
  31 C :    0.002515
  32 N :   -0.153631
  33 C :    0.139279
  34 C :    0.077401
  35 C :   -0.063556
  36 C :   -0.066124
  37 N :   -0.043954
  38 C :    0.148502
  39 C :    0.131858
  40 N :    0.034024
  41 F :   -0.137595
  42 F :   -0.137044
  43 C :    0.196467
  44 C :   -0.022976
  45 C :    0.004441
  46 N :   -0.292209
  47 S :    0.547511
  48 N :   -0.289245
  49 C :   -0.162596
  50 C :   -0.046075
  51 C :   -0.025050
  52 C :   -0.032886
  53 S :    0.150029
  54 C :    0.037976
  55 C :   -0.013712
  56 S :    0.157902
  57 C :   -0.085442
  58 C :    0.117838
  59 N :   -0.162733
  60 C :    0.121543
  61 C :    0.001439
  62 C :   -0.139960
  63 C :    0.137369
  64 O :   -0.152812
  65 C :    0.016685
  66 C :   -0.087197
  67 C :    0.114240
  68 C :    0.112762
  69 C :   -0.108257
  70 C :    0.241185
  71 C :    0.238051
  72 C :   -0.105931
  73 F :   -0.173598
  74 F :   -0.171982
  75 C :   -0.085521
  76 C :    0.033885
  77 C :    0.274514
  78 C :   -0.342374
  79 C :   -0.204953
  80 N :    0.163342
  81 C :   -0.172443
  82 N :    0.148515
  83 H :    0.007065
  84 H :   -0.003540
  85 H :   -0.007509
  86 H :   -0.013497
  87 H :    0.001751
  88 H :    0.018608
  89 H :   -0.027034
  90 H :    0.037235
  91 H :    0.055028
  92 H :    0.036847
  93 H :   -0.000044
  94 H :   -0.003760
  95 H :    0.056953
  96 H :    0.053468
  97 H :    0.046672
  98 H :    0.008738
  99 H :   -0.010837
 100 H :    0.005029
 101 H :   -0.001013
 102 H :   -0.004321
Sum of atomic charges:   -0.0000000

LOEWDIN ATOMIC CHARGES
----------------------
   0 C :   -0.029326
   1 C :    0.065294
   2 F :   -0.050546
   3 C :    0.066569
   4 F :   -0.050787
   5 C :   -0.034050
   6 C :   -0.009117
   7 C :   -0.007402
   8 C :    0.016536
   9 C :   -0.022853
  10 C :   -0.050450
  11 C :    0.026823
  12 C :    0.086683
  13 O :   -0.149384
  14 C :   -0.109021
  15 C :    0.077960
  16 C :   -0.149357
  17 C :   -0.023764
  18 N :   -0.058302
  19 C :   -0.017013
  20 N :   -0.060851
  21 C :    0.046911
  22 C :   -0.177725
  23 C :   -0.009022
  24 C :   -0.192682
  25 C :   -0.188285
  26 S :    0.434513
  27 C :   -0.048308
  28 C :   -0.177144
  29 S :    0.400844
  30 C :   -0.058786
  31 C :    0.014074
  32 N :    0.065323
  33 C :    0.033121
  34 C :   -0.049543
  35 C :   -0.002717
  36 C :   -0.019919
  37 N :   -0.055855
  38 C :    0.062784
  39 C :    0.056232
  40 N :   -0.027954
  41 F :   -0.027770
  42 F :   -0.026506
  43 C :   -0.033951
  44 C :   -0.040212
  45 C :   -0.043706
  46 N :   -0.281254
  47 S :    0.675280
  48 N :   -0.279502
  49 C :   -0.162236
  50 C :   -0.042237
  51 C :   -0.178991
  52 C :   -0.219298
  53 S :    0.458109
  54 C :   -0.015978
  55 C :   -0.180851
  56 S :    0.395425
  57 C :   -0.030125
  58 C :   -0.015311
  59 N :    0.063486
  60 C :    0.039620
  61 C :    0.050875
  62 C :   -0.103520
  63 C :    0.080726
  64 O :   -0.152792
  65 C :   -0.052678
  66 C :    0.027788
  67 C :   -0.010223
  68 C :   -0.006446
  69 C :   -0.030865
  70 C :    0.065881
  71 C :    0.065954
  72 C :   -0.033685
  73 F :   -0.050723
  74 F :   -0.049934
  75 C :    0.011577
  76 C :   -0.019256
  77 C :    0.064564
  78 C :   -0.147533
  79 C :   -0.017044
  80 N :   -0.049861
  81 C :   -0.021183
  82 N :   -0.057729
  83 H :    0.047473
  84 H :    0.043919
  85 H :    0.039526
  86 H :    0.038819
  87 H :    0.042104
  88 H :    0.039123
  89 H :    0.028091
  90 H :    0.032851
  91 H :    0.028180
  92 H :    0.027327
  93 H :    0.033636
  94 H :    0.033740
  95 H :    0.040175
  96 H :    0.035369
  97 H :    0.033845
  98 H :    0.043979
  99 H :    0.039846
 100 H :    0.046895
 101 H :    0.044407
 102 H :    0.039307

  Mayer bond orders larger than 0.100000
B(  0-C ,  1-C ) :   1.4404 B(  0-C ,  5-C ) :   0.1090 B(  0-C ,  7-C ) :   1.1890
B(  0-C , 83-H ) :   1.0062 B(  1-C ,  2-F ) :   1.1318 B(  1-C ,  3-C ) :   1.1940
B(  3-C ,  4-F ) :   1.1323 B(  3-C ,  5-C ) :   1.4433 B(  5-C ,  6-C ) :   1.1927
B(  5-C , 84-H ) :   1.0065 B(  6-C ,  7-C ) :   1.2563 B(  6-C , 11-C ) :   1.1854
B(  7-C ,  8-C ) :   1.2156 B(  8-C ,  9-C ) :   1.4536 B(  8-C , 85-H ) :   0.9881
B(  9-C , 10-C ) :   1.2231 B(  9-C , 15-C ) :   0.9738 B( 10-C , 11-C ) :   1.4734
B( 10-C , 12-C ) :   0.9487 B( 11-C , 86-H ) :   1.0156 B( 12-C , 13-O ) :   2.1619
B( 12-C , 14-C ) :   0.9502 B( 14-C , 15-C ) :   1.1008 B( 14-C , 21-C ) :   1.5424
B( 15-C , 16-C ) :   1.6021 B( 16-C , 17-C ) :   1.1405 B( 16-C , 19-C ) :   1.1539
B( 17-C , 18-N ) :   2.9597 B( 19-C , 20-N ) :   2.9569 B( 21-C , 22-C ) :   1.2648
B( 21-C , 87-H ) :   0.9028 B( 22-C , 23-C ) :   1.4132 B( 22-C , 26-S ) :   1.0421
B( 23-C , 24-C ) :   1.3224 B( 23-C , 88-H ) :   0.9780 B( 24-C , 25-C ) :   1.3638
B( 24-C , 29-S ) :   1.0458 B( 25-C , 26-S ) :   1.0844 B( 25-C , 27-C ) :   1.2834
B( 27-C , 28-C ) :   1.3553 B( 27-C , 31-C ) :   0.1050 B( 27-C , 32-N ) :   1.1967
B( 28-C , 29-S ) :   1.0169 B( 28-C , 30-C ) :   1.3405 B( 30-C , 31-C ) :   1.4356
B( 30-C , 89-H ) :   1.0140 B( 31-C , 32-N ) :   1.2209 B( 31-C , 34-C ) :   0.9691
B( 32-N , 33-C ) :   0.9619 B( 33-C , 90-H ) :   0.9678 B( 33-C , 91-H ) :   0.9560
B( 33-C , 92-H ) :   0.9643 B( 34-C , 35-C ) :   1.3744 B( 34-C , 43-C ) :   0.1351
B( 34-C , 45-C ) :   1.2236 B( 35-C , 36-C ) :   1.1148 B( 35-C , 40-N ) :   1.4246
B( 36-C , 37-N ) :   1.3784 B( 36-C , 43-C ) :   1.2869 B( 37-N , 38-C ) :   1.6590
B( 38-C , 39-C ) :   1.0962 B( 38-C , 42-F ) :   1.1848 B( 39-C , 40-N ) :   1.6950
B( 39-C , 41-F ) :   1.1797 B( 43-C , 44-C ) :   1.1947 B( 43-C , 49-C ) :   1.1919
B( 44-C , 45-C ) :   1.0953 B( 44-C , 48-N ) :   1.5145 B( 45-C , 46-N ) :   1.4957
B( 46-N , 47-S ) :   1.2806 B( 46-N , 48-N ) :   0.1526 B( 47-S , 48-N ) :   1.2796
B( 49-C , 50-C ) :   1.4649 B( 49-C , 53-S ) :   1.0728 B( 50-C , 51-C ) :   1.2809
B( 50-C , 93-H ) :   0.9870 B( 51-C , 52-C ) :   1.4098 B( 51-C , 56-S ) :   1.0443
B( 52-C , 53-S ) :   1.0092 B( 52-C , 54-C ) :   1.2779 B( 54-C , 55-C ) :   1.3240
B( 54-C , 59-N ) :   1.2429 B( 55-C , 56-S ) :   1.0104 B( 55-C , 57-C ) :   1.4229
B( 57-C , 58-C ) :   1.3332 B( 57-C , 94-H ) :   1.0050 B( 58-C , 59-N ) :   1.1329
B( 58-C , 61-C ) :   1.1378 B( 59-N , 60-C ) :   0.9656 B( 60-C , 95-H ) :   0.9690
B( 60-C , 96-H ) :   0.9645 B( 60-C , 97-H ) :   0.9673 B( 61-C , 62-C ) :   1.5943
B( 61-C , 98-H ) :   0.9316 B( 62-C , 63-C ) :   0.9590 B( 62-C , 77-C ) :   1.0601
B( 63-C , 64-O ) :   2.2512 B( 63-C , 65-C ) :   0.9175 B( 65-C , 66-C ) :   1.4784
B( 65-C , 76-C ) :   1.2215 B( 66-C , 67-C ) :   1.1892 B( 66-C , 99-H ) :   1.0160
B( 67-C , 68-C ) :   1.2607 B( 67-C , 72-C ) :   1.1937 B( 68-C , 69-C ) :   1.1907
B( 68-C , 75-C ) :   1.2085 B( 69-C , 70-C ) :   1.4399 B( 69-C , 72-C ) :   0.1090
B( 69-C ,100-H ) :   1.0070 B( 70-C , 71-C ) :   1.1949 B( 70-C , 74-F ) :   1.1338
B( 71-C , 72-C ) :   1.4419 B( 71-C , 73-F ) :   1.1309 B( 72-C ,101-H ) :   1.0067
B( 75-C , 76-C ) :   1.4629 B( 75-C ,102-H ) :   0.9936 B( 76-C , 77-C ) :   0.9920
B( 77-C , 78-C ) :   1.6311 B( 78-C , 79-C ) :   1.1667 B( 78-C , 81-C ) :   1.1328
B( 79-C , 80-N ) :   2.9985 B( 81-C , 82-N ) :   2.9821

-----------------------------------------------------------------------------
         ABSORPTION SPECTRUM VIA TRANSITION ELECTRIC DIPOLE MOMENTS
-----------------------------------------------------------------------------
State   Energy  Wavelength   fosc         T2         TX        TY        TZ
        (cm-1)    (nm)                  (au**2)     (au)      (au)      (au)
-----------------------------------------------------------------------------
   0   10184.2    981.9   1.372471399  44.36629   1.96575   6.32066  -0.74257
   1   16473.4    607.0   0.045250130   0.90430  -0.54600  -0.75270  -0.19907
   2   18638.9    536.5   0.717443957  12.67196   0.61181   3.40566  -0.83614
   3   19492.1    513.0   0.720307378  12.16564  -0.17994  -3.23421   1.29350
   4   19760.8    506.1   0.043225212   0.72013   0.08439   0.38357  -0.75225
   5   19847.2    503.8   0.008308930   0.13782   0.21470   0.25387   0.16515
   6   24960.7    400.6   0.036329621   0.47916   0.01860   0.45895  -0.51786
   7   25460.3    392.8   0.044146791   0.57084  -0.01224  -0.74634  -0.11688
   8   25743.3    388.5   0.148947976   1.90479  -0.98575  -0.91059   0.32235
   9   26026.6    384.2   0.011030570   0.13953   0.17392   0.31808  -0.09001
  10   26307.3    380.1   0.074020785   0.92630  -0.43615  -0.73325  -0.44544
  11   26494.3    377.4   0.025733426   0.31976   0.36765   0.17523   0.39228
  12   26948.5    371.1   0.040808266   0.49853   0.16509   0.12008   0.67591
  13   27165.8    368.1   0.074970976   0.90854  -0.78196  -0.48617  -0.24643
  14   27772.0    360.1   0.300990677   3.56797   1.01111   1.58444  -0.18759
  15   27979.0    357.4   0.156596167   1.84257  -0.21011  -1.31461  -0.26500
  16   28831.7    346.8   0.018713821   0.21368  -0.35956  -0.27113   0.10433
  17   28950.6    345.4   0.000680849   0.00774   0.02994   0.08251   0.00616
  18   29468.0    339.4   0.014831047   0.16569   0.39410   0.09008   0.04750
  19   29856.2    334.9   0.032444397   0.35775   0.27707   0.43421   0.30405
  20   30110.3    332.1   0.064407610   0.70420  -0.24243   0.40484   0.69392
  21   30693.9    325.8   0.092594428   0.99313   0.37311   0.28764  -0.87817
  22   31031.6    322.3   0.031550665   0.33472  -0.17273  -0.54881   0.06079
  23   31275.4    319.7   0.213083452   2.24297  -0.69604  -1.31756  -0.15012
  24   31871.2    313.8   0.330422693   3.41309  -0.71795  -1.64369  -0.44262
  25   32154.1    311.0   0.155330049   1.59036   0.64976   1.07946  -0.05416
  26   32254.3    310.0   0.018678169   0.19064   0.41595  -0.13219  -0.01226
  27   32979.3    303.2   0.071675140   0.71549  -0.79448  -0.24502   0.15573
  28   33270.8    300.6   0.175750396   1.73904  -1.06829  -0.73659  -0.23499
  29   33409.6    299.3   0.030694407   0.30246   0.20124   0.45734   0.22978
  30   33661.2    297.1   0.062827418   0.61446  -0.16917  -0.44117  -0.62547
  31   33767.9    296.1   0.067270466   0.65584   0.34411   0.60704   0.41100
  32   33859.6    295.3   0.040410644   0.39291   0.12228   0.58580  -0.18654
  33   34061.7    293.6   0.125403331   1.21204  -0.13895   0.44746   0.99625
  34   34172.2    292.6   0.047399864   0.45665   0.10846   0.40486  -0.53007
  35   34336.3    291.2   0.112260123   1.07633   0.15039   0.85905   0.56192
  36   34422.9    290.5   0.050639273   0.48430  -0.16496  -0.46125   0.49430
  37   35090.2    285.0   0.214979903   2.01692  -0.89291  -1.07324  -0.26036
  38   35246.8    283.7   0.012459976   0.11638  -0.18117  -0.09394   0.27337
  39   35285.2    283.4   0.037115854   0.34629  -0.44933  -0.37836   0.03520
  40   35376.5    282.7   0.003340528   0.03109  -0.12886  -0.09988  -0.06712
  41   35608.3    280.8   0.034938918   0.32302   0.09464   0.55241  -0.09438
  42   35724.8    279.9   0.024501629   0.22579   0.07573   0.35006   0.31226
  43   35884.9    278.7   0.145639778   1.33611   0.81012   0.64913  -0.50838
  44   36115.1    276.9   0.086339722   0.78704  -0.63479  -0.43206  -0.44429
  45   36252.0    275.8   0.531418745   4.82593   0.67838  -0.26053  -2.07313
  46   36380.8    274.9   0.247233122   2.23723  -0.26541  -0.49373  -1.38673
  47   36735.4    272.2   0.370401082   3.31942  -1.54657  -0.96290  -0.01932
  48   37961.0    263.4   0.001355968   0.01176  -0.00205   0.04399  -0.09910
  49   38135.8    262.2   0.007680333   0.06630   0.22006  -0.04908  -0.12436
  50   38150.8    262.1   0.002654084   0.02290  -0.07468   0.01698   0.13053
  51   38281.3    261.2   0.007315829   0.06291  -0.18540  -0.16352  -0.04245
  52   38681.7    258.5   0.036229195   0.30834   0.11662   0.41635   0.34841
  53   38785.5    257.8   0.004390441   0.03727  -0.04029  -0.08955  -0.16620
  54   39011.7    256.3   0.119574686   1.00907   0.24200  -0.54305   0.80969
  55   39270.7    254.6   0.057256165   0.47999   0.21068  -0.17971   0.63506
  56   39340.1    254.2   0.001439488   0.01205   0.09449   0.02904  -0.04770
  57   39518.9    253.0   0.028733940   0.23937  -0.08738   0.37380   0.30332
  58   39976.5    250.1   0.001670880   0.01376   0.09926   0.05499  -0.02971
  59   40234.8    248.5   0.010315961   0.08441  -0.16886   0.17479   0.15920

FINAL SINGLE POINT ENERGY     -5581.338100689222

DIPOLE MOMENT
-------------
                                X             Y             Z
Electronic contribution:      4.35927       8.44203       5.11515
Nuclear contribution   :     -5.30558      -9.01088      -3.79097
                        -----------------------------------------
Total Dipole Moment    :     -0.94632      -0.56885       1.32418
                        -----------------------------------------
Magnitude (a.u.)       :      1.72411
Magnitude (Debye)      :      4.38234

Rotational constants in cm-1:     0.002732     0.000119     0.000117
Rotational constants in MHz :    81.908856     3.576771     3.515064

                             ****ORCA TERMINATED NORMALLY****
TOTAL RUN TIME: 0 days 0 hours 11 minutes 55 seconds 554 msec
