                         Program Version 4.2.0 -  RELEASE  -
|  1> # ORCA input file
|  2> # SCF done       -171.861103804324          0.000594417831
|  3> ! CAM-B3LYP def2-SVP def2/J RIJCOSX Grid4 TightSCF
|  4> %maxcore 5000
|  5> %tddft
|  6>     Mode sTDDFT
|  7>     Ethresh 5.0
|  8>     maxcore 5000
|  9> end
| 10>
| 11> %pal
| 12>   nprocs 6
| 13>   end
| 14> * xyz 0 1
| 15>    C       -5.88983         3.16545        -4.03381
| 16>    C       -4.80269         3.81669        -4.55347
| 17>    C       -4.73702         4.29638        -5.87657
| 18>    N       -4.64730         4.71750        -6.94073
| 19>    C       -3.59413         3.97452        -3.84336
| 20>    N       -2.58071         4.05942        -3.31097
| 21>    C       -7.02793         2.67000        -4.79892
| 22>    C       -7.63543         1.60834        -4.06526
| 23>    C       -8.69547         0.90795        -4.56445
| 24>    C       -9.21060         1.24990        -5.83506
| 25>    C       -8.62007         2.32276        -6.56387
| 26>    C       -7.51845         3.02703        -6.02560
| 27>    C       -9.14814         2.65593        -7.82773
| 28>    C      -10.20440         1.96105        -8.35081
| 29>    C      -10.78337         0.90332        -7.63377
| 30>    C      -10.29726         0.55573        -6.40276
| 31>    C       -6.94460         1.44774        -2.77317
| 32>    O       -7.14523         0.62092        -1.91366
| 33>    C       -5.97031         2.57582        -2.71261
| 34>    C       -5.42828         2.92779        -1.51962
| 35>    C       -4.81712         4.14604        -1.12483
| 36>    C       -3.98956         4.29975        -0.03176
| 37>    C       -3.58063         5.62326         0.12863
| 38>    C       -4.12605         6.50639        -0.80610
| 39>    S       -5.14094         5.68151        -1.92419
| 40>    C       -3.72773         7.83965        -0.62271
| 41>    C       -2.87635         7.96079         0.43965
| 42>    S       -2.55247         6.45087         1.23883
| 43>    C       -2.26721         9.24070         0.92708
| 44>    C       -1.16741         8.99605         1.96831
| 45>    N       -1.59217         9.85918        -0.22992
| 46>    N       -1.66633        11.00668        -0.57464
| 47>    C       -2.45834        12.07387         0.08137
| 48>    C       -3.41805        11.49517         1.05366
| 49>    C       -3.32311        10.13486         1.46520
| 50>    N       -4.29994         9.90114         2.29390
| 51>    O       -4.97735        11.05117         2.40835
| 52>    N       -4.44685        12.02157         1.65375
| 53>    C       -1.43026        12.96193         0.79712
| 54>    C       -3.17879        12.80977        -1.00605
| 55>    C       -2.95360        14.07167        -1.47052
| 56>    C       -3.84702        14.40608        -2.50051
| 57>    C       -4.75095        13.38781        -2.82671
| 58>    S       -4.48160        11.99331        -1.83882
| 59>    C       -5.65109        13.71650        -3.83636
| 60>    C       -5.44542        15.00306        -4.30277
| 61>    S       -4.11039        15.80192        -3.46010
| 62>    C       -6.09268        15.79288        -5.27777
| 63>    C       -7.11109        15.52244        -6.14688
| 64>    C       -7.64555        16.50542        -7.08114
| 65>    C       -7.40946        17.85553        -7.09010
| 66>    C       -7.97162        18.74818        -8.02814
| 67>    N       -8.38518        19.53204        -8.75805
| 68>    C       -6.61764        18.57598        -6.17023
| 69>    N       -6.01436        19.25031        -5.46212
| 70>    C       -8.54768        15.81191        -7.99217
| 71>    C       -8.64703        14.45368        -7.58079
| 72>    C       -7.79467        14.22961        -6.40127
| 73>    O       -7.69204        13.18556        -5.79025
| 74>    C       -9.43455        13.55375        -8.23937
| 75>    C      -10.17041        13.97932        -9.36752
| 76>    C      -10.07209        15.33623        -9.79062
| 77>    C       -9.25043        16.24514        -9.08578
| 78>    C      -10.80805        15.75066       -10.91950
| 79>    C      -11.60353        14.86872       -11.59877
| 80>    C      -11.69938        13.53271       -11.18143
| 81>    C      -10.99850        13.09757       -10.08952
| 82>    H       -9.13493         0.10017        -3.99829
| 83>    H       -7.09247         3.83990        -6.59313
| 84>    H       -8.69661         3.46855        -8.37765
| 85>    H      -10.59939         2.22191        -9.32127
| 86>    H      -11.61604         0.36535        -8.06167
| 87>    H      -10.73870        -0.25782        -5.84585
| 88>    H       -5.54401         2.19352        -0.72716
| 89>    H       -3.67639         3.48117         0.58953
| 90>    H       -4.03943         8.66032        -1.24371
| 91>    H       -0.38001         8.39284         1.52406
| 92>    H       -1.58907         8.47692         2.82567
| 93>    H       -0.74149         9.94124         2.30014
| 94>    H       -0.96104        12.40750         1.60790
| 95>    H       -1.92813        13.83518         1.20974
| 96>    H       -0.66065        13.26473         0.09275
| 97>    H       -2.19969        14.73744        -1.09733
| 98>    H       -6.41705        13.06934        -4.22205
| 99>    H       -5.67736        16.79263        -5.33543
|100>    H       -9.49340        12.52905        -7.90355
|101>    H       -9.19532        17.26343        -9.43565
|102>    H      -10.73145        16.78050       -11.23616
|103>    H      -12.16350        15.19574       -12.46206
|104>    H      -12.33118        12.85009       -11.72986
|105>    H      -11.06822        12.07008        -9.76355
|106> *
|107>
|108>                          ****END OF INPUT****

CARTESIAN COORDINATES (ANGSTROEM)
---------------------------------
  C     -5.889830    3.165450   -4.033810
  C     -4.802690    3.816690   -4.553470
  C     -4.737020    4.296380   -5.876570
  N     -4.647300    4.717500   -6.940730
  C     -3.594130    3.974520   -3.843360
  N     -2.580710    4.059420   -3.310970
  C     -7.027930    2.670000   -4.798920
  C     -7.635430    1.608340   -4.065260
  C     -8.695470    0.907950   -4.564450
  C     -9.210600    1.249900   -5.835060
  C     -8.620070    2.322760   -6.563870
  C     -7.518450    3.027030   -6.025600
  C     -9.148140    2.655930   -7.827730
  C    -10.204400    1.961050   -8.350810
  C    -10.783370    0.903320   -7.633770
  C    -10.297260    0.555730   -6.402760
  C     -6.944600    1.447740   -2.773170
  O     -7.145230    0.620920   -1.913660
  C     -5.970310    2.575820   -2.712610
  C     -5.428280    2.927790   -1.519620
  C     -4.817120    4.146040   -1.124830
  C     -3.989560    4.299750   -0.031760
  C     -3.580630    5.623260    0.128630
  C     -4.126050    6.506390   -0.806100
  S     -5.140940    5.681510   -1.924190
  C     -3.727730    7.839650   -0.622710
  C     -2.876350    7.960790    0.439650
  S     -2.552470    6.450870    1.238830
  C     -2.267210    9.240700    0.927080
  C     -1.167410    8.996050    1.968310
  N     -1.592170    9.859180   -0.229920
  N     -1.666330   11.006680   -0.574640
  C     -2.458340   12.073870    0.081370
  C     -3.418050   11.495170    1.053660
  C     -3.323110   10.134860    1.465200
  N     -4.299940    9.901140    2.293900
  O     -4.977350   11.051170    2.408350
  N     -4.446850   12.021570    1.653750
  C     -1.430260   12.961930    0.797120
  C     -3.178790   12.809770   -1.006050
  C     -2.953600   14.071670   -1.470520
  C     -3.847020   14.406080   -2.500510
  C     -4.750950   13.387810   -2.826710
  S     -4.481600   11.993310   -1.838820
  C     -5.651090   13.716500   -3.836360
  C     -5.445420   15.003060   -4.302770
  S     -4.110390   15.801920   -3.460100
  C     -6.092680   15.792880   -5.277770
  C     -7.111090   15.522440   -6.146880
  C     -7.645550   16.505420   -7.081140
  C     -7.409460   17.855530   -7.090100
  C     -7.971620   18.748180   -8.028140
  N     -8.385180   19.532040   -8.758050
  C     -6.617640   18.575980   -6.170230
  N     -6.014360   19.250310   -5.462120
  C     -8.547680   15.811910   -7.992170
  C     -8.647030   14.453680   -7.580790
  C     -7.794670   14.229610   -6.401270
  O     -7.692040   13.185560   -5.790250
  C     -9.434550   13.553750   -8.239370
  C    -10.170410   13.979320   -9.367520
  C    -10.072090   15.336230   -9.790620
  C     -9.250430   16.245140   -9.085780
  C    -10.808050   15.750660  -10.919500
  C    -11.603530   14.868720  -11.598770
  C    -11.699380   13.532710  -11.181430
  C    -10.998500   13.097570  -10.089520
  H     -9.134930    0.100170   -3.998290
  H     -7.092470    3.839900   -6.593130
  H     -8.696610    3.468550   -8.377650
  H    -10.599390    2.221910   -9.321270
  H    -11.616040    0.365350   -8.061670
  H    -10.738700   -0.257820   -5.845850
  H     -5.544010    2.193520   -0.727160
  H     -3.676390    3.481170    0.589530
  H     -4.039430    8.660320   -1.243710
  H     -0.380010    8.392840    1.524060
  H     -1.589070    8.476920    2.825670
  H     -0.741490    9.941240    2.300140
  H     -0.961040   12.407500    1.607900
  H     -1.928130   13.835180    1.209740
  H     -0.660650   13.264730    0.092750
  H     -2.199690   14.737440   -1.097330
  H     -6.417050   13.069340   -4.222050
  H     -5.677360   16.792630   -5.335430
  H     -9.493400   12.529050   -7.903550
  H     -9.195320   17.263430   -9.435650
  H    -10.731450   16.780500  -11.236160
  H    -12.163500   15.195740  -12.462060
  H    -12.331180   12.850090  -11.729860
  H    -11.068220   12.070080   -9.763550

 Total Charge           Charge          ....    0
 Multiplicity           Mult            ....    1
 Number of Electrons    NEL             ....  480
 Basis Dimension        Dim             .... 1074

ORBITAL ENERGIES
----------------

  NO   OCC          E(Eh)            E(eV)
   0   2.0000     -88.973721     -2421.0980
   1   2.0000     -88.973573     -2421.0940
   2   2.0000     -88.970770     -2421.0177
   3   2.0000     -88.969166     -2420.9741
   4   2.0000     -19.353153      -526.6261
   5   2.0000     -19.218581      -522.9642
   6   2.0000     -19.212222      -522.7911
   7   2.0000     -14.490983      -394.3197
   8   2.0000     -14.489997      -394.2929
   9   2.0000     -14.481620      -394.0649
  10   2.0000     -14.481090      -394.0505
  11   2.0000     -14.414949      -392.2507
  12   2.0000     -14.413846      -392.2207
  13   2.0000     -14.412016      -392.1709
  14   2.0000     -14.409291      -392.0967
  15   2.0000     -10.369409      -282.1660
  16   2.0000     -10.363816      -282.0138
  17   2.0000     -10.357982      -281.8550
  18   2.0000     -10.356928      -281.8263
  19   2.0000     -10.340966      -281.3920
  20   2.0000     -10.339850      -281.3616
  21   2.0000     -10.339269      -281.3458
  22   2.0000     -10.338844      -281.3343
  23   2.0000     -10.337517      -281.2981
  24   2.0000     -10.337275      -281.2915
  25   2.0000     -10.329372      -281.0765
  26   2.0000     -10.324557      -280.9455
  27   2.0000     -10.324068      -280.9322
  28   2.0000     -10.320703      -280.8406
  29   2.0000     -10.320345      -280.8309
  30   2.0000     -10.319529      -280.8087
  31   2.0000     -10.319518      -280.8084
  32   2.0000     -10.317829      -280.7624
  33   2.0000     -10.316151      -280.7168
  34   2.0000     -10.315448      -280.6976
  35   2.0000     -10.315291      -280.6933
  36   2.0000     -10.313719      -280.6506
  37   2.0000     -10.311493      -280.5900
  38   2.0000     -10.310443      -280.5614
  39   2.0000     -10.304638      -280.4035
  40   2.0000     -10.302111      -280.3347
  41   2.0000     -10.301181      -280.3094
  42   2.0000     -10.300828      -280.2998
  43   2.0000     -10.300133      -280.2809
  44   2.0000     -10.297510      -280.2095
  45   2.0000     -10.297450      -280.2079
  46   2.0000     -10.296892      -280.1927
  47   2.0000     -10.296715      -280.1879
  48   2.0000     -10.296617      -280.1852
  49   2.0000     -10.296412      -280.1796
  50   2.0000     -10.296370      -280.1785
  51   2.0000     -10.295866      -280.1648
  52   2.0000     -10.295731      -280.1611
  53   2.0000     -10.295695      -280.1601
  54   2.0000     -10.295504      -280.1549
  55   2.0000     -10.295265      -280.1484
  56   2.0000     -10.295212      -280.1470
  57   2.0000     -10.288062      -279.9524
  58   2.0000     -10.287177      -279.9283
  59   2.0000     -10.285992      -279.8961
  60   2.0000     -10.285659      -279.8870
  61   2.0000     -10.285383      -279.8795
  62   2.0000     -10.285376      -279.8793
  63   2.0000     -10.285066      -279.8709
  64   2.0000     -10.285014      -279.8695
  65   2.0000     -10.284606      -279.8583
  66   2.0000     -10.284479      -279.8549
  67   2.0000      -8.068845      -219.5644
  68   2.0000      -8.068759      -219.5621
  69   2.0000      -8.066359      -219.4968
  70   2.0000      -8.064027      -219.4333
  71   2.0000      -6.038342      -164.3116
  72   2.0000      -6.038281      -164.3100
  73   2.0000      -6.035686      -164.2394
  74   2.0000      -6.034251      -164.2003
  75   2.0000      -6.034227      -164.1997
  76   2.0000      -6.033621      -164.1832
  77   2.0000      -6.031790      -164.1333
  78   2.0000      -6.030562      -164.0999
  79   2.0000      -6.030312      -164.0931
  80   2.0000      -6.029526      -164.0718
  81   2.0000      -6.028056      -164.0317
  82   2.0000      -6.025530      -163.9630
  83   2.0000      -1.310496       -35.6604
  84   2.0000      -1.168019       -31.7834
  85   2.0000      -1.133065       -30.8323
  86   2.0000      -1.127462       -30.6798
  87   2.0000      -1.029880       -28.0245
  88   2.0000      -1.024574       -27.8801
  89   2.0000      -1.019272       -27.7358
  90   2.0000      -1.016740       -27.6669
  91   2.0000      -1.014557       -27.6075
  92   2.0000      -0.998625       -27.1740
  93   2.0000      -0.997474       -27.1427
  94   2.0000      -0.995950       -27.1012
  95   2.0000      -0.991729       -26.9863
  96   2.0000      -0.990001       -26.9393
  97   2.0000      -0.978601       -26.6291
  98   2.0000      -0.971474       -26.4352
  99   2.0000      -0.969470       -26.3806
 100   2.0000      -0.960279       -26.1305
 101   2.0000      -0.939854       -25.5747
 102   2.0000      -0.923154       -25.1203
 103   2.0000      -0.921428       -25.0733
 104   2.0000      -0.906660       -24.6715
 105   2.0000      -0.898308       -24.4442
 106   2.0000      -0.895068       -24.3560
 107   2.0000      -0.880518       -23.9601
 108   2.0000      -0.880370       -23.9561
 109   2.0000      -0.876411       -23.8484
 110   2.0000      -0.875480       -23.8230
 111   2.0000      -0.867499       -23.6058
 112   2.0000      -0.866212       -23.5708
 113   2.0000      -0.827280       -22.5114
 114   2.0000      -0.827106       -22.5067
 115   2.0000      -0.824468       -22.4349
 116   2.0000      -0.821367       -22.3505
 117   2.0000      -0.814576       -22.1657
 118   2.0000      -0.812955       -22.1216
 119   2.0000      -0.792425       -21.5630
 120   2.0000      -0.790796       -21.5187
 121   2.0000      -0.776166       -21.1206
 122   2.0000      -0.775561       -21.1041
 123   2.0000      -0.766963       -20.8701
 124   2.0000      -0.761398       -20.7187
 125   2.0000      -0.757511       -20.6129
 126   2.0000      -0.733847       -19.9690
 127   2.0000      -0.721379       -19.6297
 128   2.0000      -0.707776       -19.2596
 129   2.0000      -0.703557       -19.1448
 130   2.0000      -0.701289       -19.0831
 131   2.0000      -0.697673       -18.9846
 132   2.0000      -0.694418       -18.8961
 133   2.0000      -0.679643       -18.4940
 134   2.0000      -0.674977       -18.3671
 135   2.0000      -0.673721       -18.3329
 136   2.0000      -0.667180       -18.1549
 137   2.0000      -0.660409       -17.9706
 138   2.0000      -0.659583       -17.9482
 139   2.0000      -0.651417       -17.7260
 140   2.0000      -0.648565       -17.6484
 141   2.0000      -0.642463       -17.4823
 142   2.0000      -0.637554       -17.3487
 143   2.0000      -0.631196       -17.1757
 144   2.0000      -0.630283       -17.1509
 145   2.0000      -0.616940       -16.7878
 146   2.0000      -0.606275       -16.4976
 147   2.0000      -0.606182       -16.4951
 148   2.0000      -0.601509       -16.3679
 149   2.0000      -0.601307       -16.3624
 150   2.0000      -0.595918       -16.2157
 151   2.0000      -0.593174       -16.1411
 152   2.0000      -0.589319       -16.0362
 153   2.0000      -0.588459       -16.0128
 154   2.0000      -0.568546       -15.4709
 155   2.0000      -0.564451       -15.3595
 156   2.0000      -0.562906       -15.3175
 157   2.0000      -0.554228       -15.0813
 158   2.0000      -0.550105       -14.9691
 159   2.0000      -0.545814       -14.8524
 160   2.0000      -0.545480       -14.8433
 161   2.0000      -0.541822       -14.7437
 162   2.0000      -0.540289       -14.7020
 163   2.0000      -0.536779       -14.6065
 164   2.0000      -0.535996       -14.5852
 165   2.0000      -0.532666       -14.4946
 166   2.0000      -0.527972       -14.3669
 167   2.0000      -0.523111       -14.2346
 168   2.0000      -0.521273       -14.1846
 169   2.0000      -0.518206       -14.1011
 170   2.0000      -0.517399       -14.0791
 171   2.0000      -0.515957       -14.0399
 172   2.0000      -0.514755       -14.0072
 173   2.0000      -0.513933       -13.9848
 174   2.0000      -0.512817       -13.9545
 175   2.0000      -0.510527       -13.8922
 176   2.0000      -0.507995       -13.8233
 177   2.0000      -0.503973       -13.7138
 178   2.0000      -0.499136       -13.5822
 179   2.0000      -0.496267       -13.5041
 180   2.0000      -0.495212       -13.4754
 181   2.0000      -0.494634       -13.4597
 182   2.0000      -0.492463       -13.4006
 183   2.0000      -0.490943       -13.3592
 184   2.0000      -0.489343       -13.3157
 185   2.0000      -0.486702       -13.2438
 186   2.0000      -0.485506       -13.2113
 187   2.0000      -0.482855       -13.1391
 188   2.0000      -0.473579       -12.8867
 189   2.0000      -0.471665       -12.8347
 190   2.0000      -0.466183       -12.6855
 191   2.0000      -0.464037       -12.6271
 192   2.0000      -0.461834       -12.5672
 193   2.0000      -0.456406       -12.4194
 194   2.0000      -0.452557       -12.3147
 195   2.0000      -0.449833       -12.2406
 196   2.0000      -0.448191       -12.1959
 197   2.0000      -0.446523       -12.1505
 198   2.0000      -0.444557       -12.0970
 199   2.0000      -0.442860       -12.0508
 200   2.0000      -0.441986       -12.0270
 201   2.0000      -0.440805       -11.9949
 202   2.0000      -0.439300       -11.9540
 203   2.0000      -0.438528       -11.9329
 204   2.0000      -0.437339       -11.9006
 205   2.0000      -0.432310       -11.7637
 206   2.0000      -0.432146       -11.7593
 207   2.0000      -0.430871       -11.7246
 208   2.0000      -0.427736       -11.6393
 209   2.0000      -0.424967       -11.5640
 210   2.0000      -0.424772       -11.5586
 211   2.0000      -0.424243       -11.5442
 212   2.0000      -0.419814       -11.4237
 213   2.0000      -0.417153       -11.3513
 214   2.0000      -0.414968       -11.2919
 215   2.0000      -0.412896       -11.2355
 216   2.0000      -0.406428       -11.0595
 217   2.0000      -0.404230       -10.9997
 218   2.0000      -0.403431       -10.9779
 219   2.0000      -0.401305       -10.9201
 220   2.0000      -0.395778       -10.7697
 221   2.0000      -0.391033       -10.6405
 222   2.0000      -0.386942       -10.5292
 223   2.0000      -0.377619       -10.2755
 224   2.0000      -0.375971       -10.2307
 225   2.0000      -0.373808       -10.1718
 226   2.0000      -0.370266       -10.0754
 227   2.0000      -0.350405        -9.5350
 228   2.0000      -0.348271        -9.4769
 229   2.0000      -0.339066        -9.2264
 230   2.0000      -0.332741        -9.0543
 231   2.0000      -0.316709        -8.6181
 232   2.0000      -0.314909        -8.5691
 233   2.0000      -0.306940        -8.3523
 234   2.0000      -0.306563        -8.3420
 235   2.0000      -0.303908        -8.2698
 236   2.0000      -0.295129        -8.0309
 237   2.0000      -0.293994        -8.0000
 238   2.0000      -0.278003        -7.5648
 239   2.0000      -0.276585        -7.5263
 240   0.0000      -0.094290        -2.5658
 241   0.0000      -0.091955        -2.5022
 242   0.0000      -0.057597        -1.5673
 243   0.0000      -0.053358        -1.4520
 244   0.0000      -0.030106        -0.8192

MULLIKEN ATOMIC CHARGES
-----------------------
   0 C :    0.251429
   1 C :   -0.321252
   2 C :   -0.173590
   3 N :    0.154768
   4 C :   -0.205842
   5 N :    0.173778
   6 C :    0.037697
   7 C :    0.011728
   8 C :   -0.080106
   9 C :    0.093028
  10 C :    0.095120
  11 C :   -0.079982
  12 C :   -0.018560
  13 C :    0.036944
  14 C :    0.034101
  15 C :   -0.014471
  16 C :    0.141005
  17 O :   -0.144555
  18 C :   -0.135341
  19 C :    0.048635
  20 C :   -0.105990
  21 C :    0.024059
  22 C :   -0.014314
  23 C :   -0.013655
  24 S :    0.164283
  25 C :   -0.024381
  26 C :   -0.018846
  27 S :    0.150287
  28 C :   -0.127741
  29 C :    0.121479
  30 N :   -0.073093
  31 N :   -0.076408
  32 C :   -0.127027
  33 C :   -0.107753
  34 C :   -0.065893
  35 N :    0.073509
  36 O :   -0.122027
  37 N :    0.076796
  38 C :    0.147956
  39 C :   -0.022716
  40 C :   -0.025298
  41 C :   -0.014424
  42 C :   -0.018999
  43 S :    0.155544
  44 C :   -0.001809
  45 C :   -0.118084
  46 S :    0.158290
  47 C :    0.047328
  48 C :   -0.088493
  49 C :    0.319828
  50 C :   -0.357559
  51 C :   -0.182146
  52 N :    0.143731
  53 C :   -0.192477
  54 N :    0.153481
  55 C :    0.045969
  56 C :   -0.002164
  57 C :    0.162702
  58 O :   -0.159064
  59 C :   -0.080986
  60 C :    0.097622
  61 C :    0.094322
  62 C :   -0.080300
  63 C :   -0.017912
  64 C :    0.035902
  65 C :    0.035494
  66 C :   -0.015536
  67 H :   -0.012099
  68 H :   -0.006105
  69 H :   -0.011623
  70 H :   -0.006201
  71 H :   -0.005671
  72 H :   -0.017385
  73 H :    0.028633
  74 H :   -0.000596
  75 H :   -0.014621
  76 H :    0.051707
  77 H :    0.048786
  78 H :    0.020566
  79 H :    0.019279
  80 H :    0.043493
  81 H :    0.044653
  82 H :   -0.010026
  83 H :    0.019776
  84 H :    0.009705
  85 H :   -0.014415
  86 H :   -0.008240
  87 H :   -0.008735
  88 H :   -0.005281
  89 H :   -0.005095
  90 H :   -0.018525
Sum of atomic charges:   -0.0000000

LOEWDIN ATOMIC CHARGES
----------------------
   0 C :    0.061688
   1 C :   -0.138852
   2 C :   -0.018407
   3 N :   -0.051665
   4 C :   -0.035445
   5 N :   -0.047198
   6 C :   -0.021785
   7 C :   -0.056814
   8 C :    0.032414
   9 C :   -0.009524
  10 C :   -0.005330
  11 C :    0.014861
  12 C :   -0.007104
  13 C :   -0.013556
  14 C :   -0.014110
  15 C :   -0.009044
  16 C :    0.083800
  17 O :   -0.144470
  18 C :   -0.096618
  19 C :    0.053289
  20 C :   -0.173765
  21 C :   -0.016651
  22 C :   -0.205126
  23 C :   -0.176845
  24 S :    0.453742
  25 C :   -0.059270
  26 C :   -0.148049
  27 S :    0.451503
  28 C :   -0.049723
  29 C :   -0.033369
  30 N :   -0.004539
  31 N :   -0.012142
  32 C :   -0.051096
  33 C :   -0.083137
  34 C :   -0.069885
  35 N :   -0.006079
  36 O :    0.054016
  37 N :   -0.004415
  38 C :   -0.021670
  39 C :   -0.138753
  40 C :   -0.063478
  41 C :   -0.184069
  42 C :   -0.200447
  43 S :    0.431892
  44 C :   -0.013059
  45 C :   -0.171631
  46 S :    0.447385
  47 C :    0.049706
  48 C :   -0.095159
  49 C :    0.078062
  50 C :   -0.142390
  51 C :   -0.016437
  52 N :   -0.055819
  53 C :   -0.025251
  54 N :   -0.051874
  55 C :   -0.026241
  56 C :   -0.055047
  57 C :    0.089181
  58 O :   -0.145168
  59 C :    0.031497
  60 C :   -0.008335
  61 C :   -0.006325
  62 C :    0.019759
  63 C :   -0.005096
  64 C :   -0.013676
  65 C :   -0.012667
  66 C :   -0.009959
  67 H :    0.039260
  68 H :    0.038482
  69 H :    0.033898
  70 H :    0.032567
  71 H :    0.032459
  72 H :    0.031783
  73 H :    0.052311
  74 H :    0.040348
  75 H :    0.031754
  76 H :    0.038043
  77 H :    0.035048
  78 H :    0.030905
  79 H :    0.030936
  80 H :    0.040397
  81 H :    0.037648
  82 H :    0.036631
  83 H :    0.038610
  84 H :    0.043201
  85 H :    0.038335
  86 H :    0.039079
  87 H :    0.034914
  88 H :    0.033072
  89 H :    0.032608
  90 H :    0.031478

  Mayer bond orders larger than 0.100000
B(  0-C ,  1-C ) :   1.6643 B(  0-C ,  6-C ) :   1.0036 B(  0-C , 18-C ) :   1.0261
B(  1-C ,  2-C ) :   1.1381 B(  1-C ,  4-C ) :   1.1489 B(  2-C ,  3-N ) :   2.9894
B(  4-C ,  5-N ) :   3.0282 B(  6-C ,  7-C ) :   1.2171 B(  6-C , 11-C ) :   1.4572
B(  7-C ,  8-C ) :   1.4763 B(  7-C , 16-C ) :   0.9215 B(  8-C ,  9-C ) :   1.1829
B(  8-C , 67-H ) :   1.0160 B(  9-C , 10-C ) :   1.2600 B(  9-C , 15-C ) :   1.2456
B( 10-C , 11-C ) :   1.2043 B( 10-C , 12-C ) :   1.2386 B( 11-C , 68-H ) :   0.9946
B( 12-C , 13-C ) :   1.4904 B( 12-C , 69-H ) :   0.9977 B( 13-C , 14-C ) :   1.2611
B( 13-C , 70-H ) :   0.9881 B( 14-C , 15-C ) :   1.4882 B( 14-C , 71-H ) :   0.9893
B( 15-C , 72-H ) :   0.9978 B( 16-C , 17-O ) :   2.2695 B( 16-C , 18-C ) :   0.9364
B( 18-C , 19-C ) :   1.6643 B( 19-C , 20-C ) :   1.1305 B( 19-C , 73-H ) :   0.9448
B( 20-C , 21-C ) :   1.4710 B( 20-C , 24-S ) :   1.0914 B( 21-C , 22-C ) :   1.2638
B( 21-C , 74-H ) :   1.0052 B( 22-C , 23-C ) :   1.4152 B( 22-C , 27-S ) :   1.0619
B( 23-C , 24-S ) :   1.0901 B( 23-C , 25-C ) :   1.2487 B( 25-C , 26-C ) :   1.5725
B( 25-C , 75-H ) :   1.0007 B( 26-C , 27-S ) :   1.1352 B( 26-C , 28-C ) :   0.9752
B( 28-C , 29-C ) :   1.0748 B( 28-C , 30-N ) :   0.9622 B( 28-C , 34-C ) :   0.9266
B( 29-C , 76-H ) :   0.9495 B( 29-C , 77-H ) :   0.9453 B( 29-C , 78-H ) :   0.9503
B( 30-N , 31-N ) :   1.8513 B( 31-N , 32-C ) :   0.9455 B( 32-C , 33-C ) :   0.9103
B( 32-C , 38-C ) :   1.0953 B( 32-C , 39-C ) :   0.9487 B( 33-C , 34-C ) :   1.2103
B( 33-C , 37-N ) :   1.7423 B( 34-C , 35-N ) :   1.7435 B( 35-N , 36-O ) :   1.0453
B( 35-N , 37-N ) :   0.1517 B( 36-O , 37-N ) :   1.0500 B( 38-C , 79-H ) :   0.9479
B( 38-C , 80-H ) :   0.9485 B( 38-C , 81-H ) :   0.9393 B( 39-C , 40-C ) :   1.6279
B( 39-C , 43-S ) :   1.1238 B( 40-C , 41-C ) :   1.1923 B( 40-C , 82-H ) :   1.0039
B( 41-C , 42-C ) :   1.4146 B( 41-C , 46-S ) :   1.1061 B( 42-C , 43-S ) :   1.0678
B( 42-C , 44-C ) :   1.2568 B( 44-C , 45-C ) :   1.4625 B( 44-C , 83-H ) :   0.9806
B( 45-C , 46-S ) :   1.0804 B( 45-C , 47-C ) :   1.2194 B( 47-C , 48-C ) :   1.6026
B( 47-C , 84-H ) :   0.9091 B( 48-C , 49-C ) :   1.0761 B( 48-C , 57-C ) :   0.9360
B( 49-C , 50-C ) :   1.6223 B( 49-C , 55-C ) :   0.9850 B( 50-C , 51-C ) :   1.1495
B( 50-C , 53-C ) :   1.1373 B( 51-C , 52-N ) :   2.9622 B( 53-C , 54-N ) :   2.9752
B( 55-C , 56-C ) :   1.2154 B( 55-C , 62-C ) :   1.4480 B( 56-C , 57-C ) :   0.9542
B( 56-C , 59-C ) :   1.4703 B( 57-C , 58-O ) :   2.1670 B( 59-C , 60-C ) :   1.1784
B( 59-C , 85-H ) :   1.0160 B( 60-C , 61-C ) :   1.2550 B( 60-C , 66-C ) :   1.2448
B( 61-C , 62-C ) :   1.2084 B( 61-C , 63-C ) :   1.2398 B( 62-C , 86-H ) :   0.9891
B( 63-C , 64-C ) :   1.4885 B( 63-C , 87-H ) :   0.9973 B( 64-C , 65-C ) :   1.2594
B( 64-C , 88-H ) :   0.9891 B( 65-C , 66-C ) :   1.4882 B( 65-C , 89-H ) :   0.9891
B( 66-C , 90-H ) :   0.9974

-----------------------------------------------------------------------------
         ABSORPTION SPECTRUM VIA TRANSITION ELECTRIC DIPOLE MOMENTS
-----------------------------------------------------------------------------
State   Energy  Wavelength   fosc         T2         TX        TY        TZ
        (cm-1)    (nm)                  (au**2)     (au)      (au)      (au)
-----------------------------------------------------------------------------
   0   22476.4    444.9   0.478085706   7.00254  -0.46974  -2.02044  -1.64307
   1   23763.8    420.8   1.105110705  15.30964  -2.04769   1.52377  -2.96559
   2   26871.0    372.1   0.095266728   1.16717   0.87433   0.20743   0.59974
   3   27065.6    369.5   0.226993699   2.76103   1.03991  -0.08771   1.29303
   4   27717.0    360.8   0.049985912   0.59371   0.38964  -0.09957   0.65725
   5   27982.1    357.4   0.010377257   0.12209   0.18624  -0.01405   0.29531
   6   28485.7    351.1   0.009584736   0.11077   0.05044   0.09482  -0.31502
   7   28614.4    349.5   0.004959009   0.05705   0.14620   0.16763   0.08706
   8   29040.9    344.3   0.032700896   0.37070   0.48586   0.19044   0.31365
   9   29221.9    342.2   0.011554000   0.13017  -0.03423   0.16771  -0.31760
  10   29970.7    333.7   0.007866649   0.08641  -0.04747  -0.28423  -0.05805
  11   30176.2    331.4   0.002207177   0.02408  -0.07695  -0.13463   0.00582
  12   30795.6    324.7   0.002877257   0.03076  -0.09477  -0.14745  -0.00590
  13   31093.9    321.6   0.304400318   3.22288  -1.11747  -0.62536  -1.25820
  14   31631.6    316.1   0.703978674   7.32679  -1.86220  -1.60500  -1.13268
  15   32785.8    305.0   0.006748617   0.06776  -0.14781  -0.20744  -0.05372
  16   33287.9    300.4   0.015917913   0.15743  -0.26544  -0.23064   0.18378
  17   33554.5    298.0   0.285632654   2.80242   1.46323   0.75431   0.30396
  18   33807.9    295.8   0.814618886   7.93253   1.68044   1.66901   1.52416
  19   34151.9    292.8   0.048641514   0.46889   0.41442   0.38753   0.38335
  20   34574.4    289.2   0.506490675   4.82273  -1.78789  -0.84923  -0.95130
  21   35296.1    283.3   0.001377102   0.01284   0.07731   0.07403   0.03725
  22   36247.5    275.9   0.000066259   0.00060  -0.01592  -0.00056  -0.01866
  23   36366.8    275.0   0.000331778   0.00300  -0.00047   0.05362  -0.01134
  24   36495.9    274.0   0.001237654   0.01116  -0.05410   0.03202  -0.08492
  25   38351.2    260.7   0.142952651   1.22712  -0.63565  -0.81548  -0.39757
  26   38524.3    259.6   0.060813512   0.51969  -0.23979  -0.67736   0.05809
  27   38656.4    258.7   0.020980872   0.17868   0.27732   0.28568   0.14199
  28   38788.4    257.8   0.063770950   0.54125  -0.39739  -0.40810  -0.46560
  29   39013.3    256.3   0.032942298   0.27798   0.30000  -0.20850   0.38014
  30   39535.8    252.9   0.360755621   3.00399  -0.39968   1.58393  -0.57915
  31   39816.3    251.2   0.258752177   2.13943   0.49237  -0.64022   1.21948
  32   40171.6    248.9   0.003971726   0.03255  -0.00054  -0.16418   0.07479

FINAL SINGLE POINT ENERGY     -4248.383860145090

DIPOLE MOMENT
-------------
                                X             Y             Z
Electronic contribution:     12.28225       7.46815      15.02669
Nuclear contribution   :    -13.35282      -9.15829     -14.70251
                        -----------------------------------------
Total Dipole Moment    :     -1.07057      -1.69013       0.32418
                        -----------------------------------------
Magnitude (a.u.)       :      2.02676
Magnitude (Debye)      :      5.15162

Rotational constants in cm-1:     0.000902     0.000526     0.000346
Rotational constants in MHz :    27.049649    15.754275    10.369597

                             ****ORCA TERMINATED NORMALLY****
TOTAL RUN TIME: 0 days 0 hours 8 minutes 8 seconds 278 msec
