                         Program Version 4.2.0 -  RELEASE  -
|  1> # ORCA input file
|  2> # SCF done       -157.541889739145          0.000303326363
|  3> ! CAM-B3LYP def2-SVP def2/J RIJCOSX Grid4 TightSCF
|  4> %maxcore 5000
|  5> %tddft
|  6>     Mode sTDDFT
|  7>     Ethresh 5.0
|  8>     maxcore 5000
|  9> end
| 10>
| 11> %pal
| 12>   nprocs 6
| 13>   end
| 14> * xyz 0 1
| 15>    C       -2.60001         2.21403         2.22939
| 16>    C       -3.14942         1.35922         3.16748
| 17>    C       -3.31227         0.02136         2.86815
| 18>    F       -3.85046        -0.76555         3.82343
| 19>    C       -2.93933        -0.53847         1.63765
| 20>    C       -2.38987         0.34599         0.70013
| 21>    C       -2.23175         1.68033         1.00611
| 22>    F       -1.69942         2.49407         0.07230
| 23>    C       -3.09686        -1.93923         1.33126
| 24>    C       -2.59616        -2.60884         0.22574
| 25>    C       -2.92486        -3.95688         0.22431
| 26>    C       -3.68796        -4.32622         1.33279
| 27>    S       -3.99261        -3.01233         2.38582
| 28>    C       -3.96858        -5.70951         1.26356
| 29>    C       -3.37973        -6.22822         0.10484
| 30>    C       -2.66382        -5.14630        -0.66966
| 31>    C       -1.16692        -5.44433        -0.78634
| 32>    C       -3.28640        -4.95289        -2.05520
| 33>    C       -3.58658        -7.58612        -0.04176
| 34>    C       -4.33749        -8.12683         0.99907
| 35>    S       -4.79481        -6.90305         2.17555
| 36>    C       -4.74073        -9.47403         1.20280
| 37>    C       -4.39464       -10.56022         0.36025
| 38>    C       -4.82822       -11.91257         0.62005
| 39>    N       -4.45330       -12.89017        -0.23128
| 40>    C       -3.71835       -12.61224        -1.25748
| 41>    C       -3.29301       -11.28985        -1.51065
| 42>    N       -3.62766       -10.32070        -0.72368
| 43>    F       -2.53285       -10.98877        -2.56778
| 44>    F       -3.37978       -13.62307        -2.06324
| 45>    C       -5.63797       -12.25245         1.73245
| 46>    C       -5.98215       -11.16552         2.56804
| 47>    C       -5.54336        -9.81972         2.31394
| 48>    N       -5.99078        -8.97355         3.24064
| 49>    S       -6.86946        -9.77698         4.31844
| 50>    N       -6.72997       -11.23957         3.66821
| 51>    C       -6.10372       -13.56211         2.02888
| 52>    C       -5.84479       -14.75571         1.36024
| 53>    C       -6.49058       -15.83467         1.93289
| 54>    C       -7.25595       -15.47971         3.04942
| 55>    S       -7.17009       -13.80467         3.40510
| 56>    C       -7.88644       -16.64115         3.54924
| 57>    C       -7.52863       -17.73556         2.76402
| 58>    C       -6.59194       -17.31657         1.65611
| 59>    C       -5.22884       -18.00138         1.78828
| 60>    C       -7.20046       -17.58635         0.27755
| 61>    C       -8.12056       -18.92159         3.18299
| 62>    C       -8.93686       -18.74729         4.28508
| 63>    S       -8.96190       -17.07036         4.81140
| 64>    C       -9.73073       -19.71905         4.99685
| 65>    C      -10.62236       -19.30768         5.99526
| 66>    C      -11.39094       -20.22742         6.67462
| 67>    F      -12.23795       -19.78586         7.62447
| 68>    C      -11.32553       -21.58563         6.41335
| 69>    C      -10.44771       -22.01406         5.43454
| 70>    C       -9.67359       -21.09855         4.74950
| 71>    F       -8.83266       -21.59066         3.81438
| 72>    H       -2.46061         3.26280         2.43171
| 73>    H       -3.45592         1.71761         4.13713
| 74>    H       -2.09201        -0.00029        -0.27496
| 75>    H       -2.00398        -2.13514        -0.53491
| 76>    H       -0.73018        -5.57587         0.20093
| 77>    H       -0.65860        -4.62372        -1.28667
| 78>    H       -1.01378        -6.35501        -1.35951
| 79>    H       -4.34872        -4.73785        -1.96522
| 80>    H       -3.16226        -5.85605        -2.64703
| 81>    H       -2.80494        -4.12541        -2.57058
| 82>    H       -3.22326        -8.18886        -0.85078
| 83>    H       -5.21018       -14.79536         0.49678
| 84>    H       -4.80131       -17.80631         2.76916
| 85>    H       -4.54845       -17.62332         1.02962
| 86>    H       -5.33676       -19.07579         1.66202
| 87>    H       -8.16867       -17.09869         0.18987
| 88>    H       -7.33309       -18.65535         0.13045
| 89>    H       -6.54475       -17.20201        -0.49940
| 90>    H       -7.96969       -19.86786         2.69987
| 91>    H      -10.71669       -18.26064         6.23707
| 92>    H      -11.94258       -22.27769         6.96166
| 93>    H      -10.35182       -23.06043         5.19200
| 94> *
| 95>
| 96>                          ****END OF INPUT****

CARTESIAN COORDINATES (ANGSTROEM)
---------------------------------
  C     -2.600010    2.214030    2.229390
  C     -3.149420    1.359220    3.167480
  C     -3.312270    0.021360    2.868150
  F     -3.850460   -0.765550    3.823430
  C     -2.939330   -0.538470    1.637650
  C     -2.389870    0.345990    0.700130
  C     -2.231750    1.680330    1.006110
  F     -1.699420    2.494070    0.072300
  C     -3.096860   -1.939230    1.331260
  C     -2.596160   -2.608840    0.225740
  C     -2.924860   -3.956880    0.224310
  C     -3.687960   -4.326220    1.332790
  S     -3.992610   -3.012330    2.385820
  C     -3.968580   -5.709510    1.263560
  C     -3.379730   -6.228220    0.104840
  C     -2.663820   -5.146300   -0.669660
  C     -1.166920   -5.444330   -0.786340
  C     -3.286400   -4.952890   -2.055200
  C     -3.586580   -7.586120   -0.041760
  C     -4.337490   -8.126830    0.999070
  S     -4.794810   -6.903050    2.175550
  C     -4.740730   -9.474030    1.202800
  C     -4.394640  -10.560220    0.360250
  C     -4.828220  -11.912570    0.620050
  N     -4.453300  -12.890170   -0.231280
  C     -3.718350  -12.612240   -1.257480
  C     -3.293010  -11.289850   -1.510650
  N     -3.627660  -10.320700   -0.723680
  F     -2.532850  -10.988770   -2.567780
  F     -3.379780  -13.623070   -2.063240
  C     -5.637970  -12.252450    1.732450
  C     -5.982150  -11.165520    2.568040
  C     -5.543360   -9.819720    2.313940
  N     -5.990780   -8.973550    3.240640
  S     -6.869460   -9.776980    4.318440
  N     -6.729970  -11.239570    3.668210
  C     -6.103720  -13.562110    2.028880
  C     -5.844790  -14.755710    1.360240
  C     -6.490580  -15.834670    1.932890
  C     -7.255950  -15.479710    3.049420
  S     -7.170090  -13.804670    3.405100
  C     -7.886440  -16.641150    3.549240
  C     -7.528630  -17.735560    2.764020
  C     -6.591940  -17.316570    1.656110
  C     -5.228840  -18.001380    1.788280
  C     -7.200460  -17.586350    0.277550
  C     -8.120560  -18.921590    3.182990
  C     -8.936860  -18.747290    4.285080
  S     -8.961900  -17.070360    4.811400
  C     -9.730730  -19.719050    4.996850
  C    -10.622360  -19.307680    5.995260
  C    -11.390940  -20.227420    6.674620
  F    -12.237950  -19.785860    7.624470
  C    -11.325530  -21.585630    6.413350
  C    -10.447710  -22.014060    5.434540
  C     -9.673590  -21.098550    4.749500
  F     -8.832660  -21.590660    3.814380
  H     -2.460610    3.262800    2.431710
  H     -3.455920    1.717610    4.137130
  H     -2.092010   -0.000290   -0.274960
  H     -2.003980   -2.135140   -0.534910
  H     -0.730180   -5.575870    0.200930
  H     -0.658600   -4.623720   -1.286670
  H     -1.013780   -6.355010   -1.359510
  H     -4.348720   -4.737850   -1.965220
  H     -3.162260   -5.856050   -2.647030
  H     -2.804940   -4.125410   -2.570580
  H     -3.223260   -8.188860   -0.850780
  H     -5.210180  -14.795360    0.496780
  H     -4.801310  -17.806310    2.769160
  H     -4.548450  -17.623320    1.029620
  H     -5.336760  -19.075790    1.662020
  H     -8.168670  -17.098690    0.189870
  H     -7.333090  -18.655350    0.130450
  H     -6.544750  -17.202010   -0.499400
  H     -7.969690  -19.867860    2.699870
  H    -10.716690  -18.260640    6.237070
  H    -11.942580  -22.277690    6.961660
  H    -10.351820  -23.060430    5.192000

 Total Charge           Charge          ....    0
 Multiplicity           Mult            ....    1
 Number of Electrons    NEL             ....  436
 Basis Dimension        Dim             ....  928

ORBITAL ENERGIES
----------------

  NO   OCC          E(Eh)            E(eV)
   0   2.0000     -89.033747     -2422.7314
   1   2.0000     -88.956681     -2420.6344
   2   2.0000     -88.955561     -2420.6039
   3   2.0000     -88.949170     -2420.4300
   4   2.0000     -88.948964     -2420.4244
   5   2.0000     -24.806474      -675.0185
   6   2.0000     -24.806293      -675.0136
   7   2.0000     -24.784186      -674.4120
   8   2.0000     -24.781290      -674.3332
   9   2.0000     -24.773497      -674.1211
  10   2.0000     -24.772323      -674.0892
  11   2.0000     -14.444297      -393.0493
  12   2.0000     -14.444111      -393.0442
  13   2.0000     -14.442969      -393.0132
  14   2.0000     -14.442825      -393.0093
  15   2.0000     -10.420151      -283.5467
  16   2.0000     -10.419823      -283.5378
  17   2.0000     -10.356029      -281.8019
  18   2.0000     -10.355583      -281.7897
  19   2.0000     -10.354363      -281.7565
  20   2.0000     -10.353331      -281.7285
  21   2.0000     -10.334878      -281.2263
  22   2.0000     -10.334612      -281.2191
  23   2.0000     -10.328284      -281.0469
  24   2.0000     -10.328024      -281.0398
  25   2.0000     -10.302644      -280.3492
  26   2.0000     -10.302410      -280.3428
  27   2.0000     -10.301940      -280.3300
  28   2.0000     -10.301933      -280.3298
  29   2.0000     -10.301923      -280.3296
  30   2.0000     -10.300861      -280.3007
  31   2.0000     -10.297484      -280.2088
  32   2.0000     -10.297196      -280.2009
  33   2.0000     -10.295883      -280.1652
  34   2.0000     -10.292664      -280.0776
  35   2.0000     -10.290318      -280.0138
  36   2.0000     -10.290233      -280.0115
  37   2.0000     -10.286365      -279.9062
  38   2.0000     -10.285507      -279.8829
  39   2.0000     -10.285297      -279.8771
  40   2.0000     -10.283920      -279.8397
  41   2.0000     -10.282563      -279.8028
  42   2.0000     -10.281944      -279.7859
  43   2.0000     -10.281198      -279.7656
  44   2.0000     -10.280781      -279.7543
  45   2.0000     -10.274528      -279.5841
  46   2.0000     -10.270891      -279.4852
  47   2.0000     -10.266914      -279.3769
  48   2.0000     -10.265881      -279.3488
  49   2.0000     -10.263657      -279.2883
  50   2.0000     -10.263505      -279.2842
  51   2.0000     -10.261409      -279.2271
  52   2.0000     -10.261223      -279.2221
  53   2.0000     -10.258728      -279.1542
  54   2.0000     -10.258523      -279.1486
  55   2.0000     -10.257442      -279.1192
  56   2.0000     -10.257398      -279.1180
  57   2.0000      -8.124750      -221.0857
  58   2.0000      -8.051576      -219.0945
  59   2.0000      -8.050020      -219.0522
  60   2.0000      -8.042868      -218.8576
  61   2.0000      -8.042655      -218.8518
  62   2.0000      -6.095910      -165.8781
  63   2.0000      -6.088244      -165.6695
  64   2.0000      -6.087314      -165.6442
  65   2.0000      -6.020881      -163.8365
  66   2.0000      -6.019403      -163.7963
  67   2.0000      -6.016882      -163.7277
  68   2.0000      -6.015090      -163.6789
  69   2.0000      -6.013636      -163.6394
  70   2.0000      -6.012418      -163.6062
  71   2.0000      -6.012207      -163.6005
  72   2.0000      -6.012183      -163.5998
  73   2.0000      -6.007934      -163.4842
  74   2.0000      -6.007740      -163.4789
  75   2.0000      -6.004887      -163.4013
  76   2.0000      -6.004691      -163.3959
  77   2.0000      -1.332290       -36.2535
  78   2.0000      -1.318762       -35.8854
  79   2.0000      -1.298338       -35.3296
  80   2.0000      -1.294642       -35.2290
  81   2.0000      -1.287888       -35.0452
  82   2.0000      -1.287047       -35.0223
  83   2.0000      -1.131443       -30.7881
  84   2.0000      -1.102980       -30.0136
  85   2.0000      -1.027649       -27.9638
  86   2.0000      -1.004379       -27.3305
  87   2.0000      -1.003920       -27.3180
  88   2.0000      -0.989927       -26.9373
  89   2.0000      -0.977192       -26.5907
  90   2.0000      -0.971433       -26.4340
  91   2.0000      -0.964900       -26.2563
  92   2.0000      -0.955092       -25.9894
  93   2.0000      -0.948420       -25.8078
  94   2.0000      -0.917494       -24.9663
  95   2.0000      -0.912303       -24.8250
  96   2.0000      -0.879058       -23.9204
  97   2.0000      -0.875898       -23.8344
  98   2.0000      -0.874123       -23.7861
  99   2.0000      -0.870772       -23.6949
 100   2.0000      -0.846873       -23.0446
 101   2.0000      -0.838492       -22.8165
 102   2.0000      -0.834919       -22.7193
 103   2.0000      -0.829038       -22.5593
 104   2.0000      -0.820818       -22.3356
 105   2.0000      -0.819919       -22.3111
 106   2.0000      -0.813236       -22.1293
 107   2.0000      -0.812523       -22.1099
 108   2.0000      -0.805497       -21.9187
 109   2.0000      -0.785215       -21.3668
 110   2.0000      -0.770309       -20.9612
 111   2.0000      -0.769045       -20.9268
 112   2.0000      -0.767363       -20.8810
 113   2.0000      -0.755935       -20.5700
 114   2.0000      -0.747898       -20.3513
 115   2.0000      -0.732099       -19.9214
 116   2.0000      -0.722434       -19.6584
 117   2.0000      -0.713178       -19.4066
 118   2.0000      -0.705821       -19.2064
 119   2.0000      -0.693694       -18.8764
 120   2.0000      -0.690112       -18.7789
 121   2.0000      -0.687103       -18.6970
 122   2.0000      -0.675857       -18.3910
 123   2.0000      -0.667400       -18.1609
 124   2.0000      -0.663881       -18.0651
 125   2.0000      -0.654985       -17.8230
 126   2.0000      -0.647251       -17.6126
 127   2.0000      -0.635173       -17.2839
 128   2.0000      -0.626568       -17.0498
 129   2.0000      -0.622398       -16.9363
 130   2.0000      -0.621060       -16.8999
 131   2.0000      -0.620350       -16.8806
 132   2.0000      -0.617737       -16.8095
 133   2.0000      -0.615522       -16.7492
 134   2.0000      -0.612321       -16.6621
 135   2.0000      -0.610460       -16.6115
 136   2.0000      -0.608639       -16.5619
 137   2.0000      -0.603092       -16.4110
 138   2.0000      -0.601192       -16.3593
 139   2.0000      -0.591396       -16.0927
 140   2.0000      -0.588066       -16.0021
 141   2.0000      -0.577141       -15.7048
 142   2.0000      -0.561287       -15.2734
 143   2.0000      -0.558586       -15.1999
 144   2.0000      -0.557300       -15.1649
 145   2.0000      -0.555987       -15.1292
 146   2.0000      -0.549294       -14.9470
 147   2.0000      -0.547352       -14.8942
 148   2.0000      -0.542854       -14.7718
 149   2.0000      -0.542082       -14.7508
 150   2.0000      -0.540631       -14.7113
 151   2.0000      -0.537842       -14.6354
 152   2.0000      -0.535714       -14.5775
 153   2.0000      -0.531073       -14.4512
 154   2.0000      -0.528851       -14.3908
 155   2.0000      -0.519722       -14.1423
 156   2.0000      -0.519588       -14.1387
 157   2.0000      -0.518896       -14.1199
 158   2.0000      -0.517788       -14.0897
 159   2.0000      -0.516699       -14.0601
 160   2.0000      -0.514646       -14.0042
 161   2.0000      -0.509939       -13.8762
 162   2.0000      -0.509388       -13.8611
 163   2.0000      -0.508782       -13.8447
 164   2.0000      -0.504417       -13.7259
 165   2.0000      -0.500102       -13.6085
 166   2.0000      -0.496653       -13.5146
 167   2.0000      -0.494544       -13.4572
 168   2.0000      -0.491020       -13.3613
 169   2.0000      -0.490343       -13.3429
 170   2.0000      -0.476194       -12.9579
 171   2.0000      -0.474263       -12.9054
 172   2.0000      -0.471977       -12.8432
 173   2.0000      -0.470136       -12.7930
 174   2.0000      -0.468573       -12.7505
 175   2.0000      -0.466861       -12.7039
 176   2.0000      -0.465942       -12.6789
 177   2.0000      -0.465137       -12.6570
 178   2.0000      -0.464584       -12.6420
 179   2.0000      -0.460051       -12.5186
 180   2.0000      -0.453746       -12.3471
 181   2.0000      -0.448454       -12.2031
 182   2.0000      -0.446262       -12.1434
 183   2.0000      -0.441434       -12.0120
 184   2.0000      -0.441037       -12.0012
 185   2.0000      -0.435776       -11.8581
 186   2.0000      -0.435279       -11.8446
 187   2.0000      -0.433829       -11.8051
 188   2.0000      -0.429170       -11.6783
 189   2.0000      -0.426586       -11.6080
 190   2.0000      -0.419247       -11.4083
 191   2.0000      -0.419138       -11.4053
 192   2.0000      -0.418934       -11.3998
 193   2.0000      -0.417530       -11.3616
 194   2.0000      -0.411328       -11.1928
 195   2.0000      -0.407951       -11.1009
 196   2.0000      -0.406712       -11.0672
 197   2.0000      -0.404322       -11.0022
 198   2.0000      -0.394932       -10.7467
 199   2.0000      -0.393457       -10.7065
 200   2.0000      -0.391647       -10.6573
 201   2.0000      -0.375540       -10.2190
 202   2.0000      -0.371123       -10.0988
 203   2.0000      -0.367028        -9.9873
 204   2.0000      -0.357246        -9.7211
 205   2.0000      -0.348261        -9.4767
 206   2.0000      -0.339390        -9.2353
 207   2.0000      -0.334760        -9.1093
 208   2.0000      -0.324091        -8.8190
 209   2.0000      -0.319071        -8.6824
 210   2.0000      -0.317086        -8.6283
 211   2.0000      -0.312521        -8.5041
 212   2.0000      -0.309407        -8.4194
 213   2.0000      -0.307772        -8.3749
 214   2.0000      -0.306664        -8.3447
 215   2.0000      -0.283356        -7.7105
 216   2.0000      -0.247435        -6.7330
 217   2.0000      -0.210603        -5.7308
 218   0.0000      -0.103271        -2.8101
 219   0.0000      -0.032135        -0.8744
 220   0.0000      -0.029854        -0.8124
 221   0.0000      -0.014653        -0.3987
 222   0.0000       0.010047         0.2734

MULLIKEN ATOMIC CHARGES
-----------------------
   0 C :   -0.055005
   1 C :   -0.031285
   2 C :    0.200094
   3 F :   -0.195369
   4 C :    0.087188
   5 C :   -0.108026
   6 C :    0.305041
   7 F :   -0.199830
   8 C :   -0.084521
   9 C :   -0.052108
  10 C :    0.014104
  11 C :   -0.092980
  12 S :    0.170072
  13 C :   -0.057581
  14 C :    0.035371
  15 C :   -0.096594
  16 C :    0.103719
  17 C :    0.105354
  18 C :   -0.068411
  19 C :   -0.188224
  20 S :    0.159847
  21 C :    0.199845
  22 C :   -0.080476
  23 C :   -0.080085
  24 N :   -0.004582
  25 C :    0.141017
  26 C :    0.139999
  27 N :   -0.002855
  28 F :   -0.151435
  29 F :   -0.151157
  30 C :    0.198071
  31 C :   -0.021695
  32 C :   -0.023741
  33 N :   -0.326354
  34 S :    0.546013
  35 N :   -0.329018
  36 C :   -0.186324
  37 C :   -0.065608
  38 C :    0.033859
  39 C :   -0.056284
  40 S :    0.158632
  41 C :   -0.081236
  42 C :    0.011666
  43 C :   -0.099846
  44 C :    0.104788
  45 C :    0.104466
  46 C :   -0.054867
  47 C :   -0.086191
  48 S :    0.119967
  49 C :    0.100220
  50 C :   -0.120641
  51 C :    0.299097
  52 F :   -0.198790
  53 C :   -0.053321
  54 C :   -0.034078
  55 C :    0.207362
  56 F :   -0.195787
  57 H :    0.000164
  58 H :    0.000171
  59 H :   -0.015807
  60 H :   -0.028409
  61 H :    0.020078
  62 H :    0.006661
  63 H :    0.012418
  64 H :    0.020068
  65 H :    0.013128
  66 H :    0.006484
  67 H :   -0.009661
  68 H :   -0.009236
  69 H :    0.019434
  70 H :    0.012149
  71 H :    0.010261
  72 H :    0.018779
  73 H :    0.009406
  74 H :    0.012617
  75 H :   -0.013105
  76 H :    0.002899
  77 H :   -0.000067
  78 H :    0.000083
Sum of atomic charges:    0.0000000

LOEWDIN ATOMIC CHARGES
----------------------
   0 C :   -0.047621
   1 C :   -0.033693
   2 C :    0.069708
   3 F :   -0.070821
   4 C :   -0.050146
   5 C :   -0.040260
   6 C :    0.080846
   7 F :   -0.074630
   8 C :   -0.170318
   9 C :   -0.052033
  10 C :   -0.036299
  11 C :   -0.200295
  12 S :    0.458107
  13 C :   -0.192012
  14 C :   -0.043918
  15 C :   -0.034867
  16 C :   -0.024965
  17 C :   -0.024903
  18 C :   -0.039538
  19 C :   -0.167488
  20 S :    0.468192
  21 C :   -0.048831
  22 C :   -0.011606
  23 C :   -0.010889
  24 N :   -0.029744
  25 C :    0.052945
  26 C :    0.052538
  27 N :   -0.029351
  28 F :   -0.039931
  29 F :   -0.039619
  30 C :   -0.050356
  31 C :   -0.048907
  32 C :   -0.049251
  33 N :   -0.298904
  34 S :    0.664364
  35 N :   -0.300134
  36 C :   -0.166443
  37 C :   -0.040014
  38 C :   -0.042536
  39 C :   -0.193791
  40 S :    0.467265
  41 C :   -0.192755
  42 C :   -0.037459
  43 C :   -0.034801
  44 C :   -0.024409
  45 C :   -0.024620
  46 C :   -0.047342
  47 C :   -0.164012
  48 S :    0.436626
  49 C :   -0.050610
  50 C :   -0.052307
  51 C :    0.080413
  52 F :   -0.073144
  53 C :   -0.047940
  54 C :   -0.034862
  55 C :    0.079421
  56 F :   -0.067044
  57 H :    0.039686
  58 H :    0.041481
  59 H :    0.036840
  60 H :    0.027131
  61 H :    0.029664
  62 H :    0.021684
  63 H :    0.024687
  64 H :    0.029664
  65 H :    0.024757
  66 H :    0.021588
  67 H :    0.027052
  68 H :    0.027225
  69 H :    0.029549
  70 H :    0.024351
  71 H :    0.023178
  72 H :    0.029328
  73 H :    0.022884
  74 H :    0.024602
  75 H :    0.028622
  76 H :    0.030322
  77 H :    0.039529
  78 H :    0.041168

  Mayer bond orders larger than 0.100000
B(  0-C ,  1-C ) :   1.3261 B(  0-C ,  6-C ) :   1.3597 B(  0-C , 57-H ) :   0.9989
B(  1-C ,  2-C ) :   1.3994 B(  1-C , 58-H ) :   0.9880 B(  2-C ,  3-F ) :   1.0884
B(  2-C ,  4-C ) :   1.3004 B(  4-C ,  5-C ) :   1.3043 B(  4-C ,  8-C ) :   1.0710
B(  5-C ,  6-C ) :   1.3674 B(  5-C , 59-H ) :   0.9967 B(  6-C ,  7-F ) :   1.0833
B(  8-C ,  9-C ) :   1.4700 B(  8-C , 12-S ) :   1.1199 B(  9-C , 10-C ) :   1.3146
B(  9-C , 60-H ) :   0.9976 B( 10-C , 11-C ) :   1.5224 B( 10-C , 15-C ) :   0.9407
B( 11-C , 12-S ) :   1.0659 B( 11-C , 13-C ) :   1.1761 B( 13-C , 14-C ) :   1.4895
B( 13-C , 20-S ) :   1.0630 B( 14-C , 15-C ) :   0.9375 B( 14-C , 18-C ) :   1.3009
B( 15-C , 16-C ) :   1.0362 B( 15-C , 17-C ) :   1.0331 B( 16-C , 61-H ) :   0.9645
B( 16-C , 62-H ) :   0.9644 B( 16-C , 63-H ) :   0.9647 B( 17-C , 64-H ) :   0.9640
B( 17-C , 65-H ) :   0.9651 B( 17-C , 66-H ) :   0.9643 B( 18-C , 19-C ) :   1.4027
B( 18-C , 67-H ) :   0.9968 B( 19-C , 20-S ) :   1.0963 B( 19-C , 21-C ) :   1.1992
B( 21-C , 22-C ) :   1.2818 B( 21-C , 30-C ) :   0.1207 B( 21-C , 32-C ) :   1.1799
B( 22-C , 23-C ) :   1.1016 B( 22-C , 27-N ) :   1.4359 B( 23-C , 24-N ) :   1.4355
B( 23-C , 30-C ) :   1.2838 B( 24-N , 25-C ) :   1.6608 B( 25-C , 26-C ) :   1.1168
B( 25-C , 29-F ) :   1.1642 B( 26-C , 27-N ) :   1.6621 B( 26-C , 28-F ) :   1.1631
B( 30-C , 31-C ) :   1.1806 B( 30-C , 36-C ) :   1.1957 B( 31-C , 32-C ) :   1.1210
B( 31-C , 35-N ) :   1.4802 B( 32-C , 33-N ) :   1.4808 B( 33-N , 34-S ) :   1.2694
B( 33-N , 35-N ) :   0.1530 B( 34-S , 35-N ) :   1.2671 B( 36-C , 37-C ) :   1.4046
B( 36-C , 40-S ) :   1.0974 B( 37-C , 38-C ) :   1.2987 B( 37-C , 68-H ) :   0.9979
B( 38-C , 39-C ) :   1.4893 B( 38-C , 43-C ) :   0.9395 B( 39-C , 40-S ) :   1.0599
B( 39-C , 41-C ) :   1.1708 B( 41-C , 42-C ) :   1.5302 B( 41-C , 48-S ) :   1.0802
B( 42-C , 43-C ) :   0.9399 B( 42-C , 46-C ) :   1.2824 B( 43-C , 44-C ) :   1.0320
B( 43-C , 45-C ) :   1.0372 B( 44-C , 69-H ) :   0.9641 B( 44-C , 70-H ) :   0.9649
B( 44-C , 71-H ) :   0.9648 B( 45-C , 72-H ) :   0.9641 B( 45-C , 73-H ) :   0.9643
B( 45-C , 74-H ) :   0.9643 B( 46-C , 47-C ) :   1.4838 B( 46-C , 75-H ) :   1.0043
B( 47-C , 48-S ) :   1.1052 B( 47-C , 49-C ) :   1.0883 B( 49-C , 50-C ) :   1.2875
B( 49-C , 55-C ) :   1.3077 B( 50-C , 51-C ) :   1.3787 B( 50-C , 76-H ) :   0.9864
B( 51-C , 52-F ) :   1.0860 B( 51-C , 53-C ) :   1.3635 B( 53-C , 54-C ) :   1.3251
B( 53-C , 77-H ) :   0.9984 B( 54-C , 55-C ) :   1.4006 B( 54-C , 78-H ) :   0.9864
B( 55-C , 56-F ) :   1.0825

-----------------------------------------------------------------------------
         ABSORPTION SPECTRUM VIA TRANSITION ELECTRIC DIPOLE MOMENTS
-----------------------------------------------------------------------------
State   Energy  Wavelength   fosc         T2         TX        TY        TZ
        (cm-1)    (nm)                  (au**2)     (au)      (au)      (au)
-----------------------------------------------------------------------------
   0    8453.2   1183.0   0.658036086  25.62732  -1.60788  -4.72660   0.83742
   1   17327.2    577.1   0.029954843   0.56913  -0.36605   0.26153   0.60559
   2   23370.0    427.9   1.107913514  15.60711   1.32177   3.66764  -0.63909
   3   24674.2    405.3   0.875403936  11.67994  -1.15189  -3.16765   0.56488
   4   25332.7    394.7   0.049015993   0.63699  -0.24923  -0.75570   0.06159
   5   25873.1    386.5   0.186233835   2.36966   0.71172  -0.61429  -1.21892
   6   26693.6    374.6   0.004905692   0.06050  -0.05231  -0.23479   0.05139
   7   26953.1    371.0   0.001890677   0.02309  -0.06188   0.07940   0.11384
   8   29971.5    333.6   0.094775012   1.04102  -0.49238   0.34030   0.82630
   9   30439.4    328.5   0.003451774   0.03733  -0.09062   0.07108   0.15514
  10   31791.2    314.6   0.001600785   0.01658  -0.10974   0.02726  -0.06157
  11   32082.6    311.7   0.012804238   0.13139  -0.17446   0.06887   0.31017
  12   32953.7    303.5   0.007494436   0.07487   0.15719   0.05261  -0.21770
  13   33027.1    302.8   0.035101212   0.34989  -0.29728   0.15836   0.48625
  14   33648.3    297.2   0.004587103   0.04488   0.05733  -0.12742  -0.15924
  15   33922.2    294.8   0.044901507   0.43576   0.32074   0.57316  -0.06620
  16   34436.6    290.4   0.175199325   1.67489   0.59318  -0.46852  -1.05049
  17   34728.7    287.9   0.013370686   0.12675  -0.03615  -0.32296  -0.14539
  18   35459.2    282.0   0.202078377   1.87615   0.58778   1.15517  -0.44299
  19   35590.5    281.0   0.528078804   4.88473  -1.01106   0.79743   1.79627
  20   36115.8    276.9   0.009397640   0.08566  -0.13770   0.19812   0.16568
  21   37209.6    268.7   0.009424989   0.08339  -0.19585  -0.16155   0.13759
  22   37816.3    264.4   0.106889503   0.93053   0.45415  -0.49026  -0.69565
  23   37944.3    263.5   0.002682635   0.02328   0.01466   0.05017   0.14333
  24   39863.7    250.9   0.018803536   0.15529   0.22792  -0.02707  -0.32032
  25   40286.3    248.2   0.031777667   0.25968  -0.27490  -0.02755   0.42819

FINAL SINGLE POINT ENERGY     -4419.174984038345

DIPOLE MOMENT
-------------
                                X             Y             Z
Electronic contribution:    -12.38384       8.03318      21.05483
Nuclear contribution   :     12.56549      -8.06683     -21.27160
                        -----------------------------------------
Total Dipole Moment    :      0.18165      -0.03365      -0.21677
                        -----------------------------------------
Magnitude (a.u.)       :      0.28481
Magnitude (Debye)      :      0.72394

Rotational constants in cm-1:     0.003375     0.000353     0.000322
Rotational constants in MHz :   101.192344    10.593610     9.641033

                             ****ORCA TERMINATED NORMALLY****
TOTAL RUN TIME: 0 days 0 hours 6 minutes 24 seconds 429 msec
