                         Program Version 4.2.0 -  RELEASE  -
|  1> # ORCA input file
|  2> # SCF done       -199.697911232350          0.000743770930
|  3> ! CAM-B3LYP def2-SVP def2/J RIJCOSX Grid4 TightSCF
|  4> %maxcore 5000
|  5> %tddft
|  6>     Mode sTDDFT
|  7>     Ethresh 5.0
|  8>     maxcore 5000
|  9> end
| 10>
| 11> %pal
| 12>   nprocs 6
| 13>   end
| 14> * xyz 0 1
| 15>    C       -2.07080         0.70844        -1.91760
| 16>    C       -1.68077         2.01633        -2.15552
| 17>    C       -0.99703         2.69992        -1.14828
| 18>    C       -0.58917         4.03866        -1.37231
| 19>    N       -0.26095         5.11877        -1.56195
| 20>    C       -0.70443         2.08623         0.08512
| 21>    C       -0.01045         2.80840         1.08592
| 22>    N        0.55150         3.37705         1.90559
| 23>    C       -1.09498         0.76718         0.31888
| 24>    C       -1.76923         0.10393        -0.68422
| 25>    C       -2.27365        -1.28769        -0.67063
| 26>    O       -2.14203        -2.07206         0.24233
| 27>    C       -2.89141        -1.49847        -1.99915
| 28>    C       -2.79713        -0.25489        -2.74563
| 29>    C       -3.34325         0.02304        -3.97075
| 30>    C       -3.22527         1.26870        -4.62649
| 31>    N       -3.16263         2.25224        -5.21368
| 32>    C       -4.12324        -0.85933        -4.75022
| 33>    N       -4.77943        -1.50525        -5.43626
| 34>    C       -3.37698        -2.66906        -2.52210
| 35>    C       -3.64226        -3.91011        -1.91661
| 36>    C       -3.66994        -4.32454        -0.58821
| 37>    C       -4.06810        -5.64583        -0.46085
| 38>    C       -4.34225        -6.26689        -1.70156
| 39>    S       -4.12534        -5.21488        -3.01488
| 40>    C       -4.73732        -7.60402        -1.45391
| 41>    C       -4.72330        -7.82976        -0.06707
| 42>    C       -4.29830        -6.61129         0.60418
| 43>    C       -4.15483        -6.41594         1.94480
| 44>    C       -4.38196        -7.44798         2.88241
| 45>    N       -4.55363        -8.28295         3.64844
| 46>    C       -3.77739        -5.17455         2.50434
| 47>    N       -3.49252        -4.17481         2.98592
| 48>    C       -5.13551        -9.11880         0.27712
| 49>    C       -5.45102        -9.87538        -0.83320
| 50>    S       -5.23218        -8.98178        -2.32963
| 51>    C       -5.92328       -11.23603        -0.88942
| 52>    C       -5.82287       -11.98751        -2.06475
| 53>    C       -6.27531       -13.28444        -2.11819
| 54>    F       -6.13550       -13.94796        -3.28248
| 55>    C       -6.87671       -13.92973        -1.02749
| 56>    C       -6.98389       -13.17384         0.14639
| 57>    C       -6.51972       -11.88091         0.20538
| 58>    F       -6.67880       -11.22262         1.36460
| 59>    C       -7.36616       -15.28344        -1.08717
| 60>    C       -8.18678       -15.90341        -0.16213
| 61>    C       -8.46465       -17.22419        -0.50942
| 62>    C       -7.83984       -17.61473        -1.70771
| 63>    S       -6.93594       -16.35309        -2.40797
| 64>    C       -8.16615       -18.97154        -1.96563
| 65>    C       -9.00756       -19.42854        -0.92987
| 66>    C       -9.21243       -18.35039         0.02267
| 67>    C       -9.92038       -18.41456         1.18658
| 68>    C      -10.56422       -19.60592         1.58328
| 69>    N      -11.07788       -20.58697         1.88040
| 70>    C      -10.04110       -17.30602         2.05073
| 71>    N      -10.13697       -16.39522         2.73994
| 72>    C       -9.36086       -20.76200        -1.06716
| 73>    C       -8.78944       -21.34386        -2.19199
| 74>    S       -7.83218       -20.18350        -3.10927
| 75>    C       -8.91731       -22.66345        -2.66823
| 76>    C       -9.36416       -23.77317        -2.01162
| 77>    C       -9.81251       -24.94042        -2.81935
| 78>    O       -9.63332       -25.11827        -3.99995
| 79>    C      -10.56723       -25.79635        -1.87538
| 80>    C      -11.29649       -26.93599        -2.14043
| 81>    C      -11.96688       -27.54875        -1.08013
| 82>    C      -11.89803       -26.99890         0.21455
| 83>    C      -11.14613       -25.85133         0.47454
| 84>    C      -10.47167       -25.25687        -0.57753
| 85>    C       -9.59335       -24.08510        -0.61692
| 86>    C       -8.92042       -23.58809         0.46750
| 87>    C       -7.89781       -22.62222         0.38266
| 88>    N       -7.04197       -21.85815         0.35017
| 89>    C       -9.10099       -24.05494         1.78819
| 90>    N       -9.21075       -24.40139         2.87570
| 91>    C      -12.60942       -27.62054         1.27124
| 92>    N      -13.18432       -28.11703         2.12743
| 93>    C      -12.72643       -28.72167        -1.30941
| 94>    N      -13.33459       -29.66978        -1.51493
| 95>    H       -1.88208         2.52120        -3.08661
| 96>    H       -0.87923         0.27803         1.25666
| 97>    H       -3.60387        -2.65813        -3.58178
| 98>    H       -3.40329        -3.67646         0.22675
| 99>    H       -5.19092        -9.48700         1.28442
|100>    H       -5.37506       -11.55908        -2.94820
|101>    H       -7.42551       -13.59369         1.03470
|102>    H       -8.57900       -15.41658         0.71101
|103>    H      -10.03718       -21.28430        -0.41578
|104>    H       -8.69493       -22.81927        -3.71969
|105>    H      -11.34918       -27.34130        -3.13945
|106>    H      -11.12078       -25.45054         1.47565
|107> *
|108>
|109>                          ****END OF INPUT****

CARTESIAN COORDINATES (ANGSTROEM)
---------------------------------
  C     -2.070800    0.708440   -1.917600
  C     -1.680770    2.016330   -2.155520
  C     -0.997030    2.699920   -1.148280
  C     -0.589170    4.038660   -1.372310
  N     -0.260950    5.118770   -1.561950
  C     -0.704430    2.086230    0.085120
  C     -0.010450    2.808400    1.085920
  N      0.551500    3.377050    1.905590
  C     -1.094980    0.767180    0.318880
  C     -1.769230    0.103930   -0.684220
  C     -2.273650   -1.287690   -0.670630
  O     -2.142030   -2.072060    0.242330
  C     -2.891410   -1.498470   -1.999150
  C     -2.797130   -0.254890   -2.745630
  C     -3.343250    0.023040   -3.970750
  C     -3.225270    1.268700   -4.626490
  N     -3.162630    2.252240   -5.213680
  C     -4.123240   -0.859330   -4.750220
  N     -4.779430   -1.505250   -5.436260
  C     -3.376980   -2.669060   -2.522100
  C     -3.642260   -3.910110   -1.916610
  C     -3.669940   -4.324540   -0.588210
  C     -4.068100   -5.645830   -0.460850
  C     -4.342250   -6.266890   -1.701560
  S     -4.125340   -5.214880   -3.014880
  C     -4.737320   -7.604020   -1.453910
  C     -4.723300   -7.829760   -0.067070
  C     -4.298300   -6.611290    0.604180
  C     -4.154830   -6.415940    1.944800
  C     -4.381960   -7.447980    2.882410
  N     -4.553630   -8.282950    3.648440
  C     -3.777390   -5.174550    2.504340
  N     -3.492520   -4.174810    2.985920
  C     -5.135510   -9.118800    0.277120
  C     -5.451020   -9.875380   -0.833200
  S     -5.232180   -8.981780   -2.329630
  C     -5.923280  -11.236030   -0.889420
  C     -5.822870  -11.987510   -2.064750
  C     -6.275310  -13.284440   -2.118190
  F     -6.135500  -13.947960   -3.282480
  C     -6.876710  -13.929730   -1.027490
  C     -6.983890  -13.173840    0.146390
  C     -6.519720  -11.880910    0.205380
  F     -6.678800  -11.222620    1.364600
  C     -7.366160  -15.283440   -1.087170
  C     -8.186780  -15.903410   -0.162130
  C     -8.464650  -17.224190   -0.509420
  C     -7.839840  -17.614730   -1.707710
  S     -6.935940  -16.353090   -2.407970
  C     -8.166150  -18.971540   -1.965630
  C     -9.007560  -19.428540   -0.929870
  C     -9.212430  -18.350390    0.022670
  C     -9.920380  -18.414560    1.186580
  C    -10.564220  -19.605920    1.583280
  N    -11.077880  -20.586970    1.880400
  C    -10.041100  -17.306020    2.050730
  N    -10.136970  -16.395220    2.739940
  C     -9.360860  -20.762000   -1.067160
  C     -8.789440  -21.343860   -2.191990
  S     -7.832180  -20.183500   -3.109270
  C     -8.917310  -22.663450   -2.668230
  C     -9.364160  -23.773170   -2.011620
  C     -9.812510  -24.940420   -2.819350
  O     -9.633320  -25.118270   -3.999950
  C    -10.567230  -25.796350   -1.875380
  C    -11.296490  -26.935990   -2.140430
  C    -11.966880  -27.548750   -1.080130
  C    -11.898030  -26.998900    0.214550
  C    -11.146130  -25.851330    0.474540
  C    -10.471670  -25.256870   -0.577530
  C     -9.593350  -24.085100   -0.616920
  C     -8.920420  -23.588090    0.467500
  C     -7.897810  -22.622220    0.382660
  N     -7.041970  -21.858150    0.350170
  C     -9.100990  -24.054940    1.788190
  N     -9.210750  -24.401390    2.875700
  C    -12.609420  -27.620540    1.271240
  N    -13.184320  -28.117030    2.127430
  C    -12.726430  -28.721670   -1.309410
  N    -13.334590  -29.669780   -1.514930
  H     -1.882080    2.521200   -3.086610
  H     -0.879230    0.278030    1.256660
  H     -3.603870   -2.658130   -3.581780
  H     -3.403290   -3.676460    0.226750
  H     -5.190920   -9.487000    1.284420
  H     -5.375060  -11.559080   -2.948200
  H     -7.425510  -13.593690    1.034700
  H     -8.579000  -15.416580    0.711010
  H    -10.037180  -21.284300   -0.415780
  H     -8.694930  -22.819270   -3.719690
  H    -11.349180  -27.341300   -3.139450
  H    -11.120780  -25.450540    1.475650

 Total Charge           Charge          ....    0
 Multiplicity           Mult            ....    1
 Number of Electrons    NEL             ....  554
 Basis Dimension        Dim             .... 1196

ORBITAL ENERGIES
----------------

  NO   OCC          E(Eh)            E(eV)
   0   2.0000     -89.016003     -2422.2486
   1   2.0000     -89.015953     -2422.2472
   2   2.0000     -89.015506     -2422.2351
   3   2.0000     -89.012732     -2422.1596
   4   2.0000     -24.825953      -675.5485
   5   2.0000     -24.818029      -675.3329
   6   2.0000     -19.245661      -523.7010
   7   2.0000     -19.242872      -523.6252
   8   2.0000     -14.449926      -393.2025
   9   2.0000     -14.448557      -393.1652
  10   2.0000     -14.447047      -393.1241
  11   2.0000     -14.445016      -393.0689
  12   2.0000     -14.441151      -392.9637
  13   2.0000     -14.440626      -392.9494
  14   2.0000     -14.436055      -392.8250
  15   2.0000     -14.435101      -392.7991
  16   2.0000     -14.431637      -392.7048
  17   2.0000     -14.431231      -392.6938
  18   2.0000     -14.430563      -392.6756
  19   2.0000     -14.430222      -392.6663
  20   2.0000     -10.399609      -282.9877
  21   2.0000     -10.398424      -282.9555
  22   2.0000     -10.396955      -282.9155
  23   2.0000     -10.394116      -282.8383
  24   2.0000     -10.386167      -282.6220
  25   2.0000     -10.385305      -282.5985
  26   2.0000     -10.372448      -282.2486
  27   2.0000     -10.371514      -282.2232
  28   2.0000     -10.371180      -282.2141
  29   2.0000     -10.369577      -282.1705
  30   2.0000     -10.368475      -282.1406
  31   2.0000     -10.367555      -282.1155
  32   2.0000     -10.367205      -282.1060
  33   2.0000     -10.364407      -282.0299
  34   2.0000     -10.364116      -282.0219
  35   2.0000     -10.363472      -282.0044
  36   2.0000     -10.363387      -282.0021
  37   2.0000     -10.362983      -281.9911
  38   2.0000     -10.356570      -281.8166
  39   2.0000     -10.355355      -281.7835
  40   2.0000     -10.353314      -281.7280
  41   2.0000     -10.352726      -281.7120
  42   2.0000     -10.351388      -281.6756
  43   2.0000     -10.349985      -281.6374
  44   2.0000     -10.349150      -281.6147
  45   2.0000     -10.348605      -281.5999
  46   2.0000     -10.348396      -281.5942
  47   2.0000     -10.347679      -281.5747
  48   2.0000     -10.346249      -281.5358
  49   2.0000     -10.345252      -281.5086
  50   2.0000     -10.343982      -281.4741
  51   2.0000     -10.343620      -281.4642
  52   2.0000     -10.342682      -281.4387
  53   2.0000     -10.342491      -281.4335
  54   2.0000     -10.341956      -281.4189
  55   2.0000     -10.341241      -281.3995
  56   2.0000     -10.338789      -281.3327
  57   2.0000     -10.338100      -281.3140
  58   2.0000     -10.337805      -281.3060
  59   2.0000     -10.337636      -281.3014
  60   2.0000     -10.337308      -281.2924
  61   2.0000     -10.336179      -281.2617
  62   2.0000     -10.333571      -281.1908
  63   2.0000     -10.331442      -281.1328
  64   2.0000     -10.330358      -281.1033
  65   2.0000     -10.328848      -281.0622
  66   2.0000     -10.328515      -281.0532
  67   2.0000     -10.328456      -281.0516
  68   2.0000     -10.328140      -281.0430
  69   2.0000     -10.327745      -281.0322
  70   2.0000     -10.327595      -281.0281
  71   2.0000     -10.326958      -281.0108
  72   2.0000     -10.326691      -281.0036
  73   2.0000     -10.326522      -280.9989
  74   2.0000     -10.326447      -280.9969
  75   2.0000     -10.325134      -280.9612
  76   2.0000     -10.324529      -280.9447
  77   2.0000     -10.323301      -280.9113
  78   2.0000     -10.323288      -280.9110
  79   2.0000     -10.323251      -280.9099
  80   2.0000      -8.110810      -220.7063
  81   2.0000      -8.110609      -220.7009
  82   2.0000      -8.110124      -220.6877
  83   2.0000      -8.106918      -220.6005
  84   2.0000      -6.079907      -165.4427
  85   2.0000      -6.079755      -165.4385
  86   2.0000      -6.079382      -165.4284
  87   2.0000      -6.076193      -165.3416
  88   2.0000      -6.075769      -165.3301
  89   2.0000      -6.075600      -165.3255
  90   2.0000      -6.075165      -165.3137
  91   2.0000      -6.073337      -165.2639
  92   2.0000      -6.073122      -165.2580
  93   2.0000      -6.072487      -165.2408
  94   2.0000      -6.071757      -165.2209
  95   2.0000      -6.069414      -165.1572
  96   2.0000      -1.340716       -36.4827
  97   2.0000      -1.333979       -36.2994
  98   2.0000      -1.161771       -31.6134
  99   2.0000      -1.158855       -31.5341
 100   2.0000      -1.070032       -29.1170
 101   2.0000      -1.069201       -29.0944
 102   2.0000      -1.048807       -28.5395
 103   2.0000      -1.048164       -28.5220
 104   2.0000      -1.041547       -28.3419
 105   2.0000      -1.039149       -28.2767
 106   2.0000      -1.034482       -28.1497
 107   2.0000      -1.034205       -28.1422
 108   2.0000      -1.029471       -28.0133
 109   2.0000      -1.027104       -27.9489
 110   2.0000      -1.024606       -27.8809
 111   2.0000      -1.022449       -27.8223
 112   2.0000      -1.017317       -27.6826
 113   2.0000      -1.017199       -27.6794
 114   2.0000      -1.015111       -27.6226
 115   2.0000      -1.014229       -27.5986
 116   2.0000      -1.010319       -27.4922
 117   2.0000      -1.009947       -27.4821
 118   2.0000      -1.006707       -27.3939
 119   2.0000      -0.987357       -26.8674
 120   2.0000      -0.984799       -26.7977
 121   2.0000      -0.980833       -26.6898
 122   2.0000      -0.977350       -26.5950
 123   2.0000      -0.947507       -25.7830
 124   2.0000      -0.940983       -25.6055
 125   2.0000      -0.932527       -25.3754
 126   2.0000      -0.931972       -25.3603
 127   2.0000      -0.924982       -25.1700
 128   2.0000      -0.913328       -24.8529
 129   2.0000      -0.908932       -24.7333
 130   2.0000      -0.907815       -24.7029
 131   2.0000      -0.904813       -24.6212
 132   2.0000      -0.892609       -24.2891
 133   2.0000      -0.887178       -24.1413
 134   2.0000      -0.882360       -24.0102
 135   2.0000      -0.880903       -23.9706
 136   2.0000      -0.875821       -23.8323
 137   2.0000      -0.859670       -23.3928
 138   2.0000      -0.851993       -23.1839
 139   2.0000      -0.828003       -22.5311
 140   2.0000      -0.815007       -22.1775
 141   2.0000      -0.814585       -22.1660
 142   2.0000      -0.801890       -21.8205
 143   2.0000      -0.800349       -21.7786
 144   2.0000      -0.797418       -21.6988
 145   2.0000      -0.778583       -21.1863
 146   2.0000      -0.761417       -20.7192
 147   2.0000      -0.758442       -20.6382
 148   2.0000      -0.756654       -20.5896
 149   2.0000      -0.750403       -20.4195
 150   2.0000      -0.740888       -20.1606
 151   2.0000      -0.723566       -19.6892
 152   2.0000      -0.720241       -19.5988
 153   2.0000      -0.718845       -19.5608
 154   2.0000      -0.717521       -19.5248
 155   2.0000      -0.708933       -19.2910
 156   2.0000      -0.707264       -19.2456
 157   2.0000      -0.704282       -19.1645
 158   2.0000      -0.701158       -19.0795
 159   2.0000      -0.692046       -18.8315
 160   2.0000      -0.688039       -18.7225
 161   2.0000      -0.676306       -18.4032
 162   2.0000      -0.669900       -18.2289
 163   2.0000      -0.664579       -18.0841
 164   2.0000      -0.662721       -18.0335
 165   2.0000      -0.662490       -18.0273
 166   2.0000      -0.653489       -17.7823
 167   2.0000      -0.651656       -17.7325
 168   2.0000      -0.646512       -17.5925
 169   2.0000      -0.644860       -17.5475
 170   2.0000      -0.638858       -17.3842
 171   2.0000      -0.636626       -17.3235
 172   2.0000      -0.625267       -17.0144
 173   2.0000      -0.620201       -16.8765
 174   2.0000      -0.615435       -16.7468
 175   2.0000      -0.609147       -16.5757
 176   2.0000      -0.604932       -16.4610
 177   2.0000      -0.603054       -16.4099
 178   2.0000      -0.600542       -16.3416
 179   2.0000      -0.593778       -16.1575
 180   2.0000      -0.586115       -15.9490
 181   2.0000      -0.582524       -15.8513
 182   2.0000      -0.573940       -15.6177
 183   2.0000      -0.573412       -15.6033
 184   2.0000      -0.572418       -15.5763
 185   2.0000      -0.571412       -15.5489
 186   2.0000      -0.570681       -15.5290
 187   2.0000      -0.569680       -15.5018
 188   2.0000      -0.567303       -15.4371
 189   2.0000      -0.566586       -15.4176
 190   2.0000      -0.565337       -15.3836
 191   2.0000      -0.561195       -15.2709
 192   2.0000      -0.557540       -15.1714
 193   2.0000      -0.549429       -14.9507
 194   2.0000      -0.545276       -14.8377
 195   2.0000      -0.540050       -14.6955
 196   2.0000      -0.538266       -14.6470
 197   2.0000      -0.533892       -14.5280
 198   2.0000      -0.532462       -14.4890
 199   2.0000      -0.530665       -14.4401
 200   2.0000      -0.528530       -14.3820
 201   2.0000      -0.526701       -14.3323
 202   2.0000      -0.524803       -14.2806
 203   2.0000      -0.524159       -14.2631
 204   2.0000      -0.522824       -14.2268
 205   2.0000      -0.521035       -14.1781
 206   2.0000      -0.518771       -14.1165
 207   2.0000      -0.515882       -14.0379
 208   2.0000      -0.513646       -13.9770
 209   2.0000      -0.511159       -13.9093
 210   2.0000      -0.509729       -13.8704
 211   2.0000      -0.509406       -13.8616
 212   2.0000      -0.502576       -13.6758
 213   2.0000      -0.497239       -13.5306
 214   2.0000      -0.495384       -13.4801
 215   2.0000      -0.493055       -13.4167
 216   2.0000      -0.491589       -13.3768
 217   2.0000      -0.483788       -13.1646
 218   2.0000      -0.480272       -13.0689
 219   2.0000      -0.479442       -13.0463
 220   2.0000      -0.476888       -12.9768
 221   2.0000      -0.475770       -12.9464
 222   2.0000      -0.472713       -12.8632
 223   2.0000      -0.472164       -12.8482
 224   2.0000      -0.471124       -12.8199
 225   2.0000      -0.470638       -12.8067
 226   2.0000      -0.468078       -12.7370
 227   2.0000      -0.464570       -12.6416
 228   2.0000      -0.464404       -12.6371
 229   2.0000      -0.463387       -12.6094
 230   2.0000      -0.463203       -12.6044
 231   2.0000      -0.461438       -12.5564
 232   2.0000      -0.459210       -12.4957
 233   2.0000      -0.458241       -12.4694
 234   2.0000      -0.457440       -12.4476
 235   2.0000      -0.457284       -12.4433
 236   2.0000      -0.457092       -12.4381
 237   2.0000      -0.456598       -12.4247
 238   2.0000      -0.456554       -12.4235
 239   2.0000      -0.456477       -12.4214
 240   2.0000      -0.455031       -12.3820
 241   2.0000      -0.454586       -12.3699
 242   2.0000      -0.454501       -12.3676
 243   2.0000      -0.454203       -12.3595
 244   2.0000      -0.450760       -12.2658
 245   2.0000      -0.448800       -12.2125
 246   2.0000      -0.447994       -12.1905
 247   2.0000      -0.447658       -12.1814
 248   2.0000      -0.445267       -12.1163
 249   2.0000      -0.442652       -12.0452
 250   2.0000      -0.441171       -12.0049
 251   2.0000      -0.438220       -11.9246
 252   2.0000      -0.437721       -11.9110
 253   2.0000      -0.431453       -11.7404
 254   2.0000      -0.430845       -11.7239
 255   2.0000      -0.430554       -11.7160
 256   2.0000      -0.430008       -11.7011
 257   2.0000      -0.426291       -11.6000
 258   2.0000      -0.424842       -11.5606
 259   2.0000      -0.415791       -11.3142
 260   2.0000      -0.402771       -10.9599
 261   2.0000      -0.392365       -10.6768
 262   2.0000      -0.375312       -10.2128
 263   2.0000      -0.374209       -10.1827
 264   2.0000      -0.372894       -10.1470
 265   2.0000      -0.370353       -10.0778
 266   2.0000      -0.368096       -10.0164
 267   2.0000      -0.366285        -9.9671
 268   2.0000      -0.362031        -9.8514
 269   2.0000      -0.358057        -9.7432
 270   2.0000      -0.348187        -9.4747
 271   2.0000      -0.344199        -9.3661
 272   2.0000      -0.343495        -9.3470
 273   2.0000      -0.340254        -9.2588
 274   2.0000      -0.330153        -8.9839
 275   2.0000      -0.296977        -8.0812
 276   2.0000      -0.277559        -7.5528
 277   0.0000      -0.135622        -3.6904
 278   0.0000      -0.128942        -3.5087
 279   0.0000      -0.113091        -3.0774
 280   0.0000      -0.112159        -3.0520
 281   0.0000      -0.099241        -2.7005

MULLIKEN ATOMIC CHARGES
-----------------------
   0 C :    0.045716
   1 C :   -0.042607
   2 C :   -0.061499
   3 C :   -0.173081
   4 N :    0.205577
   5 C :   -0.066756
   6 C :   -0.173164
   7 N :    0.201801
   8 C :   -0.032198
   9 C :   -0.001129
  10 C :    0.156714
  11 O :   -0.134420
  12 C :   -0.096044
  13 C :    0.310510
  14 C :   -0.340491
  15 C :   -0.186518
  16 N :    0.169124
  17 C :   -0.193889
  18 N :    0.164969
  19 C :    0.045028
  20 C :   -0.114042
  21 C :    0.002846
  22 C :   -0.008257
  23 C :   -0.077385
  24 S :    0.214942
  25 C :   -0.103766
  26 C :    0.020513
  27 C :    0.306081
  28 C :   -0.288315
  29 C :   -0.192566
  30 N :    0.186298
  31 C :   -0.188750
  32 N :    0.197376
  33 C :   -0.036621
  34 C :   -0.070027
  35 S :    0.190295
  36 C :    0.071383
  37 C :   -0.103323
  38 C :    0.219069
  39 F :   -0.188026
  40 C :    0.081647
  41 C :   -0.097392
  42 C :    0.242361
  43 F :   -0.172611
  44 C :   -0.071715
  45 C :   -0.042825
  46 C :    0.024508
  47 C :   -0.104912
  48 S :    0.227197
  49 C :   -0.070557
  50 C :   -0.004882
  51 C :    0.303636
  52 C :   -0.280140
  53 C :   -0.179611
  54 N :    0.171125
  55 C :   -0.184469
  56 N :    0.175940
  57 C :   -0.003264
  58 C :   -0.113434
  59 S :    0.225257
  60 C :    0.092607
  61 C :   -0.143769
  62 C :    0.141128
  63 O :   -0.126597
  64 C :    0.012277
  65 C :   -0.032878
  66 C :   -0.071323
  67 C :   -0.061683
  68 C :   -0.030950
  69 C :    0.024898
  70 C :    0.265595
  71 C :   -0.317952
  72 C :   -0.200314
  73 N :    0.180338
  74 C :   -0.174036
  75 N :    0.181296
  76 C :   -0.174432
  77 N :    0.205009
  78 C :   -0.172503
  79 N :    0.199351
  80 H :    0.021448
  81 H :    0.020119
  82 H :    0.013524
  83 H :    0.041445
  84 H :    0.022222
  85 H :    0.005274
  86 H :    0.006072
  87 H :    0.011836
  88 H :    0.026515
  89 H :    0.026207
  90 H :    0.018433
  91 H :    0.029612
Sum of atomic charges:   -0.0000000

LOEWDIN ATOMIC CHARGES
----------------------
   0 C :    0.001156
   1 C :    0.034339
   2 C :   -0.023346
   3 C :   -0.031772
   4 N :   -0.009724
   5 C :   -0.027248
   6 C :   -0.032031
   7 N :   -0.011314
   8 C :    0.050373
   9 C :   -0.028773
  10 C :    0.085663
  11 O :   -0.123496
  12 C :   -0.104402
  13 C :    0.070100
  14 C :   -0.127182
  15 C :   -0.022163
  16 N :   -0.034406
  17 C :   -0.023536
  18 N :   -0.039704
  19 C :    0.050525
  20 C :   -0.178178
  21 C :    0.023995
  22 C :   -0.071420
  23 C :   -0.153709
  24 S :    0.502273
  25 C :   -0.190027
  26 C :   -0.049816
  27 C :    0.071117
  28 C :   -0.085022
  29 C :   -0.018055
  30 N :   -0.018454
  31 C :   -0.022214
  32 N :   -0.009870
  33 C :   -0.022404
  34 C :   -0.146849
  35 S :    0.487823
  36 C :   -0.059332
  37 C :   -0.038771
  38 C :    0.079691
  39 F :   -0.063633
  40 C :   -0.054574
  41 C :   -0.022318
  42 C :    0.093421
  43 F :   -0.047287
  44 C :   -0.156308
  45 C :   -0.022965
  46 C :   -0.055579
  47 C :   -0.190030
  48 S :    0.509303
  49 C :   -0.152959
  50 C :   -0.065205
  51 C :    0.080654
  52 C :   -0.093870
  53 C :   -0.011672
  54 N :   -0.029406
  55 C :   -0.016581
  56 N :   -0.024891
  57 C :    0.013912
  58 C :   -0.184571
  59 S :    0.507086
  60 C :    0.051812
  61 C :   -0.099304
  62 C :    0.083224
  63 O :   -0.128363
  64 C :   -0.032176
  65 C :    0.049464
  66 C :   -0.028811
  67 C :   -0.021363
  68 C :    0.034492
  69 C :    0.005515
  70 C :    0.058595
  71 C :   -0.122005
  72 C :   -0.014778
  73 N :   -0.033423
  74 C :   -0.023539
  75 N :   -0.027149
  76 C :   -0.031577
  77 N :   -0.008298
  78 C :   -0.032252
  79 N :   -0.012517
  80 H :    0.052495
  81 H :    0.055711
  82 H :    0.044022
  83 H :    0.044648
  84 H :    0.042374
  85 H :    0.036819
  86 H :    0.048063
  87 H :    0.041130
  88 H :    0.042753
  89 H :    0.048590
  90 H :    0.054869
  91 H :    0.054612

  Mayer bond orders larger than 0.100000
B(  0-C ,  1-C ) :   1.3577 B(  0-C ,  9-C ) :   1.3365 B(  0-C , 13-C ) :   0.9534
B(  1-C ,  2-C ) :   1.3926 B(  1-C , 80-H ) :   0.9856 B(  2-C ,  3-C ) :   1.0882
B(  2-C ,  5-C ) :   1.4033 B(  3-C ,  4-N ) :   3.0440 B(  5-C ,  6-C ) :   1.0853
B(  5-C ,  8-C ) :   1.3598 B(  6-C ,  7-N ) :   3.0459 B(  8-C ,  9-C ) :   1.3645
B(  8-C , 81-H ) :   1.0158 B(  9-C , 10-C ) :   0.9314 B( 10-C , 11-O ) :   2.1900
B( 10-C , 12-C ) :   0.9501 B( 12-C , 13-C ) :   1.0919 B( 12-C , 19-C ) :   1.5655
B( 13-C , 14-C ) :   1.6415 B( 14-C , 15-C ) :   1.1484 B( 14-C , 17-C ) :   1.1393
B( 15-C , 16-N ) :   2.9611 B( 17-C , 18-N ) :   2.9752 B( 19-C , 20-C ) :   1.2370
B( 19-C , 82-H ) :   0.9123 B( 20-C , 21-C ) :   1.3795 B( 20-C , 24-S ) :   1.0719
B( 21-C , 22-C ) :   1.3345 B( 21-C , 83-H ) :   0.9706 B( 22-C , 23-C ) :   1.3748
B( 22-C , 27-C ) :   0.9947 B( 23-C , 24-S ) :   1.1737 B( 23-C , 25-C ) :   1.2023
B( 25-C , 26-C ) :   1.4347 B( 25-C , 35-S ) :   1.1164 B( 26-C , 27-C ) :   0.9961
B( 26-C , 33-C ) :   1.2761 B( 27-C , 28-C ) :   1.7215 B( 28-C , 29-C ) :   1.1360
B( 28-C , 31-C ) :   1.1352 B( 29-C , 30-N ) :   2.9905 B( 31-C , 32-N ) :   2.9931
B( 33-C , 34-C ) :   1.4785 B( 33-C , 84-H ) :   0.9954 B( 34-C , 35-S ) :   1.1183
B( 34-C , 36-C ) :   1.0686 B( 36-C , 37-C ) :   1.2782 B( 36-C , 42-C ) :   1.3083
B( 37-C , 38-C ) :   1.4061 B( 37-C , 85-H ) :   0.9862 B( 38-C , 39-F ) :   1.0991
B( 38-C , 40-C ) :   1.2970 B( 40-C , 41-C ) :   1.2908 B( 40-C , 44-C ) :   1.0689
B( 41-C , 42-C ) :   1.3907 B( 41-C , 86-H ) :   0.9953 B( 42-C , 43-F ) :   1.1193
B( 44-C , 45-C ) :   1.4739 B( 44-C , 48-S ) :   1.1230 B( 45-C , 46-C ) :   1.2992
B( 45-C , 87-H ) :   0.9889 B( 46-C , 47-C ) :   1.4317 B( 46-C , 51-C ) :   0.9993
B( 47-C , 48-S ) :   1.1094 B( 47-C , 49-C ) :   1.1956 B( 49-C , 50-C ) :   1.4069
B( 49-C , 59-S ) :   1.1636 B( 50-C , 51-C ) :   0.9976 B( 50-C , 57-C ) :   1.3708
B( 51-C , 52-C ) :   1.7208 B( 52-C , 53-C ) :   1.1319 B( 52-C , 55-C ) :   1.1311
B( 53-C , 54-N ) :   2.9794 B( 55-C , 56-N ) :   2.9883 B( 57-C , 58-C ) :   1.3768
B( 57-C , 88-H ) :   0.9781 B( 58-C , 59-S ) :   1.0862 B( 58-C , 60-C ) :   1.1593
B( 60-C , 61-C ) :   1.6443 B( 60-C , 89-H ) :   0.9285 B( 61-C , 62-C ) :   0.9535
B( 61-C , 70-C ) :   1.0441 B( 62-C , 63-O ) :   2.2779 B( 62-C , 64-C ) :   0.8986
B( 64-C , 65-C ) :   1.3698 B( 64-C , 69-C ) :   1.3366 B( 65-C , 66-C ) :   1.3648
B( 65-C , 90-H ) :   1.0146 B( 66-C , 67-C ) :   1.4036 B( 66-C , 78-C ) :   1.0874
B( 67-C , 68-C ) :   1.3865 B( 67-C , 76-C ) :   1.0869 B( 68-C , 69-C ) :   1.3655
B( 68-C , 91-H ) :   0.9897 B( 69-C , 70-C ) :   0.9733 B( 70-C , 71-C ) :   1.6658
B( 71-C , 72-C ) :   1.1738 B( 71-C , 74-C ) :   1.1268 B( 72-C , 73-N ) :   2.9956
B( 74-C , 75-N ) :   2.9906 B( 76-C , 77-N ) :   3.0443 B( 78-C , 79-N ) :   3.0452

-----------------------------------------------------------------------------
         ABSORPTION SPECTRUM VIA TRANSITION ELECTRIC DIPOLE MOMENTS
-----------------------------------------------------------------------------
State   Energy  Wavelength   fosc         T2         TX        TY        TZ
        (cm-1)    (nm)                  (au**2)     (au)      (au)      (au)
-----------------------------------------------------------------------------
   0   14493.2    690.0   0.768218204  17.45002  -1.08838  -4.02628   0.23350
   1   15411.0    648.9   0.152942085   3.26717  -0.55714  -1.66557   0.42737
   2   19704.2    507.5   0.994036648  16.60809   0.78163   3.95830  -0.57360
   3   21211.9    471.4   0.760140604  11.79747  -0.95884  -3.19372   0.82358
   4   23464.3    426.2   0.017064661   0.23942   0.22069   0.11548   0.42117
   5   24237.4    412.6   0.343662328   4.66790   0.93872   1.74532   0.86056
   6   24898.5    401.6   0.020870588   0.27595  -0.29910  -0.37311   0.21744
   7   25322.4    394.9   0.230678378   2.99900   0.30114   1.70180   0.11041
   8   28468.8    351.3   0.022600422   0.26135   0.19084   0.09445   0.46477
   9   28786.9    347.4   0.014446240   0.16521  -0.15582  -0.30855  -0.21384
  10   29151.8    343.0   0.189841297   2.14388  -0.69843  -1.15022  -0.57713
  11   29484.4    339.2   0.137866757   1.53937   0.07770  -0.53977  -1.11444
  12   29930.1    334.1   0.073652459   0.81013   0.44888   0.77361  -0.10079
  13   30079.0    332.5   0.204239627   2.23539  -1.20503  -0.86242  -0.19880
  14   30464.7    328.2   0.157012611   1.69673  -0.31808   0.41491   1.19306
  15   30589.0    326.9   0.221063463   2.37918   0.17043   0.14937  -1.52572
  16   31113.9    321.4   0.363587620   3.84707  -0.64688  -1.85096  -0.05078
  17   31590.8    316.5   0.091941014   0.95813  -0.35891  -0.77356   0.48054
  18   31610.4    316.4   0.089032156   0.92724   0.20881   0.07073   0.93736
  19   31742.0    315.0   0.033804197   0.35060  -0.33076  -0.49099  -0.01155
  20   31959.4    312.9   0.048202058   0.49653  -0.49880  -0.32288   0.37878
  21   32752.8    305.3   0.106763501   1.07312  -0.52940  -0.89030  -0.01476
  22   33033.5    302.7   0.053745744   0.53563   0.03079  -0.70655  -0.18834
  23   33177.0    301.4   0.150745073   1.49583   0.87558   0.57137  -0.63461
  24   33677.8    296.9   0.059888467   0.58543  -0.26764  -0.13850  -0.70329
  25   33720.1    296.6   0.131187145   1.28079  -0.74726  -0.83476   0.15989
  26   34179.1    292.6   0.295464351   2.84590   0.77980   1.46027  -0.32469
  27   34433.8    290.4   0.434670844   4.15577  -0.25197   1.06765   1.71826
  28   34788.3    287.5   0.488086363   4.61890   0.80339   0.61297   1.89677
  29   34991.0    285.8   0.188441631   1.77295   0.34252   0.93836   0.88041
  30   35062.6    285.2   0.182065468   1.70946  -0.81015  -0.20732  -1.00506
  31   35359.6    282.8   0.034980017   0.32568  -0.48295  -0.06122   0.29780
  32   35622.2    280.7   0.326650092   3.01882  -0.86606  -1.17201  -0.94613
  33   35887.3    278.6   0.029976856   0.27499  -0.26743   0.16583  -0.41949
  34   36262.9    275.8   0.056446956   0.51245   0.17987   0.02315   0.69251
  35   36622.1    273.1   0.013284727   0.11942  -0.05000  -0.29448   0.17379
  36   36962.4    270.5   0.125175964   1.11490   0.32179   0.29687   0.96085
  37   37149.2    269.2   0.084097811   0.74526   0.57260   0.36582   0.53251
  38   37228.3    268.6   0.160291821   1.41747  -0.03860   0.71289  -0.95276
  39   37472.1    266.9   0.088585733   0.77827   0.21808   0.55362   0.65132
  40   38002.8    263.1   0.033132876   0.28702  -0.34513  -0.39488   0.10943
  41   38151.7    262.1   0.151762190   1.30956   0.18811   0.27657   1.09439
  42   38443.6    260.1   0.058808242   0.50360   0.02296   0.08471   0.70420
  43   38518.8    259.6   0.008952876   0.07652  -0.19872  -0.19219   0.00960
  44   38642.0    258.8   0.083237222   0.70914   0.44583   0.68888  -0.18930
  45   38893.2    257.1   0.015304243   0.12954   0.12441  -0.31488   0.12212
  46   39145.1    255.5   0.148536582   1.24920   0.04952   0.92760  -0.62153
  47   39365.0    254.0   0.000294451   0.00246  -0.00320   0.02733  -0.04129
  48   39453.2    253.5   0.029823903   0.24886   0.16549   0.43703  -0.17457
  49   39588.5    252.6   0.035947153   0.29893   0.13917   0.42002  -0.32116
  50   40191.6    248.8   0.115796710   0.94850   0.27455   0.91399   0.19428

FINAL SINGLE POINT ENERGY     -4888.634685898871

DIPOLE MOMENT
-------------
                                X             Y             Z
Electronic contribution:      1.33924      -0.22804      -3.66464
Nuclear contribution   :     -0.81890      -0.80098      -0.03591
                        -----------------------------------------
Total Dipole Moment    :      0.52034      -1.02903      -3.70054
                        -----------------------------------------
Magnitude (a.u.)       :      3.87604
Magnitude (Debye)      :      9.85211

Rotational constants in cm-1:     0.003175     0.000138     0.000135
Rotational constants in MHz :    95.196128     4.151432     4.032838

                             ****ORCA TERMINATED NORMALLY****
TOTAL RUN TIME: 0 days 0 hours 9 minutes 58 seconds 480 msec
