                         Program Version 4.2.0 -  RELEASE  -
|  1> # ORCA input file
|  2> # SCF done       -156.299047028060          0.001284020773
|  3> ! CAM-B3LYP def2-SVP def2/J RIJCOSX Grid4 TightSCF
|  4> %maxcore 5000
|  5> %tddft
|  6>     Mode sTDDFT
|  7>     Ethresh 5.0
|  8>     maxcore 5000
|  9> end
| 10>
| 11> %pal
| 12>   nprocs 6
| 13>   end
| 14> * xyz 0 1
| 15>    C       10.02453         1.93130        -5.24206
| 16>    N        9.51799         1.27654        -6.24568
| 17>    C        9.28391         2.05764        -7.29946
| 18>    C        9.61229         3.38712        -7.13617
| 19>    S       10.26567         3.64937        -5.54919
| 20>    C        9.45016         4.42046        -8.05970
| 21>    N        9.30596         5.26252        -8.82547
| 22>    C       10.29719         1.35523        -3.97704
| 23>    C       10.75519         1.98165        -2.83244
| 24>    C       10.76862         1.11312        -1.74321
| 25>    C       10.32321        -0.18423        -2.07527
| 26>    S        9.91167        -0.33616        -3.72523
| 27>    C       10.21743        -0.94459        -0.88780
| 28>    C       10.58912        -0.12572         0.20069
| 29>    C       10.97932         1.18218        -0.30739
| 30>    C       11.38272         2.26096         0.42224
| 31>    C       11.70809         3.49359        -0.18311
| 32>    N       11.96729         4.49424        -0.67884
| 33>    C       11.47018         2.22041         1.83099
| 34>    N       11.51611         2.19491         2.97600
| 35>    C       10.33631        -0.71387         1.43064
| 36>    C        9.74667        -1.96802         1.29630
| 37>    S        9.60098        -2.45728        -0.38910
| 38>    C        9.03362        -2.69121         2.28271
| 39>    C        8.81566        -2.20541         3.60047
| 40>    C        7.61515        -2.56635         4.31260
| 41>    N        7.31467        -1.95155         5.46065
| 42>    C        8.15994        -1.09552         5.98382
| 43>    C        9.41027        -0.83400         5.33685
| 44>    N        9.68227        -1.35964         4.16566
| 45>    C       10.37846        -0.01763         5.97566
| 46>    N       11.13537         0.63365         6.53527
| 47>    C        7.82762        -0.45445         7.20285
| 48>    N        7.58181         0.07497         8.18783
| 49>    C        6.66224        -3.47647         3.79344
| 50>    C        7.09352        -4.22799         2.67491
| 51>    C        8.25442        -3.81567         1.92491
| 52>    N        8.41986        -4.55183         0.82861
| 53>    S        7.26989        -5.67433         0.76410
| 54>    N        6.47821        -5.25533         2.09528
| 55>    C        5.30620        -3.40945         4.19210
| 56>    C        4.24597        -4.11189         3.62684
| 57>    C        3.02286        -3.54193         3.94631
| 58>    C        3.14573        -2.40845         4.77946
| 59>    S        4.76668        -2.09012         5.22225
| 60>    C        1.88149        -1.77972         4.86405
| 61>    C        0.95750        -2.51599         4.09132
| 62>    C        1.63560        -3.66890         3.52421
| 63>    C        1.10430        -4.63138         2.71754
| 64>    C        1.88457        -5.67688         2.17866
| 65>    N        2.51330        -6.52053         1.72297
| 66>    C       -0.25901        -4.63298         2.35252
| 67>    N       -1.36538        -4.63150         2.05227
| 68>    C       -0.27544        -1.87877         3.97520
| 69>    C       -0.28643        -0.66755         4.64321
| 70>    S        1.22424        -0.32236         5.46246
| 71>    C       -1.30073         0.32129         4.64110
| 72>    N       -1.19496         1.47580         5.23064
| 73>    C       -2.24870         2.26094         5.01095
| 74>    C       -3.23600         1.71858         4.21507
| 75>    S       -2.79435         0.11148         3.72929
| 76>    C       -4.42359         2.32420         3.80303
| 77>    N       -5.39353         2.83481         3.46391
| 78>    H        8.85949         1.63627        -8.19271
| 79>    H       11.03337         3.02018        -2.80362
| 80>    H       10.51556        -0.26616         2.39093
| 81>    H        4.40327        -4.95427         2.97811
| 82>    H       -1.11641        -2.24744         3.41515
| 83>    H       -2.27902         3.24625         5.43964
| 84> *
| 85>
| 86>                          ****END OF INPUT****

CARTESIAN COORDINATES (ANGSTROEM)
---------------------------------
  C     10.024530    1.931300   -5.242060
  N      9.517990    1.276540   -6.245680
  C      9.283910    2.057640   -7.299460
  C      9.612290    3.387120   -7.136170
  S     10.265670    3.649370   -5.549190
  C      9.450160    4.420460   -8.059700
  N      9.305960    5.262520   -8.825470
  C     10.297190    1.355230   -3.977040
  C     10.755190    1.981650   -2.832440
  C     10.768620    1.113120   -1.743210
  C     10.323210   -0.184230   -2.075270
  S      9.911670   -0.336160   -3.725230
  C     10.217430   -0.944590   -0.887800
  C     10.589120   -0.125720    0.200690
  C     10.979320    1.182180   -0.307390
  C     11.382720    2.260960    0.422240
  C     11.708090    3.493590   -0.183110
  N     11.967290    4.494240   -0.678840
  C     11.470180    2.220410    1.830990
  N     11.516110    2.194910    2.976000
  C     10.336310   -0.713870    1.430640
  C      9.746670   -1.968020    1.296300
  S      9.600980   -2.457280   -0.389100
  C      9.033620   -2.691210    2.282710
  C      8.815660   -2.205410    3.600470
  C      7.615150   -2.566350    4.312600
  N      7.314670   -1.951550    5.460650
  C      8.159940   -1.095520    5.983820
  C      9.410270   -0.834000    5.336850
  N      9.682270   -1.359640    4.165660
  C     10.378460   -0.017630    5.975660
  N     11.135370    0.633650    6.535270
  C      7.827620   -0.454450    7.202850
  N      7.581810    0.074970    8.187830
  C      6.662240   -3.476470    3.793440
  C      7.093520   -4.227990    2.674910
  C      8.254420   -3.815670    1.924910
  N      8.419860   -4.551830    0.828610
  S      7.269890   -5.674330    0.764100
  N      6.478210   -5.255330    2.095280
  C      5.306200   -3.409450    4.192100
  C      4.245970   -4.111890    3.626840
  C      3.022860   -3.541930    3.946310
  C      3.145730   -2.408450    4.779460
  S      4.766680   -2.090120    5.222250
  C      1.881490   -1.779720    4.864050
  C      0.957500   -2.515990    4.091320
  C      1.635600   -3.668900    3.524210
  C      1.104300   -4.631380    2.717540
  C      1.884570   -5.676880    2.178660
  N      2.513300   -6.520530    1.722970
  C     -0.259010   -4.632980    2.352520
  N     -1.365380   -4.631500    2.052270
  C     -0.275440   -1.878770    3.975200
  C     -0.286430   -0.667550    4.643210
  S      1.224240   -0.322360    5.462460
  C     -1.300730    0.321290    4.641100
  N     -1.194960    1.475800    5.230640
  C     -2.248700    2.260940    5.010950
  C     -3.236000    1.718580    4.215070
  S     -2.794350    0.111480    3.729290
  C     -4.423590    2.324200    3.803030
  N     -5.393530    2.834810    3.463910
  H      8.859490    1.636270   -8.192710
  H     11.033370    3.020180   -2.803620
  H     10.515560   -0.266160    2.390930
  H      4.403270   -4.954270    2.978110
  H     -1.116410   -2.247440    3.415150
  H     -2.279020    3.246250    5.439640

 Total Charge           Charge          ....    0
 Multiplicity           Mult            ....    1
 Number of Electrons    NEL             ....  468
 Basis Dimension        Dim             ....  940

ORBITAL ENERGIES
----------------

  NO   OCC          E(Eh)            E(eV)
   0   2.0000     -89.065045     -2423.5831
   1   2.0000     -89.006679     -2421.9949
   2   2.0000     -89.005474     -2421.9621
   3   2.0000     -89.002112     -2421.8706
   4   2.0000     -89.000208     -2421.8188
   5   2.0000     -88.997646     -2421.7491
   6   2.0000     -88.996405     -2421.7153
   7   2.0000     -14.483996      -394.1296
   8   2.0000     -14.478835      -393.9891
   9   2.0000     -14.476198      -393.9174
  10   2.0000     -14.474976      -393.8841
  11   2.0000     -14.443765      -393.0348
  12   2.0000     -14.441976      -392.9861
  13   2.0000     -14.441874      -392.9834
  14   2.0000     -14.441596      -392.9758
  15   2.0000     -14.440194      -392.9377
  16   2.0000     -14.438433      -392.8897
  17   2.0000     -14.437590      -392.8668
  18   2.0000     -14.437054      -392.8522
  19   2.0000     -14.419637      -392.3783
  20   2.0000     -14.418663      -392.3518
  21   2.0000     -10.399739      -282.9913
  22   2.0000     -10.397801      -282.9386
  23   2.0000     -10.377742      -282.3927
  24   2.0000     -10.377256      -282.3795
  25   2.0000     -10.375749      -282.3385
  26   2.0000     -10.374453      -282.3032
  27   2.0000     -10.369008      -282.1551
  28   2.0000     -10.366934      -282.0986
  29   2.0000     -10.364845      -282.0418
  30   2.0000     -10.364834      -282.0415
  31   2.0000     -10.364525      -282.0331
  32   2.0000     -10.363491      -282.0049
  33   2.0000     -10.350497      -281.6513
  34   2.0000     -10.349081      -281.6128
  35   2.0000     -10.348638      -281.6008
  36   2.0000     -10.347525      -281.5705
  37   2.0000     -10.345321      -281.5105
  38   2.0000     -10.344127      -281.4780
  39   2.0000     -10.343429      -281.4590
  40   2.0000     -10.342636      -281.4374
  41   2.0000     -10.342286      -281.4279
  42   2.0000     -10.342008      -281.4203
  43   2.0000     -10.341758      -281.4135
  44   2.0000     -10.341707      -281.4121
  45   2.0000     -10.341087      -281.3953
  46   2.0000     -10.340884      -281.3898
  47   2.0000     -10.340161      -281.3701
  48   2.0000     -10.340091      -281.3682
  49   2.0000     -10.339722      -281.3581
  50   2.0000     -10.338848      -281.3343
  51   2.0000     -10.336867      -281.2804
  52   2.0000     -10.329875      -281.0902
  53   2.0000     -10.324149      -280.9344
  54   2.0000     -10.323329      -280.9121
  55   2.0000     -10.322401      -280.8868
  56   2.0000     -10.321598      -280.8650
  57   2.0000     -10.321442      -280.8607
  58   2.0000     -10.320749      -280.8419
  59   2.0000     -10.318609      -280.7836
  60   2.0000     -10.316850      -280.7358
  61   2.0000     -10.315075      -280.6875
  62   2.0000     -10.314125      -280.6616
  63   2.0000      -8.156185      -221.9411
  64   2.0000      -8.100909      -220.4369
  65   2.0000      -8.099698      -220.4040
  66   2.0000      -8.095707      -220.2954
  67   2.0000      -8.093344      -220.2311
  68   2.0000      -8.093247      -220.2285
  69   2.0000      -8.092100      -220.1972
  70   2.0000      -6.127314      -166.7327
  71   2.0000      -6.119504      -166.5202
  72   2.0000      -6.118878      -166.5031
  73   2.0000      -6.070178      -165.1780
  74   2.0000      -6.068942      -165.1443
  75   2.0000      -6.065897      -165.0615
  76   2.0000      -6.065105      -165.0399
  77   2.0000      -6.064664      -165.0279
  78   2.0000      -6.063290      -164.9905
  79   2.0000      -6.062725      -164.9751
  80   2.0000      -6.062577      -164.9711
  81   2.0000      -6.062126      -164.9588
  82   2.0000      -6.061360      -164.9380
  83   2.0000      -6.060625      -164.9180
  84   2.0000      -6.058498      -164.8601
  85   2.0000      -6.058103      -164.8494
  86   2.0000      -6.058055      -164.8481
  87   2.0000      -6.057244      -164.8260
  88   2.0000      -6.055642      -164.7824
  89   2.0000      -6.055332      -164.7740
  90   2.0000      -6.054090      -164.7402
  91   2.0000      -1.163959       -31.6729
  92   2.0000      -1.140909       -31.0457
  93   2.0000      -1.099029       -29.9061
  94   2.0000      -1.097768       -29.8718
  95   2.0000      -1.068517       -29.0758
  96   2.0000      -1.059306       -28.8252
  97   2.0000      -1.057607       -28.7790
  98   2.0000      -1.033862       -28.1328
  99   2.0000      -1.033518       -28.1235
 100   2.0000      -1.028226       -27.9795
 101   2.0000      -1.024603       -27.8809
 102   2.0000      -1.019321       -27.7371
 103   2.0000      -1.018451       -27.7135
 104   2.0000      -1.015196       -27.6249
 105   2.0000      -1.013447       -27.5773
 106   2.0000      -1.007608       -27.4184
 107   2.0000      -1.003585       -27.3089
 108   2.0000      -1.002537       -27.2804
 109   2.0000      -0.993784       -27.0422
 110   2.0000      -0.972714       -26.4689
 111   2.0000      -0.968176       -26.3454
 112   2.0000      -0.936347       -25.4793
 113   2.0000      -0.931358       -25.3435
 114   2.0000      -0.930344       -25.3159
 115   2.0000      -0.929570       -25.2949
 116   2.0000      -0.925526       -25.1848
 117   2.0000      -0.907652       -24.6985
 118   2.0000      -0.892367       -24.2825
 119   2.0000      -0.890896       -24.2425
 120   2.0000      -0.878864       -23.9151
 121   2.0000      -0.871542       -23.7159
 122   2.0000      -0.869055       -23.6482
 123   2.0000      -0.868817       -23.6417
 124   2.0000      -0.854675       -23.2569
 125   2.0000      -0.827099       -22.5065
 126   2.0000      -0.825400       -22.4603
 127   2.0000      -0.805126       -21.9086
 128   2.0000      -0.796670       -21.6785
 129   2.0000      -0.791087       -21.5266
 130   2.0000      -0.779315       -21.2062
 131   2.0000      -0.761897       -20.7323
 132   2.0000      -0.757609       -20.6156
 133   2.0000      -0.747466       -20.3396
 134   2.0000      -0.732777       -19.9399
 135   2.0000      -0.723751       -19.6943
 136   2.0000      -0.716977       -19.5099
 137   2.0000      -0.715481       -19.4692
 138   2.0000      -0.709607       -19.3094
 139   2.0000      -0.699059       -19.0224
 140   2.0000      -0.693102       -18.8603
 141   2.0000      -0.691951       -18.8290
 142   2.0000      -0.678012       -18.4496
 143   2.0000      -0.674331       -18.3495
 144   2.0000      -0.658066       -17.9069
 145   2.0000      -0.655383       -17.8339
 146   2.0000      -0.650453       -17.6997
 147   2.0000      -0.643293       -17.5049
 148   2.0000      -0.641036       -17.4435
 149   2.0000      -0.638909       -17.3856
 150   2.0000      -0.636872       -17.3302
 151   2.0000      -0.631351       -17.1799
 152   2.0000      -0.627483       -17.0747
 153   2.0000      -0.622023       -16.9261
 154   2.0000      -0.610368       -16.6090
 155   2.0000      -0.600589       -16.3429
 156   2.0000      -0.585925       -15.9438
 157   2.0000      -0.580416       -15.7939
 158   2.0000      -0.575867       -15.6701
 159   2.0000      -0.573292       -15.6001
 160   2.0000      -0.564341       -15.3565
 161   2.0000      -0.563750       -15.3404
 162   2.0000      -0.563173       -15.3247
 163   2.0000      -0.555560       -15.1176
 164   2.0000      -0.550510       -14.9801
 165   2.0000      -0.546377       -14.8677
 166   2.0000      -0.546005       -14.8576
 167   2.0000      -0.545122       -14.8335
 168   2.0000      -0.531813       -14.4714
 169   2.0000      -0.528596       -14.3838
 170   2.0000      -0.519533       -14.1372
 171   2.0000      -0.516855       -14.0643
 172   2.0000      -0.514287       -13.9945
 173   2.0000      -0.512450       -13.9445
 174   2.0000      -0.511781       -13.9263
 175   2.0000      -0.509783       -13.8719
 176   2.0000      -0.506993       -13.7960
 177   2.0000      -0.503291       -13.6952
 178   2.0000      -0.502588       -13.6761
 179   2.0000      -0.497718       -13.5436
 180   2.0000      -0.494031       -13.4433
 181   2.0000      -0.489665       -13.3245
 182   2.0000      -0.484764       -13.1911
 183   2.0000      -0.480843       -13.0844
 184   2.0000      -0.479281       -13.0419
 185   2.0000      -0.476746       -12.9729
 186   2.0000      -0.472521       -12.8579
 187   2.0000      -0.471758       -12.8372
 188   2.0000      -0.470768       -12.8103
 189   2.0000      -0.469088       -12.7645
 190   2.0000      -0.468941       -12.7605
 191   2.0000      -0.467245       -12.7144
 192   2.0000      -0.465680       -12.6718
 193   2.0000      -0.462320       -12.5804
 194   2.0000      -0.461085       -12.5468
 195   2.0000      -0.460215       -12.5231
 196   2.0000      -0.458832       -12.4855
 197   2.0000      -0.454937       -12.3795
 198   2.0000      -0.452352       -12.3091
 199   2.0000      -0.451160       -12.2767
 200   2.0000      -0.450834       -12.2678
 201   2.0000      -0.449819       -12.2402
 202   2.0000      -0.448731       -12.2106
 203   2.0000      -0.447652       -12.1812
 204   2.0000      -0.446718       -12.1558
 205   2.0000      -0.441588       -12.0162
 206   2.0000      -0.439436       -11.9577
 207   2.0000      -0.437986       -11.9182
 208   2.0000      -0.436565       -11.8795
 209   2.0000      -0.432238       -11.7618
 210   2.0000      -0.428214       -11.6523
 211   2.0000      -0.424278       -11.5452
 212   2.0000      -0.423212       -11.5162
 213   2.0000      -0.420756       -11.4494
 214   2.0000      -0.418165       -11.3788
 215   2.0000      -0.416975       -11.3465
 216   2.0000      -0.400266       -10.8918
 217   2.0000      -0.397886       -10.8270
 218   2.0000      -0.393445       -10.7062
 219   2.0000      -0.382544       -10.4095
 220   2.0000      -0.381283       -10.3752
 221   2.0000      -0.377850       -10.2818
 222   2.0000      -0.376835       -10.2542
 223   2.0000      -0.375586       -10.2202
 224   2.0000      -0.366143        -9.9632
 225   2.0000      -0.364407        -9.9160
 226   2.0000      -0.361365        -9.8332
 227   2.0000      -0.359212        -9.7747
 228   2.0000      -0.344555        -9.3758
 229   2.0000      -0.335562        -9.1311
 230   2.0000      -0.333893        -9.0857
 231   2.0000      -0.313453        -8.5295
 232   2.0000      -0.288016        -7.8373
 233   2.0000      -0.250713        -6.8222
 234   0.0000      -0.149718        -4.0740
 235   0.0000      -0.117249        -3.1905
 236   0.0000      -0.113418        -3.0863
 237   0.0000      -0.074660        -2.0316
 238   0.0000      -0.070575        -1.9205

MULLIKEN ATOMIC CHARGES
-----------------------
   0 C :   -0.089257
   1 N :   -0.073236
   2 C :    0.109993
   3 C :   -0.250357
   4 S :    0.184904
   5 C :   -0.132980
   6 N :    0.134920
   7 C :   -0.048165
   8 C :   -0.034933
   9 C :    0.007875
  10 C :   -0.099604
  11 S :    0.255874
  12 C :   -0.078471
  13 C :    0.030874
  14 C :    0.292676
  15 C :   -0.285829
  16 C :   -0.187853
  17 N :    0.177990
  18 C :   -0.190378
  19 N :    0.184025
  20 C :   -0.038175
  21 C :   -0.146610
  22 S :    0.214427
  23 C :    0.188326
  24 C :   -0.077221
  25 C :   -0.070078
  26 N :   -0.011341
  27 C :   -0.112652
  28 C :   -0.124730
  29 N :    0.041586
  30 C :   -0.200770
  31 N :    0.250020
  32 C :   -0.214091
  33 N :    0.249864
  34 C :    0.164763
  35 C :    0.003018
  36 C :   -0.054994
  37 N :   -0.316611
  38 S :    0.566254
  39 N :   -0.273041
  40 C :   -0.147730
  41 C :   -0.036279
  42 C :    0.024806
  43 C :   -0.068317
  44 S :    0.210197
  45 C :   -0.100884
  46 C :    0.004709
  47 C :    0.296476
  48 C :   -0.291732
  49 C :   -0.186763
  50 N :    0.175542
  51 C :   -0.191718
  52 N :    0.177833
  53 C :   -0.038329
  54 C :   -0.048918
  55 S :    0.263914
  56 C :   -0.087098
  57 N :   -0.071727
  58 C :    0.111565
  59 C :   -0.253070
  60 S :    0.182210
  61 C :   -0.132099
  62 N :    0.135200
  63 H :    0.019173
  64 H :    0.019061
  65 H :    0.023214
  66 H :    0.026374
  67 H :    0.018836
  68 H :    0.019544
Sum of atomic charges:    0.0000000

LOEWDIN ATOMIC CHARGES
----------------------
   0 C :   -0.132271
   1 N :   -0.104475
   2 C :    0.018232
   3 C :   -0.239546
   4 S :    0.460245
   5 C :   -0.056727
   6 N :   -0.038755
   7 C :   -0.197110
   8 C :   -0.017758
   9 C :   -0.065821
  10 C :   -0.172085
  11 S :    0.519711
  12 C :   -0.178822
  13 C :   -0.064527
  14 C :    0.076660
  15 C :   -0.095649
  16 C :   -0.017523
  17 N :   -0.026668
  18 C :   -0.018857
  19 N :   -0.020201
  20 C :   -0.007678
  21 C :   -0.153621
  22 S :    0.509907
  23 C :   -0.041646
  24 C :   -0.003612
  25 C :   -0.013456
  26 N :   -0.020801
  27 C :   -0.021420
  28 C :   -0.019327
  29 N :    0.003416
  30 C :   -0.039110
  31 N :    0.012355
  32 C :   -0.038943
  33 N :    0.004821
  34 C :   -0.041138
  35 C :   -0.038119
  36 C :   -0.049303
  37 N :   -0.297608
  38 S :    0.691225
  39 N :   -0.268548
  40 C :   -0.156682
  41 C :   -0.007740
  42 C :   -0.067800
  43 C :   -0.175975
  44 S :    0.511158
  45 C :   -0.171894
  46 C :   -0.065994
  47 C :    0.078912
  48 C :   -0.099650
  49 C :   -0.017062
  50 N :   -0.029292
  51 C :   -0.018213
  52 N :   -0.028394
  53 C :   -0.018279
  54 C :   -0.197139
  55 S :    0.525455
  56 C :   -0.131822
  57 N :   -0.103102
  58 C :    0.018855
  59 C :   -0.239767
  60 S :    0.458585
  61 C :   -0.056726
  62 N :   -0.039203
  63 H :    0.037759
  64 H :    0.040398
  65 H :    0.039797
  66 H :    0.040257
  67 H :    0.039971
  68 H :    0.038141

  Mayer bond orders larger than 0.100000
B(  0-C ,  1-N ) :   1.7121 B(  0-C ,  3-C ) :   0.1105 B(  0-C ,  4-S ) :   1.1290
B(  0-C ,  7-C ) :   1.1044 B(  1-N ,  2-C ) :   1.3967 B(  2-C ,  3-C ) :   1.5085
B(  2-C , 63-H ) :   0.9951 B(  3-C ,  4-S ) :   1.1227 B(  3-C ,  5-C ) :   1.1834
B(  5-C ,  6-N ) :   3.0141 B(  7-C ,  8-C ) :   1.4586 B(  7-C , 11-S ) :   1.1071
B(  8-C ,  9-C ) :   1.3295 B(  8-C , 64-H ) :   0.9827 B(  9-C , 10-C ) :   1.4126
B(  9-C , 14-C ) :   1.0012 B( 10-C , 11-S ) :   1.1336 B( 10-C , 12-C ) :   1.2053
B( 12-C , 13-C ) :   1.3911 B( 12-C , 22-S ) :   1.1115 B( 13-C , 14-C ) :   1.0010
B( 13-C , 20-C ) :   1.3033 B( 14-C , 15-C ) :   1.7182 B( 15-C , 16-C ) :   1.1313
B( 15-C , 18-C ) :   1.1307 B( 16-C , 17-N ) :   2.9934 B( 18-C , 19-N ) :   2.9931
B( 20-C , 21-C ) :   1.3922 B( 20-C , 65-H ) :   0.9836 B( 21-C , 22-S ) :   1.1034
B( 21-C , 23-C ) :   1.2214 B( 23-C , 24-C ) :   1.2300 B( 23-C , 36-C ) :   1.1842
B( 24-C , 25-C ) :   1.1338 B( 24-C , 29-N ) :   1.4513 B( 25-C , 26-N ) :   1.3992
B( 25-C , 34-C ) :   1.2297 B( 26-N , 27-C ) :   1.6860 B( 27-C , 28-C ) :   1.2154
B( 27-C , 32-C ) :   1.1540 B( 28-C , 29-N ) :   1.6962 B( 28-C , 30-C ) :   1.1569
B( 30-C , 31-N ) :   3.0376 B( 32-C , 33-N ) :   3.0476 B( 34-C , 35-C ) :   1.1970
B( 34-C , 40-C ) :   1.2219 B( 35-C , 36-C ) :   1.1255 B( 35-C , 39-N ) :   1.5166
B( 36-C , 37-N ) :   1.4856 B( 37-N , 38-S ) :   1.2687 B( 37-N , 39-N ) :   0.1438
B( 38-S , 39-N ) :   1.2797 B( 40-C , 41-C ) :   1.3992 B( 40-C , 44-S ) :   1.0970
B( 41-C , 42-C ) :   1.2997 B( 41-C , 66-H ) :   0.9844 B( 42-C , 43-C ) :   1.3931
B( 42-C , 47-C ) :   1.0003 B( 43-C , 44-S ) :   1.1064 B( 43-C , 45-C ) :   1.2048
B( 45-C , 46-C ) :   1.4092 B( 45-C , 55-S ) :   1.1381 B( 46-C , 47-C ) :   1.0015
B( 46-C , 53-C ) :   1.3311 B( 47-C , 48-C ) :   1.7139 B( 48-C , 49-C ) :   1.1359
B( 48-C , 51-C ) :   1.1308 B( 49-C , 50-N ) :   2.9895 B( 51-C , 52-N ) :   2.9955
B( 53-C , 54-C ) :   1.4562 B( 53-C , 67-H ) :   0.9831 B( 54-C , 55-S ) :   1.1094
B( 54-C , 56-C ) :   1.1046 B( 56-C , 57-N ) :   1.7114 B( 56-C , 59-C ) :   0.1107
B( 56-C , 60-S ) :   1.1276 B( 57-N , 58-C ) :   1.3975 B( 58-C , 59-C ) :   1.5091
B( 58-C , 68-H ) :   0.9950 B( 59-C , 60-S ) :   1.1224 B( 59-C , 61-C ) :   1.1828
B( 61-C , 62-N ) :   3.0139

-----------------------------------------------------------------------------
         ABSORPTION SPECTRUM VIA TRANSITION ELECTRIC DIPOLE MOMENTS
-----------------------------------------------------------------------------
State   Energy  Wavelength   fosc         T2         TX        TY        TZ
        (cm-1)    (nm)                  (au**2)     (au)      (au)      (au)
-----------------------------------------------------------------------------
   0    6844.0   1461.1   0.382557519  18.40201   3.44093   0.98935  -2.36288
   1   12373.4    808.2   0.068494017   1.82238  -0.66175   0.80901  -0.85438
   2   12769.2    783.1   0.010127199   0.26110  -0.30567  -0.04207   0.40730
   3   16222.9    616.4   0.263266767   5.34247  -1.30017   1.36445  -1.33802
   4   21387.3    467.6   0.007048486   0.10850   0.14794  -0.02295   0.29340
   5   22172.9    451.0   0.383772975   5.69807   0.41487   0.85303  -2.19050
   6   22533.7    443.8   0.313931132   4.58646   2.12199  -0.13193  -0.25731
   7   23351.9    428.2   0.006530133   0.09206   0.26198   0.15306   0.00138
   8   23758.6    420.9   0.043190813   0.59848  -0.71667   0.29022   0.02509
   9   24485.4    408.4   0.041729894   0.56107   0.52512  -0.13940  -0.51564
  10   24921.9    401.3   0.052460570   0.69299  -0.22492   0.18409   0.78007
  11   25591.0    390.8   0.353877541   4.55241   1.46908   0.19956  -1.53440
  12   25710.0    389.0   0.063800711   0.81696   0.86861   0.22787  -0.10267
  13   26873.3    372.1   0.614553286   7.52859   1.54992  -1.70362   1.49131
  14   28706.6    348.4   0.121759305   1.39636   0.58046  -0.96249   0.36473
  15   29568.5    338.2   0.136027988   1.51452  -0.25788   0.55606   1.06715
  16   29835.4    335.2   0.028636331   0.31598   0.53335  -0.17684   0.01567
  17   30214.4    331.0   0.175178666   1.90872  -0.06278   1.26065   0.56172
  18   30514.3    327.7   0.171880747   1.85438   0.28098   0.05278   1.33141
  19   30847.2    324.2   0.100701046   1.07472   0.55209   0.78725   0.38749
  20   31060.0    322.0   0.054173356   0.57420   0.50262   0.55559   0.11352
  21   31419.5    318.3   0.558794750   5.85503  -1.59255  -1.63180  -0.80998
  22   32134.8    311.2   0.124519622   1.27567   0.78790   0.18094   0.78876
  23   32584.2    306.9   0.473094333   4.77987  -0.77915  -1.66743  -1.18003
  24   32833.4    304.6   0.054713137   0.54859  -0.11148  -0.13541   0.71960
  25   33035.3    302.7   0.497964648   4.96244  -0.75533  -1.70753  -1.21502
  26   33724.5    296.5   0.494538887   4.82759   1.13684  -1.79829   0.54894
  27   34178.4    292.6   0.146666566   1.41272  -0.22599   0.72675   0.91295
  28   34214.7    292.3   0.126341600   1.21565   0.23690  -0.04533  -1.07586
  29   35499.7    281.7   0.129236352   1.19849  -0.39481   0.23243  -0.99428
  30   35525.6    281.5   0.003147266   0.02917   0.08236  -0.11751  -0.09259
  31   35705.0    280.1   0.134374999   1.23898  -0.75613   0.52520   0.62563
  32   35942.3    278.2   0.015401026   0.14107   0.02247   0.13981  -0.34787
  33   35973.3    278.0   0.006263411   0.05732   0.23545   0.03695   0.02279
  34   36060.1    277.3   0.028382272   0.25912  -0.24602  -0.37517  -0.24050
  35   36239.6    275.9   0.037757303   0.34300  -0.21335   0.23672  -0.49137
  36   36958.0    270.6   0.021016229   0.18721   0.06647  -0.36948  -0.21511
  37   37257.6    268.4   0.045529158   0.40230  -0.00389   0.02287  -0.63385
  38   38433.6    260.2   0.010631916   0.09107  -0.21924  -0.10885  -0.17651
  39   38574.5    259.2   0.031541158   0.26919  -0.28454   0.36356  -0.23675
  40   38838.9    257.5   0.012353226   0.10471   0.15316  -0.22704   0.17235
  41   39087.6    255.8   0.113773032   0.95824   0.24332   0.47756   0.81913
  42   39309.8    254.4   0.028966785   0.24259  -0.01831   0.42402   0.24993
  43   39523.6    253.0   0.006230600   0.05190  -0.01675  -0.18777  -0.12791
  44   39677.7    252.0   0.005726003   0.04751  -0.13351  -0.12440  -0.11921
  45   39740.2    251.6   0.054937349   0.45511   0.04626   0.54740   0.39157
  46   39930.6    250.4   0.021568872   0.17783  -0.06635   0.41529   0.03097
  47   40073.9    249.5   0.033037254   0.27141   0.34354  -0.39020   0.03357
  48   40096.8    249.4   0.128093817   1.05171  -0.04088  -0.96165  -0.35392

FINAL SINGLE POINT ENERGY     -5153.878933256426

DIPOLE MOMENT
-------------
                                X             Y             Z
Electronic contribution:      5.61135      -7.68636       4.68444
Nuclear contribution   :     -4.82235       4.71355      -5.32763
                        -----------------------------------------
Total Dipole Moment    :      0.78900      -2.97281      -0.64320
                        -----------------------------------------
Magnitude (a.u.)       :      3.14226
Magnitude (Debye)      :      7.98700

Rotational constants in cm-1:     0.001102     0.000494     0.000433
Rotational constants in MHz :    33.040145    14.822852    12.988073

                             ****ORCA TERMINATED NORMALLY****
TOTAL RUN TIME: 0 days 0 hours 5 minutes 53 seconds 923 msec
