                         Program Version 4.2.0 -  RELEASE  -
|  1> # ORCA input file
|  2> # SCF done       -195.226364139018          0.000434915965
|  3> ! CAM-B3LYP def2-SVP def2/J RIJCOSX Grid4 TightSCF
|  4> %maxcore 5000
|  5> %tddft
|  6>     Mode sTDDFT
|  7>     Ethresh 5.0
|  8>     maxcore 5000
|  9> end
| 10>
| 11> %pal
| 12>   nprocs 6
| 13>   end
| 14> * xyz 0 1
| 15>    C        7.23059        -1.24861       -11.23849
| 16>    C        7.97461        -1.45740       -12.36805
| 17>    C        9.36842        -1.30330       -12.33652
| 18>    C        9.99830        -0.94177       -11.17687
| 19>    C        9.26239        -0.71555        -9.99625
| 20>    C        9.90679        -0.32701        -8.79899
| 21>    C        9.15897        -0.11355        -7.67368
| 22>    C        7.74524        -0.29625        -7.70455
| 23>    C        7.09713        -0.66114        -8.84870
| 24>    C        7.84710        -0.87606       -10.02785
| 25>    C        7.19093        -0.04343        -6.35982
| 26>    O        6.03027        -0.05648        -6.01639
| 27>    C        8.37699         0.16579        -5.48610
| 28>    C        9.53430         0.33164        -6.33660
| 29>    C       10.66616         1.04195        -6.02630
| 30>    C       10.82939         1.73068        -4.80692
| 31>    N       10.96733         2.34552        -3.84717
| 32>    C       11.73996         1.23578        -6.91526
| 33>    N       12.65451         1.39810        -7.59091
| 34>    C        8.24990         0.06902        -4.13252
| 35>    C        9.24110        -0.20549        -3.16580
| 36>    C        9.12135        -0.01986        -1.79790
| 37>    C       10.25351        -0.42552        -1.10315
| 38>    C       11.25111        -0.97164        -1.92905
| 39>    S       10.77508        -0.96489        -3.58253
| 40>    C       12.37299        -1.36321        -1.20262
| 41>    C       12.23045        -1.12545         0.18246
| 42>    S       10.70096        -0.39960         0.58727
| 43>    C       13.39388        -1.56285         0.79923
| 44>    C       14.23026        -2.03216        -0.22140
| 45>    N       13.59178        -1.91436        -1.42916
| 46>    C       13.99442        -2.41642        -2.71343
| 47>    C       15.56731        -2.53246        -0.04050
| 48>    C       16.64447        -2.22714        -0.89925
| 49>    C       17.95504        -2.76379        -0.67076
| 50>    N       18.95600        -2.46564        -1.51798
| 51>    C       18.73637        -1.64555        -2.50581
| 52>    C       17.46400        -1.06538        -2.68852
| 53>    N       16.45514        -1.36092        -1.91913
| 54>    C       18.26519        -3.60187         0.42452
| 55>    C       17.20433        -3.85476         1.31867
| 56>    C       15.88145        -3.31551         1.08713
| 57>    N       15.02458        -3.69042         2.04218
| 58>    S       15.79328        -4.59980         3.11201
| 59>    N       17.24770        -4.58640         2.43418
| 60>    C       19.57401        -4.13136         0.57551
| 61>    C       20.03520        -4.96259         1.58290
| 62>    C       21.36738        -5.31304         1.40271
| 63>    C       21.94039        -4.75379         0.25023
| 64>    S       20.80466        -3.76491        -0.61311
| 65>    C       23.27113        -5.14411         0.10000
| 66>    C       23.71251        -5.99864         1.14522
| 67>    S       22.46633        -6.31991         2.32080
| 68>    C       25.02675        -6.33210         0.89462
| 69>    C       25.38462        -5.68095        -0.30536
| 70>    N       24.28668        -4.96212        -0.76594
| 71>    C       24.20863        -4.14992        -1.95080
| 72>    C       26.56175        -5.69858        -1.06842
| 73>    C       27.78390        -6.29182        -0.87140
| 74>    C       28.83668        -6.27165        -1.86973
| 75>    C       28.72824        -5.88150        -3.18402
| 76>    C       29.79151        -5.91783        -4.10913
| 77>    N       30.60774        -5.91499        -4.91725
| 78>    C       27.55757        -5.42462        -3.81992
| 79>    N       26.64528        -5.05425        -4.41521
| 80>    C       30.04363        -6.82091        -1.26305
| 81>    C       29.72898        -7.23816         0.06005
| 82>    C       30.66148        -7.80111         0.88137
| 83>    C       31.98178        -7.97444         0.40747
| 84>    C       32.98818        -8.54873         1.20796
| 85>    C       34.26055        -8.70412         0.72792
| 86>    C       34.58145        -8.29254        -0.57397
| 87>    C       33.62660        -7.73053        -1.37707
| 88>    C       32.30668        -7.55557        -0.91446
| 89>    C       31.31721        -6.97603        -1.74210
| 90>    C       28.30916        -6.95444         0.34317
| 91>    O       27.73206        -7.20693         1.38148
| 92>    H        6.15691        -1.36617       -11.25720
| 93>    H        7.49332        -1.74241       -13.29166
| 94>    H        9.94097        -1.47135       -13.23647
| 95>    H       11.07099        -0.81771       -11.14805
| 96>    H       10.98025        -0.21672        -8.79755
| 97>    H        6.02419        -0.78329        -8.85726
| 98>    H        7.23332         0.12791        -3.75531
| 99>    H        8.25446         0.42637        -1.34630
|100>    H       13.64161        -1.53328         1.83948
|101>    H       14.68485        -3.24859        -2.58763
|102>    H       14.48287        -1.63754        -3.30089
|103>    H       13.10906        -2.76272        -3.24875
|104>    H       19.56646        -1.43281        -3.16383
|105>    H       17.27810        -0.35278        -3.48041
|106>    H       19.41052        -5.28424         2.39468
|107>    H       25.67779        -6.95253         1.47488
|108>    H       24.45761        -4.72660        -2.84411
|109>    H       24.88735        -3.29660        -1.88319
|110>    H       23.18897        -3.77992        -2.04363
|111>    H       26.47605        -5.14049        -1.99050
|112>    H       30.39568        -8.11038         1.88141
|113>    H       32.73526        -8.86392         2.20986
|114>    H       35.02632        -9.14481         1.34879
|115>    H       35.58965        -8.42300        -0.93796
|116>    H       33.86827        -7.41276        -2.38086
|117>    H       31.59779        -6.66461        -2.73557
|118> *
|119>
|120>                          ****END OF INPUT****

CARTESIAN COORDINATES (ANGSTROEM)
---------------------------------
  C      7.230590   -1.248610  -11.238490
  C      7.974610   -1.457400  -12.368050
  C      9.368420   -1.303300  -12.336520
  C      9.998300   -0.941770  -11.176870
  C      9.262390   -0.715550   -9.996250
  C      9.906790   -0.327010   -8.798990
  C      9.158970   -0.113550   -7.673680
  C      7.745240   -0.296250   -7.704550
  C      7.097130   -0.661140   -8.848700
  C      7.847100   -0.876060  -10.027850
  C      7.190930   -0.043430   -6.359820
  O      6.030270   -0.056480   -6.016390
  C      8.376990    0.165790   -5.486100
  C      9.534300    0.331640   -6.336600
  C     10.666160    1.041950   -6.026300
  C     10.829390    1.730680   -4.806920
  N     10.967330    2.345520   -3.847170
  C     11.739960    1.235780   -6.915260
  N     12.654510    1.398100   -7.590910
  C      8.249900    0.069020   -4.132520
  C      9.241100   -0.205490   -3.165800
  C      9.121350   -0.019860   -1.797900
  C     10.253510   -0.425520   -1.103150
  C     11.251110   -0.971640   -1.929050
  S     10.775080   -0.964890   -3.582530
  C     12.372990   -1.363210   -1.202620
  C     12.230450   -1.125450    0.182460
  S     10.700960   -0.399600    0.587270
  C     13.393880   -1.562850    0.799230
  C     14.230260   -2.032160   -0.221400
  N     13.591780   -1.914360   -1.429160
  C     13.994420   -2.416420   -2.713430
  C     15.567310   -2.532460   -0.040500
  C     16.644470   -2.227140   -0.899250
  C     17.955040   -2.763790   -0.670760
  N     18.956000   -2.465640   -1.517980
  C     18.736370   -1.645550   -2.505810
  C     17.464000   -1.065380   -2.688520
  N     16.455140   -1.360920   -1.919130
  C     18.265190   -3.601870    0.424520
  C     17.204330   -3.854760    1.318670
  C     15.881450   -3.315510    1.087130
  N     15.024580   -3.690420    2.042180
  S     15.793280   -4.599800    3.112010
  N     17.247700   -4.586400    2.434180
  C     19.574010   -4.131360    0.575510
  C     20.035200   -4.962590    1.582900
  C     21.367380   -5.313040    1.402710
  C     21.940390   -4.753790    0.250230
  S     20.804660   -3.764910   -0.613110
  C     23.271130   -5.144110    0.100000
  C     23.712510   -5.998640    1.145220
  S     22.466330   -6.319910    2.320800
  C     25.026750   -6.332100    0.894620
  C     25.384620   -5.680950   -0.305360
  N     24.286680   -4.962120   -0.765940
  C     24.208630   -4.149920   -1.950800
  C     26.561750   -5.698580   -1.068420
  C     27.783900   -6.291820   -0.871400
  C     28.836680   -6.271650   -1.869730
  C     28.728240   -5.881500   -3.184020
  C     29.791510   -5.917830   -4.109130
  N     30.607740   -5.914990   -4.917250
  C     27.557570   -5.424620   -3.819920
  N     26.645280   -5.054250   -4.415210
  C     30.043630   -6.820910   -1.263050
  C     29.728980   -7.238160    0.060050
  C     30.661480   -7.801110    0.881370
  C     31.981780   -7.974440    0.407470
  C     32.988180   -8.548730    1.207960
  C     34.260550   -8.704120    0.727920
  C     34.581450   -8.292540   -0.573970
  C     33.626600   -7.730530   -1.377070
  C     32.306680   -7.555570   -0.914460
  C     31.317210   -6.976030   -1.742100
  C     28.309160   -6.954440    0.343170
  O     27.732060   -7.206930    1.381480
  H      6.156910   -1.366170  -11.257200
  H      7.493320   -1.742410  -13.291660
  H      9.940970   -1.471350  -13.236470
  H     11.070990   -0.817710  -11.148050
  H     10.980250   -0.216720   -8.797550
  H      6.024190   -0.783290   -8.857260
  H      7.233320    0.127910   -3.755310
  H      8.254460    0.426370   -1.346300
  H     13.641610   -1.533280    1.839480
  H     14.684850   -3.248590   -2.587630
  H     14.482870   -1.637540   -3.300890
  H     13.109060   -2.762720   -3.248750
  H     19.566460   -1.432810   -3.163830
  H     17.278100   -0.352780   -3.480410
  H     19.410520   -5.284240    2.394680
  H     25.677790   -6.952530    1.474880
  H     24.457610   -4.726600   -2.844110
  H     24.887350   -3.296600   -1.883190
  H     23.188970   -3.779920   -2.043630
  H     26.476050   -5.140490   -1.990500
  H     30.395680   -8.110380    1.881410
  H     32.735260   -8.863920    2.209860
  H     35.026320   -9.144810    1.348790
  H     35.589650   -8.423000   -0.937960
  H     33.868270   -7.412760   -2.380860
  H     31.597790   -6.664610   -2.735570

 Total Charge           Charge          ....    0
 Multiplicity           Mult            ....    1
 Number of Electrons    NEL             ....  552
 Basis Dimension        Dim             .... 1228

ORBITAL ENERGIES
----------------

  NO   OCC          E(Eh)            E(eV)
   0   2.0000     -89.044055     -2423.0119
   1   2.0000     -88.969052     -2420.9710
   2   2.0000     -88.962613     -2420.7958
   3   2.0000     -88.956804     -2420.6377
   4   2.0000     -88.952830     -2420.5296
   5   2.0000     -19.205532      -522.6091
   6   2.0000     -19.205215      -522.6005
   7   2.0000     -14.477650      -393.9569
   8   2.0000     -14.477437      -393.9511
   9   2.0000     -14.452656      -393.2768
  10   2.0000     -14.451716      -393.2512
  11   2.0000     -14.448411      -393.1613
  12   2.0000     -14.443961      -393.0402
  13   2.0000     -14.411028      -392.1440
  14   2.0000     -14.409911      -392.1136
  15   2.0000     -14.404507      -391.9666
  16   2.0000     -14.402731      -391.9182
  17   2.0000     -10.357756      -281.8489
  18   2.0000     -10.356742      -281.8213
  19   2.0000     -10.342702      -281.4392
  20   2.0000     -10.341867      -281.4165
  21   2.0000     -10.341058      -281.3945
  22   2.0000     -10.339592      -281.3546
  23   2.0000     -10.338881      -281.3352
  24   2.0000     -10.337479      -281.2971
  25   2.0000     -10.334131      -281.2060
  26   2.0000     -10.333311      -281.1837
  27   2.0000     -10.330300      -281.1017
  28   2.0000     -10.327505      -281.0257
  29   2.0000     -10.324185      -280.9353
  30   2.0000     -10.321120      -280.8520
  31   2.0000     -10.319268      -280.8016
  32   2.0000     -10.318938      -280.7926
  33   2.0000     -10.317853      -280.7630
  34   2.0000     -10.316185      -280.7177
  35   2.0000     -10.315962      -280.7116
  36   2.0000     -10.315268      -280.6927
  37   2.0000     -10.315230      -280.6917
  38   2.0000     -10.314833      -280.6809
  39   2.0000     -10.314335      -280.6673
  40   2.0000     -10.313819      -280.6533
  41   2.0000     -10.313514      -280.6450
  42   2.0000     -10.312974      -280.6303
  43   2.0000     -10.310865      -280.5729
  44   2.0000     -10.307232      -280.4740
  45   2.0000     -10.307197      -280.4731
  46   2.0000     -10.307107      -280.4706
  47   2.0000     -10.305136      -280.4170
  48   2.0000     -10.301808      -280.3264
  49   2.0000     -10.299377      -280.2603
  50   2.0000     -10.297298      -280.2037
  51   2.0000     -10.296610      -280.1850
  52   2.0000     -10.294256      -280.1209
  53   2.0000     -10.292785      -280.0809
  54   2.0000     -10.292345      -280.0689
  55   2.0000     -10.292280      -280.0672
  56   2.0000     -10.291230      -280.0386
  57   2.0000     -10.290939      -280.0307
  58   2.0000     -10.289016      -279.9784
  59   2.0000     -10.288580      -279.9665
  60   2.0000     -10.287530      -279.9379
  61   2.0000     -10.287231      -279.9298
  62   2.0000     -10.286569      -279.9118
  63   2.0000     -10.285586      -279.8850
  64   2.0000     -10.284606      -279.8584
  65   2.0000     -10.283311      -279.8231
  66   2.0000     -10.282154      -279.7916
  67   2.0000     -10.281827      -279.7827
  68   2.0000     -10.281554      -279.7753
  69   2.0000     -10.281135      -279.7639
  70   2.0000     -10.279284      -279.7135
  71   2.0000     -10.278654      -279.6964
  72   2.0000     -10.278351      -279.6881
  73   2.0000     -10.278122      -279.6819
  74   2.0000     -10.277857      -279.6747
  75   2.0000     -10.276439      -279.6361
  76   2.0000     -10.272830      -279.5379
  77   2.0000      -8.135447      -221.3768
  78   2.0000      -8.063395      -219.4161
  79   2.0000      -8.054627      -219.1776
  80   2.0000      -8.051740      -219.0990
  81   2.0000      -8.047778      -218.9912
  82   2.0000      -6.106511      -166.1666
  83   2.0000      -6.098629      -165.9521
  84   2.0000      -6.098344      -165.9444
  85   2.0000      -6.032994      -164.1661
  86   2.0000      -6.028931      -164.0555
  87   2.0000      -6.024931      -163.9467
  88   2.0000      -6.024645      -163.9389
  89   2.0000      -6.021679      -163.8582
  90   2.0000      -6.019810      -163.8074
  91   2.0000      -6.017790      -163.7524
  92   2.0000      -6.017735      -163.7509
  93   2.0000      -6.016326      -163.7125
  94   2.0000      -6.013820      -163.6444
  95   2.0000      -6.012373      -163.6050
  96   2.0000      -6.008413      -163.4972
  97   2.0000      -1.140855       -31.0442
  98   2.0000      -1.120591       -30.4928
  99   2.0000      -1.119917       -30.4745
 100   2.0000      -1.106555       -30.1109
 101   2.0000      -1.103228       -30.0204
 102   2.0000      -1.100375       -29.9427
 103   2.0000      -1.029492       -28.0139
 104   2.0000      -1.013860       -27.5885
 105   2.0000      -1.009787       -27.4777
 106   2.0000      -1.006259       -27.3817
 107   2.0000      -1.002659       -27.2837
 108   2.0000      -0.993190       -27.0261
 109   2.0000      -0.991700       -26.9855
 110   2.0000      -0.990598       -26.9556
 111   2.0000      -0.985452       -26.8155
 112   2.0000      -0.984316       -26.7846
 113   2.0000      -0.972695       -26.4684
 114   2.0000      -0.966181       -26.2911
 115   2.0000      -0.962391       -26.1880
 116   2.0000      -0.948936       -25.8219
 117   2.0000      -0.942220       -25.6391
 118   2.0000      -0.918325       -24.9889
 119   2.0000      -0.917833       -24.9755
 120   2.0000      -0.907587       -24.6967
 121   2.0000      -0.902437       -24.5566
 122   2.0000      -0.893063       -24.3015
 123   2.0000      -0.886888       -24.1335
 124   2.0000      -0.884639       -24.0722
 125   2.0000      -0.877687       -23.8831
 126   2.0000      -0.876108       -23.8401
 127   2.0000      -0.872593       -23.7445
 128   2.0000      -0.869476       -23.6596
 129   2.0000      -0.868765       -23.6403
 130   2.0000      -0.855899       -23.2902
 131   2.0000      -0.846423       -23.0323
 132   2.0000      -0.823080       -22.3971
 133   2.0000      -0.821647       -22.3581
 134   2.0000      -0.819621       -22.3030
 135   2.0000      -0.816426       -22.2161
 136   2.0000      -0.814432       -22.1618
 137   2.0000      -0.802984       -21.8503
 138   2.0000      -0.801988       -21.8232
 139   2.0000      -0.782306       -21.2876
 140   2.0000      -0.777944       -21.1689
 141   2.0000      -0.773931       -21.0597
 142   2.0000      -0.767955       -20.8971
 143   2.0000      -0.755948       -20.5704
 144   2.0000      -0.752188       -20.4681
 145   2.0000      -0.751504       -20.4495
 146   2.0000      -0.737729       -20.0746
 147   2.0000      -0.718200       -19.5432
 148   2.0000      -0.716729       -19.5032
 149   2.0000      -0.702221       -19.1084
 150   2.0000      -0.696994       -18.9662
 151   2.0000      -0.696083       -18.9414
 152   2.0000      -0.693301       -18.8657
 153   2.0000      -0.688276       -18.7289
 154   2.0000      -0.679738       -18.4966
 155   2.0000      -0.675660       -18.3856
 156   2.0000      -0.670266       -18.2389
 157   2.0000      -0.669695       -18.2233
 158   2.0000      -0.668220       -18.1832
 159   2.0000      -0.656617       -17.8674
 160   2.0000      -0.655346       -17.8329
 161   2.0000      -0.642306       -17.4780
 162   2.0000      -0.639067       -17.3899
 163   2.0000      -0.636007       -17.3066
 164   2.0000      -0.634629       -17.2691
 165   2.0000      -0.628659       -17.1067
 166   2.0000      -0.626384       -17.0448
 167   2.0000      -0.623665       -16.9708
 168   2.0000      -0.619074       -16.8459
 169   2.0000      -0.602914       -16.4061
 170   2.0000      -0.601954       -16.3800
 171   2.0000      -0.600231       -16.3331
 172   2.0000      -0.597495       -16.2587
 173   2.0000      -0.596347       -16.2274
 174   2.0000      -0.586665       -15.9640
 175   2.0000      -0.583992       -15.8912
 176   2.0000      -0.577239       -15.7075
 177   2.0000      -0.573225       -15.5983
 178   2.0000      -0.570751       -15.5309
 179   2.0000      -0.569982       -15.5100
 180   2.0000      -0.568657       -15.4739
 181   2.0000      -0.564923       -15.3723
 182   2.0000      -0.558795       -15.2056
 183   2.0000      -0.553075       -15.0499
 184   2.0000      -0.545477       -14.8432
 185   2.0000      -0.544506       -14.8168
 186   2.0000      -0.542885       -14.7727
 187   2.0000      -0.541673       -14.7397
 188   2.0000      -0.539710       -14.6863
 189   2.0000      -0.538674       -14.6581
 190   2.0000      -0.535065       -14.5599
 191   2.0000      -0.530153       -14.4262
 192   2.0000      -0.529392       -14.4055
 193   2.0000      -0.525888       -14.3101
 194   2.0000      -0.523351       -14.2411
 195   2.0000      -0.519679       -14.1412
 196   2.0000      -0.517422       -14.0798
 197   2.0000      -0.512699       -13.9512
 198   2.0000      -0.512271       -13.9396
 199   2.0000      -0.511298       -13.9131
 200   2.0000      -0.509746       -13.8709
 201   2.0000      -0.508166       -13.8279
 202   2.0000      -0.506319       -13.7776
 203   2.0000      -0.505848       -13.7648
 204   2.0000      -0.503189       -13.6925
 205   2.0000      -0.501011       -13.6332
 206   2.0000      -0.497346       -13.5335
 207   2.0000      -0.496701       -13.5159
 208   2.0000      -0.494972       -13.4689
 209   2.0000      -0.492857       -13.4113
 210   2.0000      -0.489861       -13.3298
 211   2.0000      -0.487905       -13.2766
 212   2.0000      -0.486943       -13.2504
 213   2.0000      -0.482853       -13.1391
 214   2.0000      -0.482360       -13.1257
 215   2.0000      -0.481854       -13.1119
 216   2.0000      -0.478730       -13.0269
 217   2.0000      -0.476278       -12.9602
 218   2.0000      -0.473520       -12.8851
 219   2.0000      -0.469770       -12.7831
 220   2.0000      -0.467622       -12.7247
 221   2.0000      -0.462528       -12.5860
 222   2.0000      -0.460791       -12.5387
 223   2.0000      -0.455909       -12.4059
 224   2.0000      -0.454994       -12.3810
 225   2.0000      -0.450843       -12.2681
 226   2.0000      -0.448360       -12.2005
 227   2.0000      -0.444206       -12.0874
 228   2.0000      -0.443180       -12.0595
 229   2.0000      -0.439823       -11.9682
 230   2.0000      -0.437204       -11.8969
 231   2.0000      -0.436680       -11.8827
 232   2.0000      -0.435889       -11.8612
 233   2.0000      -0.433196       -11.7879
 234   2.0000      -0.431587       -11.7441
 235   2.0000      -0.428197       -11.6518
 236   2.0000      -0.426223       -11.5981
 237   2.0000      -0.424987       -11.5645
 238   2.0000      -0.424374       -11.5478
 239   2.0000      -0.421316       -11.4646
 240   2.0000      -0.420362       -11.4386
 241   2.0000      -0.419847       -11.4246
 242   2.0000      -0.418218       -11.3803
 243   2.0000      -0.417129       -11.3506
 244   2.0000      -0.414351       -11.2751
 245   2.0000      -0.412225       -11.2172
 246   2.0000      -0.411186       -11.1889
 247   2.0000      -0.409695       -11.1484
 248   2.0000      -0.405417       -11.0319
 249   2.0000      -0.398619       -10.8470
 250   2.0000      -0.397504       -10.8166
 251   2.0000      -0.392170       -10.6715
 252   2.0000      -0.387572       -10.5464
 253   2.0000      -0.382856       -10.4180
 254   2.0000      -0.381420       -10.3790
 255   2.0000      -0.373687       -10.1685
 256   2.0000      -0.372189       -10.1278
 257   2.0000      -0.364245        -9.9116
 258   2.0000      -0.361715        -9.8428
 259   2.0000      -0.350035        -9.5249
 260   2.0000      -0.341054        -9.2806
 261   2.0000      -0.338260        -9.2045
 262   2.0000      -0.334889        -9.1128
 263   2.0000      -0.332626        -9.0512
 264   2.0000      -0.329913        -8.9774
 265   2.0000      -0.326842        -8.8938
 266   2.0000      -0.321619        -8.7517
 267   2.0000      -0.310151        -8.4396
 268   2.0000      -0.308209        -8.3868
 269   2.0000      -0.295408        -8.0385
 270   2.0000      -0.289032        -7.8650
 271   2.0000      -0.285011        -7.7555
 272   2.0000      -0.280579        -7.6349
 273   2.0000      -0.278198        -7.5701
 274   2.0000      -0.256537        -6.9807
 275   2.0000      -0.231281        -6.2935
 276   0.0000      -0.116749        -3.1769
 277   0.0000      -0.086395        -2.3509
 278   0.0000      -0.079033        -2.1506
 279   0.0000      -0.048458        -1.3186
 280   0.0000      -0.047982        -1.3057

MULLIKEN ATOMIC CHARGES
-----------------------
   0 C :   -0.018697
   1 C :    0.035242
   2 C :    0.036171
   3 C :   -0.021483
   4 C :    0.098031
   5 C :   -0.086946
   6 C :    0.039304
   7 C :    0.014315
   8 C :   -0.087196
   9 C :    0.095796
  10 C :    0.139772
  11 O :   -0.148295
  12 C :   -0.144439
  13 C :    0.246352
  14 C :   -0.326860
  15 C :   -0.209447
  16 N :    0.166015
  17 C :   -0.169448
  18 N :    0.141285
  19 C :    0.052236
  20 C :   -0.083839
  21 C :    0.012771
  22 C :   -0.040322
  23 C :   -0.053375
  24 S :    0.152440
  25 C :    0.030213
  26 C :   -0.012795
  27 S :    0.155781
  28 C :   -0.092321
  29 C :    0.001758
  30 N :   -0.151288
  31 C :    0.144881
  32 C :    0.093750
  33 C :   -0.073098
  34 C :   -0.036727
  35 N :   -0.085841
  36 C :    0.053945
  37 C :    0.024252
  38 N :   -0.025876
  39 C :    0.186619
  40 C :   -0.021663
  41 C :   -0.009288
  42 N :   -0.267658
  43 S :    0.542429
  44 N :   -0.293069
  45 C :   -0.151734
  46 C :   -0.055627
  47 C :   -0.022670
  48 C :   -0.037774
  49 S :    0.146145
  50 C :    0.037489
  51 C :   -0.012262
  52 S :    0.149709
  53 C :   -0.110712
  54 C :    0.139436
  55 N :   -0.176574
  56 C :    0.131627
  57 C :   -0.050337
  58 C :   -0.094906
  59 C :    0.321283
  60 C :   -0.377877
  61 C :   -0.183381
  62 N :    0.138929
  63 C :   -0.178509
  64 N :    0.126089
  65 C :    0.041876
  66 C :    0.003029
  67 C :   -0.089439
  68 C :    0.101146
  69 C :   -0.017994
  70 C :    0.035356
  71 C :    0.034670
  72 C :   -0.019170
  73 C :    0.095901
  74 C :   -0.084590
  75 C :    0.153572
  76 O :   -0.160548
  77 H :   -0.017569
  78 H :   -0.007948
  79 H :   -0.007062
  80 H :   -0.012460
  81 H :   -0.008154
  82 H :   -0.012763
  83 H :    0.023806
  84 H :   -0.001318
  85 H :   -0.024315
  86 H :    0.035437
  87 H :    0.052207
  88 H :    0.035617
  89 H :    0.020398
  90 H :    0.027539
  91 H :   -0.002175
  92 H :    0.008827
  93 H :    0.065175
  94 H :    0.047605
  95 H :    0.036084
  96 H :   -0.017417
  97 H :   -0.017831
  98 H :   -0.021272
  99 H :   -0.007822
 100 H :   -0.008338
 101 H :   -0.011432
 102 H :   -0.010363
Sum of atomic charges:   -0.0000000

LOEWDIN ATOMIC CHARGES
----------------------
   0 C :   -0.010053
   1 C :   -0.015373
   2 C :   -0.014955
   3 C :   -0.008294
   4 C :   -0.006195
   5 C :    0.011554
   6 C :   -0.021392
   7 C :   -0.055303
   8 C :    0.029692
   9 C :   -0.010048
  10 C :    0.082022
  11 O :   -0.150079
  12 C :   -0.108752
  13 C :    0.060205
  14 C :   -0.150126
  15 C :   -0.037304
  16 N :   -0.052829
  17 C :   -0.018582
  18 N :   -0.062325
  19 C :    0.052880
  20 C :   -0.180433
  21 C :   -0.011430
  22 C :   -0.192461
  23 C :   -0.185953
  24 S :    0.449588
  25 C :   -0.043335
  26 C :   -0.178419
  27 S :    0.397783
  28 C :   -0.060170
  29 C :    0.016137
  30 N :    0.066829
  31 C :    0.033092
  32 C :   -0.041999
  33 C :   -0.015665
  34 C :   -0.017922
  35 N :   -0.047046
  36 C :    0.021570
  37 C :    0.011189
  38 N :   -0.026471
  39 C :   -0.038287
  40 C :   -0.041006
  41 C :   -0.039319
  42 N :   -0.278703
  43 S :    0.673780
  44 N :   -0.285341
  45 C :   -0.155174
  46 C :   -0.048013
  47 C :   -0.176235
  48 C :   -0.229291
  49 S :    0.456613
  50 C :   -0.012126
  51 C :   -0.190627
  52 S :    0.388274
  53 C :   -0.019459
  54 C :   -0.016928
  55 N :    0.055503
  56 C :    0.035016
  57 C :    0.050793
  58 C :   -0.109986
  59 C :    0.080641
  60 C :   -0.160839
  61 C :   -0.018488
  62 N :   -0.066237
  63 C :   -0.016433
  64 N :   -0.075779
  65 C :   -0.026220
  66 C :   -0.052086
  67 C :    0.026746
  68 C :   -0.008925
  69 C :   -0.011312
  70 C :   -0.015102
  71 C :   -0.016892
  72 C :   -0.006128
  73 C :   -0.008111
  74 C :    0.017399
  75 C :    0.083965
  76 O :   -0.151420
  77 H :    0.031446
  78 H :    0.031724
  79 H :    0.032166
  80 H :    0.033307
  81 H :    0.037495
  82 H :    0.038681
  83 H :    0.051096
  84 H :    0.041054
  85 H :    0.028507
  86 H :    0.033135
  87 H :    0.031367
  88 H :    0.025751
  89 H :    0.030977
  90 H :    0.031281
  91 H :    0.033296
  92 H :    0.033983
  93 H :    0.039235
  94 H :    0.035247
  95 H :    0.030277
  96 H :    0.043358
  97 H :    0.036924
  98 H :    0.030522
  99 H :    0.031501
 100 H :    0.031757
 101 H :    0.033822
 102 H :    0.038201

  Mayer bond orders larger than 0.100000
B(  0-C ,  1-C ) :   1.4887 B(  0-C ,  9-C ) :   1.2457 B(  0-C , 77-H ) :   0.9977
B(  1-C ,  2-C ) :   1.2610 B(  1-C , 78-H ) :   0.9886 B(  2-C ,  3-C ) :   1.4891
B(  2-C , 79-H ) :   0.9886 B(  3-C ,  4-C ) :   1.2412 B(  3-C , 80-H ) :   0.9975
B(  4-C ,  5-C ) :   1.2000 B(  4-C ,  9-C ) :   1.2586 B(  5-C ,  6-C ) :   1.4622
B(  5-C , 81-H ) :   0.9943 B(  6-C ,  7-C ) :   1.2155 B(  6-C , 13-C ) :   1.0025
B(  7-C ,  8-C ) :   1.4791 B(  7-C , 10-C ) :   0.9182 B(  8-C ,  9-C ) :   1.1817
B(  8-C , 82-H ) :   1.0159 B( 10-C , 11-O ) :   2.2690 B( 10-C , 12-C ) :   0.9466
B( 12-C , 13-C ) :   1.0480 B( 12-C , 19-C ) :   1.6014 B( 13-C , 14-C ) :   1.6429
B( 14-C , 15-C ) :   1.1513 B( 14-C , 17-C ) :   1.1370 B( 15-C , 16-N ) :   3.0250
B( 17-C , 18-N ) :   2.9854 B( 19-C , 20-C ) :   1.1713 B( 19-C , 83-H ) :   0.9494
B( 20-C , 21-C ) :   1.4190 B( 20-C , 24-S ) :   1.0627 B( 21-C , 22-C ) :   1.3191
B( 21-C , 84-H ) :   1.0043 B( 22-C , 23-C ) :   1.3899 B( 22-C , 27-S ) :   1.0417
B( 23-C , 24-S ) :   1.0706 B( 23-C , 25-C ) :   1.2961 B( 25-C , 26-C ) :   1.3494
B( 25-C , 29-C ) :   0.1023 B( 25-C , 30-N ) :   1.2051 B( 26-C , 27-S ) :   1.0214
B( 26-C , 28-C ) :   1.3322 B( 28-C , 29-C ) :   1.4377 B( 28-C , 85-H ) :   1.0154
B( 29-C , 30-N ) :   1.2065 B( 29-C , 32-C ) :   0.9813 B( 30-N , 31-C ) :   0.9628
B( 31-C , 86-H ) :   0.9683 B( 31-C , 87-H ) :   0.9633 B( 31-C , 88-H ) :   0.9622
B( 32-C , 33-C ) :   1.3134 B( 32-C , 39-C ) :   0.1392 B( 32-C , 41-C ) :   1.2663
B( 33-C , 34-C ) :   1.1131 B( 33-C , 38-N ) :   1.4482 B( 34-C , 35-N ) :   1.3839
B( 34-C , 39-C ) :   1.2756 B( 35-N , 36-C ) :   1.6596 B( 36-C , 37-C ) :   1.1868
B( 36-C , 89-H ) :   0.9726 B( 37-C , 38-N ) :   1.6795 B( 37-C , 90-H ) :   0.9745
B( 39-C , 40-C ) :   1.2025 B( 39-C , 45-C ) :   1.1866 B( 40-C , 41-C ) :   1.1001
B( 40-C , 44-N ) :   1.5059 B( 41-C , 42-N ) :   1.5119 B( 42-N , 43-S ) :   1.2926
B( 42-N , 44-N ) :   0.1546 B( 43-S , 44-N ) :   1.2744 B( 45-C , 46-C ) :   1.4710
B( 45-C , 49-S ) :   1.0773 B( 46-C , 47-C ) :   1.2703 B( 46-C , 91-H ) :   0.9896
B( 47-C , 48-C ) :   1.4175 B( 47-C , 52-S ) :   1.0438 B( 48-C , 49-S ) :   0.9881
B( 48-C , 50-C ) :   1.2750 B( 50-C , 51-C ) :   1.3029 B( 50-C , 55-N ) :   1.2614
B( 51-C , 52-S ) :   1.0051 B( 51-C , 53-C ) :   1.3701 B( 53-C , 54-C ) :   1.3321
B( 53-C , 92-H ) :   1.0039 B( 54-C , 55-N ) :   1.0946 B( 54-C , 57-C ) :   1.2307
B( 55-N , 56-C ) :   0.9586 B( 56-C , 93-H ) :   0.9555 B( 56-C , 94-H ) :   0.9640
B( 56-C , 95-H ) :   0.9619 B( 57-C , 58-C ) :   1.5043 B( 57-C , 96-H ) :   0.9113
B( 58-C , 59-C ) :   1.1144 B( 58-C , 75-C ) :   0.9457 B( 59-C , 60-C ) :   1.5813
B( 59-C , 65-C ) :   0.9763 B( 60-C , 61-C ) :   1.1539 B( 60-C , 63-C ) :   1.1554
B( 61-C , 62-N ) :   2.9624 B( 63-C , 64-N ) :   2.9481 B( 65-C , 66-C ) :   1.2178
B( 65-C , 74-C ) :   1.4569 B( 66-C , 67-C ) :   1.4779 B( 66-C , 75-C ) :   0.9472
B( 67-C , 68-C ) :   1.1717 B( 67-C , 97-H ) :   1.0154 B( 68-C , 69-C ) :   1.2464
B( 68-C , 73-C ) :   1.2619 B( 69-C , 70-C ) :   1.4879 B( 69-C , 98-H ) :   0.9966
B( 70-C , 71-C ) :   1.2628 B( 70-C , 99-H ) :   0.9877 B( 71-C , 72-C ) :   1.4875
B( 71-C ,100-H ) :   0.9880 B( 72-C , 73-C ) :   1.2427 B( 72-C ,101-H ) :   0.9965
B( 73-C , 74-C ) :   1.2004 B( 74-C ,102-H ) :   0.9886 B( 75-C , 76-O ) :   2.1761

-----------------------------------------------------------------------------
         ABSORPTION SPECTRUM VIA TRANSITION ELECTRIC DIPOLE MOMENTS
-----------------------------------------------------------------------------
State   Energy  Wavelength   fosc         T2         TX        TY        TZ
        (cm-1)    (nm)                  (au**2)     (au)      (au)      (au)
-----------------------------------------------------------------------------
   0   10059.1    994.1   1.123186129  36.75925  -5.60852   1.98955  -1.15994
   1   16656.2    600.4   0.267812730   5.29337  -1.22059   0.02451   1.95011
   2   18055.2    553.9   0.442236475   8.06356  -1.67775   0.86948  -2.11960
   3   19575.9    510.8   0.148959504   2.50508  -1.44696   0.52118   0.37385
   4   19910.9    502.2   0.631211120  10.43661  -2.89178   0.37092   1.39163
   5   20218.9    494.6   0.033301670   0.54223  -0.21995   0.01948  -0.70248
   6   24005.4    416.6   0.001037825   0.01423  -0.10145  -0.05550   0.02935
   7   24298.7    411.5   0.015075661   0.20425  -0.24931  -0.29472  -0.23502
   8   24682.3    405.1   0.007162163   0.09553  -0.30524  -0.03570  -0.03289
   9   25742.8    388.5   0.077911269   0.99637   0.84372  -0.33312   0.41657
  10   25944.5    385.4   0.049541698   0.62864   0.68269  -0.40315   0.00637
  11   26272.8    380.6   0.092928863   1.16445   0.91387   0.02529  -0.57328
  12   26320.0    379.9   0.012378952   0.15484  -0.02773   0.32540  -0.21950
  13   26913.9    371.6   0.236998682   2.89898   1.39362  -0.64647   0.73409
  14   27156.2    368.2   0.178523072   2.16421   1.17581  -0.15908   0.86969
  15   27294.3    366.4   0.151273915   1.82460   0.49213   0.16117   1.24757
  16   27907.1    358.3   0.048019402   0.56647  -0.33943  -0.17876   0.64754
  17   28322.4    353.1   0.064326297   0.74771  -0.79175  -0.00442  -0.34759
  18   28877.7    346.3   0.033127669   0.37766   0.60995  -0.05026   0.05564
  19   29241.9    342.0   0.057729577   0.64993  -0.02920  -0.06357  -0.80314
  20   29586.1    338.0   0.007149754   0.07956  -0.11913   0.17143  -0.18967
  21   30122.7    332.0   0.062902682   0.68747   0.05692  -0.29440  -0.77302
  22   30725.0    325.5   0.055806754   0.59796   0.54759   0.44326  -0.31879
  23   30952.0    323.1   0.125659495   1.33654   0.88812   0.01517   0.73996
  24   31340.8    319.1   0.004299012   0.04516  -0.05455  -0.02907  -0.20332
  25   31727.6    315.2   0.379431200   3.93706  -1.71216   0.76132  -0.65266
  26   32369.9    308.9   0.263550430   2.68039  -1.60739   0.29772  -0.08982
  27   32677.0    306.0   0.051330481   0.51714  -0.26669   0.66716   0.03020
  28   32819.4    304.7   0.125757458   1.26147  -0.97238   0.17799  -0.53318
  29   33081.1    302.3   0.099514549   0.99033   0.13858   0.25119   0.95291
  30   33153.4    301.6   0.093297696   0.92644   0.31860   0.19116   0.88791
  31   33454.5    298.9   0.019940875   0.19623   0.17666  -0.37988   0.14391
  32   33671.9    297.0   0.053223057   0.52037  -0.11392  -0.32006  -0.63636
  33   33936.5    294.7   0.069300935   0.67228   0.11604  -0.61000  -0.53545
  34   34160.6    292.7   0.040356141   0.38892  -0.27477   0.07354   0.55499
  35   34254.6    291.9   0.049257626   0.47340  -0.49530   0.06855   0.47264
  36   34625.3    288.8   0.199826283   1.89992  -0.84918  -0.05114  -1.08452
  37   34723.7    288.0   0.114859978   1.08898   0.67149  -0.06089   0.79647
  38   35116.7    284.8   0.123112361   1.15415  -0.51972  -0.11121  -0.93364
  39   35202.8    284.1   0.083216535   0.77823   0.10077  -0.25227   0.83931
  40   35285.2    283.4   0.078266958   0.73023  -0.05921  -0.22517  -0.82221
  41   35570.6    281.1   0.039611948   0.36662  -0.14501  -0.33623  -0.48222
  42   35636.1    280.6   0.160696496   1.48454   0.26201   0.64479   1.00007
  43   35896.0    278.6   0.010023821   0.09193   0.17512  -0.24573  -0.02972
  44   35954.7    278.1   0.056045003   0.51317  -0.57945   0.11520  -0.40514
  45   36209.5    276.2   0.042169858   0.38340  -0.53423   0.07137  -0.30482
  46   36452.0    274.3   0.111964673   1.01120   0.80253  -0.38958   0.46408
  47   36804.6    271.7   0.842014865   7.53170  -0.99641  -1.27702   2.21542
  48   36958.4    270.6   0.009836983   0.08762  -0.06034   0.21182  -0.19778
  49   37442.0    267.1   0.222816815   1.95914   0.90080  -0.37887   1.00207
  50   37667.3    265.5   0.015147669   0.13239   0.34853  -0.09383   0.04597
  51   37940.4    263.6   0.048362326   0.41964   0.09168  -0.35521  -0.53391
  52   38483.0    259.9   0.003176191   0.02717  -0.13660  -0.00709   0.09199
  53   39102.9    255.7   0.014672697   0.12353  -0.31624  -0.13079  -0.08010
  54   39334.8    254.2   0.015830647   0.13249  -0.32701   0.15590  -0.03543
  55   39484.0    253.3   0.011370416   0.09480   0.01496  -0.24563   0.18506
  56   39660.5    252.1   0.024527360   0.20360   0.43772   0.04701   0.09893
  57   39717.1    251.8   0.044498956   0.36885   0.58622  -0.02230  -0.15716
  58   39834.4    251.0   0.096663801   0.79888  -0.64102  -0.14527   0.60570
  59   40043.8    249.7   0.064307782   0.52869  -0.09212  -0.41798   0.58780
  60   40141.9    249.1   0.045991713   0.37719   0.12409   0.00198  -0.60149
  61   40187.0    248.8   0.031101119   0.25478  -0.41165  -0.16556   0.24065

FINAL SINGLE POINT ENERGY     -4986.492041800641

DIPOLE MOMENT
-------------
                                X             Y             Z
Electronic contribution:    -28.09868       7.96894      31.66801
Nuclear contribution   :     27.42270      -9.44772     -30.67768
                        -----------------------------------------
Total Dipole Moment    :     -0.67598      -1.47878       0.99033
                        -----------------------------------------
Magnitude (a.u.)       :      1.90381
Magnitude (Debye)      :      4.83910

Rotational constants in cm-1:     0.001427     0.000193     0.000174
Rotational constants in MHz :    42.784419     5.786737     5.205890

                             ****ORCA TERMINATED NORMALLY****
TOTAL RUN TIME: 0 days 0 hours 11 minutes 8 seconds 632 msec
