                         Program Version 4.2.0 -  RELEASE  -
|  1> # ORCA input file
|  2> # SCF done       -167.474321429740          0.000374564603
|  3> ! CAM-B3LYP def2-SVP def2/J RIJCOSX Grid4 TightSCF
|  4> %maxcore 5000
|  5> %tddft
|  6>     Mode sTDDFT
|  7>     Ethresh 5.0
|  8>     maxcore 5000
|  9> end
| 10>
| 11> %pal
| 12>   nprocs 6
| 13>   end
| 14> * xyz 0 1
| 15>    C       -7.43680        -5.32468         5.00708
| 16>    N       -7.74712        -5.26559         3.74114
| 17>    N       -6.89009        -5.54928         2.79522
| 18>    C       -5.64481        -5.91905         3.03894
| 19>    C       -5.19196        -6.02044         4.38527
| 20>    C       -6.13991        -5.70551         5.41326
| 21>    N       -5.61387        -5.83088         6.63178
| 22>    S       -4.08540        -6.29716         6.48581
| 23>    N       -4.00721        -6.36500         4.88109
| 24>    C       -4.81049        -6.19614         1.91366
| 25>    C       -3.48694        -6.59069         1.90297
| 26>    C       -3.01657        -6.75418         0.60173
| 27>    C       -4.00109        -6.47850        -0.37171
| 28>    S       -5.49599        -6.02267         0.31270
| 29>    C       -3.42867        -6.66175        -1.65412
| 30>    C       -2.08305        -7.05325        -1.49212
| 31>    C       -1.78307        -7.12475        -0.06918
| 32>    C       -0.59709        -7.46215         0.51331
| 33>    C        0.54963        -7.80329        -0.23598
| 34>    N        1.49312        -8.08146        -0.82459
| 35>    C       -0.42990        -7.49206         1.91443
| 36>    N       -0.28195        -7.51901         3.05120
| 37>    C       -1.42787        -7.24827        -2.70007
| 38>    C       -2.25777        -7.00792        -3.78980
| 39>    S       -3.87948        -6.53689        -3.29485
| 40>    C       -1.94795        -7.08051        -5.17596
| 41>    C       -0.68308        -7.43948        -5.70237
| 42>    C       -0.43643        -7.45427        -7.11736
| 43>    N        0.78585        -7.79480        -7.57435
| 44>    C        1.72288        -8.10885        -6.74128
| 45>    C        1.47763        -8.09978        -5.34271
| 46>    N        0.32096        -7.77545        -4.86513
| 47>    F        2.43456        -8.42746        -4.48398
| 48>    F        2.91129        -8.43850        -7.23394
| 49>    C       -1.41365        -7.12260        -8.08330
| 50>    C       -2.68447        -6.78722        -7.56216
| 51>    C       -2.93232        -6.77027        -6.14240
| 52>    N       -4.19049        -6.42399        -5.86717
| 53>    S       -4.98034        -6.15091        -7.23836
| 54>    N       -3.77741        -6.45239        -8.25012
| 55>    C       -1.12174        -7.11865        -9.47283
| 56>    C       -2.00002        -6.79431       -10.50173
| 57>    C       -1.39202        -6.86935       -11.74632
| 58>    C       -0.03734        -7.25643       -11.67037
| 59>    S        0.47893        -7.52729       -10.06467
| 60>    C        0.48982        -7.29227       -12.98504
| 61>    C       -0.53119        -6.92671       -13.88978
| 62>    C       -1.74460        -6.65246       -13.14140
| 63>    C       -2.95753        -6.27045       -13.63610
| 64>    C       -3.18453        -6.08872       -15.01681
| 65>    N       -3.38032        -5.93677       -16.13647
| 66>    C       -4.06905        -6.03055       -12.80080
| 67>    N       -4.97913        -5.83184       -12.13193
| 68>    C       -0.09961        -6.92475       -15.21459
| 69>    C        1.23046        -7.28507       -15.31010
| 70>    S        1.96883        -7.63387       -13.76226
| 71>    C        2.03965        -7.39734       -16.48142
| 72>    N        3.29601        -7.77271       -16.31559
| 73>    N        4.13583        -7.90995       -17.30799
| 74>    C        3.79695        -7.68389       -18.54753
| 75>    C        2.48564        -7.27486       -18.87174
| 76>    C        1.55518        -7.12265       -17.79195
| 77>    N        0.35480        -6.73438       -18.21214
| 78>    S        0.39966        -6.57804       -19.81220
| 79>    N        1.93163        -6.99151       -20.05071
| 80>    H       -8.20878        -5.07172         5.71667
| 81>    H       -2.92244        -6.74104         2.80554
| 82>    H       -0.40317        -7.54636        -2.81639
| 83>    H       -3.02163        -6.52006       -10.31390
| 84>    H       -0.69471        -6.67896       -16.07566
| 85>    H        4.55715        -7.82263       -19.30004
| 86> *
| 87>
| 88>                          ****END OF INPUT****

CARTESIAN COORDINATES (ANGSTROEM)
---------------------------------
  C     -7.436800   -5.324680    5.007080
  N     -7.747120   -5.265590    3.741140
  N     -6.890090   -5.549280    2.795220
  C     -5.644810   -5.919050    3.038940
  C     -5.191960   -6.020440    4.385270
  C     -6.139910   -5.705510    5.413260
  N     -5.613870   -5.830880    6.631780
  S     -4.085400   -6.297160    6.485810
  N     -4.007210   -6.365000    4.881090
  C     -4.810490   -6.196140    1.913660
  C     -3.486940   -6.590690    1.902970
  C     -3.016570   -6.754180    0.601730
  C     -4.001090   -6.478500   -0.371710
  S     -5.495990   -6.022670    0.312700
  C     -3.428670   -6.661750   -1.654120
  C     -2.083050   -7.053250   -1.492120
  C     -1.783070   -7.124750   -0.069180
  C     -0.597090   -7.462150    0.513310
  C      0.549630   -7.803290   -0.235980
  N      1.493120   -8.081460   -0.824590
  C     -0.429900   -7.492060    1.914430
  N     -0.281950   -7.519010    3.051200
  C     -1.427870   -7.248270   -2.700070
  C     -2.257770   -7.007920   -3.789800
  S     -3.879480   -6.536890   -3.294850
  C     -1.947950   -7.080510   -5.175960
  C     -0.683080   -7.439480   -5.702370
  C     -0.436430   -7.454270   -7.117360
  N      0.785850   -7.794800   -7.574350
  C      1.722880   -8.108850   -6.741280
  C      1.477630   -8.099780   -5.342710
  N      0.320960   -7.775450   -4.865130
  F      2.434560   -8.427460   -4.483980
  F      2.911290   -8.438500   -7.233940
  C     -1.413650   -7.122600   -8.083300
  C     -2.684470   -6.787220   -7.562160
  C     -2.932320   -6.770270   -6.142400
  N     -4.190490   -6.423990   -5.867170
  S     -4.980340   -6.150910   -7.238360
  N     -3.777410   -6.452390   -8.250120
  C     -1.121740   -7.118650   -9.472830
  C     -2.000020   -6.794310  -10.501730
  C     -1.392020   -6.869350  -11.746320
  C     -0.037340   -7.256430  -11.670370
  S      0.478930   -7.527290  -10.064670
  C      0.489820   -7.292270  -12.985040
  C     -0.531190   -6.926710  -13.889780
  C     -1.744600   -6.652460  -13.141400
  C     -2.957530   -6.270450  -13.636100
  C     -3.184530   -6.088720  -15.016810
  N     -3.380320   -5.936770  -16.136470
  C     -4.069050   -6.030550  -12.800800
  N     -4.979130   -5.831840  -12.131930
  C     -0.099610   -6.924750  -15.214590
  C      1.230460   -7.285070  -15.310100
  S      1.968830   -7.633870  -13.762260
  C      2.039650   -7.397340  -16.481420
  N      3.296010   -7.772710  -16.315590
  N      4.135830   -7.909950  -17.307990
  C      3.796950   -7.683890  -18.547530
  C      2.485640   -7.274860  -18.871740
  C      1.555180   -7.122650  -17.791950
  N      0.354800   -6.734380  -18.212140
  S      0.399660   -6.578040  -19.812200
  N      1.931630   -6.991510  -20.050710
  H     -8.208780   -5.071720    5.716670
  H     -2.922440   -6.741040    2.805540
  H     -0.403170   -7.546360   -2.816390
  H     -3.021630   -6.520060  -10.313900
  H     -0.694710   -6.678960  -16.075660
  H      4.557150   -7.822630  -19.300040

 Total Charge           Charge          ....    0
 Multiplicity           Mult            ....    1
 Number of Electrons    NEL             ....  488
 Basis Dimension        Dim             ....  968

ORBITAL ENERGIES
----------------

  NO   OCC          E(Eh)            E(eV)
   0   2.0000     -89.051603     -2423.2173
   1   2.0000     -89.047799     -2423.1138
   2   2.0000     -89.047526     -2423.1064
   3   2.0000     -88.985103     -2421.4078
   4   2.0000     -88.985022     -2421.4056
   5   2.0000     -88.983442     -2421.3626
   6   2.0000     -88.982909     -2421.3480
   7   2.0000     -24.825768      -675.5435
   8   2.0000     -24.819380      -675.3697
   9   2.0000     -14.466795      -393.6615
  10   2.0000     -14.462921      -393.5561
  11   2.0000     -14.462703      -393.5502
  12   2.0000     -14.461600      -393.5201
  13   2.0000     -14.460508      -393.4904
  14   2.0000     -14.460424      -393.4882
  15   2.0000     -14.460187      -393.4817
  16   2.0000     -14.460100      -393.4793
  17   2.0000     -14.445622      -393.0854
  18   2.0000     -14.445519      -393.0826
  19   2.0000     -14.444037      -393.0422
  20   2.0000     -14.443920      -393.0390
  21   2.0000     -14.426289      -392.5593
  22   2.0000     -14.426085      -392.5537
  23   2.0000     -14.425395      -392.5350
  24   2.0000     -14.424520      -392.5111
  25   2.0000     -10.442149      -284.1453
  26   2.0000     -10.438598      -284.0487
  27   2.0000     -10.359476      -281.8957
  28   2.0000     -10.358992      -281.8825
  29   2.0000     -10.355236      -281.7803
  30   2.0000     -10.353496      -281.7329
  31   2.0000     -10.348902      -281.6079
  32   2.0000     -10.347790      -281.5777
  33   2.0000     -10.347787      -281.5776
  34   2.0000     -10.347053      -281.5576
  35   2.0000     -10.346912      -281.5538
  36   2.0000     -10.346828      -281.5515
  37   2.0000     -10.345464      -281.5144
  38   2.0000     -10.345365      -281.5117
  39   2.0000     -10.342470      -281.4329
  40   2.0000     -10.342350      -281.4297
  41   2.0000     -10.330729      -281.1134
  42   2.0000     -10.330639      -281.1110
  43   2.0000     -10.326997      -281.0119
  44   2.0000     -10.326643      -281.0022
  45   2.0000     -10.325932      -280.9829
  46   2.0000     -10.324979      -280.9570
  47   2.0000     -10.324884      -280.9544
  48   2.0000     -10.324878      -280.9542
  49   2.0000     -10.324811      -280.9524
  50   2.0000     -10.324789      -280.9518
  51   2.0000     -10.324449      -280.9426
  52   2.0000     -10.323797      -280.9248
  53   2.0000     -10.323325      -280.9120
  54   2.0000     -10.322096      -280.8785
  55   2.0000     -10.317614      -280.7565
  56   2.0000     -10.317439      -280.7518
  57   2.0000     -10.300005      -280.2774
  58   2.0000     -10.299533      -280.2645
  59   2.0000     -10.299399      -280.2609
  60   2.0000     -10.299029      -280.2508
  61   2.0000     -10.298175      -280.2276
  62   2.0000     -10.298072      -280.2248
  63   2.0000     -10.294927      -280.1392
  64   2.0000     -10.294085      -280.1163
  65   2.0000      -8.142581      -221.5709
  66   2.0000      -8.139450      -221.4857
  67   2.0000      -8.139216      -221.4793
  68   2.0000      -8.078946      -219.8393
  69   2.0000      -8.078860      -219.8370
  70   2.0000      -8.076088      -219.7615
  71   2.0000      -8.076048      -219.7604
  72   2.0000      -6.113698      -166.3622
  73   2.0000      -6.110539      -166.2762
  74   2.0000      -6.110292      -166.2695
  75   2.0000      -6.105864      -166.1490
  76   2.0000      -6.105345      -166.1349
  77   2.0000      -6.102640      -166.0613
  78   2.0000      -6.102407      -166.0549
  79   2.0000      -6.102198      -166.0493
  80   2.0000      -6.101961      -166.0428
  81   2.0000      -6.048154      -164.5786
  82   2.0000      -6.048079      -164.5766
  83   2.0000      -6.045550      -164.5078
  84   2.0000      -6.045469      -164.5056
  85   2.0000      -6.043823      -164.4608
  86   2.0000      -6.043776      -164.4595
  87   2.0000      -6.041581      -164.3998
  88   2.0000      -6.041460      -164.3965
  89   2.0000      -6.040844      -164.3797
  90   2.0000      -6.040834      -164.3794
  91   2.0000      -6.038643      -164.3198
  92   2.0000      -6.038521      -164.3165
  93   2.0000      -1.352178       -36.7946
  94   2.0000      -1.336994       -36.3815
  95   2.0000      -1.150342       -31.3024
  96   2.0000      -1.150172       -31.2978
  97   2.0000      -1.149421       -31.2773
  98   2.0000      -1.123737       -30.5784
  99   2.0000      -1.121127       -30.5074
 100   2.0000      -1.120909       -30.5015
 101   2.0000      -1.050141       -28.5758
 102   2.0000      -1.039888       -28.2968
 103   2.0000      -1.039181       -28.2775
 104   2.0000      -1.017944       -27.6997
 105   2.0000      -1.017262       -27.6811
 106   2.0000      -1.009080       -27.4585
 107   2.0000      -1.005209       -27.3531
 108   2.0000      -1.003439       -27.3050
 109   2.0000      -1.002536       -27.2804
 110   2.0000      -1.001942       -27.2642
 111   2.0000      -0.996222       -27.1086
 112   2.0000      -0.988153       -26.8890
 113   2.0000      -0.977601       -26.6019
 114   2.0000      -0.957965       -26.0676
 115   2.0000      -0.952916       -25.9302
 116   2.0000      -0.935186       -25.4477
 117   2.0000      -0.934851       -25.4386
 118   2.0000      -0.919096       -25.0099
 119   2.0000      -0.918913       -25.0049
 120   2.0000      -0.911680       -24.8081
 121   2.0000      -0.898445       -24.4479
 122   2.0000      -0.894592       -24.3431
 123   2.0000      -0.880643       -23.9635
 124   2.0000      -0.864273       -23.5181
 125   2.0000      -0.860294       -23.4098
 126   2.0000      -0.850143       -23.1336
 127   2.0000      -0.849143       -23.1064
 128   2.0000      -0.828879       -22.5550
 129   2.0000      -0.817360       -22.2415
 130   2.0000      -0.811209       -22.0741
 131   2.0000      -0.796069       -21.6621
 132   2.0000      -0.785153       -21.3651
 133   2.0000      -0.775147       -21.0928
 134   2.0000      -0.772304       -21.0155
 135   2.0000      -0.766801       -20.8657
 136   2.0000      -0.762448       -20.7473
 137   2.0000      -0.749819       -20.4036
 138   2.0000      -0.744908       -20.2700
 139   2.0000      -0.738955       -20.1080
 140   2.0000      -0.728269       -19.8172
 141   2.0000      -0.712711       -19.3939
 142   2.0000      -0.701106       -19.0781
 143   2.0000      -0.692082       -18.8325
 144   2.0000      -0.689953       -18.7746
 145   2.0000      -0.687763       -18.7150
 146   2.0000      -0.681216       -18.5368
 147   2.0000      -0.679441       -18.4885
 148   2.0000      -0.674953       -18.3664
 149   2.0000      -0.666713       -18.1422
 150   2.0000      -0.658926       -17.9303
 151   2.0000      -0.647984       -17.6326
 152   2.0000      -0.645200       -17.5568
 153   2.0000      -0.644471       -17.5370
 154   2.0000      -0.634917       -17.2770
 155   2.0000      -0.631646       -17.1880
 156   2.0000      -0.627017       -17.0620
 157   2.0000      -0.622611       -16.9421
 158   2.0000      -0.613105       -16.6834
 159   2.0000      -0.611890       -16.6504
 160   2.0000      -0.611642       -16.6436
 161   2.0000      -0.610302       -16.6072
 162   2.0000      -0.602623       -16.3982
 163   2.0000      -0.600354       -16.3365
 164   2.0000      -0.578080       -15.7303
 165   2.0000      -0.575490       -15.6599
 166   2.0000      -0.575124       -15.6499
 167   2.0000      -0.574958       -15.6454
 168   2.0000      -0.571873       -15.5615
 169   2.0000      -0.564765       -15.3680
 170   2.0000      -0.561806       -15.2875
 171   2.0000      -0.561620       -15.2825
 172   2.0000      -0.556120       -15.1328
 173   2.0000      -0.547451       -14.8969
 174   2.0000      -0.545770       -14.8512
 175   2.0000      -0.543165       -14.7803
 176   2.0000      -0.542251       -14.7554
 177   2.0000      -0.529128       -14.3983
 178   2.0000      -0.528749       -14.3880
 179   2.0000      -0.520767       -14.1708
 180   2.0000      -0.518431       -14.1072
 181   2.0000      -0.515169       -14.0184
 182   2.0000      -0.514612       -14.0033
 183   2.0000      -0.514270       -13.9940
 184   2.0000      -0.502325       -13.6690
 185   2.0000      -0.498485       -13.5645
 186   2.0000      -0.498027       -13.5520
 187   2.0000      -0.497294       -13.5321
 188   2.0000      -0.494162       -13.4468
 189   2.0000      -0.492604       -13.4044
 190   2.0000      -0.491823       -13.3832
 191   2.0000      -0.491293       -13.3688
 192   2.0000      -0.488986       -13.3060
 193   2.0000      -0.487404       -13.2629
 194   2.0000      -0.477923       -13.0049
 195   2.0000      -0.475507       -12.9392
 196   2.0000      -0.473032       -12.8719
 197   2.0000      -0.466982       -12.7072
 198   2.0000      -0.459568       -12.5055
 199   2.0000      -0.458233       -12.4692
 200   2.0000      -0.456789       -12.4299
 201   2.0000      -0.455065       -12.3830
 202   2.0000      -0.452883       -12.3236
 203   2.0000      -0.451395       -12.2831
 204   2.0000      -0.446070       -12.1382
 205   2.0000      -0.444658       -12.0997
 206   2.0000      -0.443232       -12.0610
 207   2.0000      -0.438419       -11.9300
 208   2.0000      -0.437874       -11.9151
 209   2.0000      -0.436760       -11.8849
 210   2.0000      -0.436678       -11.8826
 211   2.0000      -0.435436       -11.8488
 212   2.0000      -0.433073       -11.7845
 213   2.0000      -0.432541       -11.7700
 214   2.0000      -0.430499       -11.7145
 215   2.0000      -0.427038       -11.6203
 216   2.0000      -0.423753       -11.5309
 217   2.0000      -0.422532       -11.4977
 218   2.0000      -0.410524       -11.1709
 219   2.0000      -0.405096       -11.0232
 220   2.0000      -0.402941       -10.9646
 221   2.0000      -0.401950       -10.9376
 222   2.0000      -0.392975       -10.6934
 223   2.0000      -0.392924       -10.6920
 224   2.0000      -0.389543       -10.6000
 225   2.0000      -0.389263       -10.5924
 226   2.0000      -0.383477       -10.4349
 227   2.0000      -0.379547       -10.3280
 228   2.0000      -0.376348       -10.2410
 229   2.0000      -0.373590       -10.1659
 230   2.0000      -0.372363       -10.1325
 231   2.0000      -0.370872       -10.0919
 232   2.0000      -0.356385        -9.6977
 233   2.0000      -0.351405        -9.5622
 234   2.0000      -0.343076        -9.3356
 235   2.0000      -0.342645        -9.3238
 236   2.0000      -0.340540        -9.2666
 237   2.0000      -0.318820        -8.6755
 238   2.0000      -0.316077        -8.6009
 239   2.0000      -0.308354        -8.3907
 240   2.0000      -0.308289        -8.3890
 241   2.0000      -0.307115        -8.3570
 242   2.0000      -0.275897        -7.5075
 243   2.0000      -0.239988        -6.5304
 244   0.0000      -0.126904        -3.4532
 245   0.0000      -0.100579        -2.7369
 246   0.0000      -0.094357        -2.5676
 247   0.0000      -0.084674        -2.3041
 248   0.0000      -0.084311        -2.2942

MULLIKEN ATOMIC CHARGES
-----------------------
   0 C :   -0.020940
   1 N :   -0.034641
   2 N :   -0.079203
   3 C :    0.028535
   4 C :    0.007565
   5 C :    0.048612
   6 N :   -0.253311
   7 S :    0.547080
   8 N :   -0.254125
   9 C :   -0.131816
  10 C :   -0.046140
  11 C :    0.006451
  12 C :   -0.085745
  13 S :    0.245915
  14 C :   -0.079329
  15 C :    0.044150
  16 C :    0.314387
  17 C :   -0.309089
  18 C :   -0.194273
  19 N :    0.178987
  20 C :   -0.191809
  21 N :    0.171095
  22 C :   -0.067129
  23 C :   -0.187461
  24 S :    0.208925
  25 C :    0.202662
  26 C :   -0.065321
  27 C :   -0.059645
  28 N :   -0.057561
  29 C :    0.155667
  30 C :    0.149315
  31 N :    0.003097
  32 F :   -0.126806
  33 F :   -0.131937
  34 C :    0.177468
  35 C :    0.001594
  36 C :   -0.027524
  37 N :   -0.340401
  38 S :    0.573476
  39 N :   -0.282946
  40 C :   -0.181685
  41 C :   -0.065308
  42 C :    0.039021
  43 C :   -0.075609
  44 S :    0.210269
  45 C :   -0.089157
  46 C :    0.006436
  47 C :    0.312864
  48 C :   -0.307340
  49 C :   -0.192202
  50 N :    0.172907
  51 C :   -0.189487
  52 N :    0.169320
  53 C :   -0.043859
  54 C :   -0.132249
  55 S :    0.248851
  56 C :    0.027892
  57 N :   -0.078973
  58 N :   -0.034836
  59 C :   -0.020844
  60 C :    0.048782
  61 C :    0.007085
  62 N :   -0.254297
  63 S :    0.546713
  64 N :   -0.253555
  65 H :    0.005490
  66 H :    0.017978
  67 H :    0.023829
  68 H :    0.020039
  69 H :    0.017563
  70 H :    0.006535
Sum of atomic charges:   -0.0000000

LOEWDIN ATOMIC CHARGES
----------------------
   0 C :    0.000684
   1 N :   -0.033200
   2 N :   -0.079340
   3 C :   -0.016009
   4 C :   -0.059991
   5 C :   -0.067763
   6 N :   -0.269709
   7 S :    0.681605
   8 N :   -0.267654
   9 C :   -0.184679
  10 C :   -0.007852
  11 C :   -0.074602
  12 C :   -0.168463
  13 S :    0.520438
  14 C :   -0.185397
  15 C :   -0.069578
  16 C :    0.080543
  17 C :   -0.104923
  18 C :   -0.019157
  19 N :   -0.031779
  20 C :   -0.017014
  21 N :   -0.035568
  22 C :   -0.013791
  23 C :   -0.162927
  24 S :    0.514978
  25 C :   -0.045772
  26 C :   -0.007066
  27 C :   -0.016124
  28 N :   -0.059183
  29 C :    0.065596
  30 C :    0.062404
  31 N :   -0.028142
  32 F :   -0.016483
  33 F :   -0.021762
  34 C :   -0.042086
  35 C :   -0.038639
  36 C :   -0.047407
  37 N :   -0.306292
  38 S :    0.690043
  39 N :   -0.269909
  40 C :   -0.166232
  41 C :   -0.012760
  42 C :   -0.070232
  43 C :   -0.185317
  44 S :    0.514232
  45 C :   -0.168069
  46 C :   -0.075135
  47 C :    0.081883
  48 C :   -0.106737
  49 C :   -0.017670
  50 N :   -0.035525
  51 C :   -0.016277
  52 N :   -0.037618
  53 C :   -0.007610
  54 C :   -0.184698
  55 S :    0.523281
  56 C :   -0.016163
  57 N :   -0.078934
  58 N :   -0.032948
  59 C :    0.000784
  60 C :   -0.067807
  61 C :   -0.060214
  62 N :   -0.267936
  63 S :    0.681269
  64 N :   -0.269529
  65 H :    0.035313
  66 H :    0.041196
  67 H :    0.037431
  68 H :    0.037283
  69 H :    0.041258
  70 H :    0.035448

  Mayer bond orders larger than 0.100000
B(  0-C ,  1-N ) :   1.7376 B(  0-C ,  3-C ) :   0.1039 B(  0-C ,  5-C ) :   1.1256
B(  0-C , 65-H ) :   1.0150 B(  1-N ,  2-N ) :   1.2005 B(  2-N ,  3-C ) :   1.7413
B(  3-C ,  4-C ) :   1.1157 B(  3-C ,  9-C ) :   1.1513 B(  4-C ,  5-C ) :   1.2004
B(  4-C ,  8-N ) :   1.5516 B(  5-C ,  6-N ) :   1.5015 B(  6-N ,  7-S ) :   1.2982
B(  6-N ,  8-N ) :   0.1460 B(  7-S ,  8-N ) :   1.2710 B(  9-C , 10-C ) :   1.4821
B(  9-C , 13-S ) :   1.0839 B( 10-C , 11-C ) :   1.2670 B( 10-C , 66-H ) :   0.9833
B( 11-C , 12-C ) :   1.4189 B( 11-C , 16-C ) :   0.9975 B( 12-C , 13-S ) :   1.1291
B( 12-C , 14-C ) :   1.1955 B( 14-C , 15-C ) :   1.4043 B( 14-C , 24-S ) :   1.1000
B( 15-C , 16-C ) :   0.9873 B( 15-C , 22-C ) :   1.2733 B( 16-C , 17-C ) :   1.7072
B( 17-C , 18-C ) :   1.1400 B( 17-C , 20-C ) :   1.1358 B( 18-C , 19-N ) :   2.9912
B( 20-C , 21-N ) :   2.9909 B( 22-C , 23-C ) :   1.4102 B( 22-C , 67-H ) :   0.9859
B( 23-C , 24-S ) :   1.1026 B( 23-C , 25-C ) :   1.1829 B( 25-C , 26-C ) :   1.2940
B( 25-C , 34-C ) :   0.1287 B( 25-C , 36-C ) :   1.1874 B( 26-C , 27-C ) :   1.1161
B( 26-C , 31-N ) :   1.4371 B( 27-C , 28-N ) :   1.3742 B( 27-C , 34-C ) :   1.2920
B( 28-N , 29-C ) :   1.6517 B( 29-C , 30-C ) :   1.1043 B( 29-C , 33-F ) :   1.1920
B( 30-C , 31-N ) :   1.6588 B( 30-C , 32-F ) :   1.1876 B( 34-C , 35-C ) :   1.1984
B( 34-C , 40-C ) :   1.1913 B( 35-C , 36-C ) :   1.1147 B( 35-C , 39-N ) :   1.5073
B( 36-C , 37-N ) :   1.4674 B( 37-N , 38-S ) :   1.2692 B( 37-N , 39-N ) :   0.1512
B( 38-S , 39-N ) :   1.2890 B( 40-C , 41-C ) :   1.4187 B( 40-C , 44-S ) :   1.0917
B( 41-C , 42-C ) :   1.2816 B( 41-C , 68-H ) :   0.9808 B( 42-C , 43-C ) :   1.4077
B( 42-C , 47-C ) :   0.9863 B( 43-C , 44-S ) :   1.0907 B( 43-C , 45-C ) :   1.1980
B( 45-C , 46-C ) :   1.4166 B( 45-C , 55-S ) :   1.1306 B( 46-C , 47-C ) :   0.9974
B( 46-C , 53-C ) :   1.2689 B( 47-C , 48-C ) :   1.7065 B( 48-C , 49-C ) :   1.1354
B( 48-C , 51-C ) :   1.1401 B( 49-C , 50-N ) :   2.9928 B( 51-C , 52-N ) :   2.9857
B( 53-C , 54-C ) :   1.4833 B( 53-C , 69-H ) :   0.9830 B( 54-C , 55-S ) :   1.0851
B( 54-C , 56-C ) :   1.1492 B( 56-C , 57-N ) :   1.7414 B( 56-C , 59-C ) :   0.1037
B( 56-C , 61-C ) :   1.1154 B( 57-N , 58-N ) :   1.2012 B( 58-N , 59-C ) :   1.7368
B( 59-C , 60-C ) :   1.1251 B( 59-C , 70-H ) :   1.0151 B( 60-C , 61-C ) :   1.2012
B( 60-C , 64-N ) :   1.5009 B( 61-C , 62-N ) :   1.5520 B( 62-N , 63-S ) :   1.2712
B( 62-N , 64-N ) :   0.1462 B( 63-S , 64-N ) :   1.2987

-----------------------------------------------------------------------------
         ABSORPTION SPECTRUM VIA TRANSITION ELECTRIC DIPOLE MOMENTS
-----------------------------------------------------------------------------
State   Energy  Wavelength   fosc         T2         TX        TY        TZ
        (cm-1)    (nm)                  (au**2)     (au)      (au)      (au)
-----------------------------------------------------------------------------
   0    9662.8   1034.9   0.931791375  31.74624  -1.43293   0.20653   5.44521
   1   13602.0    735.2   0.002082694   0.05041  -0.12237   0.12261   0.14283
   2   14401.3    694.4   0.002545390   0.05819  -0.14269   0.05165  -0.18751
   3   18331.5    545.5   0.003411531   0.06127  -0.14100   0.17974  -0.09528
   4   20719.0    482.6   0.897622269  14.26269   1.61529  -0.33148  -3.39759
   5   20806.2    480.6   0.000023384   0.00037  -0.00907  -0.01029   0.01349
   6   20865.2    479.3   0.000015046   0.00024   0.00800   0.01212  -0.00515
   7   20951.2    477.3   0.004803688   0.07548   0.14112  -0.22962  -0.05332
   8   23661.3    422.6   0.019779532   0.27520  -0.40948   0.10504   0.31063
   9   24954.7    400.7   0.002207715   0.02912  -0.09715   0.04155   0.13402
  10   25682.0    389.4   0.100329009   1.28610  -0.15756   0.09275  -1.11923
  11   25972.2    385.0   0.007268510   0.09213   0.24469  -0.06177   0.16865
  12   26538.8    376.8   0.031785936   0.39430  -0.41985   0.11544   0.45244
  13   26913.9    371.6   0.034838180   0.42614   0.55903  -0.14291  -0.30529
  14   28364.4    352.6   0.000148229   0.00172   0.02057   0.03600  -0.00099
  15   28531.9    350.5   0.000166184   0.00192   0.02012   0.03826  -0.00698
  16   29682.4    336.9   0.097104833   1.07700   0.90705  -0.26384   0.42971
  17   29757.6    336.0   0.058323822   0.64524  -0.69961   0.24097  -0.31261
  18   29943.8    334.0   0.060701909   0.66738   0.77670  -0.17092   0.18680
  19   30694.3    325.8   0.304165538   3.26233   0.86007  -0.29404   1.56082
  20   30849.6    324.2   0.004751678   0.05071   0.05867  -0.09680   0.19467
  21   30903.4    323.6   0.046245577   0.49265  -0.23734   0.08789  -0.65467
  22   31372.4    318.8   1.290083757  13.53771  -1.22080   0.22455   3.46366
  23   31481.4    317.6   0.008619137   0.09013  -0.13235   0.05264   0.26428
  24   31494.8    317.5   0.003418751   0.03574   0.04317  -0.00406  -0.18400
  25   32263.9    309.9   0.000728767   0.00744   0.01770  -0.07915  -0.02929
  26   32436.5    308.3   0.473268145   4.80340   2.07659  -0.58851   0.38055
  27   32651.1    306.3   0.000221213   0.00223   0.04319  -0.00293   0.01888
  28   32658.4    306.2   0.000057758   0.00058  -0.01793   0.00049  -0.01613
  29   32994.4    303.1   0.021589671   0.21542   0.28688  -0.08175   0.35558
  30   33508.2    298.4   0.009632527   0.09464   0.27900  -0.12796  -0.02056
  31   34148.6    292.8   0.096004049   0.92553   0.36559  -0.22728   0.86036
  32   34333.1    291.3   0.006685586   0.06411  -0.04601   0.03964   0.24580
  33   34417.9    290.5   0.061273323   0.58609   0.74035  -0.19469  -0.00769
  34   34594.1    289.1   0.558140216   5.31150   2.18907  -0.71070   0.11981
  35   35261.6    283.6   0.106843569   0.99752  -0.91117   0.32968  -0.24206
  36   36291.0    275.6   0.117526367   1.06614  -0.48491   0.11016   0.90491
  37   36762.8    272.0   0.280370983   2.51073  -1.49880   0.35926  -0.36778
  38   37427.4    267.2   0.153769177   1.35256  -1.10250   0.30121  -0.21522
  39   37915.2    263.7   0.002217403   0.01925  -0.12962   0.04324   0.02413
  40   38067.4    262.7   0.020147824   0.17424  -0.34891   0.06679   0.21919
  41   38187.5    261.9   0.020579616   0.17742   0.14666  -0.05901  -0.39042
  42   38338.6    260.8   0.058898625   0.50576   0.67345  -0.15747  -0.16559
  43   38491.4    259.8   0.149694093   1.28031   0.74223  -0.17855  -0.83518
  44   38696.5    258.4   0.002212839   0.01883  -0.01374  -0.00600  -0.13639
  45   39075.6    255.9   0.004401399   0.03708   0.16054  -0.05121  -0.09321
  46   39401.0    253.8   0.000100216   0.00084  -0.00921  -0.02737   0.00184
  47   39546.5    252.9   0.000611731   0.00509  -0.02142  -0.06750  -0.00876
  48   39576.6    252.7   0.001868086   0.01554   0.05678   0.11089  -0.00425
  49   39641.1    252.3   0.004801484   0.03988  -0.17710   0.08556   0.03447
  50   39708.1    251.8   0.025812290   0.21400   0.03531   0.00046  -0.46126
  51   39993.3    250.0   0.002398579   0.01974  -0.03914  -0.13391  -0.01674
  52   40074.2    249.5   0.004004207   0.03289  -0.06851   0.01461  -0.16730
  53   40143.1    249.1   0.001877153   0.01539   0.03680   0.11846  -0.00291

FINAL SINGLE POINT ENERGY     -5386.636555438231

DIPOLE MOMENT
-------------
                                X             Y             Z
Electronic contribution:      8.29483      -3.52938       1.42762
Nuclear contribution   :     -8.77130       3.70909      -1.59702
                        -----------------------------------------
Total Dipole Moment    :     -0.47647       0.17971      -0.16940
                        -----------------------------------------
Magnitude (a.u.)       :      0.53667
Magnitude (Debye)      :      1.36410

Rotational constants in cm-1:     0.003152     0.000272     0.000251
Rotational constants in MHz :    94.482256     8.154415     7.515912

                             ****ORCA TERMINATED NORMALLY****
TOTAL RUN TIME: 0 days 0 hours 6 minutes 5 seconds 606 msec
