                         Program Version 4.2.0 -  RELEASE  -
|  1> # ORCA input file
|  2> # SCF done       -196.953160883840          0.000812648288
|  3> ! CAM-B3LYP def2-SVP def2/J RIJCOSX Grid4 TightSCF
|  4> %maxcore 5000
|  5> %tddft
|  6>     Mode sTDDFT
|  7>     Ethresh 5.0
|  8>     maxcore 5000
|  9> end
| 10>
| 11> %pal
| 12>   nprocs 6
| 13>   end
| 14> * xyz 0 1
| 15>    C       -4.49752         4.80100         1.26210
| 16>    C       -3.31829         4.03155         1.19794
| 17>    C       -2.07882         4.69867         1.38911
| 18>    C       -2.06294         6.07359         1.70441
| 19>    C       -3.24354         6.77905         1.80018
| 20>    C       -4.45986         6.13942         1.55963
| 21>    C       -0.78691         6.78012         1.92369
| 22>    O       -0.73613         7.95735         2.21541
| 23>    N        0.36501         6.02691         1.77939
| 24>    C        1.64511         6.68586         1.97800
| 25>    C        0.42282         4.68211         1.45432
| 26>    O        1.49432         4.12215         1.34958
| 27>    C       -0.86410         3.99769         1.24971
| 28>    C       -0.87733         2.66093         0.90682
| 29>    C       -2.08349         1.99069         0.73912
| 30>    C       -3.30010         2.63586         0.90041
| 31>    C       -4.50656         1.84282         0.76310
| 32>    C       -4.71378         0.83894        -0.15666
| 33>    C       -5.95488         0.21533         0.00720
| 34>    C       -6.68636         0.73761         1.08683
| 35>    S       -5.85296         1.99712         1.88130
| 36>    C       -7.93265         0.06667         1.16573
| 37>    C       -7.98640        -0.88267         0.12552
| 38>    C       -6.73729        -0.83540        -0.62082
| 39>    C       -6.37145        -1.63221        -1.66508
| 40>    C       -7.20719        -2.66171        -2.15028
| 41>    N       -7.87580        -3.51182        -2.52958
| 42>    C       -5.11947        -1.49849        -2.30169
| 43>    N       -4.09821        -1.38608        -2.81070
| 44>    C       -9.18777        -1.57703         0.08851
| 45>    C      -10.05353        -1.17657         1.09837
| 46>    S       -9.34583         0.06901         2.12163
| 47>    C      -11.36916        -1.63754         1.37214
| 48>    C      -12.12238        -2.46003         0.49549
| 49>    C      -13.44470        -2.93548         0.83377
| 50>    N      -14.04817        -3.81756         0.02376
| 51>    C      -13.48633        -4.16685        -1.10518
| 52>    C      -12.25385        -3.56117        -1.51658
| 53>    N      -11.60734        -2.76426        -0.70497
| 54>    C      -11.73139        -3.81211        -2.81080
| 55>    N      -11.35361        -4.02590        -3.87027
| 56>    C      -14.10082        -5.15843        -1.91123
| 57>    N      -14.55471        -5.96859        -2.58088
| 58>    C      -14.10944        -2.53615         2.02188
| 59>    C      -13.35634        -1.71294         2.88463
| 60>    C      -12.02514        -1.27187         2.56622
| 61>    N      -11.52027        -0.49767         3.52805
| 62>    S      -12.59879        -0.34133         4.70671
| 63>    N      -13.76231        -1.24137         4.06453
| 64>    C      -15.43521        -2.91832         2.35852
| 65>    C      -16.38563        -3.53683         1.55598
| 66>    C      -17.57817        -3.75277         2.23175
| 67>    C      -17.54120        -3.30841         3.56944
| 68>    S      -16.04854        -2.58733         3.97524
| 69>    C      -18.79302        -3.60149         4.16599
| 70>    C      -19.61676        -4.22319         3.21312
| 71>    C      -18.88876        -4.32314         1.95982
| 72>    C      -19.34590        -4.81280         0.77186
| 73>    C      -20.64930        -5.33452         0.63635
| 74>    N      -21.71164        -5.75455         0.53746
| 75>    C      -18.55801        -4.79398        -0.39956
| 76>    N      -17.92864        -4.75513        -1.35659
| 77>    C      -20.87527        -4.55981         3.71837
| 78>    C      -21.01885        -4.20971         5.04377
| 79>    S      -19.56956        -3.44124         5.67696
| 80>    C      -22.16398        -4.41373         5.89924
| 81>    C      -23.39686        -4.83575         5.36098
| 82>    C      -24.48844        -5.04589         6.16425
| 83>    C      -24.39900        -4.84506         7.54590
| 84>    C      -23.17610        -4.41596         8.10517
| 85>    C      -22.07839        -4.20540         7.26884
| 86>    C      -23.12022        -4.22300         9.51546
| 87>    C      -24.20634        -4.44417        10.30195
| 88>    C      -25.49065        -4.88920         9.74276
| 89>    O      -26.50413        -5.10784        10.36620
| 90>    N      -25.46592        -5.05312         8.36704
| 91>    C      -24.13121        -4.25169        11.69993
| 92>    N      -24.03906        -4.08718        12.82979
| 93>    H       -5.44895         4.33846         1.05232
| 94>    H       -3.20324         7.83010         2.04246
| 95>    H       -5.37686         6.70712         1.60081
| 96>    H        1.45507         7.73033         2.21141
| 97>    H        2.24393         6.60028         1.07157
| 98>    H        2.18167         6.20479         2.79557
| 99>    H        0.06298         2.14381         0.79101
|100>    H       -2.07256         0.93611         0.50933
|101>    H       -4.00880         0.60175        -0.93256
|102>    H       -9.44873        -2.33385        -0.62686
|103>    H      -16.18946        -3.80758         0.53574
|104>    H      -21.63751        -5.05270         3.14429
|105>    H      -23.49023        -4.98876         4.29822
|106>    H      -25.42559        -5.36757         5.73509
|107>    H      -21.14650        -3.88155         7.70928
|108>    H      -22.18949        -3.89575         9.95843
|109>    H      -26.34040        -5.36194         7.95640
|110> *
|111>
|112>                          ****END OF INPUT****

CARTESIAN COORDINATES (ANGSTROEM)
---------------------------------
  C     -4.497520    4.801000    1.262100
  C     -3.318290    4.031550    1.197940
  C     -2.078820    4.698670    1.389110
  C     -2.062940    6.073590    1.704410
  C     -3.243540    6.779050    1.800180
  C     -4.459860    6.139420    1.559630
  C     -0.786910    6.780120    1.923690
  O     -0.736130    7.957350    2.215410
  N      0.365010    6.026910    1.779390
  C      1.645110    6.685860    1.978000
  C      0.422820    4.682110    1.454320
  O      1.494320    4.122150    1.349580
  C     -0.864100    3.997690    1.249710
  C     -0.877330    2.660930    0.906820
  C     -2.083490    1.990690    0.739120
  C     -3.300100    2.635860    0.900410
  C     -4.506560    1.842820    0.763100
  C     -4.713780    0.838940   -0.156660
  C     -5.954880    0.215330    0.007200
  C     -6.686360    0.737610    1.086830
  S     -5.852960    1.997120    1.881300
  C     -7.932650    0.066670    1.165730
  C     -7.986400   -0.882670    0.125520
  C     -6.737290   -0.835400   -0.620820
  C     -6.371450   -1.632210   -1.665080
  C     -7.207190   -2.661710   -2.150280
  N     -7.875800   -3.511820   -2.529580
  C     -5.119470   -1.498490   -2.301690
  N     -4.098210   -1.386080   -2.810700
  C     -9.187770   -1.577030    0.088510
  C    -10.053530   -1.176570    1.098370
  S     -9.345830    0.069010    2.121630
  C    -11.369160   -1.637540    1.372140
  C    -12.122380   -2.460030    0.495490
  C    -13.444700   -2.935480    0.833770
  N    -14.048170   -3.817560    0.023760
  C    -13.486330   -4.166850   -1.105180
  C    -12.253850   -3.561170   -1.516580
  N    -11.607340   -2.764260   -0.704970
  C    -11.731390   -3.812110   -2.810800
  N    -11.353610   -4.025900   -3.870270
  C    -14.100820   -5.158430   -1.911230
  N    -14.554710   -5.968590   -2.580880
  C    -14.109440   -2.536150    2.021880
  C    -13.356340   -1.712940    2.884630
  C    -12.025140   -1.271870    2.566220
  N    -11.520270   -0.497670    3.528050
  S    -12.598790   -0.341330    4.706710
  N    -13.762310   -1.241370    4.064530
  C    -15.435210   -2.918320    2.358520
  C    -16.385630   -3.536830    1.555980
  C    -17.578170   -3.752770    2.231750
  C    -17.541200   -3.308410    3.569440
  S    -16.048540   -2.587330    3.975240
  C    -18.793020   -3.601490    4.165990
  C    -19.616760   -4.223190    3.213120
  C    -18.888760   -4.323140    1.959820
  C    -19.345900   -4.812800    0.771860
  C    -20.649300   -5.334520    0.636350
  N    -21.711640   -5.754550    0.537460
  C    -18.558010   -4.793980   -0.399560
  N    -17.928640   -4.755130   -1.356590
  C    -20.875270   -4.559810    3.718370
  C    -21.018850   -4.209710    5.043770
  S    -19.569560   -3.441240    5.676960
  C    -22.163980   -4.413730    5.899240
  C    -23.396860   -4.835750    5.360980
  C    -24.488440   -5.045890    6.164250
  C    -24.399000   -4.845060    7.545900
  C    -23.176100   -4.415960    8.105170
  C    -22.078390   -4.205400    7.268840
  C    -23.120220   -4.223000    9.515460
  C    -24.206340   -4.444170   10.301950
  C    -25.490650   -4.889200    9.742760
  O    -26.504130   -5.107840   10.366200
  N    -25.465920   -5.053120    8.367040
  C    -24.131210   -4.251690   11.699930
  N    -24.039060   -4.087180   12.829790
  H     -5.448950    4.338460    1.052320
  H     -3.203240    7.830100    2.042460
  H     -5.376860    6.707120    1.600810
  H      1.455070    7.730330    2.211410
  H      2.243930    6.600280    1.071570
  H      2.181670    6.204790    2.795570
  H      0.062980    2.143810    0.791010
  H     -2.072560    0.936110    0.509330
  H     -4.008800    0.601750   -0.932560
  H     -9.448730   -2.333850   -0.626860
  H    -16.189460   -3.807580    0.535740
  H    -21.637510   -5.052700    3.144290
  H    -23.490230   -4.988760    4.298220
  H    -25.425590   -5.367570    5.735090
  H    -21.146500   -3.881550    7.709280
  H    -22.189490   -3.895750    9.958430
  H    -26.340400   -5.361940    7.956400

 Total Charge           Charge          ....    0
 Multiplicity           Mult            ....    1
 Number of Electrons    NEL             ....  554
 Basis Dimension        Dim             .... 1197

ORBITAL ENERGIES
----------------

  NO   OCC          E(Eh)            E(eV)
   0   2.0000     -89.067318     -2423.6449
   1   2.0000     -88.999159     -2421.7902
   2   2.0000     -88.998992     -2421.7857
   3   2.0000     -88.994732     -2421.6698
   4   2.0000     -88.993865     -2421.6462
   5   2.0000     -19.199581      -522.4472
   6   2.0000     -19.199574      -522.4470
   7   2.0000     -19.199372      -522.4415
   8   2.0000     -14.483735      -394.1225
   9   2.0000     -14.476061      -393.9136
  10   2.0000     -14.475896      -393.9092
  11   2.0000     -14.470983      -393.7755
  12   2.0000     -14.470810      -393.7708
  13   2.0000     -14.460091      -393.4791
  14   2.0000     -14.437200      -392.8562
  15   2.0000     -14.434389      -392.7797
  16   2.0000     -14.433555      -392.7570
  17   2.0000     -14.432098      -392.7173
  18   2.0000     -14.432027      -392.7154
  19   2.0000     -14.431938      -392.7130
  20   2.0000     -14.408300      -392.0698
  21   2.0000     -10.400844      -283.0214
  22   2.0000     -10.390462      -282.7388
  23   2.0000     -10.390167      -282.7308
  24   2.0000     -10.389473      -282.7119
  25   2.0000     -10.387328      -282.6536
  26   2.0000     -10.370860      -282.2054
  27   2.0000     -10.369312      -282.1633
  28   2.0000     -10.362403      -281.9753
  29   2.0000     -10.362123      -281.9677
  30   2.0000     -10.361449      -281.9494
  31   2.0000     -10.361196      -281.9425
  32   2.0000     -10.359724      -281.9024
  33   2.0000     -10.357584      -281.8442
  34   2.0000     -10.356068      -281.8029
  35   2.0000     -10.340412      -281.3769
  36   2.0000     -10.339477      -281.3515
  37   2.0000     -10.338072      -281.3132
  38   2.0000     -10.337644      -281.3016
  39   2.0000     -10.336666      -281.2750
  40   2.0000     -10.336184      -281.2619
  41   2.0000     -10.335887      -281.2538
  42   2.0000     -10.335763      -281.2504
  43   2.0000     -10.334525      -281.2167
  44   2.0000     -10.334510      -281.2163
  45   2.0000     -10.333758      -281.1958
  46   2.0000     -10.333264      -281.1824
  47   2.0000     -10.333150      -281.1793
  48   2.0000     -10.332799      -281.1698
  49   2.0000     -10.331630      -281.1379
  50   2.0000     -10.331146      -281.1248
  51   2.0000     -10.324335      -280.9394
  52   2.0000     -10.324041      -280.9314
  53   2.0000     -10.318562      -280.7823
  54   2.0000     -10.317344      -280.7492
  55   2.0000     -10.316455      -280.7250
  56   2.0000     -10.314238      -280.6647
  57   2.0000     -10.313652      -280.6487
  58   2.0000     -10.313021      -280.6316
  59   2.0000     -10.311549      -280.5915
  60   2.0000     -10.309357      -280.5319
  61   2.0000     -10.308665      -280.5130
  62   2.0000     -10.308469      -280.5077
  63   2.0000     -10.308103      -280.4978
  64   2.0000     -10.308033      -280.4958
  65   2.0000     -10.307383      -280.4781
  66   2.0000     -10.306921      -280.4656
  67   2.0000     -10.306656      -280.4584
  68   2.0000     -10.305830      -280.4359
  69   2.0000     -10.304843      -280.4090
  70   2.0000     -10.299439      -280.2620
  71   2.0000     -10.297347      -280.2051
  72   2.0000     -10.296804      -280.1903
  73   2.0000     -10.296535      -280.1829
  74   2.0000     -10.296308      -280.1768
  75   2.0000     -10.295999      -280.1684
  76   2.0000     -10.293056      -280.0883
  77   2.0000     -10.292149      -280.0636
  78   2.0000      -8.158146      -221.9944
  79   2.0000      -8.093686      -220.2404
  80   2.0000      -8.093408      -220.2328
  81   2.0000      -8.088119      -220.0889
  82   2.0000      -8.087290      -220.0663
  83   2.0000      -6.129229      -166.7848
  84   2.0000      -6.121541      -166.5756
  85   2.0000      -6.120891      -166.5579
  86   2.0000      -6.062899      -164.9799
  87   2.0000      -6.062619      -164.9722
  88   2.0000      -6.058754      -164.8671
  89   2.0000      -6.058387      -164.8571
  90   2.0000      -6.057516      -164.8334
  91   2.0000      -6.056687      -164.8108
  92   2.0000      -6.056120      -164.7954
  93   2.0000      -6.055894      -164.7893
  94   2.0000      -6.052969      -164.7097
  95   2.0000      -6.052142      -164.6872
  96   2.0000      -6.050565      -164.6442
  97   2.0000      -6.049720      -164.6212
  98   2.0000      -1.164243       -31.6807
  99   2.0000      -1.151511       -31.3342
 100   2.0000      -1.148624       -31.2556
 101   2.0000      -1.131245       -30.7827
 102   2.0000      -1.127624       -30.6842
 103   2.0000      -1.071162       -29.1478
 104   2.0000      -1.058016       -28.7901
 105   2.0000      -1.051540       -28.6139
 106   2.0000      -1.050268       -28.5792
 107   2.0000      -1.029426       -28.0121
 108   2.0000      -1.028053       -27.9747
 109   2.0000      -1.026043       -27.9201
 110   2.0000      -1.023189       -27.8424
 111   2.0000      -1.019260       -27.7355
 112   2.0000      -1.012958       -27.5640
 113   2.0000      -1.011022       -27.5113
 114   2.0000      -1.009252       -27.4631
 115   2.0000      -1.006010       -27.3749
 116   2.0000      -1.004915       -27.3451
 117   2.0000      -0.996500       -27.1162
 118   2.0000      -0.994602       -27.0645
 119   2.0000      -0.988464       -26.8975
 120   2.0000      -0.980003       -26.6672
 121   2.0000      -0.963759       -26.2252
 122   2.0000      -0.960725       -26.1427
 123   2.0000      -0.944159       -25.6919
 124   2.0000      -0.942716       -25.6526
 125   2.0000      -0.927297       -25.2330
 126   2.0000      -0.922647       -25.1065
 127   2.0000      -0.918972       -25.0065
 128   2.0000      -0.907080       -24.6829
 129   2.0000      -0.894459       -24.3395
 130   2.0000      -0.883789       -24.0491
 131   2.0000      -0.876916       -23.8621
 132   2.0000      -0.874932       -23.8081
 133   2.0000      -0.867667       -23.6104
 134   2.0000      -0.861910       -23.4538
 135   2.0000      -0.860988       -23.4287
 136   2.0000      -0.854619       -23.2554
 137   2.0000      -0.851426       -23.1685
 138   2.0000      -0.846072       -23.0228
 139   2.0000      -0.820483       -22.3265
 140   2.0000      -0.818144       -22.2628
 141   2.0000      -0.809188       -22.0191
 142   2.0000      -0.792625       -21.5684
 143   2.0000      -0.787000       -21.4154
 144   2.0000      -0.782373       -21.2895
 145   2.0000      -0.777167       -21.1478
 146   2.0000      -0.773149       -21.0385
 147   2.0000      -0.762281       -20.7427
 148   2.0000      -0.758604       -20.6427
 149   2.0000      -0.750572       -20.4241
 150   2.0000      -0.739666       -20.1273
 151   2.0000      -0.728903       -19.8345
 152   2.0000      -0.724121       -19.7043
 153   2.0000      -0.720645       -19.6098
 154   2.0000      -0.716007       -19.4835
 155   2.0000      -0.709624       -19.3099
 156   2.0000      -0.706880       -19.2352
 157   2.0000      -0.705349       -19.1935
 158   2.0000      -0.696652       -18.9569
 159   2.0000      -0.686510       -18.6809
 160   2.0000      -0.682778       -18.5793
 161   2.0000      -0.681836       -18.5537
 162   2.0000      -0.672164       -18.2905
 163   2.0000      -0.668484       -18.1904
 164   2.0000      -0.663038       -18.0422
 165   2.0000      -0.655217       -17.8294
 166   2.0000      -0.649400       -17.6711
 167   2.0000      -0.642468       -17.4824
 168   2.0000      -0.637811       -17.3557
 169   2.0000      -0.629263       -17.1231
 170   2.0000      -0.627535       -17.0761
 171   2.0000      -0.623008       -16.9529
 172   2.0000      -0.620868       -16.8947
 173   2.0000      -0.616231       -16.7685
 174   2.0000      -0.613099       -16.6833
 175   2.0000      -0.610415       -16.6102
 176   2.0000      -0.608588       -16.5605
 177   2.0000      -0.598617       -16.2892
 178   2.0000      -0.597169       -16.2498
 179   2.0000      -0.590926       -16.0799
 180   2.0000      -0.586176       -15.9507
 181   2.0000      -0.578265       -15.7354
 182   2.0000      -0.573309       -15.6005
 183   2.0000      -0.572395       -15.5757
 184   2.0000      -0.571517       -15.5518
 185   2.0000      -0.563602       -15.3364
 186   2.0000      -0.561369       -15.2756
 187   2.0000      -0.559671       -15.2294
 188   2.0000      -0.556991       -15.1565
 189   2.0000      -0.554361       -15.0849
 190   2.0000      -0.552528       -15.0351
 191   2.0000      -0.550635       -14.9835
 192   2.0000      -0.547682       -14.9032
 193   2.0000      -0.538052       -14.6411
 194   2.0000      -0.534966       -14.5572
 195   2.0000      -0.531989       -14.4762
 196   2.0000      -0.527601       -14.3568
 197   2.0000      -0.524210       -14.2645
 198   2.0000      -0.521874       -14.2009
 199   2.0000      -0.517483       -14.0814
 200   2.0000      -0.513151       -13.9635
 201   2.0000      -0.512984       -13.9590
 202   2.0000      -0.511454       -13.9174
 203   2.0000      -0.509052       -13.8520
 204   2.0000      -0.507949       -13.8220
 205   2.0000      -0.507253       -13.8030
 206   2.0000      -0.505226       -13.7479
 207   2.0000      -0.502626       -13.6771
 208   2.0000      -0.502074       -13.6621
 209   2.0000      -0.499335       -13.5876
 210   2.0000      -0.498642       -13.5688
 211   2.0000      -0.494620       -13.4593
 212   2.0000      -0.493697       -13.4342
 213   2.0000      -0.487379       -13.2623
 214   2.0000      -0.486635       -13.2420
 215   2.0000      -0.484884       -13.1944
 216   2.0000      -0.483665       -13.1612
 217   2.0000      -0.481583       -13.1045
 218   2.0000      -0.479629       -13.0514
 219   2.0000      -0.476660       -12.9706
 220   2.0000      -0.470373       -12.7995
 221   2.0000      -0.468830       -12.7575
 222   2.0000      -0.467106       -12.7106
 223   2.0000      -0.466252       -12.6874
 224   2.0000      -0.465503       -12.6670
 225   2.0000      -0.464896       -12.6505
 226   2.0000      -0.463857       -12.6222
 227   2.0000      -0.463219       -12.6048
 228   2.0000      -0.460697       -12.5362
 229   2.0000      -0.459433       -12.5018
 230   2.0000      -0.455884       -12.4052
 231   2.0000      -0.455292       -12.3891
 232   2.0000      -0.454283       -12.3617
 233   2.0000      -0.453026       -12.3275
 234   2.0000      -0.446563       -12.1516
 235   2.0000      -0.445650       -12.1267
 236   2.0000      -0.445546       -12.1239
 237   2.0000      -0.444420       -12.0933
 238   2.0000      -0.443632       -12.0718
 239   2.0000      -0.442948       -12.0532
 240   2.0000      -0.441113       -12.0033
 241   2.0000      -0.437437       -11.9033
 242   2.0000      -0.436693       -11.8830
 243   2.0000      -0.436556       -11.8793
 244   2.0000      -0.433064       -11.7843
 245   2.0000      -0.432179       -11.7602
 246   2.0000      -0.430109       -11.7039
 247   2.0000      -0.426614       -11.6088
 248   2.0000      -0.425978       -11.5915
 249   2.0000      -0.423405       -11.5214
 250   2.0000      -0.418432       -11.3861
 251   2.0000      -0.414392       -11.2762
 252   2.0000      -0.413904       -11.2629
 253   2.0000      -0.411360       -11.1937
 254   2.0000      -0.410469       -11.1694
 255   2.0000      -0.404835       -11.0161
 256   2.0000      -0.392127       -10.6703
 257   2.0000      -0.389372       -10.5954
 258   2.0000      -0.382850       -10.4179
 259   2.0000      -0.371128       -10.0989
 260   2.0000      -0.367138        -9.9903
 261   2.0000      -0.361523        -9.8375
 262   2.0000      -0.360560        -9.8113
 263   2.0000      -0.356056        -9.6888
 264   2.0000      -0.355490        -9.6734
 265   2.0000      -0.353421        -9.6171
 266   2.0000      -0.345777        -9.4091
 267   2.0000      -0.344011        -9.3610
 268   2.0000      -0.340952        -9.2778
 269   2.0000      -0.335504        -9.1295
 270   2.0000      -0.332956        -9.0602
 271   2.0000      -0.327169        -8.9027
 272   2.0000      -0.326473        -8.8838
 273   2.0000      -0.316707        -8.6180
 274   2.0000      -0.299457        -8.1486
 275   2.0000      -0.278815        -7.5869
 276   2.0000      -0.247745        -6.7415
 277   0.0000      -0.140713        -3.8290
 278   0.0000      -0.108976        -2.9654
 279   0.0000      -0.105943        -2.8828
 280   0.0000      -0.071851        -1.9552
 281   0.0000      -0.064044        -1.7427

MULLIKEN ATOMIC CHARGES
-----------------------
   0 C :   -0.046156
   1 C :    0.073790
   2 C :    0.145413
   3 C :   -0.072377
   4 C :   -0.007135
   5 C :    0.043265
   6 C :    0.152292
   7 O :   -0.193029
   8 N :   -0.271668
   9 C :    0.141123
  10 C :    0.146354
  11 O :   -0.194915
  12 C :   -0.051260
  13 C :   -0.012959
  14 C :   -0.025094
  15 C :    0.108950
  16 C :   -0.143900
  17 C :   -0.006800
  18 C :    0.005300
  19 C :   -0.110668
  20 S :    0.196701
  21 C :   -0.069873
  22 C :    0.034196
  23 C :    0.301368
  24 C :   -0.290783
  25 C :   -0.189730
  26 N :    0.184028
  27 C :   -0.189063
  28 N :    0.174477
  29 C :   -0.047138
  30 C :   -0.177351
  31 S :    0.205773
  32 C :    0.195346
  33 C :   -0.072316
  34 C :   -0.076335
  35 N :    0.033878
  36 C :   -0.118055
  37 C :   -0.122295
  38 N :    0.038108
  39 C :   -0.203825
  40 N :    0.248780
  41 C :   -0.206038
  42 N :    0.247548
  43 C :    0.195839
  44 C :   -0.015822
  45 C :   -0.021323
  46 N :   -0.322529
  47 S :    0.567500
  48 N :   -0.324552
  49 C :   -0.178905
  50 C :   -0.042390
  51 C :    0.030078
  52 C :   -0.070698
  53 S :    0.206795
  54 C :   -0.099470
  55 C :    0.016669
  56 C :    0.305285
  57 C :   -0.295489
  58 C :   -0.185958
  59 N :    0.169080
  60 C :   -0.188000
  61 N :    0.185714
  62 C :   -0.050187
  63 C :   -0.060998
  64 S :    0.166310
  65 C :    0.154770
  66 C :   -0.018922
  67 C :   -0.006114
  68 C :    0.093470
  69 C :    0.037884
  70 C :   -0.114587
  71 C :    0.088657
  72 C :   -0.225246
  73 C :    0.130301
  74 O :   -0.161151
  75 N :   -0.027779
  76 C :   -0.140053
  77 N :    0.126270
  78 H :   -0.007854
  79 H :    0.009803
  80 H :   -0.005721
  81 H :    0.053738
  82 H :    0.037154
  83 H :    0.035792
  84 H :    0.009396
  85 H :   -0.005368
  86 H :    0.013677
  87 H :    0.021751
  88 H :    0.020699
  89 H :    0.004916
  90 H :   -0.000769
  91 H :   -0.023377
  92 H :   -0.012850
  93 H :    0.009598
  94 H :    0.137030
Sum of atomic charges:   -0.0000000

LOEWDIN ATOMIC CHARGES
----------------------
   0 C :   -0.005749
   1 C :   -0.018809
   2 C :    0.005727
   3 C :   -0.064416
   4 C :    0.034661
   5 C :   -0.021188
   6 C :    0.089247
   7 O :   -0.181166
   8 N :   -0.029252
   9 C :    0.038179
  10 C :    0.086827
  11 O :   -0.178808
  12 C :   -0.064184
  13 C :    0.033489
  14 C :   -0.012002
  15 C :   -0.016571
  16 C :   -0.156827
  17 C :   -0.024815
  18 C :   -0.064465
  19 C :   -0.183978
  20 S :    0.492759
  21 C :   -0.177503
  22 C :   -0.072971
  23 C :    0.078192
  24 C :   -0.097276
  25 C :   -0.018896
  26 N :   -0.021229
  27 C :   -0.016644
  28 N :   -0.030703
  29 C :   -0.005142
  30 C :   -0.166172
  31 S :    0.507649
  32 C :   -0.041471
  33 C :   -0.005464
  34 C :   -0.005659
  35 N :    0.006896
  36 C :   -0.019764
  37 C :   -0.019152
  38 N :    0.007288
  39 C :   -0.039502
  40 N :    0.011460
  41 C :   -0.039316
  42 N :    0.010581
  43 C :   -0.040700
  44 C :   -0.047441
  45 C :   -0.047329
  46 N :   -0.298467
  47 S :    0.685772
  48 N :   -0.298964
  49 C :   -0.166742
  50 C :   -0.004224
  51 C :   -0.074417
  52 C :   -0.175542
  53 S :    0.508200
  54 C :   -0.182716
  55 C :   -0.061645
  56 C :    0.079535
  57 C :   -0.098546
  58 C :   -0.014507
  59 N :   -0.035096
  60 C :   -0.019066
  61 N :   -0.020996
  62 C :   -0.034642
  63 C :   -0.150861
  64 S :    0.473433
  65 C :   -0.054026
  66 C :    0.019721
  67 C :   -0.040054
  68 C :    0.053322
  69 C :   -0.058983
  70 C :   -0.001029
  71 C :    0.066641
  72 C :   -0.108781
  73 C :    0.071333
  74 O :   -0.186272
  75 N :    0.049619
  76 C :   -0.024841
  77 N :   -0.039763
  78 H :    0.017847
  79 H :    0.041532
  80 H :    0.034143
  81 H :    0.032992
  82 H :    0.031447
  83 H :    0.030998
  84 H :    0.043460
  85 H :    0.035861
  86 H :    0.043066
  87 H :    0.038507
  88 H :    0.038478
  89 H :    0.038501
  90 H :    0.038919
  91 H :    0.035415
  92 H :    0.024062
  93 H :    0.047508
  94 H :    0.101476

  Mayer bond orders larger than 0.100000
B(  0-C ,  1-C ) :   1.2459 B(  0-C ,  5-C ) :   1.4831 B(  0-C , 78-H ) :   0.9734
B(  1-C ,  2-C ) :   1.2583 B(  1-C , 15-C ) :   1.2157 B(  2-C ,  3-C ) :   1.2287
B(  2-C , 12-C ) :   1.2276 B(  3-C ,  4-C ) :   1.4997 B(  3-C ,  6-C ) :   0.9290
B(  4-C ,  5-C ) :   1.2459 B(  4-C , 79-H ) :   0.9916 B(  5-C , 80-H ) :   0.9882
B(  6-C ,  7-O ) :   2.1643 B(  6-C ,  8-N ) :   1.0854 B(  8-N ,  9-C ) :   0.9343
B(  8-N , 10-C ) :   1.0814 B(  9-C , 81-H ) :   0.9543 B(  9-C , 82-H ) :   0.9748
B(  9-C , 83-H ) :   0.9752 B( 10-C , 11-O ) :   2.1685 B( 10-C , 12-C ) :   0.9326
B( 12-C , 13-C ) :   1.4701 B( 13-C , 14-C ) :   1.2456 B( 13-C , 84-H ) :   0.9949
B( 14-C , 15-C ) :   1.4665 B( 14-C , 85-H ) :   0.9967 B( 15-C , 16-C ) :   0.9792
B( 16-C , 17-C ) :   1.5073 B( 16-C , 20-S ) :   1.1147 B( 17-C , 18-C ) :   1.2713
B( 17-C , 86-H ) :   0.9958 B( 18-C , 19-C ) :   1.4397 B( 18-C , 23-C ) :   0.9937
B( 19-C , 20-S ) :   1.1164 B( 19-C , 21-C ) :   1.1918 B( 21-C , 22-C ) :   1.4025
B( 21-C , 31-S ) :   1.1113 B( 22-C , 23-C ) :   0.9914 B( 22-C , 29-C ) :   1.2823
B( 23-C , 24-C ) :   1.7171 B( 24-C , 25-C ) :   1.1346 B( 24-C , 27-C ) :   1.1301
B( 25-C , 26-N ) :   2.9890 B( 27-C , 28-N ) :   2.9925 B( 29-C , 30-C ) :   1.4032
B( 29-C , 87-H ) :   0.9874 B( 30-C , 31-S ) :   1.0932 B( 30-C , 32-C ) :   1.1910
B( 32-C , 33-C ) :   1.2562 B( 32-C , 43-C ) :   0.1224 B( 32-C , 45-C ) :   1.1957
B( 33-C , 34-C ) :   1.1008 B( 33-C , 38-N ) :   1.4424 B( 34-C , 35-N ) :   1.4449
B( 34-C , 43-C ) :   1.2554 B( 35-N , 36-C ) :   1.7231 B( 36-C , 37-C ) :   1.1995
B( 36-C , 41-C ) :   1.1468 B( 37-C , 38-N ) :   1.7295 B( 37-C , 39-C ) :   1.1447
B( 39-C , 40-N ) :   3.0384 B( 41-C , 42-N ) :   3.0392 B( 43-C , 44-C ) :   1.1954
B( 43-C , 49-C ) :   1.1916 B( 44-C , 45-C ) :   1.1205 B( 44-C , 48-N ) :   1.4760
B( 45-C , 46-N ) :   1.4771 B( 46-N , 47-S ) :   1.2786 B( 46-N , 48-N ) :   0.1521
B( 47-S , 48-N ) :   1.2781 B( 49-C , 50-C ) :   1.4041 B( 49-C , 53-S ) :   1.0922
B( 50-C , 51-C ) :   1.2877 B( 50-C , 88-H ) :   0.9852 B( 51-C , 52-C ) :   1.4015
B( 51-C , 56-C ) :   0.9910 B( 52-C , 53-S ) :   1.1112 B( 52-C , 54-C ) :   1.1901
B( 54-C , 55-C ) :   1.4460 B( 54-C , 64-S ) :   1.1128 B( 55-C , 56-C ) :   0.9983
B( 55-C , 62-C ) :   1.2752 B( 56-C , 57-C ) :   1.7138 B( 57-C , 58-C ) :   1.1347
B( 57-C , 60-C ) :   1.1330 B( 58-C , 59-N ) :   2.9862 B( 60-C , 61-N ) :   2.9907
B( 62-C , 63-C ) :   1.4985 B( 62-C , 89-H ) :   0.9871 B( 63-C , 64-S ) :   1.1099
B( 63-C , 65-C ) :   1.0593 B( 65-C , 66-C ) :   1.2892 B( 65-C , 70-C ) :   1.3582
B( 66-C , 67-C ) :   1.4462 B( 66-C , 90-H ) :   0.9901 B( 67-C , 68-C ) :   1.2833
B( 67-C , 91-H ) :   0.9918 B( 68-C , 69-C ) :   1.2980 B( 68-C , 75-N ) :   1.2062
B( 69-C , 70-C ) :   1.2993 B( 69-C , 71-C ) :   1.1260 B( 70-C , 92-H ) :   0.9914
B( 71-C , 72-C ) :   1.6477 B( 71-C , 93-H ) :   0.9856 B( 72-C , 73-C ) :   0.9484
B( 72-C , 76-C ) :   1.1097 B( 73-C , 74-O ) :   2.2467 B( 73-C , 75-N ) :   1.0836
B( 75-N , 94-H ) :   0.9009 B( 76-C , 77-N ) :   3.0440

-----------------------------------------------------------------------------
         ABSORPTION SPECTRUM VIA TRANSITION ELECTRIC DIPOLE MOMENTS
-----------------------------------------------------------------------------
State   Energy  Wavelength   fosc         T2         TX        TY        TZ
        (cm-1)    (nm)                  (au**2)     (au)      (au)      (au)
-----------------------------------------------------------------------------
   0    8264.7   1210.0   0.681853354  27.16059   4.78615   1.61594  -1.28143
   1   13170.0    759.3   0.016132552   0.40327   0.30878  -0.11632  -0.54258
   2   13927.4    718.0   0.025222077   0.59619   0.61988   0.45650   0.05959
   3   16816.3    594.7   0.030305000   0.59328   0.06659  -0.40344  -0.65275
   4   22206.4    450.3   0.030954393   0.45890   0.53090   0.31912  -0.27424
   5   23412.4    427.1   0.167183530   2.35084  -1.37206  -0.32796   0.60061
   6   23659.2    422.7   0.253565691   3.52831  -1.61290  -0.95966  -0.07696
   7   24202.0    413.2   0.066760802   0.90812  -0.13132   0.45230   0.82844
   8   24281.9    411.8   0.008220857   0.11146   0.21328   0.23733  -0.09819
   9   24923.9    401.2   0.015697097   0.20734  -0.26681  -0.26909  -0.25247
  10   25176.5    397.2   0.062740975   0.82041   0.67810   0.52486  -0.29175
  11   25941.6    385.5   0.488262899   6.19631  -2.14203  -1.26404   0.10105
  12   26174.9    382.0   0.160709570   2.02131   1.17309   0.80200   0.04426
  13   26595.8    376.0   0.037275677   0.46141  -0.03896   0.22828   0.63858
  14   27206.5    367.6   0.155522323   1.88190  -0.33156   0.11586   1.32610
  15   28638.2    349.2   0.092087310   1.05859   0.95133   0.24157  -0.30856
  16   29341.4    340.8   0.891610748  10.00390  -2.60240  -0.15935   1.79054
  17   29413.7    340.0   0.348662408   3.90240   1.80531   0.35161  -0.72084
  18   30470.8    328.2   0.079160085   0.85526  -0.38654  -0.60783  -0.57999
  19   30593.1    326.9   0.056718633   0.61035  -0.61201  -0.04081   0.48387
  20   30998.4    322.6   0.049861609   0.52954  -0.01643  -0.18375  -0.70392
  21   31443.1    318.0   0.063294482   0.66270   0.34052   0.62155  -0.40052
  22   31763.9    314.8   0.030527737   0.31640   0.11678   0.08791   0.54317
  23   32054.0    312.0   0.010351786   0.10632   0.26389  -0.16303   0.10050
  24   32101.6    311.5   0.255145134   2.61660   1.41485   0.43294   0.65373
  25   32501.1    307.7   0.846850481   8.57797  -0.05239   1.37385   2.58607
  26   32916.4    303.8   0.623046117   6.23136  -1.27777  -1.65004  -1.36969
  27   32944.0    303.5   0.049090134   0.49056  -0.24857   0.49300   0.43096
  28   33213.3    301.1   0.015634269   0.15497   0.01439   0.27945   0.27689
  29   33413.3    299.3   0.393033195   3.87245  -0.53251   0.65239   1.77856
  30   33599.6    297.6   0.103948249   1.01850   0.56690   0.40897   0.72792
  31   33909.4    294.9   0.050199076   0.48736  -0.29017  -0.50782  -0.38115
  32   34260.4    291.9   0.067367547   0.64734  -0.55461   0.15221   0.56266
  33   34704.0    288.2   0.128127551   1.21545   0.12161   0.25772   1.06501
  34   34854.6    286.9   0.098881051   0.93396   0.64802   0.69799   0.16385
  35   35098.7    284.9   0.145514252   1.36487  -0.11886  -0.44067  -1.07543
  36   35137.2    284.6   0.046999404   0.44035  -0.11281   0.46487   0.45991
  37   35692.8    280.2   0.250424285   2.30978  -1.14848  -0.19052   0.97698
  38   35897.3    278.6   0.016538594   0.15167  -0.30903  -0.03345  -0.23464
  39   36314.5    275.4   0.029374313   0.26629  -0.13441  -0.36365  -0.34057
  40   36525.8    273.8   0.000356410   0.00321   0.03324   0.04564  -0.00490
  41   36715.5    272.4   0.004293964   0.03850  -0.06947   0.10119   0.15309
  42   36817.1    271.6   0.002300992   0.02058  -0.01709   0.12816   0.06212
  43   37027.8    270.1   0.019236153   0.17103   0.29447   0.13343  -0.25790
  44   37366.7    267.6   0.003706980   0.03266   0.14273  -0.08775  -0.06773
  45   37386.6    267.5   0.030596967   0.26942  -0.44114   0.02212   0.27264
  46   37760.8    264.8   0.011702659   0.10203  -0.07446  -0.31053   0.00765
  47   37931.6    263.6   0.029262800   0.25397  -0.37805  -0.28649   0.17022
  48   38173.2    262.0   0.002635090   0.02273  -0.14326  -0.01246   0.04524
  49   38439.1    260.2   0.023290496   0.19947  -0.11651   0.20360   0.38006
  50   38648.1    258.7   0.011327357   0.09649   0.28542   0.11213  -0.04953
  51   38778.8    257.9   0.128995219   1.09510   0.86873   0.53569  -0.23117
  52   39200.5    255.1   0.007826060   0.06572   0.16673  -0.07081  -0.18142
  53   39313.3    254.4   0.048662859   0.40751   0.50915   0.23872  -0.30213
  54   39423.0    253.7   0.000507379   0.00424  -0.04481  -0.04166   0.02223
  55   39582.9    252.6   0.001401960   0.01166  -0.08275   0.06371  -0.02744
  56   39808.9    251.2   0.007599504   0.06285  -0.07639   0.01627   0.23821
  57   39865.6    250.8   0.017990135   0.14856   0.37982   0.06487  -0.00945
  58   40249.6    248.4   0.008093195   0.06620   0.02275   0.00207   0.25627
  59   40321.1    248.0   0.005613379   0.04583   0.01594  -0.02838  -0.21160

FINAL SINGLE POINT ENERGY     -5106.113466915644

DIPOLE MOMENT
-------------
                                X             Y             Z
Electronic contribution:    -28.55249     -25.52377      -5.71079
Nuclear contribution   :     28.20687      27.73790       7.90494
                        -----------------------------------------
Total Dipole Moment    :     -0.34562       2.21413       2.19415
                        -----------------------------------------
Magnitude (a.u.)       :      3.13626
Magnitude (Debye)      :      7.97173

Rotational constants in cm-1:     0.001457     0.000199     0.000178
Rotational constants in MHz :    43.688463     5.959310     5.336034

                             ****ORCA TERMINATED NORMALLY****
TOTAL RUN TIME: 0 days 0 hours 10 minutes 20 seconds 253 msec
