                         Program Version 4.2.0 -  RELEASE  -
|  1> # ORCA input file
|  2> # SCF done       -204.144784624170          0.000423117684
|  3> ! CAM-B3LYP def2-SVP def2/J RIJCOSX Grid4 TightSCF
|  4> %maxcore 5000
|  5> %tddft
|  6>     Mode sTDDFT
|  7>     Ethresh 5.0
|  8>     maxcore 5000
|  9> end
| 10>
| 11> %pal
| 12>   nprocs 6
| 13>   end
| 14> * xyz 0 1
| 15>    C       -6.04550        -7.27045        12.01726
| 16>    C       -6.69498        -8.21931        12.75635
| 17>    F       -6.91345        -8.02158        14.06331
| 18>    C       -7.14192        -9.41360        12.15703
| 19>    F       -7.77589       -10.32654        12.90555
| 20>    C       -6.93297        -9.64267        10.82575
| 21>    C       -6.26678        -8.68435        10.03804
| 22>    C       -5.81406        -7.47632        10.64256
| 23>    C       -5.14137        -6.49945         9.87176
| 24>    C       -4.92866        -6.72376         8.53738
| 25>    C       -5.38782        -7.93155         7.94343
| 26>    C       -6.03772        -8.89376         8.65968
| 27>    C       -5.04383        -7.92566         6.50933
| 28>    O       -5.26983        -8.82343         5.71796
| 29>    C       -4.38157        -6.64230         6.25322
| 30>    C       -4.27567        -5.91989         7.50436
| 31>    C       -3.65652        -4.71516         7.72873
| 32>    C       -2.98080        -3.93680         6.76892
| 33>    N       -2.39853        -3.24216         6.06160
| 34>    C       -3.58715        -4.08524         8.98922
| 35>    N       -3.49191        -3.51720         9.98249
| 36>    C       -3.96082        -6.18072         5.02701
| 37>    C       -4.05512        -6.76822         3.75979
| 38>    C       -3.65960        -6.08930         2.58257
| 39>    O       -3.08616        -4.85273         2.58669
| 40>    C       -1.80543        -4.71875         3.20010
| 41>    C       -3.97809        -6.78738         1.40783
| 42>    O       -3.88063        -6.37588         0.13322
| 43>    C       -3.15262        -5.20485        -0.17367
| 44>    C       -4.56147        -8.03651         1.68632
| 45>    S       -4.80176        -8.29572         3.37798
| 46>    C       -4.93267        -9.05816         0.76724
| 47>    C       -5.88466       -10.03211         1.16464
| 48>    C       -6.28670       -11.10758         0.31395
| 49>    N       -7.16101       -12.02199         0.77240
| 50>    C       -7.62141       -11.92305         1.98585
| 51>    C       -7.24734       -10.84148         2.81410
| 52>    N       -6.41873        -9.93177         2.39307
| 53>    C       -5.79085       -11.25398        -1.00383
| 54>    C       -4.79078       -10.33536        -1.38039
| 55>    C       -4.35724        -9.26094        -0.50540
| 56>    N       -3.32145        -8.60193        -1.02752
| 57>    S       -2.95082        -9.23428        -2.44898
| 58>    N       -4.05619       -10.38916        -2.49321
| 59>    C       -6.23122       -12.34859        -1.80808
| 60>    C       -6.24372       -12.50513        -3.19440
| 61>    O       -5.92971       -11.52612        -4.09648
| 62>    C       -6.75578       -10.37700        -4.05839
| 63>    C       -6.67044       -13.79421        -3.59275
| 64>    O       -6.77172       -14.31061        -4.82415
| 65>    C       -6.44957       -13.52399        -5.95480
| 66>    C       -7.04240       -14.59945        -2.50665
| 67>    S       -6.85598       -13.74184        -1.00284
| 68>    C       -7.47383       -15.93370        -2.58687
| 69>    C       -8.07302       -16.67573        -1.60580
| 70>    C       -7.96384       -18.15357        -1.60702
| 71>    O       -7.63678       -18.86799        -2.52709
| 72>    C       -8.26846       -18.55829        -0.21376
| 73>    C       -8.17959       -19.79223         0.36139
| 74>    C       -8.47724       -19.93346         1.73646
| 75>    C       -8.86556       -18.78821         2.49025
| 76>    C       -9.14824       -18.93478         3.86304
| 77>    C       -9.05184       -20.16031         4.45975
| 78>    C       -8.67032       -21.29247         3.71342
| 79>    C       -8.38983       -21.18303         2.38016
| 80>    F       -8.58231       -22.48267         4.32483
| 81>    F       -9.31928       -20.29587         5.76659
| 82>    C       -8.96398       -17.52468         1.86365
| 83>    C       -8.66989       -17.41294         0.53196
| 84>    C       -8.70359       -16.26772        -0.37218
| 85>    C       -9.42911       -15.11951        -0.17474
| 86>    C       -9.70523       -14.20079        -1.20878
| 87>    N      -10.00446       -13.46952        -2.04192
| 88>    C       -9.99007       -14.74751         1.05842
| 89>    N      -10.41201       -14.36793         2.05781
| 90>    H       -5.70957        -6.36199        12.49238
| 91>    H       -7.28127       -10.56198        10.38155
| 92>    H       -4.81452        -5.59695        10.36173
| 93>    H       -6.37271        -9.80146         8.18139
| 94>    H       -3.52155        -5.19142         5.01837
| 95>    H       -1.07408        -4.49389         2.41824
| 96>    H       -1.50653        -5.63137         3.71727
| 97>    H       -1.83884        -3.88954         3.90869
| 98>    H       -2.10036        -5.31008         0.10218
| 99>    H       -3.57287        -4.32716         0.32104
|100>    H       -3.23176        -5.09675        -1.25429
|101>    H       -8.32533       -12.67717         2.30899
|102>    H       -7.64889       -10.71280         3.80823
|103>    H       -6.69518        -9.85404        -3.10112
|104>    H       -7.80139       -10.64226        -4.24936
|105>    H       -6.38991        -9.72708        -4.85078
|106>    H       -7.17487       -12.71937        -6.09581
|107>    H       -6.49935       -14.20887        -6.80022
|108>    H       -5.44789       -13.09873        -5.87474
|109>    H       -7.21160       -16.46085        -3.49823
|110>    H       -7.88220       -20.65051        -0.22166
|111>    H       -9.44465       -18.07831         4.44821
|112>    H       -8.09835       -22.05974         1.82329
|113>    H       -9.25605       -16.67119         2.45477
|114> *
|115>
|116>                          ****END OF INPUT****

CARTESIAN COORDINATES (ANGSTROEM)
---------------------------------
  C     -6.045500   -7.270450   12.017260
  C     -6.694980   -8.219310   12.756350
  F     -6.913450   -8.021580   14.063310
  C     -7.141920   -9.413600   12.157030
  F     -7.775890  -10.326540   12.905550
  C     -6.932970   -9.642670   10.825750
  C     -6.266780   -8.684350   10.038040
  C     -5.814060   -7.476320   10.642560
  C     -5.141370   -6.499450    9.871760
  C     -4.928660   -6.723760    8.537380
  C     -5.387820   -7.931550    7.943430
  C     -6.037720   -8.893760    8.659680
  C     -5.043830   -7.925660    6.509330
  O     -5.269830   -8.823430    5.717960
  C     -4.381570   -6.642300    6.253220
  C     -4.275670   -5.919890    7.504360
  C     -3.656520   -4.715160    7.728730
  C     -2.980800   -3.936800    6.768920
  N     -2.398530   -3.242160    6.061600
  C     -3.587150   -4.085240    8.989220
  N     -3.491910   -3.517200    9.982490
  C     -3.960820   -6.180720    5.027010
  C     -4.055120   -6.768220    3.759790
  C     -3.659600   -6.089300    2.582570
  O     -3.086160   -4.852730    2.586690
  C     -1.805430   -4.718750    3.200100
  C     -3.978090   -6.787380    1.407830
  O     -3.880630   -6.375880    0.133220
  C     -3.152620   -5.204850   -0.173670
  C     -4.561470   -8.036510    1.686320
  S     -4.801760   -8.295720    3.377980
  C     -4.932670   -9.058160    0.767240
  C     -5.884660  -10.032110    1.164640
  C     -6.286700  -11.107580    0.313950
  N     -7.161010  -12.021990    0.772400
  C     -7.621410  -11.923050    1.985850
  C     -7.247340  -10.841480    2.814100
  N     -6.418730   -9.931770    2.393070
  C     -5.790850  -11.253980   -1.003830
  C     -4.790780  -10.335360   -1.380390
  C     -4.357240   -9.260940   -0.505400
  N     -3.321450   -8.601930   -1.027520
  S     -2.950820   -9.234280   -2.448980
  N     -4.056190  -10.389160   -2.493210
  C     -6.231220  -12.348590   -1.808080
  C     -6.243720  -12.505130   -3.194400
  O     -5.929710  -11.526120   -4.096480
  C     -6.755780  -10.377000   -4.058390
  C     -6.670440  -13.794210   -3.592750
  O     -6.771720  -14.310610   -4.824150
  C     -6.449570  -13.523990   -5.954800
  C     -7.042400  -14.599450   -2.506650
  S     -6.855980  -13.741840   -1.002840
  C     -7.473830  -15.933700   -2.586870
  C     -8.073020  -16.675730   -1.605800
  C     -7.963840  -18.153570   -1.607020
  O     -7.636780  -18.867990   -2.527090
  C     -8.268460  -18.558290   -0.213760
  C     -8.179590  -19.792230    0.361390
  C     -8.477240  -19.933460    1.736460
  C     -8.865560  -18.788210    2.490250
  C     -9.148240  -18.934780    3.863040
  C     -9.051840  -20.160310    4.459750
  C     -8.670320  -21.292470    3.713420
  C     -8.389830  -21.183030    2.380160
  F     -8.582310  -22.482670    4.324830
  F     -9.319280  -20.295870    5.766590
  C     -8.963980  -17.524680    1.863650
  C     -8.669890  -17.412940    0.531960
  C     -8.703590  -16.267720   -0.372180
  C     -9.429110  -15.119510   -0.174740
  C     -9.705230  -14.200790   -1.208780
  N    -10.004460  -13.469520   -2.041920
  C     -9.990070  -14.747510    1.058420
  N    -10.412010  -14.367930    2.057810
  H     -5.709570   -6.361990   12.492380
  H     -7.281270  -10.561980   10.381550
  H     -4.814520   -5.596950   10.361730
  H     -6.372710   -9.801460    8.181390
  H     -3.521550   -5.191420    5.018370
  H     -1.074080   -4.493890    2.418240
  H     -1.506530   -5.631370    3.717270
  H     -1.838840   -3.889540    3.908690
  H     -2.100360   -5.310080    0.102180
  H     -3.572870   -4.327160    0.321040
  H     -3.231760   -5.096750   -1.254290
  H     -8.325330  -12.677170    2.308990
  H     -7.648890  -10.712800    3.808230
  H     -6.695180   -9.854040   -3.101120
  H     -7.801390  -10.642260   -4.249360
  H     -6.389910   -9.727080   -4.850780
  H     -7.174870  -12.719370   -6.095810
  H     -6.499350  -14.208870   -6.800220
  H     -5.447890  -13.098730   -5.874740
  H     -7.211600  -16.460850   -3.498230
  H     -7.882200  -20.650510   -0.221660
  H     -9.444650  -18.078310    4.448210
  H     -8.098350  -22.059740    1.823290
  H     -9.256050  -16.671190    2.454770

 Total Charge           Charge          ....    0
 Multiplicity           Mult            ....    1
 Number of Electrons    NEL             ....  536
 Basis Dimension        Dim             .... 1182

ORBITAL ENERGIES
----------------

  NO   OCC          E(Eh)            E(eV)
   0   2.0000     -89.040775     -2422.9227
   1   2.0000     -88.960145     -2420.7286
   2   2.0000     -88.958058     -2420.6718
   3   2.0000     -24.798162      -674.7923
   4   2.0000     -24.796878      -674.7574
   5   2.0000     -24.793400      -674.6627
   6   2.0000     -24.793192      -674.6571
   7   2.0000     -19.262372      -524.1558
   8   2.0000     -19.252201      -523.8790
   9   2.0000     -19.250459      -523.8316
  10   2.0000     -19.244299      -523.6640
  11   2.0000     -19.220677      -523.0212
  12   2.0000     -19.203140      -522.5440
  13   2.0000     -14.445720      -393.0880
  14   2.0000     -14.444021      -393.0418
  15   2.0000     -14.442707      -393.0060
  16   2.0000     -14.441747      -392.9799
  17   2.0000     -14.422016      -392.4430
  18   2.0000     -14.414616      -392.2416
  19   2.0000     -14.414383      -392.2353
  20   2.0000     -14.403336      -391.9347
  21   2.0000     -10.381257      -282.4884
  22   2.0000     -10.380244      -282.4608
  23   2.0000     -10.375875      -282.3419
  24   2.0000     -10.375547      -282.3330
  25   2.0000     -10.369210      -282.1605
  26   2.0000     -10.356032      -281.8020
  27   2.0000     -10.353662      -281.7375
  28   2.0000     -10.349646      -281.6282
  29   2.0000     -10.347600      -281.5725
  30   2.0000     -10.343068      -281.4492
  31   2.0000     -10.342391      -281.4308
  32   2.0000     -10.341097      -281.3956
  33   2.0000     -10.339746      -281.3588
  34   2.0000     -10.339576      -281.3542
  35   2.0000     -10.339413      -281.3497
  36   2.0000     -10.337903      -281.3086
  37   2.0000     -10.337091      -281.2865
  38   2.0000     -10.336460      -281.2694
  39   2.0000     -10.332887      -281.1721
  40   2.0000     -10.331611      -281.1374
  41   2.0000     -10.326053      -280.9862
  42   2.0000     -10.323926      -280.9283
  43   2.0000     -10.323715      -280.9226
  44   2.0000     -10.323447      -280.9153
  45   2.0000     -10.322310      -280.8843
  46   2.0000     -10.321508      -280.8625
  47   2.0000     -10.321205      -280.8543
  48   2.0000     -10.319756      -280.8148
  49   2.0000     -10.318917      -280.7920
  50   2.0000     -10.318104      -280.7699
  51   2.0000     -10.317228      -280.7460
  52   2.0000     -10.312713      -280.6232
  53   2.0000     -10.310657      -280.5672
  54   2.0000     -10.310219      -280.5553
  55   2.0000     -10.309754      -280.5427
  56   2.0000     -10.308973      -280.5214
  57   2.0000     -10.306947      -280.4663
  58   2.0000     -10.306751      -280.4609
  59   2.0000     -10.304479      -280.3991
  60   2.0000     -10.303951      -280.3848
  61   2.0000     -10.302254      -280.3386
  62   2.0000     -10.301976      -280.3310
  63   2.0000     -10.301076      -280.3065
  64   2.0000     -10.300406      -280.2883
  65   2.0000     -10.300179      -280.2821
  66   2.0000     -10.297472      -280.2085
  67   2.0000     -10.295767      -280.1621
  68   2.0000     -10.295712      -280.1606
  69   2.0000     -10.295616      -280.1579
  70   2.0000     -10.295497      -280.1547
  71   2.0000     -10.294977      -280.1406
  72   2.0000     -10.292678      -280.0780
  73   2.0000     -10.286001      -279.8963
  74   2.0000     -10.282408      -279.7985
  75   2.0000      -8.132065      -221.2847
  76   2.0000      -8.052366      -219.1160
  77   2.0000      -8.051395      -219.0896
  78   2.0000      -6.102970      -166.0703
  79   2.0000      -6.095254      -165.8603
  80   2.0000      -6.095210      -165.8591
  81   2.0000      -6.021845      -163.8627
  82   2.0000      -6.021032      -163.8406
  83   2.0000      -6.017464      -163.7435
  84   2.0000      -6.016662      -163.7217
  85   2.0000      -6.014098      -163.6519
  86   2.0000      -6.013007      -163.6222
  87   2.0000      -1.320419       -35.9304
  88   2.0000      -1.315831       -35.8056
  89   2.0000      -1.305529       -35.5252
  90   2.0000      -1.301053       -35.4034
  91   2.0000      -1.170546       -31.8522
  92   2.0000      -1.165723       -31.7209
  93   2.0000      -1.146055       -31.1857
  94   2.0000      -1.145012       -31.1574
  95   2.0000      -1.136397       -30.9229
  96   2.0000      -1.136286       -30.9199
  97   2.0000      -1.118536       -30.4369
  98   2.0000      -1.103138       -30.0179
  99   2.0000      -1.030265       -28.0349
 100   2.0000      -1.021645       -27.8004
 101   2.0000      -1.013744       -27.5854
 102   2.0000      -1.006069       -27.3765
 103   2.0000      -0.998290       -27.1648
 104   2.0000      -0.996249       -27.1093
 105   2.0000      -0.994590       -27.0642
 106   2.0000      -0.992739       -27.0138
 107   2.0000      -0.987358       -26.8674
 108   2.0000      -0.982736       -26.7416
 109   2.0000      -0.979719       -26.6595
 110   2.0000      -0.973334       -26.4858
 111   2.0000      -0.962843       -26.2003
 112   2.0000      -0.932220       -25.3670
 113   2.0000      -0.924733       -25.1633
 114   2.0000      -0.909591       -24.7512
 115   2.0000      -0.900986       -24.5171
 116   2.0000      -0.893958       -24.3258
 117   2.0000      -0.891078       -24.2475
 118   2.0000      -0.886306       -24.1176
 119   2.0000      -0.882742       -24.0206
 120   2.0000      -0.880502       -23.9597
 121   2.0000      -0.869535       -23.6613
 122   2.0000      -0.852464       -23.1967
 123   2.0000      -0.845590       -23.0097
 124   2.0000      -0.840136       -22.8613
 125   2.0000      -0.835576       -22.7372
 126   2.0000      -0.834112       -22.6973
 127   2.0000      -0.828665       -22.5491
 128   2.0000      -0.810472       -22.0541
 129   2.0000      -0.804988       -21.9048
 130   2.0000      -0.799322       -21.7507
 131   2.0000      -0.782375       -21.2895
 132   2.0000      -0.771152       -20.9841
 133   2.0000      -0.768776       -20.9195
 134   2.0000      -0.767272       -20.8785
 135   2.0000      -0.763802       -20.7841
 136   2.0000      -0.758293       -20.6342
 137   2.0000      -0.755271       -20.5520
 138   2.0000      -0.743962       -20.2442
 139   2.0000      -0.731510       -19.9054
 140   2.0000      -0.723069       -19.6757
 141   2.0000      -0.715682       -19.4747
 142   2.0000      -0.712454       -19.3869
 143   2.0000      -0.711150       -19.3514
 144   2.0000      -0.704177       -19.1616
 145   2.0000      -0.691832       -18.8257
 146   2.0000      -0.683279       -18.5930
 147   2.0000      -0.677771       -18.4431
 148   2.0000      -0.674283       -18.3482
 149   2.0000      -0.670392       -18.2423
 150   2.0000      -0.664806       -18.0903
 151   2.0000      -0.657559       -17.8931
 152   2.0000      -0.650200       -17.6928
 153   2.0000      -0.646237       -17.5850
 154   2.0000      -0.642189       -17.4749
 155   2.0000      -0.641490       -17.4558
 156   2.0000      -0.639072       -17.3900
 157   2.0000      -0.635964       -17.3055
 158   2.0000      -0.632735       -17.2176
 159   2.0000      -0.625852       -17.0303
 160   2.0000      -0.622784       -16.9468
 161   2.0000      -0.615101       -16.7377
 162   2.0000      -0.612041       -16.6545
 163   2.0000      -0.608762       -16.5653
 164   2.0000      -0.605914       -16.4877
 165   2.0000      -0.593700       -16.1554
 166   2.0000      -0.588096       -16.0029
 167   2.0000      -0.585039       -15.9197
 168   2.0000      -0.584622       -15.9084
 169   2.0000      -0.582337       -15.8462
 170   2.0000      -0.580518       -15.7967
 171   2.0000      -0.579493       -15.7688
 172   2.0000      -0.576572       -15.6893
 173   2.0000      -0.572638       -15.5823
 174   2.0000      -0.571696       -15.5566
 175   2.0000      -0.567557       -15.4440
 176   2.0000      -0.567124       -15.4322
 177   2.0000      -0.562776       -15.3139
 178   2.0000      -0.560148       -15.2424
 179   2.0000      -0.557325       -15.1656
 180   2.0000      -0.553010       -15.0482
 181   2.0000      -0.550709       -14.9856
 182   2.0000      -0.547019       -14.8851
 183   2.0000      -0.546642       -14.8749
 184   2.0000      -0.544459       -14.8155
 185   2.0000      -0.543202       -14.7813
 186   2.0000      -0.542390       -14.7592
 187   2.0000      -0.541734       -14.7413
 188   2.0000      -0.539300       -14.6751
 189   2.0000      -0.538577       -14.6554
 190   2.0000      -0.536726       -14.6051
 191   2.0000      -0.531031       -14.4501
 192   2.0000      -0.529164       -14.3993
 193   2.0000      -0.527433       -14.3522
 194   2.0000      -0.525439       -14.2979
 195   2.0000      -0.520672       -14.1682
 196   2.0000      -0.518929       -14.1208
 197   2.0000      -0.517947       -14.0940
 198   2.0000      -0.514770       -14.0076
 199   2.0000      -0.514152       -13.9908
 200   2.0000      -0.507141       -13.8000
 201   2.0000      -0.505425       -13.7533
 202   2.0000      -0.504136       -13.7182
 203   2.0000      -0.500387       -13.6162
 204   2.0000      -0.498765       -13.5721
 205   2.0000      -0.497953       -13.5500
 206   2.0000      -0.497282       -13.5317
 207   2.0000      -0.495928       -13.4949
 208   2.0000      -0.493573       -13.4308
 209   2.0000      -0.490611       -13.3502
 210   2.0000      -0.484500       -13.1839
 211   2.0000      -0.481686       -13.1074
 212   2.0000      -0.479174       -13.0390
 213   2.0000      -0.474598       -12.9145
 214   2.0000      -0.472947       -12.8696
 215   2.0000      -0.470300       -12.7975
 216   2.0000      -0.463967       -12.6252
 217   2.0000      -0.461259       -12.5515
 218   2.0000      -0.459573       -12.5056
 219   2.0000      -0.457235       -12.4420
 220   2.0000      -0.455336       -12.3903
 221   2.0000      -0.450360       -12.2549
 222   2.0000      -0.448762       -12.2114
 223   2.0000      -0.448327       -12.1996
 224   2.0000      -0.445541       -12.1238
 225   2.0000      -0.443254       -12.0615
 226   2.0000      -0.441220       -12.0062
 227   2.0000      -0.439060       -11.9474
 228   2.0000      -0.436655       -11.8820
 229   2.0000      -0.435790       -11.8585
 230   2.0000      -0.433850       -11.8057
 231   2.0000      -0.433191       -11.7877
 232   2.0000      -0.430289       -11.7088
 233   2.0000      -0.429297       -11.6818
 234   2.0000      -0.427047       -11.6205
 235   2.0000      -0.424879       -11.5615
 236   2.0000      -0.422427       -11.4948
 237   2.0000      -0.420327       -11.4377
 238   2.0000      -0.419031       -11.4024
 239   2.0000      -0.418452       -11.3867
 240   2.0000      -0.411679       -11.2023
 241   2.0000      -0.411200       -11.1893
 242   2.0000      -0.409305       -11.1377
 243   2.0000      -0.408807       -11.1242
 244   2.0000      -0.397025       -10.8036
 245   2.0000      -0.393833       -10.7167
 246   2.0000      -0.389582       -10.6011
 247   2.0000      -0.385902       -10.5009
 248   2.0000      -0.381995       -10.3946
 249   2.0000      -0.377451       -10.2710
 250   2.0000      -0.370538       -10.0829
 251   2.0000      -0.365805        -9.9541
 252   2.0000      -0.359350        -9.7784
 253   2.0000      -0.350643        -9.5415
 254   2.0000      -0.348957        -9.4956
 255   2.0000      -0.345822        -9.4103
 256   2.0000      -0.340020        -9.2524
 257   2.0000      -0.326870        -8.8946
 258   2.0000      -0.322067        -8.7639
 259   2.0000      -0.318854        -8.6765
 260   2.0000      -0.315403        -8.5825
 261   2.0000      -0.309686        -8.4270
 262   2.0000      -0.301121        -8.1939
 263   2.0000      -0.295792        -8.0489
 264   2.0000      -0.288483        -7.8500
 265   2.0000      -0.285156        -7.7595
 266   2.0000      -0.277264        -7.5447
 267   2.0000      -0.245091        -6.6693
 268   0.0000      -0.122791        -3.3413
 269   0.0000      -0.086605        -2.3566
 270   0.0000      -0.078172        -2.1272
 271   0.0000      -0.059781        -1.6267
 272   0.0000      -0.047885        -1.3030

MULLIKEN ATOMIC CHARGES
-----------------------
   0 C :   -0.108624
   1 C :    0.240969
   2 F :   -0.171381
   3 C :    0.238862
   4 F :   -0.172300
   5 C :   -0.106357
   6 C :    0.120442
   7 C :    0.114075
   8 C :   -0.087379
   9 C :    0.045745
  10 C :    0.005267
  11 C :   -0.088444
  12 C :    0.161773
  13 O :   -0.175257
  14 C :   -0.102265
  15 C :    0.336791
  16 C :   -0.367683
  17 C :   -0.170493
  18 N :    0.140322
  19 C :   -0.183541
  20 N :    0.143549
  21 C :   -0.031324
  22 C :   -0.088752
  23 C :    0.101044
  24 O :   -0.344501
  25 C :    0.174753
  26 C :    0.224019
  27 O :   -0.288919
  28 C :    0.193130
  29 C :   -0.238260
  30 S :    0.232873
  31 C :    0.146009
  32 C :   -0.042391
  33 C :   -0.037089
  34 N :   -0.065703
  35 C :    0.045679
  36 C :    0.049286
  37 N :   -0.050608
  38 C :    0.124437
  39 C :   -0.054700
  40 C :   -0.003771
  41 N :   -0.257739
  42 S :    0.528715
  43 N :   -0.263753
  44 C :   -0.196938
  45 C :    0.132976
  46 O :   -0.328950
  47 C :    0.193373
  48 C :    0.224638
  49 O :   -0.287613
  50 C :    0.190789
  51 C :   -0.174119
  52 S :    0.180715
  53 C :    0.073357
  54 C :   -0.146362
  55 C :    0.142571
  56 O :   -0.147457
  57 C :    0.007522
  58 C :   -0.084583
  59 C :    0.111785
  60 C :    0.114732
  61 C :   -0.107051
  62 C :    0.237602
  63 C :    0.237244
  64 C :   -0.103581
  65 F :   -0.174930
  66 F :   -0.174442
  67 C :   -0.089292
  68 C :    0.047767
  69 C :    0.250079
  70 C :   -0.328958
  71 C :   -0.199227
  72 N :    0.153473
  73 C :   -0.131520
  74 N :    0.101007
  75 H :    0.006892
  76 H :   -0.002436
  77 H :   -0.006567
  78 H :   -0.016080
  79 H :    0.000287
  80 H :    0.022110
  81 H :    0.025955
  82 H :    0.064176
  83 H :    0.011595
  84 H :    0.041759
  85 H :    0.025470
  86 H :    0.024871
  87 H :    0.026078
  88 H :    0.028354
  89 H :    0.027930
  90 H :    0.029538
  91 H :    0.022198
  92 H :    0.036357
  93 H :    0.041000
  94 H :    0.026003
  95 H :   -0.011726
  96 H :   -0.000432
  97 H :   -0.001595
  98 H :   -0.012850
Sum of atomic charges:   -0.0000000

LOEWDIN ATOMIC CHARGES
----------------------
   0 C :   -0.028853
   1 C :    0.065848
   2 F :   -0.049446
   3 C :    0.067544
   4 F :   -0.049732
   5 C :   -0.034146
   6 C :   -0.008854
   7 C :   -0.007545
   8 C :    0.017735
   9 C :   -0.022801
  10 C :   -0.050187
  11 C :    0.026165
  12 C :    0.080750
  13 O :   -0.166236
  14 C :   -0.111665
  15 C :    0.079278
  16 C :   -0.150670
  17 C :   -0.010158
  18 N :   -0.058432
  19 C :   -0.017719
  20 N :   -0.058483
  21 C :    0.056689
  22 C :   -0.216446
  23 C :    0.007679
  24 O :   -0.120391
  25 C :    0.079391
  26 C :    0.010083
  27 O :   -0.080967
  28 C :    0.080577
  29 C :   -0.178494
  30 S :    0.561003
  31 C :   -0.029121
  32 C :   -0.012907
  33 C :   -0.007191
  34 N :   -0.048006
  35 C :    0.031738
  36 C :    0.026291
  37 N :   -0.038187
  38 C :   -0.052939
  39 C :   -0.049814
  40 C :   -0.045234
  41 N :   -0.271212
  42 S :    0.670378
  43 N :   -0.279206
  44 C :   -0.156172
  45 C :   -0.015420
  46 O :   -0.112779
  47 C :    0.078881
  48 C :    0.046676
  49 O :   -0.077729
  50 C :    0.083854
  51 C :   -0.224811
  52 S :    0.524655
  53 C :    0.070920
  54 C :   -0.115877
  55 C :    0.080323
  56 O :   -0.150241
  57 C :   -0.049862
  58 C :    0.026132
  59 C :   -0.010250
  60 C :   -0.007302
  61 C :   -0.032715
  62 C :    0.064579
  63 C :    0.064724
  64 C :   -0.033496
  65 F :   -0.052318
  66 F :   -0.052208
  67 C :    0.007250
  68 C :   -0.017471
  69 C :    0.063886
  70 C :   -0.160090
  71 C :   -0.034566
  72 N :   -0.061611
  73 C :   -0.009030
  74 N :   -0.079659
  75 H :    0.047627
  76 H :    0.044063
  77 H :    0.039887
  78 H :    0.038001
  79 H :    0.047714
  80 H :    0.015934
  81 H :    0.018007
  82 H :    0.024555
  83 H :    0.013998
  84 H :    0.020296
  85 H :    0.022756
  86 H :    0.031484
  87 H :    0.033513
  88 H :    0.011620
  89 H :    0.017335
  90 H :    0.024909
  91 H :    0.018636
  92 H :    0.026619
  93 H :    0.021935
  94 H :    0.051572
  95 H :    0.039501
  96 H :    0.044871
  97 H :    0.044200
  98 H :    0.036589

  Mayer bond orders larger than 0.100000
B(  0-C ,  1-C ) :   1.4396 B(  0-C ,  5-C ) :   0.1084 B(  0-C ,  7-C ) :   1.1897
B(  0-C , 75-H ) :   1.0066 B(  1-C ,  2-F ) :   1.1341 B(  1-C ,  3-C ) :   1.1944
B(  3-C ,  4-F ) :   1.1324 B(  3-C ,  5-C ) :   1.4410 B(  5-C ,  6-C ) :   1.1931
B(  5-C , 76-H ) :   1.0069 B(  6-C ,  7-C ) :   1.2581 B(  6-C , 11-C ) :   1.1830
B(  7-C ,  8-C ) :   1.2126 B(  8-C ,  9-C ) :   1.4539 B(  8-C , 77-H ) :   0.9889
B(  9-C , 10-C ) :   1.2228 B(  9-C , 15-C ) :   0.9772 B( 10-C , 11-C ) :   1.4737
B( 10-C , 12-C ) :   0.9508 B( 11-C , 78-H ) :   1.0163 B( 12-C , 13-O ) :   2.1430
B( 12-C , 14-C ) :   0.9755 B( 14-C , 15-C ) :   1.0968 B( 14-C , 21-C ) :   1.4633
B( 15-C , 16-C ) :   1.5994 B( 16-C , 17-C ) :   1.1577 B( 16-C , 19-C ) :   1.1511
B( 17-C , 18-N ) :   2.9305 B( 19-C , 20-N ) :   2.9571 B( 21-C , 22-C ) :   1.2941
B( 21-C , 79-H ) :   0.9290 B( 22-C , 23-C ) :   1.3099 B( 22-C , 29-C ) :   0.1155
B( 22-C , 30-S ) :   1.0517 B( 23-C , 24-O ) :   1.1561 B( 23-C , 26-C ) :   1.2934
B( 23-C , 30-S ) :   0.1032 B( 24-O , 25-C ) :   0.8941 B( 25-C , 80-H ) :   0.9692
B( 25-C , 81-H ) :   0.9651 B( 25-C , 82-H ) :   0.9633 B( 26-C , 27-O ) :   1.2275
B( 26-C , 29-C ) :   1.3478 B( 27-O , 28-C ) :   0.9325 B( 28-C , 83-H ) :   0.9729
B( 28-C , 84-H ) :   0.9733 B( 28-C , 85-H ) :   0.9772 B( 29-C , 30-S ) :   1.1304
B( 29-C , 31-C ) :   1.1523 B( 31-C , 32-C ) :   1.2745 B( 31-C , 38-C ) :   0.1336
B( 31-C , 40-C ) :   1.2126 B( 32-C , 33-C ) :   1.1575 B( 32-C , 37-N ) :   1.4094
B( 33-C , 34-N ) :   1.3947 B( 33-C , 38-C ) :   1.2779 B( 34-N , 35-C ) :   1.6622
B( 35-C , 36-C ) :   1.1899 B( 35-C , 86-H ) :   0.9624 B( 36-C , 37-N ) :   1.6717
B( 36-C , 87-H ) :   0.9745 B( 38-C , 39-C ) :   1.2099 B( 38-C , 44-C ) :   1.1251
B( 39-C , 40-C ) :   1.0895 B( 39-C , 43-N ) :   1.5190 B( 40-C , 41-N ) :   1.5154
B( 41-N , 42-S ) :   1.2995 B( 41-N , 43-N ) :   0.1581 B( 42-S , 43-N ) :   1.2875
B( 44-C , 45-C ) :   1.4078 B( 44-C , 51-C ) :   0.1157 B( 44-C , 52-S ) :   1.1618
B( 45-C , 46-O ) :   1.1579 B( 45-C , 48-C ) :   1.2363 B( 46-O , 47-C ) :   0.9376
B( 47-C , 88-H ) :   0.9674 B( 47-C , 89-H ) :   0.9638 B( 47-C , 90-H ) :   0.9825
B( 48-C , 49-O ) :   1.2504 B( 48-C , 51-C ) :   1.3829 B( 49-O , 50-C ) :   0.9241
B( 50-C , 91-H ) :   0.9761 B( 50-C , 92-H ) :   0.9780 B( 50-C , 93-H ) :   0.9730
B( 51-C , 52-S ) :   1.0413 B( 51-C , 53-C ) :   1.2186 B( 53-C , 54-C ) :   1.5341
B( 53-C , 94-H ) :   0.9541 B( 54-C , 55-C ) :   0.9584 B( 54-C , 69-C ) :   1.0709
B( 55-C , 56-O ) :   2.2733 B( 55-C , 57-C ) :   0.9086 B( 57-C , 58-C ) :   1.4851
B( 57-C , 68-C ) :   1.2225 B( 58-C , 59-C ) :   1.1897 B( 58-C , 95-H ) :   1.0146
B( 59-C , 60-C ) :   1.2617 B( 59-C , 64-C ) :   1.1952 B( 60-C , 61-C ) :   1.1912
B( 60-C , 67-C ) :   1.2077 B( 61-C , 62-C ) :   1.4409 B( 61-C , 64-C ) :   0.1092
B( 61-C , 96-H ) :   1.0057 B( 62-C , 63-C ) :   1.1963 B( 62-C , 66-F ) :   1.1312
B( 63-C , 64-C ) :   1.4416 B( 63-C , 65-F ) :   1.1301 B( 64-C , 97-H ) :   1.0062
B( 67-C , 68-C ) :   1.4634 B( 67-C , 98-H ) :   0.9935 B( 68-C , 69-C ) :   1.0062
B( 69-C , 70-C ) :   1.6208 B( 70-C , 71-C ) :   1.1442 B( 70-C , 73-C ) :   1.1574
B( 71-C , 72-N ) :   3.0265 B( 73-C , 74-N ) :   2.8748

-----------------------------------------------------------------------------
         ABSORPTION SPECTRUM VIA TRANSITION ELECTRIC DIPOLE MOMENTS
-----------------------------------------------------------------------------
State   Energy  Wavelength   fosc         T2         TX        TY        TZ
        (cm-1)    (nm)                  (au**2)     (au)      (au)      (au)
-----------------------------------------------------------------------------
   0   10987.1    910.2   0.768849160  23.03743   1.47893   3.64828   2.74595
   1   16949.3    590.0   0.003622745   0.07037  -0.22749   0.01340   0.13578
   2   17770.6    562.7   0.117940141   2.18492   0.31778   0.19618  -1.43019
   3   18949.8    527.7   0.209460161   3.63891   0.51564   0.03337  -1.83628
   4   19762.7    506.0   0.196238883   3.26900   0.97540   1.08339  -1.06952
   5   20425.8    489.6   0.322342852   5.19534  -0.14561  -0.84995  -2.10991
   6   22644.1    441.6   0.024640944   0.35824   0.03227   0.16199  -0.57529
   7   23931.9    417.9   0.030712386   0.42249   0.13190  -0.44202   0.45794
   8   25063.9    399.0   0.019405231   0.25489  -0.08863  -0.17656   0.46461
   9   25289.1    395.4   0.015852995   0.20637  -0.00566   0.00047  -0.45425
  10   25511.9    392.0   0.010388624   0.13406   0.21920   0.29273   0.01774
  11   25955.5    385.3   0.023075053   0.29268   0.15422   0.08680  -0.51123
  12   26467.2    377.8   0.054486145   0.67773   0.32988   0.52818  -0.53845
  13   27339.8    365.8   0.149884247   1.80483   0.22462   1.31650  -0.14561
  14   27381.0    365.2   0.039829182   0.47888  -0.11020  -0.67992   0.06664
  15   27810.9    359.6   0.020357097   0.24098  -0.03951   0.48271  -0.08006
  16   28078.6    356.1   0.059812010   0.70127   0.36930  -0.08341  -0.74695
  17   28261.4    353.8   0.060811988   0.70839  -0.03443  -0.82162  -0.17928
  18   28713.9    348.3   0.053593845   0.61447  -0.30774  -0.57096   0.44018
  19   28874.7    346.3   0.012953560   0.14769  -0.29537   0.14537   0.19828
  20   29194.8    342.5   0.067139465   0.75709   0.12861  -0.10263  -0.85441
  21   29801.7    335.6   0.010336026   0.11418  -0.17138   0.04900  -0.28707
  22   30378.2    329.2   0.264853493   2.87025  -0.92000  -0.48118   1.33877
  23   31326.1    319.2   0.080683870   0.84792  -0.07091  -0.26848   0.87796
  24   31425.0    318.2   0.119740186   1.25441   0.18073  -0.98896   0.49366
  25   31560.1    316.9   0.052097479   0.54344  -0.06949   0.49068  -0.54575
  26   31647.3    316.0   0.166823677   1.73539  -0.09958  -1.06934   0.76288
  27   31875.8    313.7   0.035428807   0.36591  -0.31101   0.07157   0.51387
  28   32211.5    310.4   0.331845656   3.39157   0.63763   1.11082  -1.32328
  29   32639.4    306.4   0.045587061   0.45981   0.29779  -0.60018  -0.10448
  30   32780.1    305.1   0.041447959   0.41626   0.00156   0.35473   0.53891
  31   32861.0    304.3   0.032171006   0.32230  -0.31643  -0.44085  -0.16678
  32   33051.5    302.6   0.028855305   0.28742   0.18557   0.38386  -0.32501
  33   33435.2    299.1   0.147426806   1.45160  -0.57174  -0.97227  -0.42356
  34   33625.0    297.4   0.012227796   0.11972  -0.11918  -0.30599   0.10902
  35   33709.1    296.7   0.033122568   0.32348   0.25339   0.42999  -0.27274
  36   34400.6    290.7   0.103389787   0.98944  -0.61027  -0.37141   0.69214
  37   34667.2    288.5   0.014544158   0.13812  -0.23063  -0.18455   0.22553
  38   34932.1    286.3   0.120222890   1.13302   0.04813   0.98350  -0.40427
  39   35026.5    285.5   0.066168652   0.62192  -0.21184  -0.62464   0.43228
  40   35295.4    283.3   0.086543812   0.80722  -0.16146  -0.09508   0.87870
  41   35340.3    283.0   0.003753942   0.03497   0.11232  -0.10639  -0.10504
  42   35664.0    280.4   0.025215284   0.23276   0.14614   0.26897  -0.37291
  43   36011.2    277.7   0.645553929   5.90161  -0.17113   2.04363  -1.30227
  44   36567.9    273.5   0.488106012   4.39430   1.10815   1.70754  -0.50060
  45   36748.9    272.1   0.168946125   1.51349   0.30673   1.10340  -0.44935
  46   36803.6    271.7   0.031585558   0.28254  -0.03458  -0.37954   0.37053
  47   37045.5    269.9   0.019893353   0.17679  -0.35237   0.02387  -0.22814
  48   37259.3    268.4   0.139694343   1.23430   0.86185  -0.01709  -0.70087
  49   37568.7    266.2   0.140636963   1.23239  -0.70194  -0.02707   0.85962
  50   37849.7    264.2   0.028305002   0.24619  -0.24281   0.13398   0.41144
  51   38153.0    262.1   0.077821113   0.67150  -0.48193  -0.00133   0.66275
  52   38503.6    259.7   0.005364361   0.04587   0.11191   0.08734   0.16036
  53   38612.1    259.0   0.072888504   0.62146   0.52070   0.27247  -0.52545
  54   39523.0    253.0   0.008191421   0.06823   0.04525  -0.07540  -0.24596
  55   39595.1    252.6   0.143106763   1.18986  -0.18290   0.15809   1.06368
  56   39727.4    251.7   0.043456669   0.36012  -0.05816   0.11066   0.58693
  57   39899.8    250.6   0.122253458   1.00871  -0.17758   0.00346   0.98852
  58   40266.0    248.3   0.140093169   1.14539  -0.40543   0.03909   0.98969

FINAL SINGLE POINT ENERGY     -4550.848332487471

DIPOLE MOMENT
-------------
                                X             Y             Z
Electronic contribution:    -15.21596     -32.60426      49.98319
Nuclear contribution   :     16.68161      32.94692     -51.92880
                        -----------------------------------------
Total Dipole Moment    :      1.46565       0.34266      -1.94561
                        -----------------------------------------
Magnitude (a.u.)       :      2.45986
Magnitude (Debye)      :      6.25248

Rotational constants in cm-1:     0.000884     0.000444     0.000307
Rotational constants in MHz :    26.506267    13.310198     9.194064

                             ****ORCA TERMINATED NORMALLY****
TOTAL RUN TIME: 0 days 0 hours 11 minutes 51 seconds 656 msec
