                         Program Version 4.2.0 -  RELEASE  -
|  1> # ORCA input file
|  2> # SCF done       -182.405553686337          0.000777105466
|  3> ! CAM-B3LYP def2-SVP def2/J RIJCOSX Grid4 TightSCF
|  4> %maxcore 5000
|  5> %tddft
|  6>     Mode sTDDFT
|  7>     Ethresh 5.0
|  8>     maxcore 5000
|  9> end
| 10>
| 11> %pal
| 12>   nprocs 6
| 13>   end
| 14> * xyz 0 1
| 15>    C        5.49836        -2.33534         1.20552
| 16>    C        4.81681        -3.20156         0.19401
| 17>    O        3.91642        -3.97792         0.42000
| 18>    C        5.44567        -2.84946        -1.08807
| 19>    C        6.52106        -1.98814        -0.86124
| 20>    C        6.68005        -1.77834         0.57394
| 21>    C        7.83783        -1.40812         1.20725
| 22>    C        8.01318        -1.45078         2.60408
| 23>    N        8.22410        -1.50286         3.73167
| 24>    C        8.99844        -0.97410         0.53556
| 25>    N        9.96507        -0.59979         0.04241
| 26>    C        7.26763        -1.47906        -1.93071
| 27>    C        6.92985        -1.85350        -3.20467
| 28>    C        5.86099        -2.73862        -3.46922
| 29>    C        5.08680        -3.25423        -2.38953
| 30>    C        4.01658        -4.13046        -2.65931
| 31>    C        3.72801        -4.48678        -3.94828
| 32>    C        4.48948        -3.98508        -5.01546
| 33>    C        5.53159        -3.12966        -4.78267
| 34>    C        4.92417        -2.11360         2.41085
| 35>    C        5.22218        -1.06347         3.32236
| 36>    C        5.03647        -1.11734         4.77523
| 37>    N        5.35335        -0.01927         5.39743
| 38>    C        5.74536         0.85346         4.42725
| 39>    C        5.68601         0.21366         3.09985
| 40>    C        5.98400         1.18206         2.07574
| 41>    S        5.84180         0.99329         0.44597
| 42>    C        6.30195         2.38055         2.80196
| 43>    C        6.13175         2.15467         4.24468
| 44>    N        6.39437         3.29988         4.93919
| 45>    C        6.65193         4.20774         4.04778
| 46>    C        6.58677         3.72058         2.65853
| 47>    C        6.89566         4.41154         1.45578
| 48>    O        7.52858         3.66095         0.49874
| 49>    C        7.74265         4.49903        -0.51219
| 50>    C        8.25373         4.79716        -1.89090
| 51>    C        7.70810         6.24449        -1.64265
| 52>    C        7.26602         5.75205        -0.27768
| 53>    C        6.67606         5.74605         1.00819
| 54>    C        5.89166         6.79339         1.57721
| 55>    C        5.11176         6.67814         2.67461
| 56>    C        4.22384         7.66314         3.17928
| 57>    C        3.67880         8.86720         2.52810
| 58>    N        2.72365         9.44612         3.18849
| 59>    C        2.55131         8.70316         4.32691
| 60>    C        3.53665         7.61255         4.36805
| 61>    C        3.37596         6.83238         5.56149
| 62>    S        4.44042         5.73125         6.17097
| 63>    C        2.14929         7.32661         6.12979
| 64>    C        1.70670         8.53384         5.38914
| 65>    N        0.55798         9.02684         5.93098
| 66>    C        0.24533         8.21646         6.89501
| 67>    C        1.16908         7.08263         7.06307
| 68>    C        0.99938         6.05500         8.02867
| 69>    C        1.50727         4.79843         8.04679
| 70>    C        1.53785         4.04854         9.34857
| 71>    O        0.87492         4.31314        10.32514
| 72>    C        2.56379         3.01500         9.16332
| 73>    C        2.98661         3.01265         7.83060
| 74>    C        2.21379         3.99075         7.07640
| 75>    C        2.03165         3.98339         5.71702
| 76>    C        2.71179         3.13695         4.81894
| 77>    N        3.24179         2.51311         4.01262
| 78>    C        1.12923         4.83548         5.05133
| 79>    N        0.40139         5.50357         4.46591
| 80>    C        4.00438         2.15700         7.40061
| 81>    C        4.56781         1.29737         8.30783
| 82>    C        4.14893         1.25393         9.65576
| 83>    C        3.12493         2.13690        10.11139
| 84>    C        2.72321         2.09792        11.46192
| 85>    C        3.30853         1.21520        12.32771
| 86>    C        4.31403         0.34074        11.88489
| 87>    C        4.72549         0.35896        10.58015
| 88>    H        8.07996        -0.79285        -1.75540
| 89>    H        7.49123        -1.46698        -4.04323
| 90>    H        3.43759        -4.50966        -1.83211
| 91>    H        2.90872        -5.15928        -4.15410
| 92>    H        4.24476        -4.28015        -6.02514
| 93>    H        6.11920        -2.74233        -5.60258
| 94>    H        4.10309        -2.77180         2.67780
| 95>    H        4.69890        -1.98227         5.31912
| 96>    H        6.96061         5.19344         4.34859
| 97>    H        7.75956         4.24768        -2.68931
| 98>    H        9.33259         4.72203        -2.00931
| 99>    H        6.89728         6.54062        -2.30364
|100>    H        8.47107         7.01891        -1.62141
|101>    H        5.90261         7.72187         1.02122
|102>    H        5.10244         5.74774         3.22653
|103>    H        4.00070         9.26344         1.58091
|104>    H       -0.63307         8.38278         7.49411
|105>    H        0.42396         6.33010         8.90889
|106>    H        4.36519         2.18580         6.38792
|107>    H        5.35158         0.63261         7.97770
|108>    H        1.95076         2.77467        11.79200
|109>    H        3.00017         1.18571        13.36213
|110>    H        4.76203        -0.34753        12.58636
|111>    H        5.49924        -0.31138        10.23582
|112> *
|113>
|114>                          ****END OF INPUT****

CARTESIAN COORDINATES (ANGSTROEM)
---------------------------------
  C      5.498360   -2.335340    1.205520
  C      4.816810   -3.201560    0.194010
  O      3.916420   -3.977920    0.420000
  C      5.445670   -2.849460   -1.088070
  C      6.521060   -1.988140   -0.861240
  C      6.680050   -1.778340    0.573940
  C      7.837830   -1.408120    1.207250
  C      8.013180   -1.450780    2.604080
  N      8.224100   -1.502860    3.731670
  C      8.998440   -0.974100    0.535560
  N      9.965070   -0.599790    0.042410
  C      7.267630   -1.479060   -1.930710
  C      6.929850   -1.853500   -3.204670
  C      5.860990   -2.738620   -3.469220
  C      5.086800   -3.254230   -2.389530
  C      4.016580   -4.130460   -2.659310
  C      3.728010   -4.486780   -3.948280
  C      4.489480   -3.985080   -5.015460
  C      5.531590   -3.129660   -4.782670
  C      4.924170   -2.113600    2.410850
  C      5.222180   -1.063470    3.322360
  C      5.036470   -1.117340    4.775230
  N      5.353350   -0.019270    5.397430
  C      5.745360    0.853460    4.427250
  C      5.686010    0.213660    3.099850
  C      5.984000    1.182060    2.075740
  S      5.841800    0.993290    0.445970
  C      6.301950    2.380550    2.801960
  C      6.131750    2.154670    4.244680
  N      6.394370    3.299880    4.939190
  C      6.651930    4.207740    4.047780
  C      6.586770    3.720580    2.658530
  C      6.895660    4.411540    1.455780
  O      7.528580    3.660950    0.498740
  C      7.742650    4.499030   -0.512190
  C      8.253730    4.797160   -1.890900
  C      7.708100    6.244490   -1.642650
  C      7.266020    5.752050   -0.277680
  C      6.676060    5.746050    1.008190
  C      5.891660    6.793390    1.577210
  C      5.111760    6.678140    2.674610
  C      4.223840    7.663140    3.179280
  C      3.678800    8.867200    2.528100
  N      2.723650    9.446120    3.188490
  C      2.551310    8.703160    4.326910
  C      3.536650    7.612550    4.368050
  C      3.375960    6.832380    5.561490
  S      4.440420    5.731250    6.170970
  C      2.149290    7.326610    6.129790
  C      1.706700    8.533840    5.389140
  N      0.557980    9.026840    5.930980
  C      0.245330    8.216460    6.895010
  C      1.169080    7.082630    7.063070
  C      0.999380    6.055000    8.028670
  C      1.507270    4.798430    8.046790
  C      1.537850    4.048540    9.348570
  O      0.874920    4.313140   10.325140
  C      2.563790    3.015000    9.163320
  C      2.986610    3.012650    7.830600
  C      2.213790    3.990750    7.076400
  C      2.031650    3.983390    5.717020
  C      2.711790    3.136950    4.818940
  N      3.241790    2.513110    4.012620
  C      1.129230    4.835480    5.051330
  N      0.401390    5.503570    4.465910
  C      4.004380    2.157000    7.400610
  C      4.567810    1.297370    8.307830
  C      4.148930    1.253930    9.655760
  C      3.124930    2.136900   10.111390
  C      2.723210    2.097920   11.461920
  C      3.308530    1.215200   12.327710
  C      4.314030    0.340740   11.884890
  C      4.725490    0.358960   10.580150
  H      8.079960   -0.792850   -1.755400
  H      7.491230   -1.466980   -4.043230
  H      3.437590   -4.509660   -1.832110
  H      2.908720   -5.159280   -4.154100
  H      4.244760   -4.280150   -6.025140
  H      6.119200   -2.742330   -5.602580
  H      4.103090   -2.771800    2.677800
  H      4.698900   -1.982270    5.319120
  H      6.960610    5.193440    4.348590
  H      7.759560    4.247680   -2.689310
  H      9.332590    4.722030   -2.009310
  H      6.897280    6.540620   -2.303640
  H      8.471070    7.018910   -1.621410
  H      5.902610    7.721870    1.021220
  H      5.102440    5.747740    3.226530
  H      4.000700    9.263440    1.580910
  H     -0.633070    8.382780    7.494110
  H      0.423960    6.330100    8.908890
  H      4.365190    2.185800    6.387920
  H      5.351580    0.632610    7.977700
  H      1.950760    2.774670   11.792000
  H      3.000170    1.185710   13.362130
  H      4.762030   -0.347530   12.586360
  H      5.499240   -0.311380   10.235820

 Total Charge           Charge          ....    0
 Multiplicity           Mult            ....    1
 Number of Electrons    NEL             ....  496
 Basis Dimension        Dim             .... 1150

ORBITAL ENERGIES
----------------

  NO   OCC          E(Eh)            E(eV)
   0   2.0000     -88.915219     -2419.5061
   1   2.0000     -88.906747     -2419.2756
   2   2.0000     -19.305060      -525.3174
   3   2.0000     -19.219189      -522.9807
   4   2.0000     -19.218007      -522.9485
   5   2.0000     -14.422064      -392.4443
   6   2.0000     -14.420522      -392.4024
   7   2.0000     -14.420075      -392.3902
   8   2.0000     -14.419872      -392.3847
   9   2.0000     -14.419072      -392.3629
  10   2.0000     -14.419022      -392.3615
  11   2.0000     -14.412698      -392.1895
  12   2.0000     -14.411538      -392.1579
  13   2.0000     -10.369179      -282.1597
  14   2.0000     -10.368480      -282.1407
  15   2.0000     -10.349600      -281.6269
  16   2.0000     -10.348237      -281.5898
  17   2.0000     -10.345169      -281.5064
  18   2.0000     -10.343823      -281.4697
  19   2.0000     -10.342963      -281.4463
  20   2.0000     -10.342453      -281.4325
  21   2.0000     -10.342023      -281.4208
  22   2.0000     -10.341512      -281.4069
  23   2.0000     -10.339524      -281.3528
  24   2.0000     -10.337873      -281.3078
  25   2.0000     -10.336756      -281.2774
  26   2.0000     -10.336317      -281.2655
  27   2.0000     -10.335501      -281.2433
  28   2.0000     -10.334320      -281.2111
  29   2.0000     -10.330414      -281.1048
  30   2.0000     -10.326688      -281.0035
  31   2.0000     -10.324189      -280.9355
  32   2.0000     -10.320406      -280.8325
  33   2.0000     -10.317102      -280.7426
  34   2.0000     -10.315366      -280.6954
  35   2.0000     -10.314454      -280.6706
  36   2.0000     -10.313365      -280.6409
  37   2.0000     -10.313008      -280.6312
  38   2.0000     -10.312450      -280.6160
  39   2.0000     -10.310811      -280.5714
  40   2.0000     -10.310046      -280.5506
  41   2.0000     -10.307990      -280.4947
  42   2.0000     -10.307446      -280.4799
  43   2.0000     -10.305868      -280.4369
  44   2.0000     -10.305369      -280.4234
  45   2.0000     -10.304369      -280.3961
  46   2.0000     -10.303989      -280.3858
  47   2.0000     -10.303951      -280.3848
  48   2.0000     -10.301842      -280.3274
  49   2.0000     -10.301635      -280.3217
  50   2.0000     -10.298518      -280.2369
  51   2.0000     -10.297538      -280.2103
  52   2.0000     -10.296535      -280.1830
  53   2.0000     -10.295694      -280.1601
  54   2.0000     -10.294838      -280.1368
  55   2.0000     -10.294376      -280.1242
  56   2.0000     -10.293354      -280.0964
  57   2.0000     -10.293330      -280.0957
  58   2.0000     -10.290890      -280.0294
  59   2.0000     -10.290388      -280.0157
  60   2.0000     -10.289002      -279.9780
  61   2.0000     -10.287455      -279.9359
  62   2.0000     -10.282803      -279.8093
  63   2.0000     -10.282442      -279.7995
  64   2.0000     -10.281857      -279.7836
  65   2.0000     -10.279883      -279.7298
  66   2.0000     -10.279012      -279.7061
  67   2.0000     -10.277525      -279.6657
  68   2.0000     -10.276793      -279.6458
  69   2.0000     -10.276220      -279.6302
  70   2.0000     -10.275947      -279.6227
  71   2.0000     -10.272506      -279.5291
  72   2.0000     -10.269763      -279.4545
  73   2.0000      -8.009976      -217.9625
  74   2.0000      -8.001948      -217.7441
  75   2.0000      -5.978742      -162.6899
  76   2.0000      -5.978514      -162.6836
  77   2.0000      -5.970794      -162.4736
  78   2.0000      -5.970389      -162.4625
  79   2.0000      -5.969332      -162.4338
  80   2.0000      -5.961327      -162.2159
  81   2.0000      -1.218977       -33.1701
  82   2.0000      -1.134221       -30.8637
  83   2.0000      -1.132965       -30.8295
  84   2.0000      -1.088817       -29.6282
  85   2.0000      -1.086992       -29.5786
  86   2.0000      -1.069380       -29.0993
  87   2.0000      -1.068045       -29.0630
  88   2.0000      -1.021069       -27.7847
  89   2.0000      -1.016545       -27.6616
  90   2.0000      -0.998155       -27.1612
  91   2.0000      -0.997864       -27.1533
  92   2.0000      -0.997168       -27.1343
  93   2.0000      -0.990637       -26.9566
  94   2.0000      -0.973438       -26.4886
  95   2.0000      -0.971544       -26.4371
  96   2.0000      -0.968865       -26.3642
  97   2.0000      -0.964611       -26.2484
  98   2.0000      -0.964460       -26.2443
  99   2.0000      -0.936922       -25.4949
 100   2.0000      -0.924775       -25.1644
 101   2.0000      -0.923030       -25.1169
 102   2.0000      -0.913179       -24.8489
 103   2.0000      -0.909219       -24.7411
 104   2.0000      -0.904347       -24.6085
 105   2.0000      -0.896013       -24.3817
 106   2.0000      -0.893540       -24.3145
 107   2.0000      -0.880885       -23.9701
 108   2.0000      -0.866173       -23.5698
 109   2.0000      -0.864938       -23.5362
 110   2.0000      -0.858056       -23.3489
 111   2.0000      -0.855375       -23.2759
 112   2.0000      -0.844061       -22.9681
 113   2.0000      -0.842301       -22.9202
 114   2.0000      -0.831862       -22.6361
 115   2.0000      -0.826705       -22.4958
 116   2.0000      -0.823478       -22.4080
 117   2.0000      -0.797376       -21.6977
 118   2.0000      -0.788969       -21.4689
 119   2.0000      -0.784051       -21.3351
 120   2.0000      -0.774597       -21.0779
 121   2.0000      -0.773293       -21.0424
 122   2.0000      -0.763281       -20.7699
 123   2.0000      -0.762065       -20.7368
 124   2.0000      -0.748452       -20.3664
 125   2.0000      -0.742859       -20.2142
 126   2.0000      -0.735092       -20.0029
 127   2.0000      -0.724313       -19.7096
 128   2.0000      -0.713869       -19.4254
 129   2.0000      -0.712701       -19.3936
 130   2.0000      -0.710659       -19.3380
 131   2.0000      -0.708701       -19.2847
 132   2.0000      -0.703571       -19.1451
 133   2.0000      -0.701314       -19.0837
 134   2.0000      -0.688054       -18.7229
 135   2.0000      -0.686506       -18.6808
 136   2.0000      -0.675760       -18.3884
 137   2.0000      -0.674259       -18.3475
 138   2.0000      -0.671010       -18.2591
 139   2.0000      -0.664646       -18.0859
 140   2.0000      -0.656134       -17.8543
 141   2.0000      -0.646002       -17.5786
 142   2.0000      -0.637558       -17.3488
 143   2.0000      -0.632129       -17.2011
 144   2.0000      -0.627253       -17.0684
 145   2.0000      -0.626907       -17.0590
 146   2.0000      -0.625111       -17.0101
 147   2.0000      -0.608473       -16.5574
 148   2.0000      -0.604455       -16.4480
 149   2.0000      -0.601606       -16.3705
 150   2.0000      -0.593826       -16.1588
 151   2.0000      -0.587519       -15.9872
 152   2.0000      -0.587134       -15.9767
 153   2.0000      -0.585031       -15.9195
 154   2.0000      -0.582820       -15.8593
 155   2.0000      -0.579428       -15.7670
 156   2.0000      -0.577756       -15.7215
 157   2.0000      -0.573734       -15.6121
 158   2.0000      -0.570957       -15.5365
 159   2.0000      -0.567261       -15.4360
 160   2.0000      -0.558416       -15.1953
 161   2.0000      -0.556556       -15.1446
 162   2.0000      -0.553178       -15.0527
 163   2.0000      -0.551003       -14.9936
 164   2.0000      -0.548940       -14.9374
 165   2.0000      -0.547110       -14.8876
 166   2.0000      -0.537270       -14.6198
 167   2.0000      -0.536683       -14.6039
 168   2.0000      -0.536094       -14.5879
 169   2.0000      -0.533017       -14.5041
 170   2.0000      -0.530196       -14.4274
 171   2.0000      -0.524295       -14.2668
 172   2.0000      -0.522445       -14.2165
 173   2.0000      -0.521478       -14.1901
 174   2.0000      -0.515168       -14.0184
 175   2.0000      -0.510300       -13.8860
 176   2.0000      -0.508194       -13.8287
 177   2.0000      -0.505761       -13.7625
 178   2.0000      -0.505003       -13.7418
 179   2.0000      -0.504364       -13.7244
 180   2.0000      -0.501557       -13.6481
 181   2.0000      -0.501374       -13.6431
 182   2.0000      -0.498832       -13.5739
 183   2.0000      -0.497355       -13.5337
 184   2.0000      -0.494874       -13.4662
 185   2.0000      -0.494405       -13.4534
 186   2.0000      -0.492238       -13.3945
 187   2.0000      -0.489387       -13.3169
 188   2.0000      -0.488164       -13.2836
 189   2.0000      -0.485143       -13.2014
 190   2.0000      -0.477020       -12.9804
 191   2.0000      -0.475367       -12.9354
 192   2.0000      -0.474478       -12.9112
 193   2.0000      -0.472384       -12.8542
 194   2.0000      -0.467698       -12.7267
 195   2.0000      -0.465074       -12.6553
 196   2.0000      -0.464087       -12.6284
 197   2.0000      -0.461961       -12.5706
 198   2.0000      -0.460080       -12.5194
 199   2.0000      -0.456229       -12.4146
 200   2.0000      -0.452092       -12.3020
 201   2.0000      -0.448368       -12.2007
 202   2.0000      -0.447958       -12.1896
 203   2.0000      -0.446926       -12.1615
 204   2.0000      -0.444041       -12.0830
 205   2.0000      -0.441040       -12.0013
 206   2.0000      -0.440011       -11.9733
 207   2.0000      -0.437587       -11.9073
 208   2.0000      -0.436710       -11.8835
 209   2.0000      -0.432143       -11.7592
 210   2.0000      -0.431127       -11.7316
 211   2.0000      -0.430017       -11.7014
 212   2.0000      -0.428751       -11.6669
 213   2.0000      -0.427548       -11.6342
 214   2.0000      -0.424149       -11.5417
 215   2.0000      -0.423090       -11.5129
 216   2.0000      -0.421848       -11.4791
 217   2.0000      -0.420645       -11.4463
 218   2.0000      -0.418885       -11.3984
 219   2.0000      -0.415121       -11.2960
 220   2.0000      -0.412488       -11.2244
 221   2.0000      -0.404020       -10.9939
 222   2.0000      -0.402545       -10.9538
 223   2.0000      -0.400204       -10.8901
 224   2.0000      -0.376123       -10.2348
 225   2.0000      -0.374282       -10.1847
 226   2.0000      -0.370527       -10.0826
 227   2.0000      -0.363521        -9.8919
 228   2.0000      -0.361092        -9.8258
 229   2.0000      -0.359952        -9.7948
 230   2.0000      -0.359186        -9.7739
 231   2.0000      -0.357681        -9.7330
 232   2.0000      -0.357048        -9.7158
 233   2.0000      -0.350862        -9.5474
 234   2.0000      -0.336425        -9.1546
 235   2.0000      -0.335117        -9.1190
 236   2.0000      -0.325162        -8.8481
 237   2.0000      -0.320308        -8.7160
 238   2.0000      -0.313263        -8.5243
 239   2.0000      -0.312694        -8.5088
 240   2.0000      -0.306655        -8.3445
 241   2.0000      -0.302616        -8.2346
 242   2.0000      -0.300618        -8.1802
 243   2.0000      -0.291826        -7.9410
 244   2.0000      -0.290098        -7.8940
 245   2.0000      -0.284174        -7.7328
 246   2.0000      -0.283098        -7.7035
 247   2.0000      -0.262372        -7.1395
 248   0.0000      -0.119813        -3.2603
 249   0.0000      -0.114342        -3.1114
 250   0.0000      -0.098797        -2.6884
 251   0.0000      -0.090324        -2.4578
 252   0.0000      -0.072337        -1.9684

MULLIKEN ATOMIC CHARGES
-----------------------
   0 C :   -0.082509
   1 C :    0.113048
   2 O :   -0.147407
   3 C :    0.015666
   4 C :    0.005935
   5 C :    0.245060
   6 C :   -0.327198
   7 C :   -0.190200
   8 N :    0.167043
   9 C :   -0.175447
  10 N :    0.158437
  11 C :   -0.018673
  12 C :    0.007601
  13 C :    0.076945
  14 C :    0.035034
  15 C :   -0.024003
  16 C :    0.035856
  17 C :    0.038388
  18 C :   -0.020210
  19 C :    0.017057
  20 C :   -0.013872
  21 C :    0.085251
  22 N :   -0.047885
  23 C :    0.031653
  24 C :    0.015642
  25 C :   -0.008909
  26 S :   -0.109429
  27 C :    0.037024
  28 C :    0.023941
  29 N :   -0.037134
  30 C :    0.078262
  31 C :   -0.044422
  32 C :    0.064285
  33 O :   -0.156906
  34 C :   -0.020922
  35 C :    0.153441
  36 C :    0.132077
  37 C :   -0.149496
  38 C :    0.002438
  39 C :    0.015152
  40 C :   -0.036888
  41 C :    0.004291
  42 C :    0.068900
  43 N :   -0.029247
  44 C :    0.037173
  45 C :    0.009293
  46 C :   -0.039290
  47 S :   -0.081245
  48 C :    0.005584
  49 C :    0.016990
  50 N :   -0.024627
  51 C :    0.076419
  52 C :   -0.002569
  53 C :    0.004293
  54 C :   -0.095210
  55 C :    0.109460
  56 O :   -0.147378
  57 C :    0.008716
  58 C :    0.019654
  59 C :    0.284063
  60 C :   -0.377740
  61 C :   -0.142228
  62 N :    0.149521
  63 C :   -0.204470
  64 N :    0.185419
  65 C :   -0.002475
  66 C :    0.012673
  67 C :    0.084244
  68 C :    0.035958
  69 C :   -0.028826
  70 C :    0.038308
  71 C :    0.037864
  72 C :   -0.019050
  73 H :    0.000034
  74 H :   -0.015182
  75 H :   -0.000166
  76 H :   -0.006397
  77 H :   -0.007893
  78 H :   -0.022763
  79 H :    0.019940
  80 H :    0.007252
  81 H :    0.021305
  82 H :    0.029889
  83 H :    0.031631
  84 H :    0.021594
  85 H :    0.022154
  86 H :   -0.013627
  87 H :    0.000980
  88 H :    0.011199
  89 H :    0.012031
  90 H :    0.019502
  91 H :   -0.025020
  92 H :   -0.006585
  93 H :   -0.003088
  94 H :   -0.008799
  95 H :   -0.007738
  96 H :   -0.018449
Sum of atomic charges:   -0.0000000

LOEWDIN ATOMIC CHARGES
----------------------
   0 C :   -0.054189
   1 C :    0.089019
   2 O :   -0.138841
   3 C :   -0.033493
   4 C :    0.002327
   5 C :    0.061581
   6 C :   -0.138611
   7 C :   -0.016900
   8 N :   -0.052611
   9 C :   -0.020044
  10 N :   -0.053500
  11 C :   -0.017301
  12 C :    0.019279
  13 C :   -0.010392
  14 C :   -0.002484
  15 C :   -0.002161
  16 C :   -0.012422
  17 C :   -0.013521
  18 C :   -0.012750
  19 C :    0.046838
  20 C :   -0.050768
  21 C :    0.099672
  22 N :   -0.075738
  23 C :    0.037814
  24 C :    0.000047
  25 C :   -0.135529
  26 S :    0.102360
  27 C :   -0.023547
  28 C :    0.048225
  29 N :   -0.084116
  30 C :    0.095488
  31 C :   -0.054493
  32 C :    0.041631
  33 O :    0.040072
  34 C :    0.018427
  35 C :    0.001468
  36 C :    0.006197
  37 C :   -0.079615
  38 C :   -0.053319
  39 C :    0.000872
  40 C :   -0.018706
  41 C :   -0.035547
  42 C :    0.093502
  43 N :   -0.073928
  44 C :    0.047302
  45 C :   -0.034969
  46 C :   -0.150283
  47 S :    0.122607
  48 C :   -0.005189
  49 C :    0.040865
  50 N :   -0.071047
  51 C :    0.094609
  52 C :   -0.051980
  53 C :    0.041935
  54 C :   -0.051154
  55 C :    0.089696
  56 O :   -0.137936
  57 C :   -0.038093
  58 C :    0.001076
  59 C :    0.067152
  60 C :   -0.144126
  61 C :   -0.010486
  62 N :   -0.061875
  63 C :   -0.016769
  64 N :   -0.046664
  65 C :   -0.009483
  66 C :    0.035558
  67 C :   -0.009813
  68 C :   -0.003041
  69 C :   -0.004973
  70 C :   -0.013295
  71 C :   -0.014825
  72 C :   -0.009308
  73 H :    0.038785
  74 H :    0.034654
  75 H :    0.035429
  76 H :    0.032574
  77 H :    0.031509
  78 H :    0.029702
  79 H :    0.048057
  80 H :    0.027617
  81 H :    0.026214
  82 H :    0.035354
  83 H :    0.035889
  84 H :    0.030176
  85 H :    0.030195
  86 H :    0.033093
  87 H :    0.034875
  88 H :    0.025133
  89 H :    0.028480
  90 H :    0.048171
  91 H :    0.033688
  92 H :    0.035444
  93 H :    0.034300
  94 H :    0.031709
  95 H :    0.031395
  96 H :    0.031775

  Mayer bond orders larger than 0.100000
B(  0-C ,  1-C ) :   0.9475 B(  0-C ,  5-C ) :   1.0073 B(  0-C , 19-C ) :   1.7343
B(  1-C ,  2-O ) :   2.2036 B(  1-C ,  3-C ) :   0.9427 B(  3-C ,  4-C ) :   1.4215
B(  3-C , 14-C ) :   1.2296 B(  4-C ,  5-C ) :   1.0007 B(  4-C , 11-C ) :   1.2624
B(  5-C ,  6-C ) :   1.6482 B(  6-C ,  7-C ) :   1.1693 B(  6-C ,  9-C ) :   1.1327
B(  7-C ,  8-N ) :   3.0059 B(  9-C , 10-N ) :   3.0008 B( 11-C , 12-C ) :   1.4667
B( 11-C , 73-H ) :   0.9872 B( 12-C , 13-C ) :   1.2212 B( 12-C , 74-H ) :   0.9934
B( 13-C , 14-C ) :   1.2438 B( 13-C , 18-C ) :   1.2414 B( 14-C , 15-C ) :   1.2770
B( 15-C , 16-C ) :   1.4731 B( 15-C , 75-H ) :   0.9867 B( 16-C , 17-C ) :   1.2567
B( 16-C , 76-H ) :   0.9879 B( 17-C , 18-C ) :   1.4953 B( 17-C , 77-H ) :   0.9895
B( 18-C , 78-H ) :   0.9968 B( 19-C , 20-C ) :   1.0432 B( 19-C , 79-H ) :   0.9431
B( 20-C , 21-C ) :   1.0292 B( 20-C , 24-C ) :   1.5163 B( 21-C , 22-N ) :   1.6993
B( 21-C , 80-H ) :   0.9929 B( 22-N , 23-C ) :   1.2533 B( 23-C , 24-C ) :   1.0732
B( 23-C , 28-C ) :   1.5050 B( 24-C , 25-C ) :   1.0475 B( 25-C , 26-S ) :   1.6620
B( 25-C , 27-C ) :   1.0386 B( 27-C , 28-C ) :   1.0647 B( 27-C , 31-C ) :   1.5413
B( 28-C , 29-N ) :   1.2389 B( 29-N , 30-C ) :   1.7159 B( 30-C , 31-C ) :   1.0180
B( 30-C , 81-H ) :   0.9868 B( 31-C , 32-C ) :   1.0624 B( 32-C , 33-O ) :   1.1565
B( 32-C , 38-C ) :   1.3827 B( 33-O , 34-C ) :   1.1831 B( 34-C , 35-C ) :   1.1373
B( 34-C , 37-C ) :   1.5771 B( 35-C , 36-C ) :   1.2038 B( 35-C , 82-H ) :   0.8839
B( 35-C , 83-H ) :   0.8807 B( 36-C , 37-C ) :   1.0981 B( 36-C , 84-H ) :   0.8950
B( 36-C , 85-H ) :   0.8934 B( 37-C , 38-C ) :   1.2075 B( 38-C , 39-C ) :   1.1249
B( 39-C , 40-C ) :   1.6515 B( 39-C , 86-H ) :   0.9717 B( 40-C , 41-C ) :   1.1339
B( 40-C , 87-H ) :   0.9660 B( 41-C , 42-C ) :   1.0026 B( 41-C , 45-C ) :   1.5221
B( 42-C , 43-N ) :   1.7542 B( 42-C , 88-H ) :   0.9884 B( 43-N , 44-C ) :   1.2531
B( 44-C , 45-C ) :   1.0598 B( 44-C , 49-C ) :   1.5230 B( 45-C , 46-C ) :   1.0214
B( 46-C , 47-S ) :   1.6635 B( 46-C , 48-C ) :   1.0286 B( 48-C , 49-C ) :   1.0610
B( 48-C , 52-C ) :   1.5199 B( 49-C , 50-N ) :   1.2745 B( 50-N , 51-C ) :   1.7279
B( 51-C , 52-C ) :   1.0202 B( 51-C , 89-H ) :   0.9932 B( 52-C , 53-C ) :   1.0709
B( 53-C , 54-C ) :   1.7266 B( 53-C , 90-H ) :   0.9360 B( 54-C , 55-C ) :   0.9360
B( 54-C , 59-C ) :   1.0171 B( 55-C , 56-O ) :   2.1987 B( 55-C , 57-C ) :   0.9474
B( 57-C , 58-C ) :   1.3901 B( 57-C , 68-C ) :   1.2357 B( 58-C , 59-C ) :   1.0135
B( 58-C , 65-C ) :   1.2684 B( 59-C , 60-C ) :   1.6215 B( 60-C , 61-C ) :   1.1367
B( 60-C , 63-C ) :   1.1788 B( 61-C , 62-N ) :   2.9733 B( 63-C , 64-N ) :   3.0110
B( 65-C , 66-C ) :   1.4730 B( 65-C , 91-H ) :   0.9888 B( 66-C , 67-C ) :   1.1944
B( 66-C , 92-H ) :   0.9935 B( 67-C , 68-C ) :   1.2384 B( 67-C , 72-C ) :   1.2421
B( 68-C , 69-C ) :   1.2732 B( 69-C , 70-C ) :   1.4752 B( 69-C , 93-H ) :   0.9886
B( 70-C , 71-C ) :   1.2542 B( 70-C , 94-H ) :   0.9871 B( 71-C , 72-C ) :   1.4923
B( 71-C , 95-H ) :   0.9895 B( 72-C , 96-H ) :   0.9988

-----------------------------------------------------------------------------
         ABSORPTION SPECTRUM VIA TRANSITION ELECTRIC DIPOLE MOMENTS
-----------------------------------------------------------------------------
State   Energy  Wavelength   fosc         T2         TX        TY        TZ
        (cm-1)    (nm)                  (au**2)     (au)      (au)      (au)
-----------------------------------------------------------------------------
   0   13269.5    753.6   0.070020317   1.73718  -0.09654   1.30936   0.11587
   1   14632.9    683.4   0.071435631   1.60716   0.61479  -0.87556  -0.68014
   2   14989.8    667.1   0.016517158   0.36276   0.05559   0.50811  -0.31858
   3   16072.3    622.2   0.028054114   0.57464   0.54802  -0.21559  -0.47733
   4   16744.6    597.2   0.010079012   0.19816   0.12733  -0.38923  -0.17449
   5   17874.3    559.5   0.011487383   0.21158  -0.19799   0.30406   0.28271
   6   18151.9    550.9   0.120983644   2.19422  -0.30545   1.40093   0.37192
   7   20040.1    499.0   0.026537967   0.43596  -0.20423   0.41277   0.47315
   8   20351.6    491.4   0.084777284   1.37138   0.03368  -0.91960   0.72427
   9   20482.3    488.2   0.046126190   0.74139   0.67168   0.04921  -0.53649
  10   20698.6    483.1   0.090410354   1.43798  -0.34461   0.92221   0.68466
  11   21932.6    455.9   0.015919342   0.23895   0.11689   0.47459   0.00705
  12   22164.5    451.2   0.064522838   0.95837  -0.20897  -0.88850   0.35393
  13   22431.6    445.8   0.025930909   0.38057   0.05699   0.06099   0.61123
  14   23023.9    434.3   0.030413731   0.43488  -0.57803   0.28635   0.13697
  15   23669.7    422.5   0.184190264   2.56183   0.21627   0.27890  -1.56118
  16   23867.0    419.0   0.148968040   2.05481  -0.25567  -1.40753  -0.09105
  17   24139.9    414.3   0.045799832   0.62460  -0.29653  -0.66180   0.31416
  18   24424.0    409.4   0.109233747   1.47236   0.63820   1.01212  -0.20169
  19   24903.0    401.6   0.002574968   0.03404   0.15949  -0.02934  -0.08799
  20   25036.6    399.4   0.049952847   0.65684  -0.06109  -0.66520   0.45893
  21   25232.1    396.3   0.008451206   0.11027  -0.18339   0.03023   0.27517
  22   25712.4    388.9   0.012497829   0.16002   0.21122   0.06457  -0.33352
  23   25859.7    386.7   0.038284276   0.48739  -0.30163   0.54886   0.30848
  24   25986.0    384.8   0.013602599   0.17233  -0.28303  -0.24878  -0.17416
  25   26249.2    381.0   0.011847259   0.14859   0.17432   0.31606  -0.13530
  26   26443.7    378.2   0.027799341   0.34609   0.26112  -0.42731  -0.30873
  27   26652.2    375.2   0.019107177   0.23601  -0.12643   0.46597   0.05386
  28   26738.6    374.0   0.078856136   0.97089  -0.05731   0.69087   0.70022
  29   27071.6    369.4   0.048576341   0.59073  -0.34952  -0.63451   0.25682
  30   27327.5    365.9   0.002437091   0.02936  -0.06021   0.15440  -0.04351
  31   27362.4    365.5   0.018250387   0.21958   0.27756  -0.25145  -0.28163
  32   27493.2    363.7   0.076016481   0.91025   0.37508   0.00778  -0.87721
  33   27714.8    360.8   0.085106828   1.01095   0.09382   0.99562  -0.10433
  34   27913.7    358.2   0.045329036   0.53461  -0.24203   0.32730   0.60737
  35   27983.0    357.4   0.071665841   0.84313   0.29856   0.82436  -0.27279
  36   28044.1    356.6   0.137775351   1.61735  -0.73695   0.16746   1.02284
  37   28431.2    351.7   0.091399879   1.05834  -0.62684  -0.26878   0.77018
  38   28587.9    349.8   0.023226806   0.26747   0.11806   0.22536  -0.45028
  39   28609.2    349.5   0.050505074   0.58117   0.36689   0.38534  -0.54597
  40   28705.7    348.4   0.007471919   0.08569   0.20236  -0.21043  -0.02150
  41   28879.8    346.3   0.009846125   0.11224  -0.10252   0.17501   0.26665
  42   29081.5    343.9   0.017874574   0.20235  -0.32824  -0.16154   0.26174
  43   29534.1    338.6   0.027255971   0.30382   0.04665   0.40622   0.36963
  44   29615.9    337.7   0.030041493   0.33394  -0.49183   0.11663   0.28007
  45   29785.9    335.7   0.006711222   0.07418  -0.17575   0.05776   0.19988
  46   29929.7    334.1   0.006250262   0.06875   0.24978   0.06744   0.04255
  47   30274.7    330.3   0.054098475   0.58828  -0.19656   0.39724   0.62597
  48   30314.4    329.9   0.016185382   0.17577  -0.10022   0.28948  -0.28623
  49   30699.2    325.7   0.001816420   0.01948   0.08173  -0.11161  -0.01851
  50   31005.6    322.5   0.097666884   1.03701   0.13320  -0.06474   1.00751
  51   31144.2    321.1   0.050189622   0.53053   0.70833  -0.15366   0.07199
  52   31321.4    319.3   0.007015431   0.07374   0.16047   0.09384  -0.19794
  53   31433.3    318.1   0.018799652   0.19690   0.28270  -0.34150   0.01882
  54   31473.1    317.7   0.012981552   0.13579  -0.10896  -0.34331  -0.07780
  55   31532.6    317.1   0.036558907   0.38169   0.31701   0.14789  -0.50924
  56   32225.8    310.3   0.067042702   0.68489   0.20562  -0.13897  -0.78949
  57   32337.6    309.2   0.030692305   0.31246   0.54542  -0.06316   0.10485
  58   32584.2    306.9   0.116654619   1.17861   0.41345   0.57419  -0.82339
  59   32591.8    306.8   0.298170033   3.01184   0.40688   0.01745   1.68700
  60   32718.0    305.6   0.045738253   0.46022  -0.28992   0.55519  -0.26063
  61   32905.5    303.9   0.039574475   0.39593  -0.12386   0.26818  -0.55558
  62   33024.1    302.8   0.089753300   0.89474   0.52133  -0.50510   0.60648
  63   33124.2    301.9   0.108897656   1.08230  -0.42345  -0.86939  -0.38360
  64   33322.9    300.1   0.148141373   1.46355   0.44408   0.56683   0.97213
  65   33435.2    299.1   0.145256991   1.43024   0.50041   0.96590   0.49685
  66   33595.9    297.7   0.128471081   1.25891   0.11714  -1.01131   0.47165
  67   33716.0    296.6   0.021098469   0.20601  -0.11068  -0.40840   0.16424
  68   34319.3    291.4   0.030373162   0.29136   0.22680  -0.48934  -0.02158
  69   34394.5    290.7   0.043044948   0.41201  -0.42727   0.03702  -0.47758
  70   34556.8    289.4   0.125196281   1.19271  -0.41179  -0.46289  -0.89938
  71   34610.6    288.9   0.209648190   1.99415   0.64841  -1.03678   0.70627
  72   34730.8    287.9   0.145385849   1.37811  -0.56119  -0.89907  -0.50483
  73   34836.8    287.1   0.123353320   1.16570   0.24385  -0.96308  -0.42276
  74   35033.9    285.4   0.070939804   0.66662   0.11495  -0.69069   0.41994
  75   35167.9    284.4   0.058584272   0.54842   0.35810  -0.08547   0.64255
  76   35382.1    282.6   0.199643189   1.85758  -0.01665  -0.96521  -0.96211
  77   35469.6    281.9   0.118498741   1.09985  -0.42812   0.23718   0.92753
  78   35566.1    281.2   0.129172793   1.19567   0.55460  -0.30877   0.89036
  79   35672.3    280.3   0.037761571   0.34849  -0.29691  -0.36039  -0.36119
  80   36083.9    277.1   0.439202341   4.00707  -0.23473   0.36643  -1.95390
  81   36146.4    276.7   0.033391963   0.30413   0.32204  -0.16531  -0.41604
  82   36252.6    275.8   0.142204129   1.29136   0.78813   0.57821   0.57956
  83   36342.5    275.2   0.041332071   0.37441   0.04701  -0.19171  -0.57918
  84   36500.6    274.0   0.085994509   0.77561   0.84126  -0.24129   0.09831
  85   36712.5    272.4   0.085283412   0.76476   0.42908  -0.34411   0.67989
  86   36840.0    271.4   0.055215720   0.49342   0.16451   0.12464   0.67143
  87   36884.8    271.1   0.014457981   0.12904   0.29160  -0.20903   0.01789
  88   37175.9    269.0   0.095516773   0.84585   0.25242  -0.68922   0.55417
  89   37428.1    267.2   0.053237437   0.46827   0.06667   0.33010  -0.59570
  90   37648.5    265.6   0.020482452   0.17911  -0.29293  -0.18606  -0.24224
  91   38006.4    263.1   0.245309498   2.12487  -0.06351  -0.80266   1.21515
  92   38125.1    262.3   0.032040251   0.27667   0.30408  -0.39735   0.16223
  93   38290.0    261.2   0.042645240   0.36666   0.46840  -0.38369  -0.00684
  94   38360.9    260.7   0.002174610   0.01866  -0.07800  -0.07283  -0.08530
  95   38455.9    260.0   0.009217650   0.07891  -0.20981   0.03353   0.18376
  96   38513.3    259.7   0.018549662   0.15856  -0.29470  -0.01628   0.26730
  97   38691.7    258.5   0.082554702   0.70242   0.21093   0.05972  -0.80893
  98   38979.9    256.5   0.008004475   0.06760  -0.07061   0.14990  -0.20036
  99   39009.8    256.3   0.032364460   0.27313   0.33781  -0.33422  -0.21751
 100   39057.8    256.0   0.021803027   0.18377   0.05807  -0.39448  -0.15745
 101   39210.9    255.0   0.002612699   0.02194   0.05997   0.01295  -0.13480
 102   39387.4    253.9   0.017653890   0.14756  -0.25527  -0.04229  -0.28391
 103   39467.0    253.4   0.073719639   0.61493  -0.19947  -0.31539   0.68969
 104   39526.4    253.0   0.067540388   0.56254  -0.37878  -0.34392   0.54844
 105   39601.4    252.5   0.062584978   0.52028  -0.22508  -0.28335   0.62396
 106   39835.7    251.0   0.006124827   0.05062  -0.15499  -0.12696   0.10235
 107   39945.2    250.3   0.024034540   0.19808   0.32830   0.26528  -0.14118
 108   40072.9    249.5   0.118846051   0.97636   0.35254  -0.92274   0.02517

FINAL SINGLE POINT ENERGY     -3756.563680395023

DIPOLE MOMENT
-------------
                                X             Y             Z
Electronic contribution:     -6.48080       9.21995      15.79908
Nuclear contribution   :      7.04889      -9.11102     -17.38119
                        -----------------------------------------
Total Dipole Moment    :      0.56809       0.10893      -1.58211
                        -----------------------------------------
Magnitude (a.u.)       :      1.68454
Magnitude (Debye)      :      4.28176

Rotational constants in cm-1:     0.001427     0.000633     0.000514
Rotational constants in MHz :    42.792479    18.987404    15.421193

                             ****ORCA TERMINATED NORMALLY****
TOTAL RUN TIME: 0 days 0 hours 17 minutes 43 seconds 85 msec
