                         Program Version 4.2.0 -  RELEASE  -
|  1> # ORCA input file
|  2> # SCF done       -163.094965308411          0.000518878099
|  3> ! CAM-B3LYP def2-SVP def2/J RIJCOSX Grid4 TightSCF
|  4> %maxcore 5000
|  5> %tddft
|  6>     Mode sTDDFT
|  7>     Ethresh 5.0
|  8>     maxcore 5000
|  9> end
| 10>
| 11> %pal
| 12>   nprocs 6
| 13>   end
| 14> * xyz 0 1
| 15>    N       -6.52473        -0.58721         4.09209
| 16>    C       -7.89908        -0.51400         4.21848
| 17>    C       -8.62484         0.63997         4.18494
| 18>    S      -10.31911         0.36746         4.33263
| 19>    C      -10.06927        -1.32189         4.44861
| 20>    C       -8.75011        -1.66320         4.35832
| 21>    N       -8.29422        -2.97784         4.48282
| 22>    C       -7.41518        -3.61317         3.67264
| 23>    C       -6.85180        -3.10623         2.54409
| 24>    C       -5.91780        -3.81704         1.75959
| 25>    C       -5.33383        -3.24851         0.53661
| 26>    N       -4.49714        -4.02356        -0.08134
| 27>    C       -4.44759        -5.16720         0.66938
| 28>    C       -5.32661        -5.06815         1.84343
| 29>    C       -5.25922        -6.29112         2.59026
| 30>    S       -6.09713        -6.70607         3.95461
| 31>    C       -4.32546        -7.12376         1.86369
| 32>    C       -3.85165        -6.39900         0.67708
| 33>    N       -3.01126        -7.17836        -0.06610
| 34>    C       -2.97174        -8.32240         0.55066
| 35>    C       -3.77323        -8.38319         1.77705
| 36>    C       -3.87380        -9.53426         2.63405
| 37>    C       -4.11720        -9.38822         3.98313
| 38>    C       -4.19764       -10.52473         4.80677
| 39>    C       -4.41599       -10.64124         6.17613
| 40>    C       -4.62700        -9.51856         7.13399
| 41>    C       -5.92035        -9.68547         7.95287
| 42>    N       -6.42523        -8.38202         8.33985
| 43>    C       -3.39571        -9.35604         8.04578
| 44>    N       -2.27255        -8.88985         7.25558
| 45>    C       -4.36111       -12.04990         6.48651
| 46>    C       -4.47330       -12.72556         7.64724
| 47>    C       -4.29059       -14.20047         7.71134
| 48>    C       -4.18928       -14.88048         6.38465
| 49>    C       -4.07552       -14.19561         5.22965
| 50>    C       -4.12761       -12.78330         5.22925
| 51>    C       -4.02390       -11.84501         4.22072
| 52>    C       -3.78095       -11.96324         2.83307
| 53>    C       -3.70390       -10.84243         2.07168
| 54>    C       -2.97142       -14.45495         8.40569
| 55>    C       -2.83944       -15.19096         9.51417
| 56>    C       -1.59501       -15.47689        10.15737
| 57>    C       -0.24762       -15.07942         9.74056
| 58>    N        0.70383       -15.49207        10.52844
| 59>    C        0.07723       -16.19065        11.52212
| 60>    C       -1.37625       -16.19634        11.30872
| 61>    C       -2.02508       -16.93398        12.36871
| 62>    S       -3.63189       -17.24405        12.58361
| 63>    C       -0.94621       -17.35466        13.20660
| 64>    C        0.33337       -16.90146        12.66846
| 65>    N        1.36649       -17.34174        13.45770
| 66>    C        0.81314       -18.00346        14.42992
| 67>    C       -0.65246       -18.04669        14.36142
| 68>    N       -1.53066       -18.67377        15.17069
| 69>    C       -1.31758       -19.20794        16.42698
| 70>    C       -0.32942       -18.84892        17.30046
| 71>    S       -0.46158       -19.65506        18.80689
| 72>    C       -1.85734       -20.50492        18.27244
| 73>    C       -2.21062       -20.18539        16.99322
| 74>    N       -3.32002       -20.69979        16.35134
| 75>    C       -3.39082       -21.06539        15.01933
| 76>    C       -4.43750       -21.67943        14.48325
| 77>    H       -6.03707         0.27388         4.28320
| 78>    H       -6.09756        -1.39791         4.51305
| 79>    H       -8.25648         1.64094         4.08984
| 80>    H      -10.90508        -1.98118         4.57266
| 81>    H       -8.82183        -3.56113         5.11644
| 82>    H       -7.16868        -4.62000         3.98633
| 83>    H       -7.11668        -2.11758         2.19924
| 84>    H       -5.55598        -2.26470         0.15865
| 85>    H       -2.35231        -9.11785         0.17382
| 86>    H       -4.21663        -8.40535         4.41365
| 87>    H       -4.73404        -8.59174         6.56476
| 88>    H       -5.73479       -10.35093         8.81337
| 89>    H       -6.68114       -10.15477         7.32251
| 90>    H       -5.76246        -7.90375         8.94012
| 91>    H       -7.30032        -8.47066         8.84320
| 92>    H       -3.20045       -10.31040         8.56644
| 93>    H       -3.59844        -8.59314         8.80325
| 94>    H       -2.05617        -9.55898         6.52394
| 95>    H       -1.44769        -8.77213         7.83268
| 96>    H       -4.63668       -12.22983         8.59313
| 97>    H       -5.08883       -14.64894         8.31439
| 98>    H       -4.14798       -15.95844         6.40846
| 99>    H       -3.96521       -14.71553         4.28888
|100>    H       -3.65981       -12.94243         2.39317
|101>    H       -3.53538       -10.92309         1.00843
|102>    H       -2.11352       -14.02014         7.91363
|103>    H       -3.71281       -15.61874         9.99093
|104>    H       -0.00799       -14.50260         8.86463
|105>    H        1.42255       -18.49371        15.16771
|106>    H       -2.49321       -18.66321        14.84749
|107>    H        0.43683       -18.11438        17.16338
|108>    H       -2.34820       -21.18946        18.93413
|109>    H       -4.00191       -21.14025        16.95315
|110>    H       -2.52119       -20.82268        14.42679
|111>    H       -5.30526       -21.93735        15.06573
|112>    H       -4.45635       -21.92982        13.44059
|113> *
|114>
|115>                          ****END OF INPUT****

CARTESIAN COORDINATES (ANGSTROEM)
---------------------------------
  N     -6.524730   -0.587210    4.092090
  C     -7.899080   -0.514000    4.218480
  C     -8.624840    0.639970    4.184940
  S    -10.319110    0.367460    4.332630
  C    -10.069270   -1.321890    4.448610
  C     -8.750110   -1.663200    4.358320
  N     -8.294220   -2.977840    4.482820
  C     -7.415180   -3.613170    3.672640
  C     -6.851800   -3.106230    2.544090
  C     -5.917800   -3.817040    1.759590
  C     -5.333830   -3.248510    0.536610
  N     -4.497140   -4.023560   -0.081340
  C     -4.447590   -5.167200    0.669380
  C     -5.326610   -5.068150    1.843430
  C     -5.259220   -6.291120    2.590260
  S     -6.097130   -6.706070    3.954610
  C     -4.325460   -7.123760    1.863690
  C     -3.851650   -6.399000    0.677080
  N     -3.011260   -7.178360   -0.066100
  C     -2.971740   -8.322400    0.550660
  C     -3.773230   -8.383190    1.777050
  C     -3.873800   -9.534260    2.634050
  C     -4.117200   -9.388220    3.983130
  C     -4.197640  -10.524730    4.806770
  C     -4.415990  -10.641240    6.176130
  C     -4.627000   -9.518560    7.133990
  C     -5.920350   -9.685470    7.952870
  N     -6.425230   -8.382020    8.339850
  C     -3.395710   -9.356040    8.045780
  N     -2.272550   -8.889850    7.255580
  C     -4.361110  -12.049900    6.486510
  C     -4.473300  -12.725560    7.647240
  C     -4.290590  -14.200470    7.711340
  C     -4.189280  -14.880480    6.384650
  C     -4.075520  -14.195610    5.229650
  C     -4.127610  -12.783300    5.229250
  C     -4.023900  -11.845010    4.220720
  C     -3.780950  -11.963240    2.833070
  C     -3.703900  -10.842430    2.071680
  C     -2.971420  -14.454950    8.405690
  C     -2.839440  -15.190960    9.514170
  C     -1.595010  -15.476890   10.157370
  C     -0.247620  -15.079420    9.740560
  N      0.703830  -15.492070   10.528440
  C      0.077230  -16.190650   11.522120
  C     -1.376250  -16.196340   11.308720
  C     -2.025080  -16.933980   12.368710
  S     -3.631890  -17.244050   12.583610
  C     -0.946210  -17.354660   13.206600
  C      0.333370  -16.901460   12.668460
  N      1.366490  -17.341740   13.457700
  C      0.813140  -18.003460   14.429920
  C     -0.652460  -18.046690   14.361420
  N     -1.530660  -18.673770   15.170690
  C     -1.317580  -19.207940   16.426980
  C     -0.329420  -18.848920   17.300460
  S     -0.461580  -19.655060   18.806890
  C     -1.857340  -20.504920   18.272440
  C     -2.210620  -20.185390   16.993220
  N     -3.320020  -20.699790   16.351340
  C     -3.390820  -21.065390   15.019330
  C     -4.437500  -21.679430   14.483250
  H     -6.037070    0.273880    4.283200
  H     -6.097560   -1.397910    4.513050
  H     -8.256480    1.640940    4.089840
  H    -10.905080   -1.981180    4.572660
  H     -8.821830   -3.561130    5.116440
  H     -7.168680   -4.620000    3.986330
  H     -7.116680   -2.117580    2.199240
  H     -5.555980   -2.264700    0.158650
  H     -2.352310   -9.117850    0.173820
  H     -4.216630   -8.405350    4.413650
  H     -4.734040   -8.591740    6.564760
  H     -5.734790  -10.350930    8.813370
  H     -6.681140  -10.154770    7.322510
  H     -5.762460   -7.903750    8.940120
  H     -7.300320   -8.470660    8.843200
  H     -3.200450  -10.310400    8.566440
  H     -3.598440   -8.593140    8.803250
  H     -2.056170   -9.558980    6.523940
  H     -1.447690   -8.772130    7.832680
  H     -4.636680  -12.229830    8.593130
  H     -5.088830  -14.648940    8.314390
  H     -4.147980  -15.958440    6.408460
  H     -3.965210  -14.715530    4.288880
  H     -3.659810  -12.942430    2.393170
  H     -3.535380  -10.923090    1.008430
  H     -2.113520  -14.020140    7.913630
  H     -3.712810  -15.618740    9.990930
  H     -0.007990  -14.502600    8.864630
  H      1.422550  -18.493710   15.167710
  H     -2.493210  -18.663210   14.847490
  H      0.436830  -18.114380   17.163380
  H     -2.348200  -21.189460   18.934130
  H     -4.001910  -21.140250   16.953150
  H     -2.521190  -20.822680   14.426790
  H     -5.305260  -21.937350   15.065730
  H     -4.456350  -21.929820   13.440590

 Total Charge           Charge          ....    0
 Multiplicity           Mult            ....    1
 Number of Electrons    NEL             ....  458
 Basis Dimension        Dim             .... 1064

ORBITAL ENERGIES
----------------

  NO   OCC          E(Eh)            E(eV)
   0   2.0000     -88.958318     -2420.6789
   1   2.0000     -88.947651     -2420.3886
   2   2.0000     -88.889146     -2418.7966
   3   2.0000     -88.874294     -2418.3925
   4   2.0000     -14.467372      -393.6772
   5   2.0000     -14.453969      -393.3125
   6   2.0000     -14.441583      -392.9755
   7   2.0000     -14.419767      -392.3818
   8   2.0000     -14.412831      -392.1931
   9   2.0000     -14.407612      -392.0510
  10   2.0000     -14.397386      -391.7728
  11   2.0000     -14.390803      -391.5937
  12   2.0000     -14.372538      -391.0967
  13   2.0000     -14.368788      -390.9946
  14   2.0000     -10.344141      -281.4784
  15   2.0000     -10.337701      -281.3031
  16   2.0000     -10.332099      -281.1507
  17   2.0000     -10.327557      -281.0271
  18   2.0000     -10.323851      -280.9263
  19   2.0000     -10.323535      -280.9177
  20   2.0000     -10.323372      -280.9132
  21   2.0000     -10.318324      -280.7759
  22   2.0000     -10.316909      -280.7374
  23   2.0000     -10.313412      -280.6422
  24   2.0000     -10.310536      -280.5640
  25   2.0000     -10.310248      -280.5561
  26   2.0000     -10.309687      -280.5408
  27   2.0000     -10.306833      -280.4632
  28   2.0000     -10.305438      -280.4252
  29   2.0000     -10.305111      -280.4163
  30   2.0000     -10.300273      -280.2847
  31   2.0000     -10.297185      -280.2006
  32   2.0000     -10.297012      -280.1960
  33   2.0000     -10.296855      -280.1917
  34   2.0000     -10.294222      -280.1200
  35   2.0000     -10.293634      -280.1040
  36   2.0000     -10.290980      -280.0318
  37   2.0000     -10.289039      -279.9790
  38   2.0000     -10.287409      -279.9346
  39   2.0000     -10.281781      -279.7815
  40   2.0000     -10.281032      -279.7611
  41   2.0000     -10.280890      -279.7572
  42   2.0000     -10.278088      -279.6810
  43   2.0000     -10.277215      -279.6572
  44   2.0000     -10.274551      -279.5847
  45   2.0000     -10.272983      -279.5421
  46   2.0000     -10.271016      -279.4886
  47   2.0000     -10.270564      -279.4763
  48   2.0000     -10.270382      -279.4713
  49   2.0000     -10.268575      -279.4221
  50   2.0000     -10.266341      -279.3613
  51   2.0000     -10.262855      -279.2665
  52   2.0000     -10.262277      -279.2507
  53   2.0000     -10.259003      -279.1617
  54   2.0000     -10.258900      -279.1589
  55   2.0000     -10.258419      -279.1458
  56   2.0000     -10.258023      -279.1350
  57   2.0000     -10.257638      -279.1245
  58   2.0000     -10.257464      -279.1198
  59   2.0000     -10.254766      -279.0464
  60   2.0000     -10.254149      -279.0296
  61   2.0000     -10.246506      -278.8216
  62   2.0000      -8.054300      -219.1686
  63   2.0000      -8.043562      -218.8764
  64   2.0000      -7.984578      -217.2714
  65   2.0000      -7.969962      -216.8737
  66   2.0000      -6.023762      -163.9149
  67   2.0000      -6.019465      -163.7980
  68   2.0000      -6.016211      -163.7094
  69   2.0000      -6.012946      -163.6206
  70   2.0000      -6.008765      -163.5068
  71   2.0000      -6.005566      -163.4198
  72   2.0000      -5.953584      -162.0053
  73   2.0000      -5.952298      -161.9703
  74   2.0000      -5.944608      -161.7610
  75   2.0000      -5.938923      -161.6063
  76   2.0000      -5.937735      -161.5740
  77   2.0000      -5.929869      -161.3599
  78   2.0000      -1.088151       -29.6101
  79   2.0000      -1.068349       -29.0713
  80   2.0000      -1.059103       -28.8197
  81   2.0000      -1.056416       -28.7465
  82   2.0000      -1.054848       -28.7039
  83   2.0000      -1.040022       -28.3004
  84   2.0000      -1.036536       -28.2056
  85   2.0000      -1.000782       -27.2327
  86   2.0000      -0.980461       -26.6797
  87   2.0000      -0.972640       -26.4669
  88   2.0000      -0.960189       -26.1281
  89   2.0000      -0.953202       -25.9379
  90   2.0000      -0.951666       -25.8961
  91   2.0000      -0.945340       -25.7240
  92   2.0000      -0.943345       -25.6697
  93   2.0000      -0.936145       -25.4738
  94   2.0000      -0.914475       -24.8841
  95   2.0000      -0.893224       -24.3059
  96   2.0000      -0.885477       -24.0950
  97   2.0000      -0.869073       -23.6487
  98   2.0000      -0.868733       -23.6394
  99   2.0000      -0.854925       -23.2637
 100   2.0000      -0.854565       -23.2539
 101   2.0000      -0.841872       -22.9085
 102   2.0000      -0.831858       -22.6360
 103   2.0000      -0.831622       -22.6296
 104   2.0000      -0.827775       -22.5249
 105   2.0000      -0.823558       -22.4101
 106   2.0000      -0.816095       -22.2071
 107   2.0000      -0.808274       -21.9942
 108   2.0000      -0.796340       -21.6695
 109   2.0000      -0.793515       -21.5926
 110   2.0000      -0.790362       -21.5068
 111   2.0000      -0.786312       -21.3966
 112   2.0000      -0.769666       -20.9437
 113   2.0000      -0.757853       -20.6222
 114   2.0000      -0.750575       -20.4242
 115   2.0000      -0.734855       -19.9964
 116   2.0000      -0.724563       -19.7164
 117   2.0000      -0.716789       -19.5048
 118   2.0000      -0.712769       -19.3954
 119   2.0000      -0.710217       -19.3260
 120   2.0000      -0.698345       -19.0029
 121   2.0000      -0.695036       -18.9129
 122   2.0000      -0.684652       -18.6303
 123   2.0000      -0.683084       -18.5877
 124   2.0000      -0.679481       -18.4896
 125   2.0000      -0.676440       -18.4069
 126   2.0000      -0.673714       -18.3327
 127   2.0000      -0.667082       -18.1522
 128   2.0000      -0.662200       -18.0194
 129   2.0000      -0.654658       -17.8142
 130   2.0000      -0.653453       -17.7814
 131   2.0000      -0.640488       -17.4286
 132   2.0000      -0.638825       -17.3833
 133   2.0000      -0.631184       -17.1754
 134   2.0000      -0.625536       -17.0217
 135   2.0000      -0.622425       -16.9370
 136   2.0000      -0.620479       -16.8841
 137   2.0000      -0.607883       -16.5413
 138   2.0000      -0.596084       -16.2203
 139   2.0000      -0.589875       -16.0513
 140   2.0000      -0.584139       -15.8952
 141   2.0000      -0.580472       -15.7955
 142   2.0000      -0.574818       -15.6416
 143   2.0000      -0.571435       -15.5495
 144   2.0000      -0.571048       -15.5390
 145   2.0000      -0.569851       -15.5064
 146   2.0000      -0.565740       -15.3946
 147   2.0000      -0.559469       -15.2239
 148   2.0000      -0.554008       -15.0753
 149   2.0000      -0.553716       -15.0674
 150   2.0000      -0.548516       -14.9259
 151   2.0000      -0.544909       -14.8277
 152   2.0000      -0.543818       -14.7980
 153   2.0000      -0.537468       -14.6253
 154   2.0000      -0.535295       -14.5661
 155   2.0000      -0.530260       -14.4291
 156   2.0000      -0.525590       -14.3020
 157   2.0000      -0.522135       -14.2080
 158   2.0000      -0.518314       -14.1040
 159   2.0000      -0.517510       -14.0822
 160   2.0000      -0.516692       -14.0599
 161   2.0000      -0.510526       -13.8921
 162   2.0000      -0.506523       -13.7832
 163   2.0000      -0.504698       -13.7335
 164   2.0000      -0.503756       -13.7079
 165   2.0000      -0.497783       -13.5454
 166   2.0000      -0.495800       -13.4914
 167   2.0000      -0.493370       -13.4253
 168   2.0000      -0.490977       -13.3602
 169   2.0000      -0.490909       -13.3583
 170   2.0000      -0.488221       -13.2852
 171   2.0000      -0.486651       -13.2424
 172   2.0000      -0.484365       -13.1802
 173   2.0000      -0.481749       -13.1090
 174   2.0000      -0.477788       -13.0013
 175   2.0000      -0.475994       -12.9525
 176   2.0000      -0.474020       -12.8987
 177   2.0000      -0.472086       -12.8461
 178   2.0000      -0.468433       -12.7467
 179   2.0000      -0.467814       -12.7299
 180   2.0000      -0.463415       -12.6102
 181   2.0000      -0.460060       -12.5189
 182   2.0000      -0.455117       -12.3844
 183   2.0000      -0.454477       -12.3670
 184   2.0000      -0.452649       -12.3172
 185   2.0000      -0.449643       -12.2354
 186   2.0000      -0.445988       -12.1360
 187   2.0000      -0.442382       -12.0378
 188   2.0000      -0.438131       -11.9221
 189   2.0000      -0.436490       -11.8775
 190   2.0000      -0.431010       -11.7284
 191   2.0000      -0.430114       -11.7040
 192   2.0000      -0.426657       -11.6099
 193   2.0000      -0.426187       -11.5971
 194   2.0000      -0.418948       -11.4002
 195   2.0000      -0.415514       -11.3067
 196   2.0000      -0.413170       -11.2429
 197   2.0000      -0.408997       -11.1294
 198   2.0000      -0.408420       -11.1137
 199   2.0000      -0.403416       -10.9775
 200   2.0000      -0.399396       -10.8681
 201   2.0000      -0.395794       -10.7701
 202   2.0000      -0.389387       -10.5958
 203   2.0000      -0.385966       -10.5027
 204   2.0000      -0.379347       -10.3226
 205   2.0000      -0.362868        -9.8741
 206   2.0000      -0.355829        -9.6826
 207   2.0000      -0.355481        -9.6731
 208   2.0000      -0.345416        -9.3993
 209   2.0000      -0.339156        -9.2289
 210   2.0000      -0.337335        -9.1793
 211   2.0000      -0.335971        -9.1422
 212   2.0000      -0.328943        -8.9510
 213   2.0000      -0.327745        -8.9184
 214   2.0000      -0.323339        -8.7985
 215   2.0000      -0.312275        -8.4974
 216   2.0000      -0.302969        -8.2442
 217   2.0000      -0.298107        -8.1119
 218   2.0000      -0.294920        -8.0252
 219   2.0000      -0.290856        -7.9146
 220   2.0000      -0.287893        -7.8340
 221   2.0000      -0.282386        -7.6841
 222   2.0000      -0.275409        -7.4943
 223   2.0000      -0.266842        -7.2611
 224   2.0000      -0.266155        -7.2425
 225   2.0000      -0.263391        -7.1672
 226   2.0000      -0.253445        -6.8966
 227   2.0000      -0.239888        -6.5277
 228   2.0000      -0.215859        -5.8738
 229   0.0000      -0.102173        -2.7803
 230   0.0000      -0.088435        -2.4064
 231   0.0000      -0.066768        -1.8169
 232   0.0000      -0.062911        -1.7119
 233   0.0000      -0.046935        -1.2772

MULLIKEN ATOMIC CHARGES
-----------------------
   0 N :   -0.058354
   1 C :    0.064855
   2 C :   -0.209976
   3 S :    0.111773
   4 C :   -0.162170
   5 C :    0.079795
   6 N :   -0.047792
   7 C :    0.065592
   8 C :   -0.073855
   9 C :    0.028434
  10 C :    0.052800
  11 N :   -0.027064
  12 C :    0.008679
  13 C :   -0.034389
  14 C :   -0.005164
  15 S :   -0.159990
  16 C :   -0.015014
  17 C :   -0.018896
  18 N :   -0.030113
  19 C :    0.032918
  20 C :   -0.002781
  21 C :    0.067158
  22 C :   -0.041990
  23 C :    0.038883
  24 C :   -0.075665
  25 C :   -0.023855
  26 C :    0.128866
  27 N :   -0.207241
  28 C :    0.157054
  29 N :   -0.223786
  30 C :    0.111151
  31 C :   -0.137669
  32 C :    0.128672
  33 C :   -0.040354
  34 C :    0.020736
  35 C :    0.004299
  36 C :    0.044635
  37 C :   -0.006774
  38 C :   -0.020550
  39 C :   -0.030917
  40 C :   -0.002183
  41 C :   -0.009320
  42 C :    0.046452
  43 N :   -0.030306
  44 C :    0.000669
  45 C :   -0.005681
  46 C :    0.000961
  47 S :   -0.185317
  48 C :   -0.038599
  49 C :    0.010160
  50 N :   -0.012357
  51 C :   -0.011699
  52 C :    0.008143
  53 N :   -0.000314
  54 C :    0.101005
  55 C :   -0.199563
  56 S :    0.124203
  57 C :   -0.192946
  58 C :    0.126617
  59 N :   -0.078271
  60 C :    0.033790
  61 C :   -0.066527
  62 H :    0.110732
  63 H :    0.124970
  64 H :   -0.002771
  65 H :    0.006357
  66 H :    0.138236
  67 H :   -0.008186
  68 H :   -0.009346
  69 H :    0.000192
  70 H :   -0.001439
  71 H :   -0.018959
  72 H :   -0.001373
  73 H :   -0.027230
  74 H :    0.005255
  75 H :    0.084140
  76 H :    0.088241
  77 H :   -0.032964
  78 H :   -0.019860
  79 H :    0.097936
  80 H :    0.089095
  81 H :   -0.002457
  82 H :    0.021743
  83 H :   -0.006476
  84 H :   -0.033951
  85 H :   -0.040173
  86 H :   -0.027406
  87 H :    0.009270
  88 H :   -0.007118
  89 H :    0.003938
  90 H :    0.010084
  91 H :    0.143114
  92 H :    0.022542
  93 H :    0.006153
  94 H :    0.119678
  95 H :    0.022148
  96 H :    0.001465
  97 H :    0.023564
Sum of atomic charges:   -0.0000000

LOEWDIN ATOMIC CHARGES
----------------------
   0 N :   -0.035014
   1 C :   -0.024825
   2 C :   -0.251170
   3 S :    0.432441
   4 C :   -0.210773
   5 C :   -0.052153
   6 N :    0.036833
   7 C :    0.064159
   8 C :   -0.120784
   9 C :   -0.011602
  10 C :    0.081315
  11 N :   -0.077484
  12 C :    0.041426
  13 C :   -0.089618
  14 C :   -0.126871
  15 S :    0.040610
  16 C :   -0.045725
  17 C :    0.013193
  18 N :   -0.081837
  19 C :    0.062029
  20 C :   -0.023693
  21 C :   -0.038015
  22 C :    0.020686
  23 C :   -0.020530
  24 C :   -0.030245
  25 C :   -0.037972
  26 C :    0.026377
  27 N :   -0.115406
  28 C :    0.026498
  29 N :   -0.117956
  30 C :   -0.017585
  31 C :    0.062586
  32 C :   -0.027075
  33 C :   -0.033773
  34 C :   -0.015149
  35 C :   -0.039447
  36 C :   -0.028925
  37 C :   -0.015505
  38 C :   -0.024891
  39 C :    0.021270
  40 C :   -0.035796
  41 C :   -0.030647
  42 C :    0.074376
  43 N :   -0.080333
  44 C :    0.022372
  45 C :   -0.043728
  46 C :   -0.133412
  47 S :   -0.009561
  48 C :   -0.115547
  49 C :    0.040442
  50 N :   -0.066633
  51 C :    0.061110
  52 C :    0.020085
  53 N :    0.054358
  54 C :   -0.035463
  55 C :   -0.225347
  56 S :    0.442730
  57 C :   -0.231063
  58 C :   -0.025540
  59 N :   -0.001736
  60 C :    0.018820
  61 C :   -0.126495
  62 H :    0.074095
  63 H :    0.073429
  64 H :    0.017150
  65 H :    0.021513
  66 H :    0.095039
  67 H :   -0.000540
  68 H :    0.029224
  69 H :    0.022790
  70 H :    0.019752
  71 H :    0.019393
  72 H :    0.035161
  73 H :   -0.006516
  74 H :    0.021942
  75 H :    0.047612
  76 H :    0.053323
  77 H :   -0.006935
  78 H :    0.009578
  79 H :    0.052234
  80 H :    0.053551
  81 H :    0.026444
  82 H :    0.051311
  83 H :    0.026295
  84 H :    0.030496
  85 H :    0.025948
  86 H :    0.025186
  87 H :    0.027588
  88 H :    0.030884
  89 H :    0.021796
  90 H :    0.025733
  91 H :    0.085484
  92 H :    0.022182
  93 H :    0.020947
  94 H :    0.087315
  95 H :    0.027181
  96 H :    0.016977
  97 H :    0.028048

  Mayer bond orders larger than 0.100000
B(  0-N ,  1-C ) :   1.2223 B(  0-N , 62-H ) :   0.9449 B(  0-N , 63-H ) :   0.9366
B(  1-C ,  2-C ) :   1.5096 B(  1-C ,  5-C ) :   1.2495 B(  2-C ,  3-S ) :   1.1328
B(  2-C , 64-H ) :   0.9760 B(  3-S ,  4-C ) :   1.1815 B(  4-C ,  5-C ) :   1.5332
B(  4-C , 65-H ) :   0.9770 B(  5-C ,  6-N ) :   1.0248 B(  6-N ,  7-C ) :   1.2391
B(  6-N , 66-H ) :   0.9268 B(  7-C ,  8-C ) :   1.5495 B(  7-C , 67-H ) :   0.9141
B(  8-C ,  9-C ) :   1.2120 B(  8-C , 68-H ) :   0.9515 B(  9-C , 10-C ) :   1.0091
B(  9-C , 13-C ) :   1.4165 B( 10-C , 11-N ) :   1.7448 B( 10-C , 69-H ) :   0.9900
B( 11-N , 12-C ) :   1.2411 B( 12-C , 13-C ) :   1.0810 B( 12-C , 17-C ) :   1.5353
B( 13-C , 14-C ) :   1.0927 B( 14-C , 15-S ) :   1.6185 B( 14-C , 16-C ) :   1.0425
B( 15-S , 67-H ) :   0.1645 B( 16-C , 17-C ) :   1.0788 B( 16-C , 20-C ) :   1.5397
B( 17-C , 18-N ) :   1.2597 B( 18-N , 19-C ) :   1.7351 B( 19-C , 20-C ) :   1.0380
B( 19-C , 70-H ) :   0.9880 B( 20-C , 21-C ) :   1.0102 B( 21-C , 22-C ) :   1.5239
B( 21-C , 38-C ) :   1.1147 B( 22-C , 23-C ) :   1.1597 B( 22-C , 71-H ) :   0.9822
B( 23-C , 24-C ) :   1.4750 B( 23-C , 36-C ) :   1.1104 B( 24-C , 25-C ) :   1.0478
B( 24-C , 30-C ) :   1.0779 B( 25-C , 26-C ) :   1.0360 B( 25-C , 28-C ) :   1.0330
B( 25-C , 72-H ) :   0.8728 B( 26-C , 27-N ) :   1.1037 B( 26-C , 73-H ) :   0.9256
B( 26-C , 74-H ) :   0.9451 B( 27-N , 75-H ) :   0.9706 B( 27-N , 76-H ) :   0.9674
B( 28-C , 29-N ) :   1.0917 B( 28-C , 77-H ) :   0.9297 B( 28-C , 78-H ) :   0.9332
B( 29-N , 79-H ) :   0.9692 B( 29-N , 80-H ) :   0.9664 B( 30-C , 31-C ) :   1.6400
B( 30-C , 35-C ) :   1.0425 B( 31-C , 32-C ) :   0.9785 B( 31-C , 81-H ) :   0.9708
B( 32-C , 33-C ) :   0.9885 B( 32-C , 39-C ) :   0.9467 B( 32-C , 82-H ) :   0.8877
B( 33-C , 34-C ) :   1.6994 B( 33-C , 83-H ) :   0.9742 B( 34-C , 35-C ) :   1.1396
B( 34-C , 84-H ) :   0.9900 B( 35-C , 36-C ) :   1.4337 B( 36-C , 37-C ) :   1.1413
B( 37-C , 38-C ) :   1.6088 B( 37-C , 85-H ) :   0.9923 B( 38-C , 86-H ) :   0.9849
B( 39-C , 40-C ) :   1.7575 B( 39-C , 87-H ) :   0.9582 B( 40-C , 41-C ) :   1.0906
B( 40-C , 88-H ) :   0.9722 B( 41-C , 42-C ) :   1.0097 B( 41-C , 45-C ) :   1.5337
B( 42-C , 43-N ) :   1.7435 B( 42-C , 89-H ) :   0.9895 B( 43-N , 44-C ) :   1.2491
B( 44-C , 45-C ) :   1.0837 B( 44-C , 49-C ) :   1.5633 B( 45-C , 46-C ) :   1.0310
B( 46-C , 47-S ) :   1.6367 B( 46-C , 48-C ) :   1.0763 B( 48-C , 49-C ) :   1.0924
B( 48-C , 52-C ) :   1.4455 B( 49-C , 50-N ) :   1.2285 B( 50-N , 51-C ) :   1.7576
B( 51-C , 52-C ) :   1.0005 B( 51-C , 90-H ) :   0.9988 B( 52-C , 53-N ) :   1.2658
B( 53-N , 54-C ) :   1.0736 B( 53-N , 91-H ) :   0.8792 B( 54-C , 55-C ) :   1.5223
B( 54-C , 58-C ) :   1.2487 B( 55-C , 56-S ) :   1.1640 B( 55-C , 92-H ) :   0.9718
B( 56-S , 57-C ) :   1.1465 B( 57-C , 58-C ) :   1.5234 B( 57-C , 93-H ) :   0.9775
B( 58-C , 59-N ) :   1.1183 B( 59-N , 60-C ) :   1.0904 B( 59-N , 94-H ) :   0.9243
B( 60-C , 61-C ) :   1.9366 B( 60-C , 95-H ) :   0.9564 B( 61-C , 96-H ) :   0.9611
B( 61-C , 97-H ) :   0.9532

-----------------------------------------------------------------------------
         ABSORPTION SPECTRUM VIA TRANSITION ELECTRIC DIPOLE MOMENTS
-----------------------------------------------------------------------------
State   Energy  Wavelength   fosc         T2         TX        TY        TZ
        (cm-1)    (nm)                  (au**2)     (au)      (au)      (au)
-----------------------------------------------------------------------------
   0   11647.1    858.6   0.132414242   3.74276   0.53404  -1.15885   1.45418
   1   13099.2    763.4   0.028832303   0.72462   0.24136  -0.29987   0.75924
   2   14374.6    695.7   0.141302709   3.23617   0.64535  -1.60103   0.50636
   3   14454.6    691.8   0.073253012   1.66838  -0.64763   0.24567   1.09023
   4   15563.2    642.5   0.063229619   1.33751  -0.12396   1.13511  -0.18351
   5   16962.5    589.5   0.016217265   0.31475  -0.25329   0.49917  -0.03777
   6   17549.2    569.8   0.000249982   0.00469  -0.00358   0.00493   0.06821
   7   18806.6    531.7   0.108487905   1.89910  -0.27986   1.28750  -0.40390
   8   19347.7    516.9   0.006402148   0.10894   0.06633   0.28997  -0.14301
   9   20159.2    496.1   0.005075331   0.08288  -0.07239   0.27687   0.03139
  10   20458.6    488.8   0.229635272   3.69520  -0.80307   1.72031  -0.30134
  11   20993.2    476.3   0.128924374   2.02177   0.24886  -0.84509   1.11609
  12   21332.7    468.8   0.001748085   0.02698  -0.05932   0.13293  -0.07607
  13   21568.1    463.6   0.139690916   2.13222  -0.74497   1.25550  -0.03101
  14   22583.7    442.8   0.101958874   1.48629   0.74371  -0.41938  -0.87023
  15   23244.9    430.2   0.088724387   1.25658  -0.32418   0.75357  -0.76395
  16   23289.7    429.4   0.058812019   0.83134   0.05901   0.15969  -0.89574
  17   24067.3    415.5   0.012522671   0.17129   0.06134  -0.40433   0.06366
  18   25428.6    393.3   0.498131791   6.44909  -0.83015   2.17349  -1.01779
  19   26046.6    383.9   0.005517345   0.06974   0.03003   0.00797   0.26224
  20   26363.4    379.3   0.099389750   1.24113  -0.18103   0.54465  -0.95483
  21   26529.4    376.9   0.092403670   1.14667   0.12884  -0.60124   0.87668
  22   26884.4    372.0   0.079307742   0.97116   0.49981  -0.56905   0.63051
  23   26986.2    370.6   0.113658462   1.38655   0.33345  -0.57802   0.97018
  24   27104.1    368.9   0.037428321   0.45461  -0.06686   0.00950   0.67086
  25   27256.6    366.9   0.129743143   1.56707  -0.61959   1.07689   0.15324
  26   27499.5    363.6   0.091231618   1.09218  -0.40237   0.96319   0.05051
  27   27768.0    360.1   0.021083730   0.24996  -0.04910  -0.37386   0.32830
  28   28206.0    354.5   0.144524332   1.68684   0.21094  -0.62541   1.11857
  29   28315.8    353.2   0.022902838   0.26628  -0.16490  -0.14007   0.46847
  30   28591.0    349.8   0.098675023   1.13620  -0.02887  -0.49394   0.94413
  31   28984.9    345.0   0.019302212   0.21924   0.09681   0.29237  -0.35268
  32   29607.9    337.7   0.021139560   0.23505  -0.34271   0.34127  -0.03370
  33   29740.5    336.2   0.004566002   0.05054  -0.08362   0.20869  -0.00013
  34   29989.3    333.5   0.002227027   0.02445   0.01724   0.09713  -0.12131
  35   30115.7    332.1   0.101827404   1.11313  -0.00124  -0.40945   0.97236
  36   30821.8    324.4   0.007487049   0.07997  -0.20548   0.18394   0.06257
  37   30887.8    323.8   0.022635673   0.24126   0.18047  -0.44937   0.08217
  38   31182.8    320.7   0.023560554   0.24874  -0.15898   0.45461   0.12961
  39   31244.8    320.1   0.004350772   0.04584  -0.02627   0.10546   0.18447
  40   31861.0    313.9   0.292625289   3.02362  -0.25665   1.43810  -0.94319
  41   32000.5    312.5   0.052484119   0.53994   0.22755  -0.53077   0.45437
  42   32498.8    307.7   0.510930382   5.17571  -0.54575   1.06294  -1.93598
  43   32647.7    306.3   0.010526219   0.10614  -0.04158   0.28175   0.15822
  44   32889.3    304.1   0.088889891   0.88976   0.22026  -0.73679   0.54624
  45   32968.8    303.3   0.006910103   0.06900  -0.05536   0.25639  -0.01410
  46   33396.6    299.4   0.093998070   0.92660   0.19659  -0.93731   0.09697
  47   33652.0    297.2   0.006957438   0.06806  -0.08727   0.23728  -0.06438
  48   34352.6    291.1   0.022641792   0.21698  -0.01645  -0.44128   0.14829
  49   34453.2    290.2   0.005728780   0.05474   0.04609  -0.04801   0.22430
  50   34875.9    286.7   0.000760149   0.00718  -0.07011   0.02919  -0.03752
  51   35204.2    284.1   0.002064950   0.01931  -0.03120   0.13484   0.01249
  52   35372.3    282.7   0.005049259   0.04699   0.09555  -0.04780   0.18862
  53   35765.8    279.6   0.119594756   1.10083   0.29967   0.28130  -0.96535
  54   35895.3    278.6   0.007995701   0.07333  -0.11997  -0.17567   0.16756
  55   36295.1    275.5   0.035730916   0.32409  -0.05605   0.56082  -0.08022
  56   36567.5    273.5   0.132351781   1.19154  -0.17293   0.55579  -0.92344
  57   36571.9    273.4   0.120183068   1.08186   0.57852   0.03317  -0.86375
  58   36742.9    272.2   0.002035092   0.01823   0.01750   0.02440  -0.13165
  59   36879.4    271.2   0.003227843   0.02881  -0.12160   0.11408  -0.03183
  60   37069.3    269.8   0.046268173   0.41091   0.18444   0.20108  -0.58005
  61   37273.3    268.3   0.072355395   0.63907   0.33006   0.07335  -0.72439
  62   37547.9    266.3   0.003005856   0.02635   0.15015  -0.01416   0.06008
  63   37685.8    265.4   0.006219570   0.05433  -0.03596   0.03927  -0.22693
  64   37901.5    263.8   0.000655170   0.00569   0.06243   0.01459   0.03976
  65   38006.4    263.1   0.001868045   0.01618  -0.03146  -0.06385   0.10543
  66   38199.2    261.8   0.001576088   0.01358   0.03659   0.09484   0.05701
  67   38233.6    261.6   0.000082264   0.00071   0.01249   0.01717  -0.01604
  68   38239.4    261.5   0.003380394   0.02910  -0.11921   0.01149   0.12149
  69   38544.2    259.4   0.001831862   0.01565   0.12421   0.00169   0.01469
  70   38745.2    258.1   0.100450242   0.85351   0.78994   0.24536  -0.41146
  71   38909.8    257.0   0.200010148   1.69227  -1.17247  -0.35713   0.43593
  72   39336.4    254.2   0.074976645   0.62749  -0.19887   0.36197  -0.67596
  73   39654.0    252.2   0.099855158   0.82901   0.81237  -0.41100  -0.01192
  74   39710.6    251.8   0.102007543   0.84567  -0.40837  -0.05734  -0.82196
  75   39881.1    250.7   0.000433420   0.00358   0.01453   0.02052  -0.05427
  76   40119.3    249.3   0.314151085   2.57787  -1.11235   0.23977   1.13272

FINAL SINGLE POINT ENERGY     -3987.252454594994

DIPOLE MOMENT
-------------
                                X             Y             Z
Electronic contribution:     11.93020      -0.68492      -3.81768
Nuclear contribution   :    -13.44761       0.08025       7.38204
                        -----------------------------------------
Total Dipole Moment    :     -1.51741      -0.60467       3.56436
                        -----------------------------------------
Magnitude (a.u.)       :      3.92082
Magnitude (Debye)      :      9.96592

Rotational constants in cm-1:     0.002285     0.000265     0.000249
Rotational constants in MHz :    68.504369     7.929550     7.455813

                             ****ORCA TERMINATED NORMALLY****
TOTAL RUN TIME: 0 days 0 hours 18 minutes 25 seconds 846 msec
