                         Program Version 4.2.0 -  RELEASE  -
|  1> # ORCA input file
|  2> # SCF done       -202.638845866860          0.000495517482
|  3> ! CAM-B3LYP def2-SVP def2/J RIJCOSX Grid4 TightSCF
|  4> %maxcore 5000
|  5> %tddft
|  6>     Mode sTDDFT
|  7>     Ethresh 5.0
|  8>     maxcore 5000
|  9> end
| 10>
| 11> %pal
| 12>   nprocs 6
| 13>   end
| 14> * xyz 0 1
| 15>    C       10.66727        -1.20900         8.49560
| 16>    C       10.29899        -1.84359         9.64906
| 17>    F       11.09300        -1.75924        10.73465
| 18>    C        9.11731        -2.58836         9.75249
| 19>    C        8.29913        -2.68418         8.66076
| 20>    C        8.62956        -2.04948         7.44667
| 21>    C        9.83625        -1.29717         7.36229
| 22>    C       10.18740        -0.64624         6.15548
| 23>    C        9.35964        -0.75018         5.07204
| 24>    C        8.15980        -1.51264         5.15911
| 25>    C        7.79269        -2.14421         6.31056
| 26>    C        7.47425        -1.48479         3.84906
| 27>    O        6.40766        -1.98535         3.56196
| 28>    C        8.39237        -0.75837         2.94335
| 29>    C        9.44347        -0.17654         3.72870
| 30>    C       10.23835         0.89247         3.37945
| 31>    C       10.09577         1.62694         2.18859
| 32>    N        9.98924         2.29842         1.26204
| 33>    C       11.23159         1.43913         4.21198
| 34>    N       12.07822         1.90528         4.83389
| 35>    C        8.15840        -0.76897         1.58768
| 36>    C        9.06408        -0.53923         0.55132
| 37>    S        8.45860        -0.11988        -1.04130
| 38>    C       10.04093         0.05269        -1.73987
| 39>    C       10.98756        -0.25391        -0.77309
| 40>    C       10.46280        -0.58994         0.50704
| 41>    C       11.57223        -0.88425         1.33753
| 42>    C       12.69080        -0.68148         0.57587
| 43>    N       12.34946        -0.30628        -0.69067
| 44>    C       10.22804         0.49599        -3.09188
| 45>    C       11.40201         0.24111        -3.76528
| 46>    C       11.60543         0.75879        -5.05956
| 47>    C       12.69418         0.69409        -5.91637
| 48>    C       13.98625        -0.03481        -5.74882
| 49>    C       14.71864         0.32741        -4.44318
| 50>    N       16.14769         0.19910        -4.65206
| 51>    C       13.75496        -1.55437        -5.86138
| 52>    N       15.02382        -2.26615        -5.86454
| 53>    C       12.34850         1.47319        -7.08182
| 54>    C       13.05520         1.77923        -8.18523
| 55>    C       12.50553         2.66343        -9.24786
| 56>    C       11.08782         3.10539        -9.02257
| 57>    C       10.39342         2.78146        -7.91752
| 58>    C       10.98393         1.98874        -6.90373
| 59>    C       10.54421         1.55274        -5.67276
| 60>    C        9.32593         1.74612        -4.97806
| 61>    C        9.17573         1.23166        -3.73459
| 62>    C       12.60766         2.04881       -10.61725
| 63>    C       12.60555         0.72678       -10.83215
| 64>    C       12.71873         0.10463       -12.10929
| 65>    S       12.69413        -1.63311       -12.17739
| 66>    C       12.92462        -1.69818       -13.91645
| 67>    C       12.98759        -0.38429       -14.38139
| 68>    C       12.89118         0.62989       -13.38596
| 69>    C       13.01662         1.87223       -14.07316
| 70>    C       13.17856         1.57413       -15.39148
| 71>    N       13.16003         0.21402       -15.58300
| 72>    C       12.92168        -2.86067       -14.69397
| 73>    C       12.98469        -4.17853       -14.32235
| 74>    C       12.44297        -5.21168       -15.23493
| 75>    O       12.14358        -5.06806       -16.40138
| 76>    C       12.29355        -6.42262       -14.40177
| 77>    C       11.74114        -7.62741       -14.72432
| 78>    C       11.68000        -8.64303       -13.74280
| 79>    C       12.19537        -8.38681       -12.43908
| 80>    C       12.12456        -9.40154       -11.46533
| 81>    C       11.56781       -10.60707       -11.79071
| 82>    C       11.05758       -10.87922       -13.06679
| 83>    C       11.11748        -9.90454       -14.02397
| 84>    F       11.50014       -11.57783       -10.86034
| 85>    C       12.77343        -7.13116       -12.13603
| 86>    C       12.82327        -6.16644       -13.10374
| 87>    C       13.38980        -4.81988       -13.09945
| 88>    C       14.35418        -4.36681       -12.23129
| 89>    C       15.13671        -3.22743       -12.50098
| 90>    N       15.82983        -2.34139       -12.73380
| 91>    C       14.72984        -5.02921       -11.04944
| 92>    N       15.04745        -5.50148       -10.05123
| 93>    H       11.58353        -0.64095         8.45291
| 94>    H        8.87869        -3.06841        10.68832
| 95>    H        7.38259        -3.25231         8.71607
| 96>    H       11.10907        -0.08716         6.11910
| 97>    H        6.87441        -2.71030         6.35765
| 98>    H        7.14878        -1.04473         1.29944
| 99>    H       11.55790        -1.22321         2.35290
|100>    H       13.72137        -0.78495         0.85684
|101>    H       12.99734        -0.02405        -1.40642
|102>    H       12.16212        -0.37833        -3.31754
|103>    H       14.66007         0.25909        -6.55944
|104>    H       14.34552        -0.31307        -3.62588
|105>    H       14.50409         1.36990        -4.18494
|106>    H       16.35117        -0.76637        -4.89613
|107>    H       16.65576         0.42770        -3.80437
|108>    H       13.14798        -1.74649        -6.76301
|109>    H       13.17786        -1.89953        -4.99904
|110>    H       15.53273        -2.06084        -6.71940
|111>    H       14.86463        -3.26794        -5.84200
|112>    H       14.06347         1.41995        -8.34102
|113>    H       13.13610         3.56869        -9.25685
|114>    H       10.65076         3.70626        -9.80512
|115>    H        9.37858         3.12815        -7.78669
|116>    H        8.53207         2.31043        -5.44408
|117>    H        8.26077         1.38211        -3.18160
|118>    H       12.64360         2.73687       -11.44679
|119>    H       12.53481         0.05040        -9.98986
|120>    H       12.99752         2.85614       -13.65266
|121>    H       13.30715         2.23831       -16.22394
|122>    H       13.27496        -0.25115       -16.46733
|123>    H       12.74144        -2.70497       -15.75466
|124>    H       11.35500        -7.80660       -15.71660
|125>    H       12.51071        -9.22842       -10.47296
|126>    H       10.62978       -11.84894       -13.26594
|127>    H       10.73088       -10.09041       -15.01479
|128>    H       13.15442        -6.95973       -11.14135
|129> *
|130>
|131>                          ****END OF INPUT****

CARTESIAN COORDINATES (ANGSTROEM)
---------------------------------
  C     10.667270   -1.209000    8.495600
  C     10.298990   -1.843590    9.649060
  F     11.093000   -1.759240   10.734650
  C      9.117310   -2.588360    9.752490
  C      8.299130   -2.684180    8.660760
  C      8.629560   -2.049480    7.446670
  C      9.836250   -1.297170    7.362290
  C     10.187400   -0.646240    6.155480
  C      9.359640   -0.750180    5.072040
  C      8.159800   -1.512640    5.159110
  C      7.792690   -2.144210    6.310560
  C      7.474250   -1.484790    3.849060
  O      6.407660   -1.985350    3.561960
  C      8.392370   -0.758370    2.943350
  C      9.443470   -0.176540    3.728700
  C     10.238350    0.892470    3.379450
  C     10.095770    1.626940    2.188590
  N      9.989240    2.298420    1.262040
  C     11.231590    1.439130    4.211980
  N     12.078220    1.905280    4.833890
  C      8.158400   -0.768970    1.587680
  C      9.064080   -0.539230    0.551320
  S      8.458600   -0.119880   -1.041300
  C     10.040930    0.052690   -1.739870
  C     10.987560   -0.253910   -0.773090
  C     10.462800   -0.589940    0.507040
  C     11.572230   -0.884250    1.337530
  C     12.690800   -0.681480    0.575870
  N     12.349460   -0.306280   -0.690670
  C     10.228040    0.495990   -3.091880
  C     11.402010    0.241110   -3.765280
  C     11.605430    0.758790   -5.059560
  C     12.694180    0.694090   -5.916370
  C     13.986250   -0.034810   -5.748820
  C     14.718640    0.327410   -4.443180
  N     16.147690    0.199100   -4.652060
  C     13.754960   -1.554370   -5.861380
  N     15.023820   -2.266150   -5.864540
  C     12.348500    1.473190   -7.081820
  C     13.055200    1.779230   -8.185230
  C     12.505530    2.663430   -9.247860
  C     11.087820    3.105390   -9.022570
  C     10.393420    2.781460   -7.917520
  C     10.983930    1.988740   -6.903730
  C     10.544210    1.552740   -5.672760
  C      9.325930    1.746120   -4.978060
  C      9.175730    1.231660   -3.734590
  C     12.607660    2.048810  -10.617250
  C     12.605550    0.726780  -10.832150
  C     12.718730    0.104630  -12.109290
  S     12.694130   -1.633110  -12.177390
  C     12.924620   -1.698180  -13.916450
  C     12.987590   -0.384290  -14.381390
  C     12.891180    0.629890  -13.385960
  C     13.016620    1.872230  -14.073160
  C     13.178560    1.574130  -15.391480
  N     13.160030    0.214020  -15.583000
  C     12.921680   -2.860670  -14.693970
  C     12.984690   -4.178530  -14.322350
  C     12.442970   -5.211680  -15.234930
  O     12.143580   -5.068060  -16.401380
  C     12.293550   -6.422620  -14.401770
  C     11.741140   -7.627410  -14.724320
  C     11.680000   -8.643030  -13.742800
  C     12.195370   -8.386810  -12.439080
  C     12.124560   -9.401540  -11.465330
  C     11.567810  -10.607070  -11.790710
  C     11.057580  -10.879220  -13.066790
  C     11.117480   -9.904540  -14.023970
  F     11.500140  -11.577830  -10.860340
  C     12.773430   -7.131160  -12.136030
  C     12.823270   -6.166440  -13.103740
  C     13.389800   -4.819880  -13.099450
  C     14.354180   -4.366810  -12.231290
  C     15.136710   -3.227430  -12.500980
  N     15.829830   -2.341390  -12.733800
  C     14.729840   -5.029210  -11.049440
  N     15.047450   -5.501480  -10.051230
  H     11.583530   -0.640950    8.452910
  H      8.878690   -3.068410   10.688320
  H      7.382590   -3.252310    8.716070
  H     11.109070   -0.087160    6.119100
  H      6.874410   -2.710300    6.357650
  H      7.148780   -1.044730    1.299440
  H     11.557900   -1.223210    2.352900
  H     13.721370   -0.784950    0.856840
  H     12.997340   -0.024050   -1.406420
  H     12.162120   -0.378330   -3.317540
  H     14.660070    0.259090   -6.559440
  H     14.345520   -0.313070   -3.625880
  H     14.504090    1.369900   -4.184940
  H     16.351170   -0.766370   -4.896130
  H     16.655760    0.427700   -3.804370
  H     13.147980   -1.746490   -6.763010
  H     13.177860   -1.899530   -4.999040
  H     15.532730   -2.060840   -6.719400
  H     14.864630   -3.267940   -5.842000
  H     14.063470    1.419950   -8.341020
  H     13.136100    3.568690   -9.256850
  H     10.650760    3.706260   -9.805120
  H      9.378580    3.128150   -7.786690
  H      8.532070    2.310430   -5.444080
  H      8.260770    1.382110   -3.181600
  H     12.643600    2.736870  -11.446790
  H     12.534810    0.050400   -9.989860
  H     12.997520    2.856140  -13.652660
  H     13.307150    2.238310  -16.223940
  H     13.274960   -0.251150  -16.467330
  H     12.741440   -2.704970  -15.754660
  H     11.355000   -7.806600  -15.716600
  H     12.510710   -9.228420  -10.472960
  H     10.629780  -11.848940  -13.265940
  H     10.730880  -10.090410  -15.014790
  H     13.154420   -6.959730  -11.141350

 Total Charge           Charge          ....    0
 Multiplicity           Mult            ....    1
 Number of Electrons    NEL             ....  542
 Basis Dimension        Dim             .... 1280

ORBITAL ENERGIES
----------------

  NO   OCC          E(Eh)            E(eV)
   0   2.0000     -88.973280     -2421.0860
   1   2.0000     -88.962296     -2420.7872
   2   2.0000     -24.782504      -674.3662
   3   2.0000     -24.774750      -674.1552
   4   2.0000     -19.205554      -522.6097
   5   2.0000     -19.194945      -522.3210
   6   2.0000     -14.483120      -394.1057
   7   2.0000     -14.472699      -393.8221
   8   2.0000     -14.411025      -392.1439
   9   2.0000     -14.406767      -392.0281
  10   2.0000     -14.398114      -391.7926
  11   2.0000     -14.394032      -391.6815
  12   2.0000     -14.390836      -391.5946
  13   2.0000     -14.364988      -390.8912
  14   2.0000     -10.365720      -282.0656
  15   2.0000     -10.357857      -281.8516
  16   2.0000     -10.357328      -281.8372
  17   2.0000     -10.346627      -281.5460
  18   2.0000     -10.334681      -281.2210
  19   2.0000     -10.334550      -281.2174
  20   2.0000     -10.333293      -281.1832
  21   2.0000     -10.332807      -281.1700
  22   2.0000     -10.326163      -280.9892
  23   2.0000     -10.322955      -280.9019
  24   2.0000     -10.320710      -280.8408
  25   2.0000     -10.320621      -280.8384
  26   2.0000     -10.320160      -280.8258
  27   2.0000     -10.319900      -280.8188
  28   2.0000     -10.316483      -280.7258
  29   2.0000     -10.314769      -280.6791
  30   2.0000     -10.314740      -280.6783
  31   2.0000     -10.309814      -280.5443
  32   2.0000     -10.308535      -280.5095
  33   2.0000     -10.307085      -280.4700
  34   2.0000     -10.305334      -280.4224
  35   2.0000     -10.304535      -280.4006
  36   2.0000     -10.304024      -280.3867
  37   2.0000     -10.302337      -280.3408
  38   2.0000     -10.301727      -280.3242
  39   2.0000     -10.300466      -280.2899
  40   2.0000     -10.299614      -280.2667
  41   2.0000     -10.297804      -280.2175
  42   2.0000     -10.296513      -280.1824
  43   2.0000     -10.295899      -280.1656
  44   2.0000     -10.294664      -280.1320
  45   2.0000     -10.293993      -280.1138
  46   2.0000     -10.293183      -280.0917
  47   2.0000     -10.292326      -280.0684
  48   2.0000     -10.291235      -280.0387
  49   2.0000     -10.290653      -280.0229
  50   2.0000     -10.290197      -280.0105
  51   2.0000     -10.290060      -280.0068
  52   2.0000     -10.287172      -279.9282
  53   2.0000     -10.285657      -279.8870
  54   2.0000     -10.285583      -279.8849
  55   2.0000     -10.285503      -279.8828
  56   2.0000     -10.285108      -279.8720
  57   2.0000     -10.284918      -279.8668
  58   2.0000     -10.284390      -279.8525
  59   2.0000     -10.283274      -279.8221
  60   2.0000     -10.282413      -279.7987
  61   2.0000     -10.282302      -279.7957
  62   2.0000     -10.282077      -279.7895
  63   2.0000     -10.282051      -279.7888
  64   2.0000     -10.281320      -279.7689
  65   2.0000     -10.280858      -279.7564
  66   2.0000     -10.279329      -279.7148
  67   2.0000     -10.277716      -279.6709
  68   2.0000     -10.277016      -279.6518
  69   2.0000     -10.275156      -279.6012
  70   2.0000     -10.275054      -279.5984
  71   2.0000     -10.273774      -279.5636
  72   2.0000     -10.273063      -279.5442
  73   2.0000     -10.270145      -279.4649
  74   2.0000     -10.269671      -279.4520
  75   2.0000     -10.269384      -279.4441
  76   2.0000     -10.268684      -279.4251
  77   2.0000     -10.267910      -279.4040
  78   2.0000      -8.067745      -219.5345
  79   2.0000      -8.057112      -219.2452
  80   2.0000      -6.037185      -164.2802
  81   2.0000      -6.032977      -164.1657
  82   2.0000      -6.029729      -164.0773
  83   2.0000      -6.026527      -163.9901
  84   2.0000      -6.022290      -163.8748
  85   2.0000      -6.019189      -163.7905
  86   2.0000      -1.297141       -35.2970
  87   2.0000      -1.288960       -35.0744
  88   2.0000      -1.120242       -30.4833
  89   2.0000      -1.109325       -30.1863
  90   2.0000      -1.102904       -30.0116
  91   2.0000      -1.091440       -29.6996
  92   2.0000      -1.013301       -27.5733
  93   2.0000      -1.001203       -27.2441
  94   2.0000      -0.995061       -27.0770
  95   2.0000      -0.994062       -27.0498
  96   2.0000      -0.991835       -26.9892
  97   2.0000      -0.985972       -26.8297
  98   2.0000      -0.984498       -26.7895
  99   2.0000      -0.982212       -26.7273
 100   2.0000      -0.975152       -26.5352
 101   2.0000      -0.973585       -26.4926
 102   2.0000      -0.970779       -26.4162
 103   2.0000      -0.960642       -26.1404
 104   2.0000      -0.953812       -25.9545
 105   2.0000      -0.944636       -25.7048
 106   2.0000      -0.930034       -25.3075
 107   2.0000      -0.923367       -25.1261
 108   2.0000      -0.912817       -24.8390
 109   2.0000      -0.909809       -24.7572
 110   2.0000      -0.891802       -24.2672
 111   2.0000      -0.889398       -24.2017
 112   2.0000      -0.887720       -24.1561
 113   2.0000      -0.883385       -24.0381
 114   2.0000      -0.881325       -23.9821
 115   2.0000      -0.873398       -23.7664
 116   2.0000      -0.871514       -23.7151
 117   2.0000      -0.863082       -23.4857
 118   2.0000      -0.859801       -23.3964
 119   2.0000      -0.846657       -23.0387
 120   2.0000      -0.840451       -22.8698
 121   2.0000      -0.837243       -22.7825
 122   2.0000      -0.830068       -22.5873
 123   2.0000      -0.826210       -22.4823
 124   2.0000      -0.823921       -22.4200
 125   2.0000      -0.819996       -22.3132
 126   2.0000      -0.811082       -22.0707
 127   2.0000      -0.800876       -21.7929
 128   2.0000      -0.778234       -21.1768
 129   2.0000      -0.765827       -20.8392
 130   2.0000      -0.762229       -20.7413
 131   2.0000      -0.753892       -20.5144
 132   2.0000      -0.746736       -20.3197
 133   2.0000      -0.737646       -20.0724
 134   2.0000      -0.729277       -19.8446
 135   2.0000      -0.726411       -19.7666
 136   2.0000      -0.714643       -19.4464
 137   2.0000      -0.713484       -19.4149
 138   2.0000      -0.708432       -19.2774
 139   2.0000      -0.704941       -19.1824
 140   2.0000      -0.702643       -19.1199
 141   2.0000      -0.698739       -19.0137
 142   2.0000      -0.695262       -18.9190
 143   2.0000      -0.691434       -18.8149
 144   2.0000      -0.687256       -18.7012
 145   2.0000      -0.682366       -18.5681
 146   2.0000      -0.678134       -18.4530
 147   2.0000      -0.677025       -18.4228
 148   2.0000      -0.674709       -18.3598
 149   2.0000      -0.667110       -18.1530
 150   2.0000      -0.660955       -17.9855
 151   2.0000      -0.646578       -17.5943
 152   2.0000      -0.645134       -17.5550
 153   2.0000      -0.641709       -17.4618
 154   2.0000      -0.632760       -17.2183
 155   2.0000      -0.628875       -17.1125
 156   2.0000      -0.623842       -16.9756
 157   2.0000      -0.620923       -16.8962
 158   2.0000      -0.617292       -16.7974
 159   2.0000      -0.612907       -16.6780
 160   2.0000      -0.606682       -16.5086
 161   2.0000      -0.604123       -16.4390
 162   2.0000      -0.593964       -16.1626
 163   2.0000      -0.591356       -16.0916
 164   2.0000      -0.586428       -15.9575
 165   2.0000      -0.583429       -15.8759
 166   2.0000      -0.574654       -15.6371
 167   2.0000      -0.572176       -15.5697
 168   2.0000      -0.565995       -15.4015
 169   2.0000      -0.563021       -15.3206
 170   2.0000      -0.562612       -15.3095
 171   2.0000      -0.558315       -15.1925
 172   2.0000      -0.556617       -15.1463
 173   2.0000      -0.554761       -15.0958
 174   2.0000      -0.549510       -14.9529
 175   2.0000      -0.546997       -14.8846
 176   2.0000      -0.546112       -14.8605
 177   2.0000      -0.545881       -14.8542
 178   2.0000      -0.544839       -14.8258
 179   2.0000      -0.543356       -14.7855
 180   2.0000      -0.541581       -14.7372
 181   2.0000      -0.538137       -14.6435
 182   2.0000      -0.537693       -14.6314
 183   2.0000      -0.534131       -14.5344
 184   2.0000      -0.530687       -14.4407
 185   2.0000      -0.529829       -14.4174
 186   2.0000      -0.527371       -14.3505
 187   2.0000      -0.526543       -14.3280
 188   2.0000      -0.525409       -14.2971
 189   2.0000      -0.524388       -14.2693
 190   2.0000      -0.520012       -14.1503
 191   2.0000      -0.519661       -14.1407
 192   2.0000      -0.518412       -14.1067
 193   2.0000      -0.515140       -14.0177
 194   2.0000      -0.512722       -13.9519
 195   2.0000      -0.510750       -13.8982
 196   2.0000      -0.510279       -13.8854
 197   2.0000      -0.509727       -13.8704
 198   2.0000      -0.507595       -13.8124
 199   2.0000      -0.505244       -13.7484
 200   2.0000      -0.503466       -13.7000
 201   2.0000      -0.497543       -13.5388
 202   2.0000      -0.494688       -13.4611
 203   2.0000      -0.493240       -13.4218
 204   2.0000      -0.488008       -13.2794
 205   2.0000      -0.487136       -13.2556
 206   2.0000      -0.482483       -13.1290
 207   2.0000      -0.478886       -13.0312
 208   2.0000      -0.477397       -12.9906
 209   2.0000      -0.477002       -12.9799
 210   2.0000      -0.473885       -12.8951
 211   2.0000      -0.472266       -12.8510
 212   2.0000      -0.470353       -12.7990
 213   2.0000      -0.469518       -12.7762
 214   2.0000      -0.465981       -12.6800
 215   2.0000      -0.465126       -12.6567
 216   2.0000      -0.461536       -12.5590
 217   2.0000      -0.458726       -12.4826
 218   2.0000      -0.455010       -12.3815
 219   2.0000      -0.452213       -12.3053
 220   2.0000      -0.451766       -12.2932
 221   2.0000      -0.450649       -12.2628
 222   2.0000      -0.445743       -12.1293
 223   2.0000      -0.444811       -12.1039
 224   2.0000      -0.442429       -12.0391
 225   2.0000      -0.439813       -11.9679
 226   2.0000      -0.438170       -11.9232
 227   2.0000      -0.435131       -11.8405
 228   2.0000      -0.435060       -11.8386
 229   2.0000      -0.430501       -11.7145
 230   2.0000      -0.429607       -11.6902
 231   2.0000      -0.428086       -11.6488
 232   2.0000      -0.425763       -11.5856
 233   2.0000      -0.423450       -11.5227
 234   2.0000      -0.422205       -11.4888
 235   2.0000      -0.418657       -11.3922
 236   2.0000      -0.417532       -11.3616
 237   2.0000      -0.415556       -11.3079
 238   2.0000      -0.413803       -11.2602
 239   2.0000      -0.412892       -11.2354
 240   2.0000      -0.412784       -11.2324
 241   2.0000      -0.409428       -11.1411
 242   2.0000      -0.403369       -10.9762
 243   2.0000      -0.401619       -10.9286
 244   2.0000      -0.401423       -10.9233
 245   2.0000      -0.393944       -10.7198
 246   2.0000      -0.391720       -10.6592
 247   2.0000      -0.383046       -10.4232
 248   2.0000      -0.381110       -10.3705
 249   2.0000      -0.376047       -10.2328
 250   2.0000      -0.372408       -10.1337
 251   2.0000      -0.368299       -10.0219
 252   2.0000      -0.360126        -9.7995
 253   2.0000      -0.353053        -9.6071
 254   2.0000      -0.341034        -9.2800
 255   2.0000      -0.336337        -9.1522
 256   2.0000      -0.328262        -8.9325
 257   2.0000      -0.327997        -8.9252
 258   2.0000      -0.320055        -8.7091
 259   2.0000      -0.316136        -8.6025
 260   2.0000      -0.313790        -8.5387
 261   2.0000      -0.312113        -8.4930
 262   2.0000      -0.306975        -8.3532
 263   2.0000      -0.302520        -8.2320
 264   2.0000      -0.295228        -8.0336
 265   2.0000      -0.294346        -8.0096
 266   2.0000      -0.293082        -7.9752
 267   2.0000      -0.283574        -7.7164
 268   2.0000      -0.256448        -6.9783
 269   2.0000      -0.252720        -6.8769
 270   2.0000      -0.226847        -6.1728
 271   0.0000      -0.095073        -2.5871
 272   0.0000      -0.090389        -2.4596
 273   0.0000      -0.065991        -1.7957
 274   0.0000      -0.052342        -1.4243
 275   0.0000      -0.041183        -1.1206

MULLIKEN ATOMIC CHARGES
-----------------------
   0 C :   -0.099463
   1 C :    0.300617
   2 F :   -0.195940
   3 C :   -0.031522
   4 C :   -0.011004
   5 C :    0.100131
   6 C :    0.103081
   7 C :   -0.098556
   8 C :    0.043161
   9 C :    0.016640
  10 C :   -0.087485
  11 C :    0.133824
  12 O :   -0.154461
  13 C :   -0.159079
  14 C :    0.275858
  15 C :   -0.369070
  16 C :   -0.193528
  17 N :    0.154790
  18 C :   -0.180205
  19 N :    0.137660
  20 C :    0.078820
  21 C :   -0.165601
  22 S :    0.156339
  23 C :   -0.135452
  24 C :    0.092600
  25 C :    0.106637
  26 C :   -0.047980
  27 C :    0.103132
  28 N :   -0.048377
  29 C :    0.128926
  30 C :   -0.113951
  31 C :    0.041029
  32 C :   -0.027138
  33 C :   -0.059799
  34 C :    0.147799
  35 N :   -0.218405
  36 C :    0.140868
  37 N :   -0.217574
  38 C :    0.107720
  39 C :   -0.169461
  40 C :    0.168638
  41 C :   -0.036626
  42 C :    0.027114
  43 C :    0.016246
  44 C :    0.028671
  45 C :    0.003926
  46 C :   -0.025653
  47 C :   -0.101743
  48 C :    0.101088
  49 C :   -0.106355
  50 S :    0.156888
  51 C :   -0.141950
  52 C :    0.119783
  53 C :    0.096092
  54 C :   -0.064976
  55 C :    0.091600
  56 N :   -0.039596
  57 C :    0.002583
  58 C :   -0.157393
  59 C :    0.141552
  60 O :   -0.158732
  61 C :    0.008616
  62 C :   -0.083647
  63 C :    0.098334
  64 C :    0.103217
  65 C :   -0.097525
  66 C :    0.301402
  67 C :   -0.029068
  68 C :   -0.008992
  69 F :   -0.193044
  70 C :   -0.089648
  71 C :    0.044250
  72 C :    0.263443
  73 C :   -0.334192
  74 C :   -0.223368
  75 N :    0.160844
  76 C :   -0.165930
  77 N :    0.134833
  78 H :   -0.006540
  79 H :   -0.001653
  80 H :   -0.012653
  81 H :   -0.012042
  82 H :   -0.017342
  83 H :    0.015043
  84 H :   -0.005199
  85 H :    0.015353
  86 H :    0.135947
  87 H :   -0.063241
  88 H :   -0.027082
  89 H :   -0.038139
  90 H :    0.002320
  91 H :    0.081359
  92 H :    0.082084
  93 H :   -0.005918
  94 H :   -0.005700
  95 H :    0.105776
  96 H :    0.103817
  97 H :    0.006293
  98 H :    0.047550
  99 H :   -0.013281
 100 H :   -0.033293
 101 H :   -0.030582
 102 H :   -0.009762
 103 H :   -0.003001
 104 H :   -0.000001
 105 H :   -0.014924
 106 H :    0.011116
 107 H :    0.137240
 108 H :    0.000838
 109 H :   -0.015418
 110 H :   -0.006422
 111 H :    0.000879
 112 H :   -0.011014
 113 H :   -0.008669
Sum of atomic charges:   -0.0000000

LOEWDIN ATOMIC CHARGES
----------------------
   0 C :   -0.044254
   1 C :    0.090644
   2 F :   -0.069877
   3 C :   -0.042232
   4 C :    0.002794
   5 C :   -0.021473
   6 C :    0.002043
   7 C :    0.002090
   8 C :   -0.014709
   9 C :   -0.057431
  10 C :    0.029162
  11 C :    0.079185
  12 O :   -0.157979
  13 C :   -0.113630
  14 C :    0.056942
  15 C :   -0.150529
  16 C :   -0.014148
  17 N :   -0.065248
  18 C :   -0.019266
  19 N :   -0.071472
  20 C :    0.044776
  21 C :   -0.190565
  22 S :    0.471138
  23 C :   -0.149334
  24 C :   -0.014353
  25 C :   -0.036436
  26 C :   -0.081755
  27 C :    0.054828
  28 N :    0.073975
  29 C :   -0.037857
  30 C :   -0.020717
  31 C :   -0.019364
  32 C :   -0.029486
  33 C :   -0.041206
  34 C :    0.029295
  35 N :   -0.125136
  36 C :    0.028339
  37 N :   -0.107474
  38 C :   -0.016046
  39 C :    0.062225
  40 C :   -0.031181
  41 C :   -0.028300
  42 C :   -0.015782
  43 C :   -0.034840
  44 C :   -0.027584
  45 C :    0.000192
  46 C :   -0.030814
  47 C :    0.019204
  48 C :   -0.048851
  49 C :   -0.126932
  50 S :    0.485026
  51 C :   -0.219300
  52 C :    0.023669
  53 C :   -0.073144
  54 C :   -0.079189
  55 C :    0.031033
  56 N :    0.074531
  57 C :    0.047976
  58 C :   -0.120886
  59 C :    0.080026
  60 O :   -0.161730
  61 C :   -0.057380
  62 C :    0.031015
  63 C :   -0.020093
  64 C :    0.002395
  65 C :   -0.043472
  66 C :    0.092005
  67 C :   -0.039310
  68 C :    0.003829
  69 F :   -0.067050
  70 C :    0.006539
  71 C :   -0.015000
  72 C :    0.064312
  73 C :   -0.159288
  74 C :   -0.038713
  75 N :   -0.060873
  76 C :   -0.019064
  77 N :   -0.068836
  78 H :    0.041588
  79 H :    0.039751
  80 H :    0.034221
  81 H :    0.036986
  82 H :    0.037513
  83 H :    0.043472
  84 H :    0.030600
  85 H :    0.030511
  86 H :    0.088380
  87 H :    0.013629
  88 H :    0.023110
  89 H :   -0.010968
  90 H :    0.017573
  91 H :    0.038172
  92 H :    0.050268
  93 H :    0.002776
  94 H :    0.015658
  95 H :    0.059114
  96 H :    0.061750
  97 H :    0.033554
  98 H :    0.066782
  99 H :    0.024638
 100 H :    0.031456
 101 H :    0.030345
 102 H :    0.022742
 103 H :    0.027945
 104 H :    0.032239
 105 H :    0.025772
 106 H :    0.028248
 107 H :    0.096192
 108 H :    0.042458
 109 H :    0.038398
 110 H :    0.041764
 111 H :    0.040950
 112 H :    0.034959
 113 H :    0.037860

  Mayer bond orders larger than 0.100000
B(  0-C ,  1-C ) :   1.4384 B(  0-C ,  6-C ) :   1.2043 B(  0-C , 78-H ) :   1.0063
B(  1-C ,  2-F ) :   1.0824 B(  1-C ,  3-C ) :   1.2608 B(  3-C ,  4-C ) :   1.4561
B(  3-C , 79-H ) :   0.9923 B(  4-C ,  5-C ) :   1.2380 B(  4-C , 80-H ) :   0.9961
B(  5-C ,  6-C ) :   1.2637 B(  5-C , 10-C ) :   1.1808 B(  6-C ,  7-C ) :   1.1930
B(  7-C ,  8-C ) :   1.4697 B(  7-C , 81-H ) :   0.9941 B(  8-C ,  9-C ) :   1.2216
B(  8-C , 14-C ) :   0.9884 B(  9-C , 10-C ) :   1.4775 B(  9-C , 11-C ) :   0.9120
B( 10-C , 82-H ) :   1.0150 B( 11-C , 12-O ) :   2.2660 B( 11-C , 13-C ) :   0.9619
B( 13-C , 14-C ) :   1.1092 B( 13-C , 20-C ) :   1.5256 B( 14-C , 15-C ) :   1.5877
B( 15-C , 16-C ) :   1.1670 B( 15-C , 18-C ) :   1.1494 B( 16-C , 17-N ) :   3.0018
B( 18-C , 19-N ) :   2.9719 B( 20-C , 21-C ) :   1.2544 B( 20-C , 83-H ) :   0.9340
B( 21-C , 22-S ) :   1.0784 B( 21-C , 25-C ) :   1.2777 B( 22-S , 23-C ) :   1.1563
B( 23-C , 24-C ) :   1.4134 B( 23-C , 29-C ) :   1.0619 B( 24-C , 25-C ) :   1.2565
B( 24-C , 28-N ) :   1.1777 B( 25-C , 26-C ) :   1.2342 B( 26-C , 27-C ) :   1.5034
B( 26-C , 84-H ) :   1.0004 B( 27-C , 28-N ) :   1.2069 B( 27-C , 85-H ) :   0.9866
B( 28-N , 86-H ) :   0.9271 B( 29-C , 30-C ) :   1.5218 B( 29-C , 46-C ) :   1.1056
B( 30-C , 31-C ) :   1.1477 B( 30-C , 87-H ) :   0.9799 B( 31-C , 32-C ) :   1.4662
B( 31-C , 44-C ) :   1.1171 B( 32-C , 33-C ) :   1.0237 B( 32-C , 38-C ) :   1.1192
B( 33-C , 34-C ) :   1.0218 B( 33-C , 36-C ) :   1.0510 B( 33-C , 88-H ) :   0.8770
B( 34-C , 35-N ) :   1.1154 B( 34-C , 89-H ) :   0.9149 B( 34-C , 90-H ) :   0.9518
B( 35-N , 91-H ) :   0.9458 B( 35-N , 92-H ) :   0.9663 B( 36-C , 37-N ) :   1.0872
B( 36-C , 93-H ) :   0.9443 B( 36-C , 94-H ) :   0.9344 B( 37-N , 95-H ) :   0.9615
B( 37-N , 96-H ) :   0.9665 B( 38-C , 39-C ) :   1.6352 B( 38-C , 43-C ) :   1.0555
B( 39-C , 40-C ) :   0.9663 B( 39-C , 97-H ) :   0.9794 B( 40-C , 41-C ) :   0.9864
B( 40-C , 47-C ) :   0.9674 B( 40-C , 98-H ) :   0.8478 B( 41-C , 42-C ) :   1.7343
B( 41-C , 99-H ) :   0.9674 B( 42-C , 43-C ) :   1.1268 B( 42-C ,100-H ) :   0.9865
B( 43-C , 44-C ) :   1.4486 B( 44-C , 45-C ) :   1.1364 B( 45-C , 46-C ) :   1.6242
B( 45-C ,101-H ) :   0.9922 B( 46-C ,102-H ) :   0.9803 B( 47-C , 48-C ) :   1.8018
B( 47-C ,103-H ) :   0.9737 B( 48-C , 49-C ) :   1.1160 B( 48-C ,104-H ) :   0.9411
B( 49-C , 50-S ) :   1.1770 B( 49-C , 53-C ) :   1.3542 B( 50-S , 51-C ) :   1.0616
B( 51-C , 52-C ) :   1.3143 B( 51-C , 57-C ) :   1.2416 B( 52-C , 53-C ) :   1.2446
B( 52-C , 56-N ) :   1.2476 B( 53-C , 54-C ) :   1.1669 B( 54-C , 55-C ) :   1.6019
B( 54-C ,105-H ) :   1.0087 B( 55-C , 56-N ) :   1.1468 B( 55-C ,106-H ) :   0.9856
B( 56-N ,107-H ) :   0.9335 B( 57-C , 58-C ) :   1.5457 B( 57-C ,108-H ) :   0.9442
B( 58-C , 59-C ) :   0.9625 B( 58-C , 72-C ) :   1.0712 B( 59-C , 60-O ) :   2.2507
B( 59-C , 61-C ) :   0.9199 B( 61-C , 62-C ) :   1.4790 B( 61-C , 71-C ) :   1.2193
B( 62-C , 63-C ) :   1.1856 B( 62-C ,109-H ) :   1.0150 B( 63-C , 64-C ) :   1.2609
B( 63-C , 68-C ) :   1.2381 B( 64-C , 65-C ) :   1.2045 B( 64-C , 70-C ) :   1.1964
B( 65-C , 66-C ) :   1.4399 B( 65-C ,110-H ) :   1.0059 B( 66-C , 67-C ) :   1.2581
B( 66-C , 69-F ) :   1.0857 B( 67-C , 68-C ) :   1.4585 B( 67-C ,111-H ) :   0.9923
B( 68-C ,112-H ) :   0.9962 B( 70-C , 71-C ) :   1.4689 B( 70-C ,113-H ) :   0.9942
B( 71-C , 72-C ) :   1.0016 B( 72-C , 73-C ) :   1.6124 B( 73-C , 74-C ) :   1.1607
B( 73-C , 76-C ) :   1.1366 B( 74-C , 75-N ) :   3.0227 B( 76-C , 77-N ) :   2.9793

-----------------------------------------------------------------------------
         ABSORPTION SPECTRUM VIA TRANSITION ELECTRIC DIPOLE MOMENTS
-----------------------------------------------------------------------------
State   Energy  Wavelength   fosc         T2         TX        TY        TZ
        (cm-1)    (nm)                  (au**2)     (au)      (au)      (au)
-----------------------------------------------------------------------------
   0   13671.1    731.5   0.151741832   3.65407   1.09646  -0.38174  -1.51859
   1   16035.2    623.6   0.282575773   5.80144   0.47711  -1.53741  -1.79170
   2   17462.1    572.7   0.907445264  17.10805  -0.77210   0.43951   4.03965
   3   18411.2    543.1   0.506418257   9.05532  -0.38034   2.72553  -1.21743
   4   20065.5    498.4   0.094310934   1.54735  -0.58263  -0.00698   1.09902
   5   23904.9    418.3   0.005168454   0.07118  -0.05782   0.06285  -0.25276
   6   24902.0    401.6   0.227068699   3.00192  -0.46212  -0.78084   1.47603
   7   25322.4    394.9   0.007414786   0.09640  -0.08295   0.11547   0.27602
   8   26002.3    384.6   0.067422948   0.85364   0.02172  -0.55591  -0.73765
   9   26352.1    379.5   0.021629912   0.27022   0.03282   0.41894  -0.30599
  10   27190.5    367.8   0.099532198   1.20510  -0.21248   0.09734   1.07260
  11   27306.6    366.2   0.177685187   2.14219   0.99423   0.98103  -0.43734
  12   27388.3    365.1   0.007490212   0.09003   0.27981  -0.00234  -0.10832
  13   27763.1    360.2   0.053973356   0.64001  -0.26609   0.50652  -0.55915
  14   28002.9    357.1   0.038406517   0.45152  -0.16058   0.24273  -0.60565
  15   28261.8    353.8   0.032219973   0.37532  -0.48992  -0.11840  -0.34826
  16   28694.5    348.5   0.126812522   1.45492  -0.46885  -0.36568  -1.04947
  17   28835.5    346.8   0.316762320   3.61644  -0.34970  -1.86924   0.00880
  18   29902.3    334.4   0.050310637   0.55390  -0.10520  -0.42704   0.60039
  19   30063.3    332.6   0.133970789   1.46706  -0.49115  -1.09400  -0.17032
  20   31065.2    321.9   0.082116591   0.87023  -0.22289   0.19951  -0.88360
  21   31498.3    317.5   0.019346965   0.20221   0.03361   0.08214   0.44083
  22   31536.9    317.1   0.000464805   0.00485   0.04795   0.00017   0.05053
  23   31724.8    315.2   0.028211861   0.29276   0.15513   0.17216   0.48893
  24   31980.8    312.7   0.103672196   1.06721   0.57804   0.14461  -0.84390
  25   32443.7    308.2   0.160151914   1.62509  -0.54907  -0.82027   0.80670
  26   32605.1    306.7   0.152236526   1.53712  -0.38646  -0.17116   1.16554
  27   32987.2    303.1   0.129151327   1.28893  -0.64115  -0.92154  -0.16915
  28   33174.4    301.4   0.138193699   1.37139   0.65995   0.96644  -0.04296
  29   33229.0    300.9   0.125430162   1.24268  -0.42462  -0.27489   0.99339
  30   33831.8    295.6   0.007554225   0.07351  -0.02904   0.04274  -0.26616
  31   33987.6    294.2   0.015931489   0.15432   0.01642   0.27100  -0.28391
  32   34358.7    291.0   0.260945187   2.50028  -0.59602  -1.42278   0.34747
  33   34691.2    288.3   0.457952718   4.34588   0.44244  -0.87030   1.84193
  34   34975.8    285.9   0.056687028   0.53357  -0.27761  -0.60584  -0.29911
  35   35043.1    285.4   0.232485298   2.18408  -0.39050  -1.42420  -0.05682
  36   35177.4    284.3   0.003432282   0.03212  -0.02331  -0.13747   0.11261
  37   35304.9    283.2   0.001682501   0.01569   0.07927   0.08286   0.05040
  38   35339.3    283.0   0.063450848   0.59109   0.09641   0.57758  -0.49819
  39   35411.9    282.4   0.060790382   0.56515  -0.09723  -0.41713   0.61782
  40   35777.9    279.5   0.002177951   0.02004   0.01113   0.11719  -0.07863
  41   35955.0    278.1   0.022946135   0.21010   0.10520   0.19970  -0.39894
  42   36440.1    274.4   0.081968204   0.74053  -0.66363  -0.44753   0.31599
  43   36864.2    271.3   0.036491317   0.32588   0.20493   0.34202  -0.40854
  44   36941.2    270.7   0.088816586   0.79151   0.23907   0.35320  -0.78077
  45   37013.4    270.2   0.031398786   0.27927  -0.14081   0.42736  -0.27715
  46   37328.5    267.9   0.126517450   1.11580   0.68258   0.58821  -0.55127
  47   37434.7    267.1   0.217280174   1.91083   0.23740   0.87206  -1.04593
  48   37739.7    265.0   0.071303084   0.62199  -0.70413  -0.32309  -0.14767
  49   38163.4    262.0   0.150519403   1.29844   0.42388   0.54797   0.90470
  50   38681.1    258.5   0.017220261   0.14656  -0.10426  -0.04004   0.36618
  51   38917.1    257.0   0.002871289   0.02429   0.02371   0.12479  -0.09030
  52   39074.9    255.9   0.093578521   0.78841   0.16820  -0.14674  -0.85941
  53   39463.3    253.4   0.001050180   0.00876   0.06299   0.06901  -0.00558
  54   39622.7    252.4   0.041418800   0.34414   0.04067   0.48453  -0.32820
  55   39649.0    252.2   0.017732096   0.14723  -0.28815   0.06486   0.24494
  56   40072.3    249.5   0.203686049   1.67337   0.10513   0.30809  -1.25196
  57   40267.2    248.3   0.025832375   0.21120  -0.32651  -0.30050  -0.11954

FINAL SINGLE POINT ENERGY     -4040.543819411834

DIPOLE MOMENT
-------------
                                X             Y             Z
Electronic contribution:    -20.67300     -25.27946      19.68750
Nuclear contribution   :     20.44870      25.17935     -23.91933
                        -----------------------------------------
Total Dipole Moment    :     -0.22430      -0.10012      -4.23183
                        -----------------------------------------
Magnitude (a.u.)       :      4.23895
Magnitude (Debye)      :     10.77457

Rotational constants in cm-1:     0.001226     0.000235     0.000210
Rotational constants in MHz :    36.741884     7.039688     6.294805

                             ****ORCA TERMINATED NORMALLY****
TOTAL RUN TIME: 0 days 0 hours 12 minutes 55 seconds 459 msec
