                         Program Version 4.2.0 -  RELEASE  -
|  1> # ORCA input file
|  2> # SCF done       -181.283531936415          0.000359437133
|  3> ! CAM-B3LYP def2-SVP def2/J RIJCOSX Grid4 TightSCF
|  4> %maxcore 5000
|  5> %tddft
|  6>     Mode sTDDFT
|  7>     Ethresh 5.0
|  8>     maxcore 5000
|  9> end
| 10>
| 11> %pal
| 12>   nprocs 6
| 13>   end
| 14> * xyz 0 1
| 15>    C       -9.64144         1.47651         1.41118
| 16>    C      -10.49780         2.08092         0.57533
| 17>    C       -9.99799         3.01968        -0.39904
| 18>    C      -10.83155         3.67757        -1.28274
| 19>    C      -10.35219         4.59761        -2.23211
| 20>    N       -9.97832         5.35196        -3.01214
| 21>    C      -12.22111         3.46522        -1.27819
| 22>    N      -13.35514         3.28407        -1.26452
| 23>    C       -8.58731         3.21771        -0.38086
| 24>    C       -7.79516         2.55440         0.51331
| 25>    O       -8.31128         1.68102         1.41700
| 26>    C       -6.37012         2.76083         0.52663
| 27>    N       -5.84906         3.57394        -0.38022
| 28>    C       -4.52086         3.58087        -0.15001
| 29>    C       -4.17056         2.71091         0.97361
| 30>    C       -2.71898         2.74342         1.20736
| 31>    O       -2.06604         2.14729         2.04136
| 32>    C       -2.24076         3.68246         0.17631
| 33>    C       -3.37440         4.16952        -0.63507
| 34>    N       -2.94918         5.04154        -1.57884
| 35>    C       -1.65209         5.12717        -1.40717
| 36>    C       -1.14353         4.30562        -0.32430
| 37>    C       -5.35882         2.17734         1.43210
| 38>    C       -5.60683         1.30274         2.52812
| 39>    C       -4.60487         0.81090         3.29445
| 40>    C       -4.72849        -0.02511         4.45441
| 41>    C       -3.56802        -0.35868         5.13135
| 42>    C       -3.61691        -1.12197         6.30917
| 43>    C       -2.61998        -1.54802         7.18698
| 44>    C       -1.14228        -1.38629         7.08670
| 45>    C       -0.61229        -2.20800         5.89677
| 46>    N       -0.85801        -3.62160         6.14417
| 47>    C       -0.70920         0.08749         7.00984
| 48>    N       -1.09941         0.74988         8.24189
| 49>    C       -3.27410        -2.31399         8.21667
| 50>    C       -2.77750        -2.94901         9.29521
| 51>    C       -3.64075        -3.80110        10.14802
| 52>    C       -5.10870        -3.69895         9.86284
| 53>    C       -5.59243        -3.02595         8.79744
| 54>    C       -4.71498        -2.33600         7.93329
| 55>    C       -4.91220        -1.59315         6.78164
| 56>    C       -6.08107        -1.26320         6.06078
| 57>    C       -5.98898        -0.49885         4.94146
| 58>    C       -3.36348        -5.25853         9.86855
| 59>    C       -2.92520        -5.72960         8.68895
| 60>    C       -2.71358        -7.12492         8.48181
| 61>    N       -2.89363        -8.01271         9.45126
| 62>    C       -2.58825        -9.20933         8.92003
| 63>    C       -2.18515        -9.08277         7.51016
| 64>    C       -1.85552       -10.40517         6.94894
| 65>    O       -1.49043       -10.67396         5.82353
| 66>    C       -2.07940       -11.30580         8.08992
| 67>    C       -2.52716       -10.53810         9.27129
| 68>    N       -2.73609       -11.36076        10.32493
| 69>    C       -2.45092       -12.56374         9.88235
| 70>    C       -2.03462       -12.60157         8.49712
| 71>    C       -2.26068        -7.74368         7.21447
| 72>    C       -2.00345        -7.05023         5.99549
| 73>    C       -1.62442        -7.68474         4.86307
| 74>    C       -1.38822        -7.02214         3.61328
| 75>    C       -1.07278        -7.70120         2.47223
| 76>    C       -0.87177        -7.01667         1.23667
| 77>    C       -0.55726        -7.67231         0.06290
| 78>    C       -0.36797        -6.97666        -1.14306
| 79>    N       -0.21469        -6.40035        -2.12488
| 80>    C       -0.40941        -9.06870         0.00071
| 81>    N       -0.28737       -10.20900        -0.05736
| 82>    C       -1.02751        -5.58440         1.29806
| 83>    C       -1.33208        -5.00096         2.46622
| 84>    O       -1.50827        -5.66332         3.62369
| 85>    H       -9.93923         0.76288         2.16511
| 86>    H      -11.55377         1.87248         0.62420
| 87>    H       -8.11395         3.89667        -1.07267
| 88>    H       -1.06074         5.76501        -2.04062
| 89>    H       -0.11691         4.23755        -0.02284
| 90>    H       -6.63653         1.05876         2.73436
| 91>    H       -3.59031         1.08660         3.03801
| 92>    H       -2.62344        -0.01003         4.74165
| 93>    H       -0.69158        -1.79083         7.99802
| 94>    H        0.45400        -1.97098         5.74944
| 95>    H       -1.15080        -1.93011         4.98825
| 96>    H       -0.28092        -3.94229         6.91628
| 97>    H       -0.60468        -4.16908         5.32884
| 98>    H       -1.12279         0.55886         6.10707
| 99>    H        0.38159         0.13169         6.94149
|100>    H       -2.11142         0.78248         8.31530
|101>    H       -0.75226         1.70180         8.26112
|102>    H       -1.72624        -2.92715         9.54365
|103>    H       -3.43816        -3.60465        11.20722
|104>    H       -5.76190        -4.24223        10.52704
|105>    H       -6.65507        -2.99597         8.60515
|106>    H       -7.03874        -1.61875         6.41173
|107>    H       -6.88320        -0.24171         4.39581
|108>    H       -3.59157        -5.96228        10.65589
|109>    H       -2.70416        -5.05964         7.86971
|110>    H       -2.53604       -13.41531        10.53484
|111>    H       -1.75998       -13.48224         7.95118
|112>    H       -2.13188        -5.97617         5.99351
|113>    H       -1.49658        -8.75841         4.85478
|114>    H       -0.98246        -8.77555         2.50561
|115>    H       -0.89936        -4.99518         0.40522
|116>    H       -1.46690        -3.93653         2.59090
|117> *
|118>
|119>                          ****END OF INPUT****

CARTESIAN COORDINATES (ANGSTROEM)
---------------------------------
  C     -9.641440    1.476510    1.411180
  C    -10.497800    2.080920    0.575330
  C     -9.997990    3.019680   -0.399040
  C    -10.831550    3.677570   -1.282740
  C    -10.352190    4.597610   -2.232110
  N     -9.978320    5.351960   -3.012140
  C    -12.221110    3.465220   -1.278190
  N    -13.355140    3.284070   -1.264520
  C     -8.587310    3.217710   -0.380860
  C     -7.795160    2.554400    0.513310
  O     -8.311280    1.681020    1.417000
  C     -6.370120    2.760830    0.526630
  N     -5.849060    3.573940   -0.380220
  C     -4.520860    3.580870   -0.150010
  C     -4.170560    2.710910    0.973610
  C     -2.718980    2.743420    1.207360
  O     -2.066040    2.147290    2.041360
  C     -2.240760    3.682460    0.176310
  C     -3.374400    4.169520   -0.635070
  N     -2.949180    5.041540   -1.578840
  C     -1.652090    5.127170   -1.407170
  C     -1.143530    4.305620   -0.324300
  C     -5.358820    2.177340    1.432100
  C     -5.606830    1.302740    2.528120
  C     -4.604870    0.810900    3.294450
  C     -4.728490   -0.025110    4.454410
  C     -3.568020   -0.358680    5.131350
  C     -3.616910   -1.121970    6.309170
  C     -2.619980   -1.548020    7.186980
  C     -1.142280   -1.386290    7.086700
  C     -0.612290   -2.208000    5.896770
  N     -0.858010   -3.621600    6.144170
  C     -0.709200    0.087490    7.009840
  N     -1.099410    0.749880    8.241890
  C     -3.274100   -2.313990    8.216670
  C     -2.777500   -2.949010    9.295210
  C     -3.640750   -3.801100   10.148020
  C     -5.108700   -3.698950    9.862840
  C     -5.592430   -3.025950    8.797440
  C     -4.714980   -2.336000    7.933290
  C     -4.912200   -1.593150    6.781640
  C     -6.081070   -1.263200    6.060780
  C     -5.988980   -0.498850    4.941460
  C     -3.363480   -5.258530    9.868550
  C     -2.925200   -5.729600    8.688950
  C     -2.713580   -7.124920    8.481810
  N     -2.893630   -8.012710    9.451260
  C     -2.588250   -9.209330    8.920030
  C     -2.185150   -9.082770    7.510160
  C     -1.855520  -10.405170    6.948940
  O     -1.490430  -10.673960    5.823530
  C     -2.079400  -11.305800    8.089920
  C     -2.527160  -10.538100    9.271290
  N     -2.736090  -11.360760   10.324930
  C     -2.450920  -12.563740    9.882350
  C     -2.034620  -12.601570    8.497120
  C     -2.260680   -7.743680    7.214470
  C     -2.003450   -7.050230    5.995490
  C     -1.624420   -7.684740    4.863070
  C     -1.388220   -7.022140    3.613280
  C     -1.072780   -7.701200    2.472230
  C     -0.871770   -7.016670    1.236670
  C     -0.557260   -7.672310    0.062900
  C     -0.367970   -6.976660   -1.143060
  N     -0.214690   -6.400350   -2.124880
  C     -0.409410   -9.068700    0.000710
  N     -0.287370  -10.209000   -0.057360
  C     -1.027510   -5.584400    1.298060
  C     -1.332080   -5.000960    2.466220
  O     -1.508270   -5.663320    3.623690
  H     -9.939230    0.762880    2.165110
  H    -11.553770    1.872480    0.624200
  H     -8.113950    3.896670   -1.072670
  H     -1.060740    5.765010   -2.040620
  H     -0.116910    4.237550   -0.022840
  H     -6.636530    1.058760    2.734360
  H     -3.590310    1.086600    3.038010
  H     -2.623440   -0.010030    4.741650
  H     -0.691580   -1.790830    7.998020
  H      0.454000   -1.970980    5.749440
  H     -1.150800   -1.930110    4.988250
  H     -0.280920   -3.942290    6.916280
  H     -0.604680   -4.169080    5.328840
  H     -1.122790    0.558860    6.107070
  H      0.381590    0.131690    6.941490
  H     -2.111420    0.782480    8.315300
  H     -0.752260    1.701800    8.261120
  H     -1.726240   -2.927150    9.543650
  H     -3.438160   -3.604650   11.207220
  H     -5.761900   -4.242230   10.527040
  H     -6.655070   -2.995970    8.605150
  H     -7.038740   -1.618750    6.411730
  H     -6.883200   -0.241710    4.395810
  H     -3.591570   -5.962280   10.655890
  H     -2.704160   -5.059640    7.869710
  H     -2.536040  -13.415310   10.534840
  H     -1.759980  -13.482240    7.951180
  H     -2.131880   -5.976170    5.993510
  H     -1.496580   -8.758410    4.854780
  H     -0.982460   -8.775550    2.505610
  H     -0.899360   -4.995180    0.405220
  H     -1.466900   -3.936530    2.590900

 Total Charge           Charge          ....    0
 Multiplicity           Mult            ....    1
 Number of Electrons    NEL             ....  470
 Basis Dimension        Dim             .... 1140

ORBITAL ENERGIES
----------------

  NO   OCC          E(Eh)            E(eV)
   0   2.0000     -19.339843      -526.2639
   1   2.0000     -19.327924      -525.9395
   2   2.0000     -19.225210      -523.1446
   3   2.0000     -19.222529      -523.0716
   4   2.0000     -14.433934      -392.7673
   5   2.0000     -14.418714      -392.3531
   6   2.0000     -14.415382      -392.2625
   7   2.0000     -14.411814      -392.1654
   8   2.0000     -14.408894      -392.0859
   9   2.0000     -14.405769      -392.0009
  10   2.0000     -14.405615      -391.9967
  11   2.0000     -14.399411      -391.8279
  12   2.0000     -14.398021      -391.7901
  13   2.0000     -14.386025      -391.4636
  14   2.0000     -10.395954      -282.8883
  15   2.0000     -10.389582      -282.7149
  16   2.0000     -10.385337      -282.5994
  17   2.0000     -10.383506      -282.5496
  18   2.0000     -10.382219      -282.5145
  19   2.0000     -10.380278      -282.4617
  20   2.0000     -10.367399      -282.1113
  21   2.0000     -10.351565      -281.6804
  22   2.0000     -10.349041      -281.6117
  23   2.0000     -10.346662      -281.5470
  24   2.0000     -10.341197      -281.3983
  25   2.0000     -10.340434      -281.3775
  26   2.0000     -10.340073      -281.3677
  27   2.0000     -10.339709      -281.3578
  28   2.0000     -10.334364      -281.2123
  29   2.0000     -10.330690      -281.1124
  30   2.0000     -10.330435      -281.1054
  31   2.0000     -10.323549      -280.9180
  32   2.0000     -10.322648      -280.8935
  33   2.0000     -10.322562      -280.8912
  34   2.0000     -10.322007      -280.8761
  35   2.0000     -10.319441      -280.8063
  36   2.0000     -10.319163      -280.7987
  37   2.0000     -10.316234      -280.7190
  38   2.0000     -10.315513      -280.6994
  39   2.0000     -10.311325      -280.5854
  40   2.0000     -10.309788      -280.5436
  41   2.0000     -10.308656      -280.5128
  42   2.0000     -10.308457      -280.5074
  43   2.0000     -10.307987      -280.4946
  44   2.0000     -10.305330      -280.4223
  45   2.0000     -10.303894      -280.3832
  46   2.0000     -10.303739      -280.3790
  47   2.0000     -10.302869      -280.3553
  48   2.0000     -10.302222      -280.3377
  49   2.0000     -10.301901      -280.3290
  50   2.0000     -10.301169      -280.3091
  51   2.0000     -10.298823      -280.2452
  52   2.0000     -10.296091      -280.1709
  53   2.0000     -10.295516      -280.1552
  54   2.0000     -10.295008      -280.1414
  55   2.0000     -10.294784      -280.1353
  56   2.0000     -10.293055      -280.0883
  57   2.0000     -10.291527      -280.0467
  58   2.0000     -10.290124      -280.0085
  59   2.0000     -10.289650      -279.9956
  60   2.0000     -10.289112      -279.9810
  61   2.0000     -10.288794      -279.9723
  62   2.0000     -10.288477      -279.9637
  63   2.0000     -10.286838      -279.9191
  64   2.0000     -10.284164      -279.8463
  65   2.0000     -10.282176      -279.7922
  66   2.0000     -10.281688      -279.7789
  67   2.0000     -10.280521      -279.7472
  68   2.0000     -10.280318      -279.7417
  69   2.0000     -10.279146      -279.7098
  70   2.0000      -1.249510       -34.0009
  71   2.0000      -1.236321       -33.6420
  72   2.0000      -1.138649       -30.9842
  73   2.0000      -1.136763       -30.9329
  74   2.0000      -1.097228       -29.8571
  75   2.0000      -1.085978       -29.5510
  76   2.0000      -1.075720       -29.2718
  77   2.0000      -1.065961       -29.0063
  78   2.0000      -1.008321       -27.4378
  79   2.0000      -1.003100       -27.2957
  80   2.0000      -0.999377       -27.1944
  81   2.0000      -0.985630       -26.8203
  82   2.0000      -0.984822       -26.7984
  83   2.0000      -0.977626       -26.6025
  84   2.0000      -0.971544       -26.4371
  85   2.0000      -0.969096       -26.3704
  86   2.0000      -0.965893       -26.2833
  87   2.0000      -0.960946       -26.1487
  88   2.0000      -0.957423       -26.0528
  89   2.0000      -0.950370       -25.8609
  90   2.0000      -0.946439       -25.7539
  91   2.0000      -0.938424       -25.5358
  92   2.0000      -0.930688       -25.3253
  93   2.0000      -0.914131       -24.8748
  94   2.0000      -0.909832       -24.7578
  95   2.0000      -0.895218       -24.3601
  96   2.0000      -0.888594       -24.1799
  97   2.0000      -0.882796       -24.0221
  98   2.0000      -0.878447       -23.9038
  99   2.0000      -0.872485       -23.7415
 100   2.0000      -0.865200       -23.5433
 101   2.0000      -0.855543       -23.2805
 102   2.0000      -0.852927       -23.2093
 103   2.0000      -0.846147       -23.0248
 104   2.0000      -0.842427       -22.9236
 105   2.0000      -0.819501       -22.2998
 106   2.0000      -0.816450       -22.2167
 107   2.0000      -0.795792       -21.6546
 108   2.0000      -0.788779       -21.4638
 109   2.0000      -0.783243       -21.3131
 110   2.0000      -0.777716       -21.1627
 111   2.0000      -0.776304       -21.1243
 112   2.0000      -0.763688       -20.7810
 113   2.0000      -0.755965       -20.5709
 114   2.0000      -0.754685       -20.5360
 115   2.0000      -0.747089       -20.3293
 116   2.0000      -0.733033       -19.9468
 117   2.0000      -0.721388       -19.6300
 118   2.0000      -0.717598       -19.5268
 119   2.0000      -0.714057       -19.4305
 120   2.0000      -0.710977       -19.3467
 121   2.0000      -0.693402       -18.8684
 122   2.0000      -0.690771       -18.7968
 123   2.0000      -0.683359       -18.5951
 124   2.0000      -0.679703       -18.4957
 125   2.0000      -0.677746       -18.4424
 126   2.0000      -0.667493       -18.1634
 127   2.0000      -0.665124       -18.0990
 128   2.0000      -0.657298       -17.8860
 129   2.0000      -0.652994       -17.7689
 130   2.0000      -0.646195       -17.5839
 131   2.0000      -0.643359       -17.5067
 132   2.0000      -0.632787       -17.2190
 133   2.0000      -0.628256       -17.0957
 134   2.0000      -0.619586       -16.8598
 135   2.0000      -0.618449       -16.8289
 136   2.0000      -0.611830       -16.6487
 137   2.0000      -0.610409       -16.6101
 138   2.0000      -0.605197       -16.4682
 139   2.0000      -0.602490       -16.3946
 140   2.0000      -0.600471       -16.3397
 141   2.0000      -0.599570       -16.3151
 142   2.0000      -0.597700       -16.2642
 143   2.0000      -0.594269       -16.1709
 144   2.0000      -0.590163       -16.0591
 145   2.0000      -0.587055       -15.9746
 146   2.0000      -0.582550       -15.8520
 147   2.0000      -0.581373       -15.8200
 148   2.0000      -0.575940       -15.6721
 149   2.0000      -0.573999       -15.6193
 150   2.0000      -0.571694       -15.5566
 151   2.0000      -0.566118       -15.4048
 152   2.0000      -0.562697       -15.3118
 153   2.0000      -0.558773       -15.2050
 154   2.0000      -0.558167       -15.1885
 155   2.0000      -0.556575       -15.1452
 156   2.0000      -0.554503       -15.0888
 157   2.0000      -0.551051       -14.9949
 158   2.0000      -0.548057       -14.9134
 159   2.0000      -0.544367       -14.8130
 160   2.0000      -0.541957       -14.7474
 161   2.0000      -0.539173       -14.6716
 162   2.0000      -0.537841       -14.6354
 163   2.0000      -0.533630       -14.5208
 164   2.0000      -0.528361       -14.3774
 165   2.0000      -0.522665       -14.2224
 166   2.0000      -0.520019       -14.1504
 167   2.0000      -0.514321       -13.9954
 168   2.0000      -0.512609       -13.9488
 169   2.0000      -0.509032       -13.8515
 170   2.0000      -0.505771       -13.7627
 171   2.0000      -0.503881       -13.7113
 172   2.0000      -0.501622       -13.6498
 173   2.0000      -0.499323       -13.5873
 174   2.0000      -0.496444       -13.5089
 175   2.0000      -0.495895       -13.4940
 176   2.0000      -0.495265       -13.4768
 177   2.0000      -0.490202       -13.3391
 178   2.0000      -0.489200       -13.3118
 179   2.0000      -0.486760       -13.2454
 180   2.0000      -0.486291       -13.2327
 181   2.0000      -0.482887       -13.1400
 182   2.0000      -0.482512       -13.1298
 183   2.0000      -0.481243       -13.0953
 184   2.0000      -0.479089       -13.0367
 185   2.0000      -0.475356       -12.9351
 186   2.0000      -0.472666       -12.8619
 187   2.0000      -0.467053       -12.7092
 188   2.0000      -0.464778       -12.6472
 189   2.0000      -0.463692       -12.6177
 190   2.0000      -0.450860       -12.2685
 191   2.0000      -0.449425       -12.2295
 192   2.0000      -0.447444       -12.1756
 193   2.0000      -0.444411       -12.0930
 194   2.0000      -0.441044       -12.0014
 195   2.0000      -0.438102       -11.9214
 196   2.0000      -0.435733       -11.8569
 197   2.0000      -0.435509       -11.8508
 198   2.0000      -0.433357       -11.7922
 199   2.0000      -0.429126       -11.6771
 200   2.0000      -0.428772       -11.6675
 201   2.0000      -0.427030       -11.6201
 202   2.0000      -0.423621       -11.5273
 203   2.0000      -0.420518       -11.4429
 204   2.0000      -0.417138       -11.3509
 205   2.0000      -0.415816       -11.3149
 206   2.0000      -0.412606       -11.2276
 207   2.0000      -0.411105       -11.1867
 208   2.0000      -0.410759       -11.1773
 209   2.0000      -0.407422       -11.0865
 210   2.0000      -0.406069       -11.0497
 211   2.0000      -0.402652       -10.9567
 212   2.0000      -0.399816       -10.8795
 213   2.0000      -0.397121       -10.8062
 214   2.0000      -0.384062       -10.4509
 215   2.0000      -0.380378       -10.3506
 216   2.0000      -0.378480       -10.2990
 217   2.0000      -0.368372       -10.0239
 218   2.0000      -0.366827        -9.9819
 219   2.0000      -0.360639        -9.8135
 220   2.0000      -0.353907        -9.6303
 221   2.0000      -0.348537        -9.4842
 222   2.0000      -0.343385        -9.3440
 223   2.0000      -0.341889        -9.3033
 224   2.0000      -0.341367        -9.2891
 225   2.0000      -0.340190        -9.2570
 226   2.0000      -0.338906        -9.2221
 227   2.0000      -0.327935        -8.9236
 228   2.0000      -0.317451        -8.6383
 229   2.0000      -0.311617        -8.4795
 230   2.0000      -0.307313        -8.3624
 231   2.0000      -0.293458        -7.9854
 232   2.0000      -0.285155        -7.7595
 233   2.0000      -0.278885        -7.5888
 234   2.0000      -0.236990        -6.4488
 235   0.0000      -0.136543        -3.7155
 236   0.0000      -0.123620        -3.3639
 237   0.0000      -0.091182        -2.4812
 238   0.0000      -0.078056        -2.1240
 239   0.0000      -0.063210        -1.7200

MULLIKEN ATOMIC CHARGES
-----------------------
   0 C :    0.199042
   1 C :   -0.060869
   2 C :    0.251097
   3 C :   -0.319749
   4 C :   -0.167463
   5 N :    0.150110
   6 C :   -0.182398
   7 N :    0.137111
   8 C :   -0.106449
   9 C :    0.152018
  10 O :   -0.212546
  11 C :    0.038689
  12 N :   -0.025946
  13 C :    0.072133
  14 C :   -0.178051
  15 C :    0.222906
  16 O :   -0.151683
  17 C :   -0.002374
  18 C :   -0.020132
  19 N :   -0.045223
  20 C :    0.097546
  21 C :   -0.095612
  22 C :    0.047982
  23 C :   -0.032016
  24 C :    0.007181
  25 C :    0.122595
  26 C :   -0.122000
  27 C :    0.054896
  28 C :   -0.020902
  29 C :   -0.060657
  30 C :    0.159822
  31 N :   -0.221382
  32 C :    0.146404
  33 N :   -0.227729
  34 C :    0.110727
  35 C :   -0.130774
  36 C :    0.142829
  37 C :   -0.032275
  38 C :    0.020943
  39 C :    0.017826
  40 C :    0.037231
  41 C :    0.000074
  42 C :   -0.008628
  43 C :   -0.029583
  44 C :   -0.030628
  45 C :    0.045461
  46 N :   -0.042975
  47 C :    0.074524
  48 C :   -0.159512
  49 C :    0.222559
  50 O :   -0.140163
  51 C :   -0.012436
  52 C :   -0.038568
  53 N :   -0.055091
  54 C :    0.092319
  55 C :   -0.092590
  56 C :    0.044749
  57 C :   -0.017662
  58 C :   -0.022040
  59 C :    0.216868
  60 C :   -0.126832
  61 C :    0.250337
  62 C :   -0.325907
  63 C :   -0.183248
  64 N :    0.128821
  65 C :   -0.177130
  66 N :    0.138668
  67 C :   -0.066621
  68 C :    0.184847
  69 O :   -0.224424
  70 H :    0.039777
  71 H :    0.041978
  72 H :    0.057945
  73 H :    0.018757
  74 H :   -0.000042
  75 H :   -0.025129
  76 H :   -0.008240
  77 H :   -0.013419
  78 H :   -0.024067
  79 H :   -0.006271
  80 H :   -0.010138
  81 H :    0.094094
  82 H :    0.102026
  83 H :   -0.012446
  84 H :   -0.005681
  85 H :    0.098630
  86 H :    0.093896
  87 H :    0.002552
  88 H :    0.035049
  89 H :   -0.000125
  90 H :   -0.030069
  91 H :   -0.036516
  92 H :   -0.037389
  93 H :    0.041660
  94 H :    0.020105
  95 H :    0.012061
  96 H :   -0.002328
  97 H :   -0.004980
  98 H :    0.020887
  99 H :    0.042819
 100 H :    0.036868
 101 H :    0.039690
Sum of atomic charges:   -0.0000000

LOEWDIN ATOMIC CHARGES
----------------------
   0 C :    0.102259
   1 C :   -0.046382
   2 C :    0.046335
   3 C :   -0.156309
   4 C :   -0.031454
   5 N :   -0.048908
   6 C :   -0.028716
   7 N :   -0.056894
   8 C :    0.014558
   9 C :    0.060997
  10 O :    0.006701
  11 C :    0.055013
  12 N :   -0.077628
  13 C :    0.042719
  14 C :   -0.063268
  15 C :    0.072298
  16 O :   -0.147052
  17 C :   -0.037479
  18 C :    0.037187
  19 N :   -0.090881
  20 C :    0.086137
  21 C :   -0.026301
  22 C :   -0.012805
  23 C :   -0.060096
  24 C :    0.029846
  25 C :   -0.031450
  26 C :    0.000436
  27 C :   -0.025591
  28 C :   -0.015528
  29 C :   -0.041033
  30 C :    0.030112
  31 N :   -0.115547
  32 C :    0.028259
  33 N :   -0.120645
  34 C :   -0.014663
  35 C :    0.076116
  36 C :   -0.031417
  37 C :   -0.022980
  38 C :   -0.013451
  39 C :   -0.036893
  40 C :   -0.024898
  41 C :   -0.005349
  42 C :   -0.024844
  43 C :    0.088970
  44 C :   -0.065089
  45 C :    0.077352
  46 N :   -0.110046
  47 C :    0.046305
  48 C :   -0.032085
  49 C :    0.069023
  50 O :   -0.139642
  51 C :   -0.040932
  52 C :    0.021627
  53 N :   -0.096180
  54 C :    0.075721
  55 C :   -0.033538
  56 C :   -0.034134
  57 C :   -0.004727
  58 C :   -0.013624
  59 C :    0.084111
  60 C :   -0.036537
  61 C :    0.052738
  62 C :   -0.170605
  63 C :   -0.029724
  64 N :   -0.067138
  65 C :   -0.030631
  66 N :   -0.061568
  67 C :   -0.051466
  68 C :    0.096478
  69 O :   -0.000340
  70 H :    0.040845
  71 H :    0.054695
  72 H :    0.059512
  73 H :    0.027475
  74 H :    0.036483
  75 H :    0.019007
  76 H :    0.030817
  77 H :    0.027157
  78 H :    0.023559
  79 H :    0.002789
  80 H :    0.016323
  81 H :    0.053693
  82 H :    0.049090
  83 H :    0.001258
  84 H :    0.017544
  85 H :    0.052741
  86 H :    0.055910
  87 H :    0.032787
  88 H :    0.056164
  89 H :    0.028913
  90 H :    0.032284
  91 H :    0.028112
  92 H :    0.023512
  93 H :    0.040962
  94 H :    0.033424
  95 H :    0.024715
  96 H :    0.035851
  97 H :    0.031416
  98 H :    0.041280
  99 H :    0.055509
 100 H :    0.052789
 101 H :    0.038553

  Mayer bond orders larger than 0.100000
B(  0-C ,  1-C ) :   1.6894 B(  0-C , 10-O ) :   1.0951 B(  0-C , 70-H ) :   0.9725
B(  1-C ,  2-C ) :   1.1233 B(  1-C , 71-H ) :   0.9615 B(  2-C ,  3-C ) :   1.5797
B(  2-C ,  8-C ) :   1.0634 B(  3-C ,  4-C ) :   1.1319 B(  3-C ,  6-C ) :   1.1295
B(  4-C ,  5-N ) :   3.0153 B(  6-C ,  7-N ) :   3.0127 B(  8-C ,  9-C ) :   1.5999
B(  8-C , 72-H ) :   0.9703 B(  9-C , 10-O ) :   1.1358 B(  9-C , 11-C ) :   0.9991
B( 11-C , 12-N ) :   1.6695 B( 11-C , 13-C ) :   0.1118 B( 11-C , 22-C ) :   1.0110
B( 12-N , 13-C ) :   1.3228 B( 13-C , 14-C ) :   1.0729 B( 13-C , 18-C ) :   1.4266
B( 14-C , 15-C ) :   0.9065 B( 14-C , 22-C ) :   1.5123 B( 15-C , 16-O ) :   2.1612
B( 15-C , 17-C ) :   0.9326 B( 16-O , 76-H ) :   0.1146 B( 17-C , 18-C ) :   1.0610
B( 17-C , 21-C ) :   1.6160 B( 18-C , 19-N ) :   1.3090 B( 19-N , 20-C ) :   1.6617
B( 20-C , 21-C ) :   1.0501 B( 20-C , 73-H ) :   0.9894 B( 21-C , 74-H ) :   1.0127
B( 22-C , 23-C ) :   1.1387 B( 23-C , 24-C ) :   1.6027 B( 23-C , 75-H ) :   0.9611
B( 24-C , 25-C ) :   1.0858 B( 24-C , 76-H ) :   0.9690 B( 25-C , 26-C ) :   1.4842
B( 25-C , 42-C ) :   1.1223 B( 26-C , 27-C ) :   1.1019 B( 26-C , 77-H ) :   1.0046
B( 27-C , 28-C ) :   1.4509 B( 27-C , 40-C ) :   1.1286 B( 28-C , 29-C ) :   1.0283
B( 28-C , 34-C ) :   1.1178 B( 29-C , 30-C ) :   1.0428 B( 29-C , 32-C ) :   1.0329
B( 29-C , 78-H ) :   0.8843 B( 30-C , 31-N ) :   1.0769 B( 30-C , 79-H ) :   0.9381
B( 30-C , 80-H ) :   0.9325 B( 31-N , 81-H ) :   0.9615 B( 31-N , 82-H ) :   0.9434
B( 32-C , 33-N ) :   1.0964 B( 32-C , 83-H ) :   0.9400 B( 32-C , 84-H ) :   0.9313
B( 33-N , 85-H ) :   0.9707 B( 33-N , 86-H ) :   0.9669 B( 34-C , 35-C ) :   1.6431
B( 34-C , 39-C ) :   1.0545 B( 35-C , 36-C ) :   0.9878 B( 35-C , 87-H ) :   0.9802
B( 36-C , 37-C ) :   0.9771 B( 36-C , 43-C ) :   0.9442 B( 36-C , 88-H ) :   0.8794
B( 37-C , 38-C ) :   1.7178 B( 37-C , 89-H ) :   0.9638 B( 38-C , 39-C ) :   1.1400
B( 38-C , 90-H ) :   0.9874 B( 39-C , 40-C ) :   1.4275 B( 40-C , 41-C ) :   1.1421
B( 41-C , 42-C ) :   1.6147 B( 41-C , 91-H ) :   0.9900 B( 42-C , 92-H ) :   0.9837
B( 43-C , 44-C ) :   1.7521 B( 43-C , 93-H ) :   0.9664 B( 44-C , 45-C ) :   1.1321
B( 44-C , 94-H ) :   0.9414 B( 45-C , 46-N ) :   1.5906 B( 45-C , 47-C ) :   0.1109
B( 45-C , 56-C ) :   1.0053 B( 46-N , 47-C ) :   1.3673 B( 47-C , 48-C ) :   1.0537
B( 47-C , 52-C ) :   1.3993 B( 48-C , 49-C ) :   0.8923 B( 48-C , 56-C ) :   1.5571
B( 49-C , 50-O ) :   2.1733 B( 49-C , 51-C ) :   0.9361 B( 50-O , 98-H ) :   0.1146
B( 51-C , 52-C ) :   1.0725 B( 51-C , 55-C ) :   1.5929 B( 52-C , 53-N ) :   1.3244
B( 53-N , 54-C ) :   1.6418 B( 54-C , 55-C ) :   1.0792 B( 54-C , 95-H ) :   0.9896
B( 55-C , 96-H ) :   1.0112 B( 56-C , 57-C ) :   1.1055 B( 57-C , 58-C ) :   1.6470
B( 57-C , 97-H ) :   0.9635 B( 58-C , 59-C ) :   1.1037 B( 58-C , 98-H ) :   0.9511
B( 59-C , 60-C ) :   1.5400 B( 59-C , 69-O ) :   1.1035 B( 60-C , 61-C ) :   1.1058
B( 60-C , 99-H ) :   0.9791 B( 61-C , 62-C ) :   1.5763 B( 61-C , 67-C ) :   1.1197
B( 62-C , 63-C ) :   1.1296 B( 62-C , 65-C ) :   1.1334 B( 63-C , 64-N ) :   3.0136
B( 65-C , 66-N ) :   3.0144 B( 67-C , 68-C ) :   1.6941 B( 67-C ,100-H ) :   0.9626
B( 68-C , 69-O ) :   1.1007 B( 68-C ,101-H ) :   0.9716

-----------------------------------------------------------------------------
         ABSORPTION SPECTRUM VIA TRANSITION ELECTRIC DIPOLE MOMENTS
-----------------------------------------------------------------------------
State   Energy  Wavelength   fosc         T2         TX        TY        TZ
        (cm-1)    (nm)                  (au**2)     (au)      (au)      (au)
-----------------------------------------------------------------------------
   0    9198.3   1087.2   0.102566237   3.67089   0.00790  -1.38195   1.32705
   1   11365.7    879.8   0.132791064   3.84636   0.53786  -1.86085   0.30709
   2   13767.0    726.4   0.057253575   1.36911   0.99951   0.56700  -0.22046
   3   16421.3    609.0   0.006818692   0.13670   0.19824   0.20037  -0.23928
   4   18442.8    542.2   0.333210577   5.94795   2.32320  -0.26827   0.69191
   5   18662.8    535.8   0.131520646   2.32002  -0.38049  -0.59849   1.34798
   6   20625.9    484.8   0.000410965   0.00656   0.00495  -0.06494  -0.04814
   7   20895.5    478.6   0.107432679   1.69262   0.09982  -1.21739   0.44790
   8   22011.7    454.3   0.000687390   0.01028  -0.07640   0.05295  -0.04050
   9   22215.4    450.1   0.000392579   0.00582   0.02593  -0.00766  -0.07132
  10   22491.3    444.6   0.373501265   5.46706   0.20633   1.51025  -1.77303
  11   23451.1    426.4   0.168736838   2.36877  -0.02246   1.03175  -1.14182
  12   24003.8    416.6   0.037593692   0.51560  -0.00875  -0.52471   0.49010
  13   24413.9    409.6   0.072563284   0.97849  -0.41471   0.89713  -0.04081
  14   24678.7    405.2   0.001626813   0.02170  -0.01347   0.13903  -0.04679
  15   24798.1    403.3   0.587495993   7.79941  -0.67141   2.46713  -1.12334
  16   25313.6    395.0   0.168667452   2.19358   0.17759  -0.29330   1.44084
  17   25721.6    388.8   0.015686526   0.20077   0.01957   0.42666  -0.13548
  18   25759.2    388.2   0.182677159   2.33468  -0.09003   1.39235  -0.62284
  19   26045.2    383.9   0.050727426   0.64120   0.10874   0.67069   0.42373
  20   27089.9    369.1   0.006357134   0.07726   0.21821  -0.05902  -0.16173
  21   27213.8    367.5   0.060432007   0.73106   0.51243  -0.42497   0.53654
  22   27583.7    362.5   0.002485807   0.02967  -0.16172  -0.01929   0.05606
  23   27913.7    358.2   0.194590963   2.29499  -1.12358  -0.51324  -0.87701
  24   28036.6    356.7   1.085785441  12.74953   1.33659   0.91579  -3.18188
  25   28596.6    349.7   0.016499664   0.18995  -0.29841   0.13193  -0.28896
  26   28774.4    347.5   0.002471703   0.02828  -0.00171  -0.05695  -0.15822
  27   28922.8    345.7   0.016942625   0.19285  -0.43387   0.01542   0.06607
  28   29302.5    341.3   0.006632260   0.07451  -0.23315  -0.12220   0.07227
  29   29536.2    338.6   0.081900217   0.91286   0.88328   0.31616  -0.18089
  30   29825.5    335.3   0.002238769   0.02471   0.15621   0.01509   0.00900
  31   29847.1    335.0   0.008782384   0.09687  -0.08070  -0.16972   0.24810
  32   30186.0    331.3   0.014099906   0.15377  -0.35344  -0.14133   0.09421
  33   30229.6    330.8   0.056850016   0.61912  -0.77781  -0.00272  -0.11883
  34   30827.4    324.4   0.040664840   0.43427  -0.41509  -0.35628   0.36747
  35   30860.4    324.0   0.000603937   0.00644  -0.02733  -0.06654   0.03562
  36   31082.0    321.7   0.000006219   0.00007   0.00811   0.00012  -0.00013
  37   31296.4    319.5   0.309441330   3.25506   0.83791  -1.01827   1.23130
  38   31781.1    314.7   0.065251870   0.67593  -0.55285  -0.54763   0.26530
  39   31912.0    313.4   0.138447174   1.42825   1.01778   0.46974  -0.41438
  40   32601.7    306.7   0.148993680   1.50454  -1.18525  -0.05879   0.31026
  41   32850.0    304.4   0.270423766   2.71010  -0.83873   0.73885  -1.20860
  42   32899.9    304.0   0.035022222   0.35045  -0.07531   0.33509  -0.48217
  43   33140.7    301.7   0.073545826   0.73059   0.78473   0.01309  -0.33854
  44   33459.7    298.9   0.126682359   1.24644   0.19511   0.64555  -0.88974
  45   33679.6    296.9   0.062800762   0.61387  -0.20783  -0.64901   0.38660
  46   33890.8    295.1   0.009950844   0.09666  -0.29556  -0.00467  -0.09634
  47   34313.6    291.4   0.051430167   0.49343  -0.00000  -0.18256  -0.67831
  48   34511.5    289.8   0.021674729   0.20676  -0.09385   0.44195  -0.05133
  49   35042.0    285.4   0.455675828   4.28097  -0.57367   1.86617   0.68504
  50   35406.6    282.4   0.021493682   0.19985  -0.03837   0.42080   0.14595
  51   35801.8    279.3   0.036666764   0.33717   0.04404   0.31001  -0.48900
  52   36140.5    276.7   0.417482936   3.80294  -1.23540   0.76425  -1.30102
  53   36387.6    274.8   0.011342245   0.10262   0.16015  -0.18585   0.20599
  54   36789.4    271.8   0.000640572   0.00573   0.02329   0.07151  -0.00875
  55   37253.0    268.4   0.003124410   0.02761  -0.13523  -0.05249   0.08104
  56   37325.8    267.9   0.006981314   0.06157  -0.02272  -0.24547   0.02835
  57   37421.1    267.2   0.033217629   0.29223  -0.44240   0.10885   0.29098
  58   37476.1    266.8   0.093915969   0.82501  -0.56100  -0.53602   0.47220
  59   37787.4    264.6   0.017669677   0.15394   0.22794   0.31933  -0.00386
  60   38091.5    262.5   0.261700861   2.26179  -0.29516   1.44435   0.29751
  61   38156.6    262.1   0.007457917   0.06435   0.03076  -0.25084   0.02186
  62   38226.1    261.6   0.027012653   0.23264   0.21678   0.27915   0.32821
  63   39029.8    256.2   0.047928695   0.40427  -0.32735   0.53308   0.11378
  64   39269.4    254.7   0.019399328   0.16263   0.08067  -0.38152  -0.10278
  65   39396.6    253.8   0.047987840   0.40100  -0.16309   0.58262   0.18698
  66   39544.6    252.9   0.000940415   0.00783   0.04969   0.05886  -0.04354
  67   39751.2    251.6   0.113928749   0.94354  -0.78272  -0.43982   0.37074
  68   39849.1    250.9   0.000357673   0.00295  -0.02366  -0.04008   0.02809
  69   39865.9    250.8   0.001769367   0.01461  -0.11690  -0.03014   0.00612
  70   39992.0    250.0   0.002118016   0.01744   0.00488   0.01516   0.13108
  71   40094.0    249.4   0.150270372   1.23387   0.47914  -0.74872   0.66612
  72   40259.8    248.4   0.044785590   0.36622   0.12339   0.52498  -0.27457

FINAL SINGLE POINT ENERGY     -2997.505670160596

DIPOLE MOMENT
-------------
                                X             Y             Z
Electronic contribution:    -21.68251      -2.08486     -40.86441
Nuclear contribution   :     23.13596       2.75244      46.56030
                        -----------------------------------------
Total Dipole Moment    :      1.45345       0.66758       5.69589
                        -----------------------------------------
Magnitude (a.u.)       :      5.91620
Magnitude (Debye)      :     15.03778

Rotational constants in cm-1:     0.001280     0.000415     0.000388
Rotational constants in MHz :    38.387056    12.432987    11.620185

                             ****ORCA TERMINATED NORMALLY****
TOTAL RUN TIME: 0 days 0 hours 10 minutes 1 seconds 418 msec
