                         Program Version 4.2.0 -  RELEASE  -
|  1> # ORCA input file
|  2> # SCF done       -198.741607118701          0.000432341921
|  3> ! CAM-B3LYP def2-SVP def2/J RIJCOSX Grid4 TightSCF
|  4> %maxcore 5000
|  5> %tddft
|  6>     Mode sTDDFT
|  7>     Ethresh 5.0
|  8>     maxcore 5000
|  9> end
| 10>
| 11> %pal
| 12>   nprocs 6
| 13>   end
| 14> * xyz 0 1
| 15>    C       -3.74066         7.96020        -1.90935
| 16>    C       -3.42387         6.88320        -2.69689
| 17>    C       -4.23972         6.39965        -3.74200
| 18>    N       -4.84783         5.95295        -4.60727
| 19>    C       -2.24777         6.11076        -2.61137
| 20>    N       -1.31260         5.44229        -2.61846
| 21>    C       -4.94506         8.77010        -2.04295
| 22>    C       -4.89865         9.81677        -1.07958
| 23>    C       -5.88852        10.75116        -0.97667
| 24>    C       -7.00025        10.67467        -1.84451
| 25>    C       -7.05928         9.62637        -2.80783
| 26>    C       -6.01473         8.67817        -2.89513
| 27>    C       -8.17469         9.55687        -3.66750
| 28>    C       -9.18319        10.47753        -3.58135
| 29>    C       -9.12321        11.50986        -2.63310
| 30>    C       -8.05522        11.60608        -1.78281
| 31>    C       -3.67483         9.69193        -0.27069
| 32>    O       -3.32172        10.44054         0.61570
| 33>    C       -2.95750         8.50401        -0.80814
| 34>    C       -1.71297         8.08175        -0.45498
| 35>    C       -0.91859         8.50294         0.66047
| 36>    C       -1.47622         8.81802         1.87195
| 37>    S       -0.36434         9.14654         3.12463
| 38>    C        0.95803         8.90601         2.01554
| 39>    C        0.53096         8.55563         0.70949
| 40>    C        1.52007         8.37811        -0.27229
| 41>    C        1.19479         7.97778        -1.68256
| 42>    C        0.51599         9.10668        -2.46050
| 43>    C        2.85456         8.57170         0.12179
| 44>    C        3.11614         8.83979         1.49254
| 45>    N        2.20097         9.01819         2.41863
| 46>    S        4.80694         8.89368         1.86897
| 47>    C        5.17508         8.60987         0.20667
| 48>    C        4.09648         8.47546        -0.60812
| 49>    C        4.29732         8.29644        -2.04189
| 50>    N        3.83555         9.21639        -2.95906
| 51>    C        4.22792         8.81299        -4.19999
| 52>    C        4.15786         9.11763        -5.56150
| 53>    C        4.85149         8.10389        -6.21778
| 54>    N        5.33662         7.20500        -5.28960
| 55>    C        4.95699         7.61781        -4.05209
| 56>    C        5.01034         7.30212        -2.68515
| 57>    C        5.03842         7.96903        -7.62663
| 58>    C        5.80299         7.05030        -8.24244
| 59>    C        5.86913         6.93107        -9.68934
| 60>    C        4.73927         7.01775       -10.44303
| 61>    S        4.96927         6.81626       -12.14258
| 62>    C        6.67138         6.63128       -11.88180
| 63>    C        7.03705         6.71996       -10.51148
| 64>    C        8.40116         6.66669       -10.19142
| 65>    C        8.85544         6.62808        -8.76475
| 66>    C        8.78209         5.18649        -8.25061
| 67>    C        9.30185         6.55593       -11.25949
| 68>    C        8.77017         6.37334       -12.55987
| 69>    N        7.49986         6.41822       -12.88092
| 70>    S       10.00059         6.08789       -13.75834
| 71>    C       11.20958         6.23891       -12.55128
| 72>    C       10.74485         6.51199       -11.29487
| 73>    C       11.65890         6.87991       -10.24574
| 74>    C       12.87948         6.35365        -9.99565
| 75>    C       13.54078         5.16089       -10.49437
| 76>    C       12.93296         3.99799       -10.88312
| 77>    C       13.63261         2.84481       -11.29320
| 78>    N       14.15736         1.88807       -11.64897
| 79>    C       11.53967         3.79650       -10.82487
| 80>    N       10.41826         3.56895       -10.73106
| 81>    C       14.97217         5.35011       -10.29492
| 82>    C       15.17110         6.50380        -9.48001
| 83>    C       13.86753         7.12389        -9.18630
| 84>    O       13.63122         8.08044        -8.48418
| 85>    C       16.41947         6.90847        -9.10372
| 86>    C       17.54417         6.17499        -9.54390
| 87>    C       17.35271         5.03111       -10.37222
| 88>    C       16.04814         4.62820       -10.73788
| 89>    C       18.48413         4.31554       -10.81416
| 90>    C       19.74470         4.70775       -10.45482
| 91>    C       19.93221         5.83260        -9.63758
| 92>    C       18.85562         6.54983        -9.19119
| 93>    H       -5.82446        11.53682        -0.23842
| 94>    H       -6.08941         7.90069        -3.63843
| 95>    H       -8.21630         8.76045        -4.39600
| 96>    H      -10.03340        10.41559        -4.24390
| 97>    H       -9.92746        12.22831        -2.57979
| 98>    H       -8.00346        12.39841        -1.05039
| 99>    H       -1.26426         7.31751        -1.07007
|100>    H       -2.52238         8.81644         2.10471
|101>    H        0.55582         7.09348        -1.67711
|102>    H        2.11059         7.68784        -2.19274
|103>    H       -0.42907         9.39067        -2.00294
|104>    H        0.32592         8.78745        -3.48212
|105>    H        1.14754         9.99173        -2.48655
|106>    H        6.20268         8.57197        -0.09882
|107>    H        3.34157        10.05897        -2.72461
|108>    H        3.67934         9.95290        -6.03250
|109>    H        5.84517         6.36766        -5.51063
|110>    H        5.47031         6.45801        -2.21219
|111>    H        4.51881         8.70569        -8.22404
|112>    H        6.35991         6.32872        -7.66488
|113>    H        3.74247         7.16129       -10.07366
|114>    H        8.22660         7.28468        -8.16133
|115>    H        9.88378         6.96805        -8.67458
|116>    H        9.09165         5.14329        -7.20857
|117>    H        9.43877         4.54870        -8.83832
|118>    H        7.77396         4.78804        -8.33891
|119>    H       12.24114         6.19575       -12.84725
|120>    H       11.41597         7.77365        -9.67935
|121>    H       16.54854         7.78077        -8.48031
|122>    H       15.93070         3.76338       -11.37233
|123>    H       18.33429         3.44853       -11.44065
|124>    H       20.60488         4.15296       -10.79829
|125>    H       20.93399         6.12826        -9.36406
|126>    H       18.99399         7.41693        -8.56202
|127> *
|128>
|129>                          ****END OF INPUT****

CARTESIAN COORDINATES (ANGSTROEM)
---------------------------------
  C     -3.740660    7.960200   -1.909350
  C     -3.423870    6.883200   -2.696890
  C     -4.239720    6.399650   -3.742000
  N     -4.847830    5.952950   -4.607270
  C     -2.247770    6.110760   -2.611370
  N     -1.312600    5.442290   -2.618460
  C     -4.945060    8.770100   -2.042950
  C     -4.898650    9.816770   -1.079580
  C     -5.888520   10.751160   -0.976670
  C     -7.000250   10.674670   -1.844510
  C     -7.059280    9.626370   -2.807830
  C     -6.014730    8.678170   -2.895130
  C     -8.174690    9.556870   -3.667500
  C     -9.183190   10.477530   -3.581350
  C     -9.123210   11.509860   -2.633100
  C     -8.055220   11.606080   -1.782810
  C     -3.674830    9.691930   -0.270690
  O     -3.321720   10.440540    0.615700
  C     -2.957500    8.504010   -0.808140
  C     -1.712970    8.081750   -0.454980
  C     -0.918590    8.502940    0.660470
  C     -1.476220    8.818020    1.871950
  S     -0.364340    9.146540    3.124630
  C      0.958030    8.906010    2.015540
  C      0.530960    8.555630    0.709490
  C      1.520070    8.378110   -0.272290
  C      1.194790    7.977780   -1.682560
  C      0.515990    9.106680   -2.460500
  C      2.854560    8.571700    0.121790
  C      3.116140    8.839790    1.492540
  N      2.200970    9.018190    2.418630
  S      4.806940    8.893680    1.868970
  C      5.175080    8.609870    0.206670
  C      4.096480    8.475460   -0.608120
  C      4.297320    8.296440   -2.041890
  N      3.835550    9.216390   -2.959060
  C      4.227920    8.812990   -4.199990
  C      4.157860    9.117630   -5.561500
  C      4.851490    8.103890   -6.217780
  N      5.336620    7.205000   -5.289600
  C      4.956990    7.617810   -4.052090
  C      5.010340    7.302120   -2.685150
  C      5.038420    7.969030   -7.626630
  C      5.802990    7.050300   -8.242440
  C      5.869130    6.931070   -9.689340
  C      4.739270    7.017750  -10.443030
  S      4.969270    6.816260  -12.142580
  C      6.671380    6.631280  -11.881800
  C      7.037050    6.719960  -10.511480
  C      8.401160    6.666690  -10.191420
  C      8.855440    6.628080   -8.764750
  C      8.782090    5.186490   -8.250610
  C      9.301850    6.555930  -11.259490
  C      8.770170    6.373340  -12.559870
  N      7.499860    6.418220  -12.880920
  S     10.000590    6.087890  -13.758340
  C     11.209580    6.238910  -12.551280
  C     10.744850    6.511990  -11.294870
  C     11.658900    6.879910  -10.245740
  C     12.879480    6.353650   -9.995650
  C     13.540780    5.160890  -10.494370
  C     12.932960    3.997990  -10.883120
  C     13.632610    2.844810  -11.293200
  N     14.157360    1.888070  -11.648970
  C     11.539670    3.796500  -10.824870
  N     10.418260    3.568950  -10.731060
  C     14.972170    5.350110  -10.294920
  C     15.171100    6.503800   -9.480010
  C     13.867530    7.123890   -9.186300
  O     13.631220    8.080440   -8.484180
  C     16.419470    6.908470   -9.103720
  C     17.544170    6.174990   -9.543900
  C     17.352710    5.031110  -10.372220
  C     16.048140    4.628200  -10.737880
  C     18.484130    4.315540  -10.814160
  C     19.744700    4.707750  -10.454820
  C     19.932210    5.832600   -9.637580
  C     18.855620    6.549830   -9.191190
  H     -5.824460   11.536820   -0.238420
  H     -6.089410    7.900690   -3.638430
  H     -8.216300    8.760450   -4.396000
  H    -10.033400   10.415590   -4.243900
  H     -9.927460   12.228310   -2.579790
  H     -8.003460   12.398410   -1.050390
  H     -1.264260    7.317510   -1.070070
  H     -2.522380    8.816440    2.104710
  H      0.555820    7.093480   -1.677110
  H      2.110590    7.687840   -2.192740
  H     -0.429070    9.390670   -2.002940
  H      0.325920    8.787450   -3.482120
  H      1.147540    9.991730   -2.486550
  H      6.202680    8.571970   -0.098820
  H      3.341570   10.058970   -2.724610
  H      3.679340    9.952900   -6.032500
  H      5.845170    6.367660   -5.510630
  H      5.470310    6.458010   -2.212190
  H      4.518810    8.705690   -8.224040
  H      6.359910    6.328720   -7.664880
  H      3.742470    7.161290  -10.073660
  H      8.226600    7.284680   -8.161330
  H      9.883780    6.968050   -8.674580
  H      9.091650    5.143290   -7.208570
  H      9.438770    4.548700   -8.838320
  H      7.773960    4.788040   -8.338910
  H     12.241140    6.195750  -12.847250
  H     11.415970    7.773650   -9.679350
  H     16.548540    7.780770   -8.480310
  H     15.930700    3.763380  -11.372330
  H     18.334290    3.448530  -11.440650
  H     20.604880    4.152960  -10.798290
  H     20.933990    6.128260   -9.364060
  H     18.993990    7.416930   -8.562020

 Total Charge           Charge          ....    0
 Multiplicity           Mult            ....    1
 Number of Electrons    NEL             ....  554
 Basis Dimension        Dim             .... 1278

ORBITAL ENERGIES
----------------

  NO   OCC          E(Eh)            E(eV)
   0   2.0000     -88.961052     -2420.7533
   1   2.0000     -88.955151     -2420.5927
   2   2.0000     -88.948752     -2420.4186
   3   2.0000     -88.941085     -2420.2100
   4   2.0000     -19.215984      -522.8935
   5   2.0000     -19.215739      -522.8868
   6   2.0000     -14.448564      -393.1654
   7   2.0000     -14.445470      -393.0812
   8   2.0000     -14.419856      -392.3842
   9   2.0000     -14.416677      -392.2977
  10   2.0000     -14.415660      -392.2700
  11   2.0000     -14.414660      -392.2428
  12   2.0000     -14.413868      -392.2213
  13   2.0000     -14.406856      -392.0305
  14   2.0000     -10.368392      -282.1383
  15   2.0000     -10.366774      -282.0943
  16   2.0000     -10.344030      -281.4754
  17   2.0000     -10.342992      -281.4471
  18   2.0000     -10.342360      -281.4299
  19   2.0000     -10.341773      -281.4140
  20   2.0000     -10.334235      -281.2088
  21   2.0000     -10.331031      -281.1217
  22   2.0000     -10.328887      -281.0633
  23   2.0000     -10.324836      -280.9531
  24   2.0000     -10.323044      -280.9043
  25   2.0000     -10.320398      -280.8323
  26   2.0000     -10.319773      -280.8153
  27   2.0000     -10.319164      -280.7987
  28   2.0000     -10.318417      -280.7784
  29   2.0000     -10.317914      -280.7647
  30   2.0000     -10.315718      -280.7050
  31   2.0000     -10.310822      -280.5717
  32   2.0000     -10.305776      -280.4344
  33   2.0000     -10.303642      -280.3763
  34   2.0000     -10.303595      -280.3751
  35   2.0000     -10.300085      -280.2796
  36   2.0000     -10.299796      -280.2717
  37   2.0000     -10.299334      -280.2591
  38   2.0000     -10.299109      -280.2530
  39   2.0000     -10.299030      -280.2508
  40   2.0000     -10.298914      -280.2477
  41   2.0000     -10.298872      -280.2466
  42   2.0000     -10.298732      -280.2427
  43   2.0000     -10.297954      -280.2216
  44   2.0000     -10.297950      -280.2215
  45   2.0000     -10.297933      -280.2210
  46   2.0000     -10.297837      -280.2184
  47   2.0000     -10.297663      -280.2137
  48   2.0000     -10.296351      -280.1780
  49   2.0000     -10.296344      -280.1778
  50   2.0000     -10.291761      -280.0531
  51   2.0000     -10.291379      -280.0427
  52   2.0000     -10.290493      -280.0185
  53   2.0000     -10.289114      -279.9810
  54   2.0000     -10.288543      -279.9655
  55   2.0000     -10.288312      -279.9592
  56   2.0000     -10.288035      -279.9517
  57   2.0000     -10.288020      -279.9513
  58   2.0000     -10.287800      -279.9453
  59   2.0000     -10.287787      -279.9449
  60   2.0000     -10.287433      -279.9353
  61   2.0000     -10.287322      -279.9323
  62   2.0000     -10.287117      -279.9267
  63   2.0000     -10.286973      -279.9228
  64   2.0000     -10.286634      -279.9135
  65   2.0000     -10.284994      -279.8689
  66   2.0000     -10.279641      -279.7233
  67   2.0000     -10.279216      -279.7117
  68   2.0000     -10.278242      -279.6852
  69   2.0000     -10.277201      -279.6568
  70   2.0000     -10.272320      -279.5240
  71   2.0000     -10.269907      -279.4584
  72   2.0000     -10.268767      -279.4274
  73   2.0000     -10.268148      -279.4105
  74   2.0000     -10.265204      -279.3304
  75   2.0000     -10.254265      -279.0327
  76   2.0000     -10.254184      -279.0305
  77   2.0000     -10.253021      -278.9989
  78   2.0000      -8.058318      -219.2780
  79   2.0000      -8.052150      -219.1101
  80   2.0000      -8.045999      -218.9428
  81   2.0000      -8.038282      -218.7328
  82   2.0000      -6.027486      -164.0162
  83   2.0000      -6.023374      -163.9043
  84   2.0000      -6.021455      -163.8521
  85   2.0000      -6.020212      -163.8183
  86   2.0000      -6.017324      -163.7397
  87   2.0000      -6.015322      -163.6852
  88   2.0000      -6.013865      -163.6456
  89   2.0000      -6.011277      -163.5752
  90   2.0000      -6.007625      -163.4758
  91   2.0000      -6.007548      -163.4737
  92   2.0000      -6.003576      -163.3656
  93   2.0000      -5.999825      -163.2635
  94   2.0000      -1.131559       -30.7913
  95   2.0000      -1.130578       -30.7646
  96   2.0000      -1.078852       -29.3570
  97   2.0000      -1.064082       -28.9551
  98   2.0000      -1.057643       -28.7799
  99   2.0000      -1.042727       -28.3740
 100   2.0000      -1.020007       -27.7558
 101   2.0000      -1.019973       -27.7549
 102   2.0000      -1.000460       -27.2239
 103   2.0000      -0.999906       -27.2088
 104   2.0000      -0.995569       -27.0908
 105   2.0000      -0.995135       -27.0790
 106   2.0000      -0.987010       -26.8579
 107   2.0000      -0.982194       -26.7269
 108   2.0000      -0.972431       -26.4612
 109   2.0000      -0.972331       -26.4585
 110   2.0000      -0.961921       -26.1752
 111   2.0000      -0.958157       -26.0728
 112   2.0000      -0.925907       -25.1952
 113   2.0000      -0.925664       -25.1886
 114   2.0000      -0.919074       -25.0093
 115   2.0000      -0.914564       -24.8865
 116   2.0000      -0.904298       -24.6072
 117   2.0000      -0.903719       -24.5914
 118   2.0000      -0.889293       -24.1989
 119   2.0000      -0.883650       -24.0453
 120   2.0000      -0.883092       -24.0302
 121   2.0000      -0.878821       -23.9139
 122   2.0000      -0.876525       -23.8515
 123   2.0000      -0.866742       -23.5852
 124   2.0000      -0.852226       -23.1902
 125   2.0000      -0.845895       -23.0180
 126   2.0000      -0.842663       -22.9300
 127   2.0000      -0.839859       -22.8537
 128   2.0000      -0.830682       -22.6040
 129   2.0000      -0.830047       -22.5867
 130   2.0000      -0.829482       -22.5713
 131   2.0000      -0.821182       -22.3455
 132   2.0000      -0.816671       -22.2228
 133   2.0000      -0.811665       -22.0865
 134   2.0000      -0.803831       -21.8734
 135   2.0000      -0.781515       -21.2661
 136   2.0000      -0.777368       -21.1533
 137   2.0000      -0.763185       -20.7673
 138   2.0000      -0.761381       -20.7182
 139   2.0000      -0.755869       -20.5683
 140   2.0000      -0.739221       -20.1152
 141   2.0000      -0.731407       -19.9026
 142   2.0000      -0.718660       -19.5557
 143   2.0000      -0.717345       -19.5200
 144   2.0000      -0.713248       -19.4085
 145   2.0000      -0.705570       -19.1995
 146   2.0000      -0.704948       -19.1826
 147   2.0000      -0.700279       -19.0556
 148   2.0000      -0.699488       -19.0340
 149   2.0000      -0.693349       -18.8670
 150   2.0000      -0.688945       -18.7472
 151   2.0000      -0.683850       -18.6085
 152   2.0000      -0.682030       -18.5590
 153   2.0000      -0.680686       -18.5224
 154   2.0000      -0.676584       -18.4108
 155   2.0000      -0.676078       -18.3970
 156   2.0000      -0.675168       -18.3723
 157   2.0000      -0.650657       -17.7053
 158   2.0000      -0.649688       -17.6789
 159   2.0000      -0.647800       -17.6275
 160   2.0000      -0.634247       -17.2587
 161   2.0000      -0.633473       -17.2377
 162   2.0000      -0.629584       -17.1319
 163   2.0000      -0.625199       -17.0125
 164   2.0000      -0.621128       -16.9017
 165   2.0000      -0.618022       -16.8172
 166   2.0000      -0.609484       -16.5849
 167   2.0000      -0.608816       -16.5667
 168   2.0000      -0.606946       -16.5158
 169   2.0000      -0.602087       -16.3836
 170   2.0000      -0.597112       -16.2482
 171   2.0000      -0.587874       -15.9969
 172   2.0000      -0.581610       -15.8264
 173   2.0000      -0.568322       -15.4648
 174   2.0000      -0.564162       -15.3516
 175   2.0000      -0.559345       -15.2205
 176   2.0000      -0.556970       -15.1559
 177   2.0000      -0.553140       -15.0517
 178   2.0000      -0.549452       -14.9513
 179   2.0000      -0.548192       -14.9171
 180   2.0000      -0.547694       -14.9035
 181   2.0000      -0.546045       -14.8586
 182   2.0000      -0.541113       -14.7244
 183   2.0000      -0.538635       -14.6570
 184   2.0000      -0.537988       -14.6394
 185   2.0000      -0.535409       -14.5692
 186   2.0000      -0.533278       -14.5112
 187   2.0000      -0.532230       -14.4827
 188   2.0000      -0.529212       -14.4006
 189   2.0000      -0.527345       -14.3498
 190   2.0000      -0.525370       -14.2960
 191   2.0000      -0.521634       -14.1944
 192   2.0000      -0.520342       -14.1592
 193   2.0000      -0.519610       -14.1393
 194   2.0000      -0.517315       -14.0769
 195   2.0000      -0.516924       -14.0662
 196   2.0000      -0.514318       -13.9953
 197   2.0000      -0.513484       -13.9726
 198   2.0000      -0.512293       -13.9402
 199   2.0000      -0.509962       -13.8768
 200   2.0000      -0.508149       -13.8274
 201   2.0000      -0.507539       -13.8108
 202   2.0000      -0.502361       -13.6699
 203   2.0000      -0.502234       -13.6665
 204   2.0000      -0.498937       -13.5768
 205   2.0000      -0.496167       -13.5014
 206   2.0000      -0.495261       -13.4767
 207   2.0000      -0.494644       -13.4599
 208   2.0000      -0.492670       -13.4062
 209   2.0000      -0.488237       -13.2856
 210   2.0000      -0.487445       -13.2641
 211   2.0000      -0.481005       -13.0888
 212   2.0000      -0.477885       -13.0039
 213   2.0000      -0.472917       -12.8687
 214   2.0000      -0.469430       -12.7738
 215   2.0000      -0.467670       -12.7260
 216   2.0000      -0.467239       -12.7142
 217   2.0000      -0.465183       -12.6583
 218   2.0000      -0.463763       -12.6196
 219   2.0000      -0.458628       -12.4799
 220   2.0000      -0.457277       -12.4431
 221   2.0000      -0.454301       -12.3621
 222   2.0000      -0.453023       -12.3274
 223   2.0000      -0.451968       -12.2987
 224   2.0000      -0.450531       -12.2596
 225   2.0000      -0.447886       -12.1876
 226   2.0000      -0.446422       -12.1478
 227   2.0000      -0.446191       -12.1415
 228   2.0000      -0.442544       -12.0422
 229   2.0000      -0.441538       -12.0149
 230   2.0000      -0.440759       -11.9937
 231   2.0000      -0.436960       -11.8903
 232   2.0000      -0.434683       -11.8283
 233   2.0000      -0.434092       -11.8123
 234   2.0000      -0.433155       -11.7868
 235   2.0000      -0.432501       -11.7690
 236   2.0000      -0.431139       -11.7319
 237   2.0000      -0.430696       -11.7198
 238   2.0000      -0.429083       -11.6759
 239   2.0000      -0.428277       -11.6540
 240   2.0000      -0.427675       -11.6376
 241   2.0000      -0.426434       -11.6039
 242   2.0000      -0.422234       -11.4896
 243   2.0000      -0.421041       -11.4571
 244   2.0000      -0.417092       -11.3497
 245   2.0000      -0.416477       -11.3329
 246   2.0000      -0.414571       -11.2810
 247   2.0000      -0.410943       -11.1823
 248   2.0000      -0.410259       -11.1637
 249   2.0000      -0.406611       -11.0644
 250   2.0000      -0.398729       -10.8500
 251   2.0000      -0.398537       -10.8447
 252   2.0000      -0.393881       -10.7181
 253   2.0000      -0.378568       -10.3014
 254   2.0000      -0.378254       -10.2928
 255   2.0000      -0.375190       -10.2094
 256   2.0000      -0.369614       -10.0577
 257   2.0000      -0.367858       -10.0099
 258   2.0000      -0.353379        -9.6159
 259   2.0000      -0.350819        -9.5463
 260   2.0000      -0.342008        -9.3065
 261   2.0000      -0.339346        -9.2341
 262   2.0000      -0.338135        -9.2011
 263   2.0000      -0.333094        -9.0640
 264   2.0000      -0.332034        -9.0351
 265   2.0000      -0.320222        -8.7137
 266   2.0000      -0.318136        -8.6569
 267   2.0000      -0.313647        -8.5348
 268   2.0000      -0.306599        -8.3430
 269   2.0000      -0.298536        -8.1236
 270   2.0000      -0.297808        -8.1038
 271   2.0000      -0.294494        -8.0136
 272   2.0000      -0.290428        -7.9030
 273   2.0000      -0.279320        -7.6007
 274   2.0000      -0.271726        -7.3940
 275   2.0000      -0.264898        -7.2082
 276   2.0000      -0.223779        -6.0893
 277   0.0000      -0.089524        -2.4361
 278   0.0000      -0.088322        -2.4034
 279   0.0000      -0.057761        -1.5717
 280   0.0000      -0.055010        -1.4969
 281   0.0000      -0.023388        -0.6364

MULLIKEN ATOMIC CHARGES
-----------------------
   0 C :    0.322598
   1 C :   -0.361595
   2 C :   -0.183957
   3 N :    0.146740
   4 C :   -0.182326
   5 N :    0.153055
   6 C :    0.049885
   7 C :   -0.009885
   8 C :   -0.082174
   9 C :    0.100825
  10 C :    0.097162
  11 C :   -0.085805
  12 C :   -0.020953
  13 C :    0.035416
  14 C :    0.035938
  15 C :   -0.018791
  16 C :    0.132371
  17 O :   -0.146411
  18 C :   -0.080317
  19 C :   -0.054398
  20 C :    0.065493
  21 C :   -0.048220
  22 S :    0.161453
  23 C :   -0.194256
  24 C :    0.104291
  25 C :   -0.095141
  26 C :    0.027429
  27 C :    0.030426
  28 C :    0.105134
  29 C :   -0.182516
  30 N :   -0.006406
  31 S :    0.127348
  32 C :   -0.099478
  33 C :    0.050361
  34 C :   -0.001646
  35 N :   -0.039081
  36 C :    0.102947
  37 C :   -0.170815
  38 C :    0.072130
  39 N :   -0.033148
  40 C :    0.100843
  41 C :   -0.146185
  42 C :    0.032177
  43 C :   -0.047490
  44 C :    0.081808
  45 C :   -0.129004
  46 S :    0.125081
  47 C :   -0.172178
  48 C :    0.081238
  49 C :   -0.089973
  50 C :    0.052583
  51 C :    0.034251
  52 C :    0.120883
  53 C :   -0.176302
  54 N :   -0.011034
  55 S :    0.151578
  56 C :   -0.084554
  57 C :    0.007287
  58 C :    0.006740
  59 C :   -0.123916
  60 C :    0.266195
  61 C :   -0.335125
  62 C :   -0.183311
  63 N :    0.158109
  64 C :   -0.147767
  65 N :    0.150672
  66 C :    0.034923
  67 C :    0.007742
  68 C :    0.138602
  69 O :   -0.142121
  70 C :   -0.079348
  71 C :    0.094260
  72 C :    0.093966
  73 C :   -0.079988
  74 C :   -0.017851
  75 C :    0.036216
  76 C :    0.036592
  77 C :   -0.015241
  78 H :   -0.012286
  79 H :   -0.006940
  80 H :   -0.006964
  81 H :   -0.003607
  82 H :   -0.003463
  83 H :   -0.015943
  84 H :    0.013678
  85 H :    0.035282
  86 H :    0.034030
  87 H :    0.030443
  88 H :    0.021453
  89 H :    0.033662
  90 H :   -0.016681
  91 H :    0.021859
  92 H :    0.120807
  93 H :   -0.041714
  94 H :    0.121488
  95 H :   -0.042975
  96 H :   -0.017192
  97 H :   -0.028736
  98 H :    0.020435
  99 H :    0.020391
 100 H :   -0.015255
 101 H :    0.011449
 102 H :    0.020082
 103 H :    0.019320
 104 H :    0.035099
 105 H :    0.048780
 106 H :   -0.010897
 107 H :   -0.005787
 108 H :   -0.009473
 109 H :   -0.003715
 110 H :   -0.004627
 111 H :   -0.016039
Sum of atomic charges:   -0.0000000

LOEWDIN ATOMIC CHARGES
----------------------
   0 C :    0.079048
   1 C :   -0.144020
   2 C :   -0.017258
   3 N :   -0.054921
   4 C :   -0.017864
   5 N :   -0.053612
   6 C :   -0.027334
   7 C :   -0.056148
   8 C :    0.031390
   9 C :   -0.008058
  10 C :   -0.006486
  11 C :    0.020147
  12 C :   -0.005090
  13 C :   -0.013413
  14 C :   -0.011838
  15 C :   -0.009998
  16 C :    0.080230
  17 O :   -0.141670
  18 C :   -0.100005
  19 C :    0.080670
  20 C :   -0.086163
  21 C :   -0.103118
  22 S :    0.454127
  23 C :   -0.133379
  24 C :   -0.063340
  25 C :    0.021891
  26 C :   -0.034176
  27 C :   -0.046852
  28 C :   -0.066044
  29 C :   -0.133259
  30 N :   -0.101572
  31 S :    0.416972
  32 C :   -0.152349
  33 C :   -0.074366
  34 C :   -0.010129
  35 N :    0.069660
  36 C :   -0.039617
  37 C :   -0.091489
  38 C :   -0.013994
  39 N :    0.069061
  40 C :   -0.027277
  41 C :   -0.100175
  42 C :   -0.018980
  43 C :   -0.054736
  44 C :   -0.059982
  45 C :   -0.165437
  46 S :    0.414649
  47 C :   -0.128783
  48 C :   -0.064076
  49 C :    0.029521
  50 C :   -0.030433
  51 C :   -0.050032
  52 C :   -0.063858
  53 C :   -0.126165
  54 N :   -0.102795
  55 S :    0.442696
  56 C :   -0.141859
  57 C :   -0.077107
  58 C :    0.076502
  59 C :   -0.092265
  60 C :    0.068630
  61 C :   -0.136661
  62 C :   -0.019869
  63 N :   -0.050366
  64 C :   -0.008199
  65 N :   -0.042458
  66 C :   -0.024929
  67 C :   -0.057596
  68 C :    0.083504
  69 O :   -0.142977
  70 C :    0.033090
  71 C :   -0.008522
  72 C :   -0.005710
  73 C :    0.017458
  74 C :   -0.005875
  75 C :   -0.012245
  76 C :   -0.011822
  77 C :   -0.009051
  78 H :    0.038824
  79 H :    0.039264
  80 H :    0.035232
  81 H :    0.033571
  82 H :    0.033188
  83 H :    0.032117
  84 H :    0.041010
  85 H :    0.029559
  86 H :    0.034662
  87 H :    0.040823
  88 H :    0.023205
  89 H :    0.033409
  90 H :    0.014823
  91 H :    0.026842
  92 H :    0.082919
  93 H :    0.022396
  94 H :    0.085579
  95 H :    0.023923
  96 H :    0.034428
  97 H :    0.017580
  98 H :    0.023215
  99 H :    0.033068
 100 H :    0.028297
 101 H :    0.023092
 102 H :    0.028753
 103 H :    0.022485
 104 H :    0.026243
 105 H :    0.047883
 106 H :    0.039684
 107 H :    0.038938
 108 H :    0.034662
 109 H :    0.033603
 110 H :    0.033022
 111 H :    0.032262

  Mayer bond orders larger than 0.100000
B(  0-C ,  1-C ) :   1.6290 B(  0-C ,  6-C ) :   0.9931 B(  0-C , 18-C ) :   1.0523
B(  1-C ,  2-C ) :   1.1464 B(  1-C ,  4-C ) :   1.1546 B(  2-C ,  3-N ) :   2.9609
B(  4-C ,  5-N ) :   2.9455 B(  6-C ,  7-C ) :   1.2093 B(  6-C , 11-C ) :   1.4446
B(  7-C ,  8-C ) :   1.4732 B(  7-C , 16-C ) :   0.9441 B(  8-C ,  9-C ) :   1.1795
B(  8-C , 78-H ) :   1.0161 B(  9-C , 10-C ) :   1.2545 B(  9-C , 15-C ) :   1.2438
B( 10-C , 11-C ) :   1.2093 B( 10-C , 12-C ) :   1.2387 B( 11-C , 79-H ) :   0.9894
B( 12-C , 13-C ) :   1.4918 B( 12-C , 80-H ) :   0.9973 B( 13-C , 14-C ) :   1.2586
B( 13-C , 81-H ) :   0.9881 B( 14-C , 15-C ) :   1.4907 B( 14-C , 82-H ) :   0.9883
B( 15-C , 83-H ) :   0.9977 B( 16-C , 17-O ) :   2.2328 B( 16-C , 18-C ) :   0.9243
B( 18-C , 19-C ) :   1.6389 B( 19-C , 20-C ) :   1.0850 B( 19-C , 84-H ) :   0.9279
B( 20-C , 21-C ) :   1.5475 B( 20-C , 24-C ) :   1.1182 B( 21-C , 22-S ) :   1.1785
B( 21-C , 85-H ) :   0.9563 B( 22-S , 23-C ) :   1.0807 B( 23-C , 24-C ) :   1.1888
B( 23-C , 30-N ) :   1.5569 B( 24-C , 25-C ) :   1.3678 B( 25-C , 26-C ) :   1.0673
B( 25-C , 28-C ) :   1.3952 B( 26-C , 27-C ) :   1.0986 B( 26-C , 86-H ) :   0.9099
B( 26-C , 87-H ) :   0.9079 B( 27-C , 88-H ) :   0.9624 B( 27-C , 89-H ) :   0.9649
B( 27-C , 90-H ) :   0.9519 B( 28-C , 29-C ) :   1.1662 B( 28-C , 33-C ) :   1.1511
B( 29-C , 30-N ) :   1.5375 B( 29-C , 31-S ) :   1.1049 B( 31-S , 32-C ) :   1.1064
B( 32-C , 33-C ) :   1.6538 B( 32-C , 91-H ) :   0.9689 B( 33-C , 34-C ) :   0.9296
B( 34-C , 35-N ) :   1.2212 B( 34-C , 41-C ) :   1.4911 B( 35-N , 36-C ) :   1.1367
B( 35-N , 92-H ) :   0.9354 B( 36-C , 37-C ) :   1.2268 B( 36-C , 40-C ) :   1.3628
B( 37-C , 38-C ) :   1.3937 B( 37-C , 93-H ) :   1.0407 B( 38-C , 39-N ) :   1.2007
B( 38-C , 42-C ) :   1.1196 B( 39-N , 40-C ) :   1.1678 B( 39-N , 94-H ) :   0.9322
B( 40-C , 41-C ) :   1.2004 B( 41-C , 95-H ) :   1.0449 B( 42-C , 43-C ) :   1.7318
B( 42-C , 96-H ) :   0.9630 B( 43-C , 44-C ) :   1.0269 B( 43-C , 97-H ) :   0.9481
B( 44-C , 45-C ) :   1.6158 B( 44-C , 48-C ) :   1.1343 B( 45-C , 46-S ) :   1.1033
B( 45-C , 98-H ) :   0.9656 B( 46-S , 47-C ) :   1.1064 B( 47-C , 48-C ) :   1.1848
B( 47-C , 54-N ) :   1.5337 B( 48-C , 49-C ) :   1.3826 B( 49-C , 50-C ) :   1.0879
B( 49-C , 52-C ) :   1.3959 B( 50-C , 51-C ) :   1.1045 B( 50-C , 99-H ) :   0.9054
B( 50-C ,100-H ) :   0.9043 B( 51-C ,101-H ) :   0.9640 B( 51-C ,102-H ) :   0.9447
B( 51-C ,103-H ) :   0.9597 B( 52-C , 53-C ) :   1.1879 B( 52-C , 57-C ) :   1.1265
B( 53-C , 54-N ) :   1.5595 B( 53-C , 55-S ) :   1.0817 B( 55-S , 56-C ) :   1.1548
B( 56-C , 57-C ) :   1.5734 B( 56-C ,104-H ) :   0.9618 B( 57-C , 58-C ) :   1.0132
B( 58-C , 59-C ) :   1.7297 B( 58-C ,105-H ) :   0.9286 B( 59-C , 60-C ) :   1.0157
B( 59-C , 68-C ) :   0.9278 B( 60-C , 61-C ) :   1.6684 B( 60-C , 66-C ) :   1.0012
B( 61-C , 62-C ) :   1.1299 B( 61-C , 64-C ) :   1.1718 B( 62-C , 63-N ) :   2.9873
B( 64-C , 65-N ) :   2.9054 B( 66-C , 67-C ) :   1.2149 B( 66-C , 73-C ) :   1.4545
B( 67-C , 68-C ) :   0.9182 B( 67-C , 70-C ) :   1.4724 B( 68-C , 69-O ) :   2.2768
B( 70-C , 71-C ) :   1.1868 B( 70-C ,106-H ) :   1.0157 B( 71-C , 72-C ) :   1.2559
B( 71-C , 77-C ) :   1.2433 B( 72-C , 73-C ) :   1.2061 B( 72-C , 74-C ) :   1.2401
B( 73-C ,107-H ) :   0.9936 B( 74-C , 75-C ) :   1.4899 B( 74-C ,108-H ) :   0.9976
B( 75-C , 76-C ) :   1.2599 B( 75-C ,109-H ) :   0.9888 B( 76-C , 77-C ) :   1.4895
B( 76-C ,110-H ) :   0.9893 B( 77-C ,111-H ) :   0.9980

-----------------------------------------------------------------------------
         ABSORPTION SPECTRUM VIA TRANSITION ELECTRIC DIPOLE MOMENTS
-----------------------------------------------------------------------------
State   Energy  Wavelength   fosc         T2         TX        TY        TZ
        (cm-1)    (nm)                  (au**2)     (au)      (au)      (au)
-----------------------------------------------------------------------------
   0   17713.9    564.5   0.018302415   0.34015   0.49296   0.05970   0.30590
   1   18364.6    544.5   0.056927549   1.02051  -0.93325   0.34037  -0.18358
   2   22242.2    449.6   0.135044717   1.99883  -1.16213   0.66726  -0.45060
   3   22391.7    446.6   0.442466689   6.50532  -1.99175  -0.32726  -1.55921
   4   25617.7    390.4   0.002934211   0.03771   0.05800   0.10857  -0.15019
   5   26554.7    376.6   0.014229163   0.17641  -0.39207  -0.02119  -0.14914
   6   27255.7    366.9   0.035846726   0.43298   0.55834   0.11075   0.33011
   7   27683.9    361.2   0.128754236   1.53112   1.18330  -0.35048  -0.08990
   8   27691.5    361.1   0.057393204   0.68232   0.62528   0.49293  -0.21992
   9   28151.4    355.2   0.036002535   0.42103  -0.59413   0.06306   0.25311
  10   28367.9    352.5   0.616481583   7.15432  -0.89391   0.58602   2.45190
  11   28699.7    348.4   0.039770334   0.45620  -0.50315   0.25186  -0.37365
  12   29253.8    341.8   0.025340565   0.28517  -0.49491   0.20002  -0.01515
  13   29511.8    338.8   0.012080833   0.13476   0.04780   0.36385   0.00971
  14   29622.2    337.6   0.220081623   2.44592  -0.56679   0.29734   1.42698
  15   29829.6    335.2   0.030422964   0.33576   0.05595  -0.47165  -0.33193
  16   30511.1    327.7   0.050084959   0.54041  -0.22074  -0.54173  -0.44521
  17   30803.7    324.6   0.065009762   0.69479  -0.72381   0.11131  -0.39812
  18   31016.8    322.4   0.018682466   0.19830   0.00996   0.41188  -0.16897
  19   31322.2    319.3   0.049825141   0.52369  -0.53080   0.41551  -0.26324
  20   31584.1    316.6   0.322299295   3.35944   1.68870  -0.16307   0.69365
  21   31988.5    312.6   0.000810198   0.00834   0.08254  -0.01105   0.03747
  22   33119.4    301.9   0.140928230   1.40085  -0.82441  -0.48728  -0.69553
  23   33472.6    298.8   0.074245747   0.73023   0.51555  -0.57646  -0.36349
  24   33497.8    298.5   0.215493696   2.11784  -1.06389   0.67700   0.72639
  25   33622.1    297.4   0.431238827   4.22249  -0.59380   0.21491   1.95543
  26   34216.1    292.3   0.627986289   6.04219  -2.25215  -0.74993  -0.63845
  27   34425.5    290.5   0.979421933   9.36625   2.50996  -1.75107  -0.01054
  28   34769.0    287.6   0.128173792   1.21362  -0.52157   0.48008  -0.84327
  29   35174.9    284.3   0.558907696   5.23097  -2.17864  -0.58126  -0.38296
  30   36009.2    277.7   0.308665985   2.82196  -0.25581   0.35536   1.62180
  31   36047.0    277.4   0.129032604   1.17843   0.35013  -0.13216  -1.01901
  32   36642.4    272.9   0.024161480   0.21708  -0.45444   0.02873  -0.09867
  33   36661.7    272.8   0.006129310   0.05504  -0.00694  -0.11201   0.20602
  34   36732.7    272.2   0.009872081   0.08848   0.17611  -0.14414   0.19154
  35   36965.7    270.5   0.000930478   0.00829   0.07067   0.04550  -0.03495
  36   37173.3    269.0   0.009186030   0.08135   0.21745  -0.13761  -0.12302
  37   37509.9    266.6   0.012140789   0.10656   0.11754  -0.20788  -0.22255
  38   37749.3    264.9   0.008902458   0.07764  -0.17773   0.16807  -0.13343
  39   38067.7    262.7   0.030687086   0.26538   0.39416  -0.14339  -0.29910
  40   38203.1    261.8   0.113751104   0.98024  -0.54926   0.02978  -0.82321
  41   38369.0    260.6   0.021999116   0.18876   0.15417  -0.15722  -0.37453
  42   38698.7    258.4   0.009687978   0.08242   0.16051   0.20408   0.12250
  43   39108.9    255.7   0.050629348   0.42619   0.05305  -0.47443  -0.44530
  44   39381.7    253.9   0.058180629   0.48636   0.58614  -0.37532  -0.04404
  45   39426.8    253.6   0.013684879   0.11427  -0.31376  -0.03455  -0.12095
  46   39567.5    252.7   0.231289388   1.92439  -0.47405  -0.72140  -1.08593
  47   39628.9    252.3   0.000235931   0.00196   0.04360   0.00731   0.00233
  48   39804.2    251.2   0.096555119   0.79859  -0.83045  -0.21076  -0.25402
  49   40063.3    249.6   0.000017302   0.00014  -0.01128  -0.00039  -0.00385
  50   40121.2    249.2   0.061599941   0.50545   0.65079  -0.25462   0.13076
  51   40300.2    248.1   0.020585990   0.16817  -0.31995  -0.02412  -0.25537

FINAL SINGLE POINT ENERGY     -4636.103526155197

DIPOLE MOMENT
-------------
                                X             Y             Z
Electronic contribution:     -1.88900      -6.03195       2.92507
Nuclear contribution   :      2.43759       8.63224      -2.03982
                        -----------------------------------------
Total Dipole Moment    :      0.54859       2.60029       0.88524
                        -----------------------------------------
Magnitude (a.u.)       :      2.80110
Magnitude (Debye)      :      7.11982

Rotational constants in cm-1:     0.001344     0.000205     0.000184
Rotational constants in MHz :    40.302499     6.144655     5.502261

                             ****ORCA TERMINATED NORMALLY****
TOTAL RUN TIME: 0 days 0 hours 11 minutes 22 seconds 927 msec
