                         Program Version 4.2.0 -  RELEASE  -
|  1> # ORCA input file
|  2> # SCF done       -193.605874353028          0.000502878874
|  3> ! CAM-B3LYP def2-SVP def2/J RIJCOSX Grid4 TightSCF
|  4> %maxcore 5000
|  5> %tddft
|  6>     Mode sTDDFT
|  7>     Ethresh 5.0
|  8>     maxcore 5000
|  9> end
| 10>
| 11> %pal
| 12>   nprocs 6
| 13>   end
| 14> * xyz 0 1
| 15>    C       -0.14054         5.59072         7.92766
| 16>    C       -1.50618         5.46012         8.03152
| 17>    C       -2.42001         6.47904         7.70532
| 18>    N       -3.20857         7.25989         7.40695
| 19>    C       -2.15110         4.31570         8.53516
| 20>    N       -2.72537         3.43044         8.98949
| 21>    C        0.56398         6.85246         7.71038
| 22>    C        1.92368         6.68076         8.10082
| 23>    C        2.81963         7.70774         8.05112
| 24>    C        2.39342         8.97321         7.58533
| 25>    C        1.04154         9.14552         7.17284
| 26>    C        0.13168         8.06452         7.24625
| 27>    C        0.63150        10.40864         6.70135
| 28>    C        1.51150        11.45505         6.64471
| 29>    C        2.84182        11.28552         7.05455
| 30>    C        3.27313        10.07071         7.51442
| 31>    C        2.13500         5.27810         8.51167
| 32>    O        3.15110         4.77598         8.94052
| 33>    C        0.84900         4.58996         8.23350
| 34>    C        0.81588         3.22075         8.22649
| 35>    C       -0.12744         2.36089         7.64261
| 36>    S       -0.22193         0.68907         8.18408
| 37>    C       -1.54836         0.34387         7.13559
| 38>    C       -1.87984         1.41989         6.38543
| 39>    C       -1.06975         2.56344         6.64007
| 40>    C       -1.45260         3.59735         5.74166
| 41>    C       -2.51803         3.18846         4.98772
| 42>    C       -2.88551         1.76165         5.33826
| 43>    C       -3.23942         3.96610         4.01798
| 44>    C       -4.25443         3.40247         3.27090
| 45>    C       -4.95944         4.17048         2.32737
| 46>    C       -5.99951         3.83459         1.46678
| 47>    C       -6.70445         2.52611         1.40732
| 48>    C       -8.11187         2.60699         2.06138
| 49>    N       -8.86471         3.72899         1.54567
| 50>    C       -6.83799         1.96038        -0.01596
| 51>    N       -7.12373         0.53499         0.06122
| 52>    C       -6.32653         5.03082         0.72712
| 53>    C       -7.25130         5.26878        -0.22400
| 54>    C       -7.44929         6.62501        -0.80312
| 55>    C       -6.53948         7.68220        -0.24693
| 56>    C       -5.59915         7.41889         0.67698
| 57>    C       -5.44587         6.10927         1.19353
| 58>    C       -4.61298         5.57430         2.15388
| 59>    C       -3.57892         6.13307         2.93981
| 60>    C       -2.92036         5.35562         3.83283
| 61>    C       -8.88426         7.05627        -0.61667
| 62>    C       -9.48515         7.94126        -1.41838
| 63>    C      -10.82897         8.41377        -1.27910
| 64>    S      -11.29912         9.86249        -2.12630
| 65>    C      -12.92283         9.79865        -1.52115
| 66>    C      -13.09623         8.72378        -0.72568
| 67>    C      -11.91649         7.91965        -0.57680
| 68>    C      -12.23603         6.78882         0.21960
| 69>    C      -13.55916         6.84165         0.58971
| 70>    C      -14.20890         8.10049         0.04198
| 71>    C      -14.35624         5.95725         1.34509
| 72>    C      -14.11590         4.72505         1.90074
| 73>    C      -15.12622         3.95974         2.61627
| 74>    C      -16.35879         4.39336         3.03566
| 75>    C      -17.28167         3.58700         3.73472
| 76>    N      -18.08353         2.99134         4.30110
| 77>    C      -16.89328         5.68859         2.87532
| 78>    N      -17.40911         6.71328         2.80410
| 79>    C      -14.58708         2.62714         2.86782
| 80>    C      -13.24304         2.59443         2.40330
| 81>    C      -12.89427         3.90119         1.82517
| 82>    O      -11.79832         4.20233         1.38572
| 83>    C      -12.46650         1.47643         2.50453
| 84>    C      -13.01486         0.30893         3.08029
| 85>    C      -14.36276         0.32867         3.54034
| 86>    C      -15.13919         1.50568         3.42735
| 87>    C      -14.90304        -0.84389         4.10578
| 88>    C      -14.14932        -1.98119         4.21285
| 89>    C      -12.82173        -1.99838         3.76048
| 90>    C      -12.26586        -0.87716         3.20632
| 91>    H        3.84285         7.55939         8.36300
| 92>    H       -0.88615         8.22311         6.92503
| 93>    H       -0.39536        10.53509         6.39031
| 94>    H        1.18640        12.41989         6.28468
| 95>    H        3.52339        12.12164         7.00401
| 96>    H        4.29702         9.93389         7.83070
| 97>    H        1.66987         2.74474         8.69907
| 98>    H       -1.99128        -0.63235         7.15944
| 99>    H       -0.94289         4.53736         5.65142
|100>    H       -2.81638         1.10253         4.47038
|101>    H       -3.90151         1.69943         5.73361
|102>    H       -4.51214         2.36177         3.39977
|103>    H       -6.12885         1.79846         1.98984
|104>    H       -7.97982         2.64359         3.15405
|105>    H       -8.62450         1.67762         1.80475
|106>    H       -8.64825         4.57336         2.06086
|107>    H       -9.86678         3.58455         1.58002
|108>    H       -5.92233         2.19160        -0.58590
|109>    H       -7.68480         2.43120        -0.51536
|110>    H       -6.32369         0.03486         0.43634
|111>    H       -7.31274         0.16245        -0.86274
|112>    H       -7.92380         4.50142        -0.56995
|113>    H       -7.26208         6.55920        -1.88684
|114>    H       -6.68573         8.67911        -0.63374
|115>    H       -4.95670         8.20496         1.04711
|116>    H       -3.32579         7.17652         2.82363
|117>    H       -2.14138         5.78944         4.43861
|118>    H       -9.39346         6.64553         0.24050
|119>    H       -8.93091         8.38018        -2.23960
|120>    H      -13.61700        10.56295        -1.80774
|121>    H      -11.55762         5.99843         0.47552
|122>    H      -14.56367         8.74413         0.85034
|123>    H      -15.06851         7.86576        -0.58934
|124>    H      -15.36754         6.32516         1.47516
|125>    H      -11.44803         1.47572         2.14406
|126>    H      -16.15664         1.48362         3.78311
|127>    H      -15.92542        -0.82581         4.45377
|128>    H      -14.57288        -2.87436         4.64715
|129>    H      -12.24164        -2.90442         3.85278
|130>    H      -11.24417        -0.88395         2.85519
|131> *
|132>
|133>                          ****END OF INPUT****

CARTESIAN COORDINATES (ANGSTROEM)
---------------------------------
  C     -0.140540    5.590720    7.927660
  C     -1.506180    5.460120    8.031520
  C     -2.420010    6.479040    7.705320
  N     -3.208570    7.259890    7.406950
  C     -2.151100    4.315700    8.535160
  N     -2.725370    3.430440    8.989490
  C      0.563980    6.852460    7.710380
  C      1.923680    6.680760    8.100820
  C      2.819630    7.707740    8.051120
  C      2.393420    8.973210    7.585330
  C      1.041540    9.145520    7.172840
  C      0.131680    8.064520    7.246250
  C      0.631500   10.408640    6.701350
  C      1.511500   11.455050    6.644710
  C      2.841820   11.285520    7.054550
  C      3.273130   10.070710    7.514420
  C      2.135000    5.278100    8.511670
  O      3.151100    4.775980    8.940520
  C      0.849000    4.589960    8.233500
  C      0.815880    3.220750    8.226490
  C     -0.127440    2.360890    7.642610
  S     -0.221930    0.689070    8.184080
  C     -1.548360    0.343870    7.135590
  C     -1.879840    1.419890    6.385430
  C     -1.069750    2.563440    6.640070
  C     -1.452600    3.597350    5.741660
  C     -2.518030    3.188460    4.987720
  C     -2.885510    1.761650    5.338260
  C     -3.239420    3.966100    4.017980
  C     -4.254430    3.402470    3.270900
  C     -4.959440    4.170480    2.327370
  C     -5.999510    3.834590    1.466780
  C     -6.704450    2.526110    1.407320
  C     -8.111870    2.606990    2.061380
  N     -8.864710    3.728990    1.545670
  C     -6.837990    1.960380   -0.015960
  N     -7.123730    0.534990    0.061220
  C     -6.326530    5.030820    0.727120
  C     -7.251300    5.268780   -0.224000
  C     -7.449290    6.625010   -0.803120
  C     -6.539480    7.682200   -0.246930
  C     -5.599150    7.418890    0.676980
  C     -5.445870    6.109270    1.193530
  C     -4.612980    5.574300    2.153880
  C     -3.578920    6.133070    2.939810
  C     -2.920360    5.355620    3.832830
  C     -8.884260    7.056270   -0.616670
  C     -9.485150    7.941260   -1.418380
  C    -10.828970    8.413770   -1.279100
  S    -11.299120    9.862490   -2.126300
  C    -12.922830    9.798650   -1.521150
  C    -13.096230    8.723780   -0.725680
  C    -11.916490    7.919650   -0.576800
  C    -12.236030    6.788820    0.219600
  C    -13.559160    6.841650    0.589710
  C    -14.208900    8.100490    0.041980
  C    -14.356240    5.957250    1.345090
  C    -14.115900    4.725050    1.900740
  C    -15.126220    3.959740    2.616270
  C    -16.358790    4.393360    3.035660
  C    -17.281670    3.587000    3.734720
  N    -18.083530    2.991340    4.301100
  C    -16.893280    5.688590    2.875320
  N    -17.409110    6.713280    2.804100
  C    -14.587080    2.627140    2.867820
  C    -13.243040    2.594430    2.403300
  C    -12.894270    3.901190    1.825170
  O    -11.798320    4.202330    1.385720
  C    -12.466500    1.476430    2.504530
  C    -13.014860    0.308930    3.080290
  C    -14.362760    0.328670    3.540340
  C    -15.139190    1.505680    3.427350
  C    -14.903040   -0.843890    4.105780
  C    -14.149320   -1.981190    4.212850
  C    -12.821730   -1.998380    3.760480
  C    -12.265860   -0.877160    3.206320
  H      3.842850    7.559390    8.363000
  H     -0.886150    8.223110    6.925030
  H     -0.395360   10.535090    6.390310
  H      1.186400   12.419890    6.284680
  H      3.523390   12.121640    7.004010
  H      4.297020    9.933890    7.830700
  H      1.669870    2.744740    8.699070
  H     -1.991280   -0.632350    7.159440
  H     -0.942890    4.537360    5.651420
  H     -2.816380    1.102530    4.470380
  H     -3.901510    1.699430    5.733610
  H     -4.512140    2.361770    3.399770
  H     -6.128850    1.798460    1.989840
  H     -7.979820    2.643590    3.154050
  H     -8.624500    1.677620    1.804750
  H     -8.648250    4.573360    2.060860
  H     -9.866780    3.584550    1.580020
  H     -5.922330    2.191600   -0.585900
  H     -7.684800    2.431200   -0.515360
  H     -6.323690    0.034860    0.436340
  H     -7.312740    0.162450   -0.862740
  H     -7.923800    4.501420   -0.569950
  H     -7.262080    6.559200   -1.886840
  H     -6.685730    8.679110   -0.633740
  H     -4.956700    8.204960    1.047110
  H     -3.325790    7.176520    2.823630
  H     -2.141380    5.789440    4.438610
  H     -9.393460    6.645530    0.240500
  H     -8.930910    8.380180   -2.239600
  H    -13.617000   10.562950   -1.807740
  H    -11.557620    5.998430    0.475520
  H    -14.563670    8.744130    0.850340
  H    -15.068510    7.865760   -0.589340
  H    -15.367540    6.325160    1.475160
  H    -11.448030    1.475720    2.144060
  H    -16.156640    1.483620    3.783110
  H    -15.925420   -0.825810    4.453770
  H    -14.572880   -2.874360    4.647150
  H    -12.241640   -2.904420    3.852780
  H    -11.244170   -0.883950    2.855190

 Total Charge           Charge          ....    0
 Multiplicity           Mult            ....    1
 Number of Electrons    NEL             ....  526
 Basis Dimension        Dim             .... 1272

ORBITAL ENERGIES
----------------

  NO   OCC          E(Eh)            E(eV)
   0   2.0000     -88.965324     -2420.8695
   1   2.0000     -88.950714     -2420.4720
   2   2.0000     -19.225669      -523.1570
   3   2.0000     -19.199202      -522.4369
   4   2.0000     -14.416151      -392.2834
   5   2.0000     -14.412630      -392.1876
   6   2.0000     -14.402301      -391.9065
   7   2.0000     -14.398135      -391.7932
   8   2.0000     -14.382640      -391.3715
   9   2.0000     -14.369472      -391.0132
  10   2.0000     -10.373976      -282.2902
  11   2.0000     -10.350429      -281.6495
  12   2.0000     -10.340492      -281.3791
  13   2.0000     -10.339873      -281.3622
  14   2.0000     -10.325556      -280.9727
  15   2.0000     -10.324172      -280.9350
  16   2.0000     -10.319332      -280.8033
  17   2.0000     -10.317618      -280.7567
  18   2.0000     -10.317479      -280.7529
  19   2.0000     -10.315935      -280.7109
  20   2.0000     -10.307145      -280.4717
  21   2.0000     -10.305835      -280.4360
  22   2.0000     -10.302839      -280.3545
  23   2.0000     -10.300849      -280.3004
  24   2.0000     -10.300106      -280.2801
  25   2.0000     -10.300102      -280.2800
  26   2.0000     -10.300008      -280.2775
  27   2.0000     -10.299594      -280.2662
  28   2.0000     -10.298688      -280.2416
  29   2.0000     -10.298493      -280.2362
  30   2.0000     -10.298244      -280.2295
  31   2.0000     -10.297942      -280.2213
  32   2.0000     -10.296837      -280.1912
  33   2.0000     -10.294400      -280.1249
  34   2.0000     -10.294346      -280.1234
  35   2.0000     -10.293601      -280.1031
  36   2.0000     -10.292439      -280.0715
  37   2.0000     -10.291767      -280.0532
  38   2.0000     -10.291226      -280.0385
  39   2.0000     -10.290251      -280.0120
  40   2.0000     -10.289832      -280.0006
  41   2.0000     -10.287643      -279.9410
  42   2.0000     -10.287274      -279.9310
  43   2.0000     -10.287041      -279.9246
  44   2.0000     -10.286792      -279.9178
  45   2.0000     -10.286481      -279.9094
  46   2.0000     -10.286264      -279.9035
  47   2.0000     -10.285696      -279.8880
  48   2.0000     -10.285489      -279.8824
  49   2.0000     -10.285114      -279.8722
  50   2.0000     -10.284683      -279.8605
  51   2.0000     -10.284527      -279.8562
  52   2.0000     -10.283327      -279.8236
  53   2.0000     -10.282952      -279.8133
  54   2.0000     -10.280038      -279.7340
  55   2.0000     -10.279633      -279.7230
  56   2.0000     -10.277458      -279.6638
  57   2.0000     -10.277177      -279.6562
  58   2.0000     -10.276864      -279.6477
  59   2.0000     -10.276625      -279.6412
  60   2.0000     -10.276377      -279.6344
  61   2.0000     -10.276226      -279.6303
  62   2.0000     -10.275572      -279.6125
  63   2.0000     -10.275337      -279.6061
  64   2.0000     -10.273451      -279.5548
  65   2.0000     -10.272088      -279.5177
  66   2.0000     -10.268148      -279.4105
  67   2.0000     -10.267002      -279.3793
  68   2.0000     -10.266209      -279.3578
  69   2.0000     -10.263565      -279.2858
  70   2.0000     -10.261986      -279.2428
  71   2.0000     -10.261439      -279.2280
  72   2.0000     -10.259362      -279.1714
  73   2.0000     -10.258530      -279.1488
  74   2.0000     -10.256318      -279.0886
  75   2.0000     -10.255898      -279.0772
  76   2.0000      -8.061004      -219.3511
  77   2.0000      -8.046410      -218.9540
  78   2.0000      -6.030290      -164.0925
  79   2.0000      -6.025891      -163.9728
  80   2.0000      -6.023394      -163.9049
  81   2.0000      -6.015938      -163.7020
  82   2.0000      -6.011564      -163.5830
  83   2.0000      -6.008257      -163.4930
  84   2.0000      -1.138877       -30.9904
  85   2.0000      -1.113667       -30.3044
  86   2.0000      -1.018138       -27.7049
  87   2.0000      -1.006104       -27.3775
  88   2.0000      -1.005037       -27.3484
  89   2.0000      -0.999280       -27.1918
  90   2.0000      -0.995259       -27.0824
  91   2.0000      -0.992524       -27.0080
  92   2.0000      -0.985333       -26.8123
  93   2.0000      -0.980621       -26.6841
  94   2.0000      -0.977777       -26.6067
  95   2.0000      -0.972175       -26.4542
  96   2.0000      -0.964325       -26.2406
  97   2.0000      -0.959484       -26.1089
  98   2.0000      -0.949967       -25.8499
  99   2.0000      -0.947244       -25.7758
 100   2.0000      -0.944767       -25.7084
 101   2.0000      -0.932200       -25.3665
 102   2.0000      -0.923181       -25.1210
 103   2.0000      -0.912591       -24.8329
 104   2.0000      -0.904768       -24.6200
 105   2.0000      -0.897722       -24.4283
 106   2.0000      -0.888259       -24.1708
 107   2.0000      -0.882859       -24.0238
 108   2.0000      -0.881548       -23.9881
 109   2.0000      -0.870893       -23.6982
 110   2.0000      -0.869479       -23.6597
 111   2.0000      -0.866688       -23.5838
 112   2.0000      -0.863506       -23.4972
 113   2.0000      -0.839820       -22.8527
 114   2.0000      -0.833688       -22.6858
 115   2.0000      -0.829465       -22.5709
 116   2.0000      -0.828898       -22.5555
 117   2.0000      -0.824509       -22.4360
 118   2.0000      -0.820648       -22.3310
 119   2.0000      -0.817523       -22.2459
 120   2.0000      -0.812521       -22.1098
 121   2.0000      -0.794780       -21.6271
 122   2.0000      -0.788365       -21.4525
 123   2.0000      -0.778532       -21.1849
 124   2.0000      -0.764476       -20.8024
 125   2.0000      -0.763433       -20.7741
 126   2.0000      -0.759375       -20.6636
 127   2.0000      -0.750385       -20.4190
 128   2.0000      -0.745350       -20.2820
 129   2.0000      -0.729197       -19.8425
 130   2.0000      -0.721350       -19.6289
 131   2.0000      -0.720689       -19.6109
 132   2.0000      -0.705138       -19.1878
 133   2.0000      -0.702993       -19.1294
 134   2.0000      -0.698463       -19.0061
 135   2.0000      -0.692874       -18.8541
 136   2.0000      -0.690903       -18.8004
 137   2.0000      -0.686144       -18.6709
 138   2.0000      -0.678305       -18.4576
 139   2.0000      -0.677600       -18.4384
 140   2.0000      -0.667730       -18.1698
 141   2.0000      -0.663855       -18.0644
 142   2.0000      -0.661782       -18.0080
 143   2.0000      -0.655008       -17.8237
 144   2.0000      -0.653482       -17.7822
 145   2.0000      -0.649123       -17.6635
 146   2.0000      -0.637053       -17.3351
 147   2.0000      -0.633343       -17.2342
 148   2.0000      -0.631222       -17.1764
 149   2.0000      -0.621689       -16.9170
 150   2.0000      -0.620401       -16.8820
 151   2.0000      -0.615740       -16.7551
 152   2.0000      -0.608424       -16.5561
 153   2.0000      -0.602865       -16.4048
 154   2.0000      -0.601846       -16.3771
 155   2.0000      -0.595814       -16.2129
 156   2.0000      -0.594949       -16.1894
 157   2.0000      -0.589155       -16.0317
 158   2.0000      -0.582583       -15.8529
 159   2.0000      -0.581207       -15.8154
 160   2.0000      -0.573778       -15.6133
 161   2.0000      -0.561796       -15.2873
 162   2.0000      -0.558775       -15.2050
 163   2.0000      -0.556223       -15.1356
 164   2.0000      -0.552654       -15.0385
 165   2.0000      -0.548951       -14.9377
 166   2.0000      -0.547592       -14.9007
 167   2.0000      -0.546536       -14.8720
 168   2.0000      -0.546499       -14.8710
 169   2.0000      -0.542893       -14.7729
 170   2.0000      -0.542501       -14.7622
 171   2.0000      -0.539206       -14.6725
 172   2.0000      -0.536659       -14.6032
 173   2.0000      -0.536207       -14.5909
 174   2.0000      -0.535958       -14.5842
 175   2.0000      -0.532879       -14.5004
 176   2.0000      -0.529863       -14.4183
 177   2.0000      -0.527731       -14.3603
 178   2.0000      -0.522709       -14.2236
 179   2.0000      -0.519783       -14.1440
 180   2.0000      -0.516519       -14.0552
 181   2.0000      -0.515981       -14.0406
 182   2.0000      -0.513715       -13.9789
 183   2.0000      -0.512760       -13.9529
 184   2.0000      -0.511888       -13.9292
 185   2.0000      -0.505485       -13.7549
 186   2.0000      -0.505231       -13.7480
 187   2.0000      -0.502024       -13.6608
 188   2.0000      -0.500570       -13.6212
 189   2.0000      -0.497900       -13.5486
 190   2.0000      -0.497069       -13.5259
 191   2.0000      -0.494318       -13.4511
 192   2.0000      -0.488675       -13.2975
 193   2.0000      -0.488313       -13.2877
 194   2.0000      -0.487363       -13.2618
 195   2.0000      -0.485142       -13.2014
 196   2.0000      -0.481808       -13.1107
 197   2.0000      -0.480160       -13.0658
 198   2.0000      -0.478753       -13.0275
 199   2.0000      -0.478371       -13.0171
 200   2.0000      -0.475869       -12.9491
 201   2.0000      -0.471172       -12.8212
 202   2.0000      -0.468485       -12.7481
 203   2.0000      -0.466259       -12.6875
 204   2.0000      -0.464823       -12.6485
 205   2.0000      -0.460893       -12.5415
 206   2.0000      -0.458459       -12.4753
 207   2.0000      -0.454011       -12.3543
 208   2.0000      -0.452412       -12.3108
 209   2.0000      -0.448445       -12.2028
 210   2.0000      -0.448233       -12.1970
 211   2.0000      -0.443835       -12.0774
 212   2.0000      -0.442019       -12.0279
 213   2.0000      -0.441404       -12.0112
 214   2.0000      -0.439167       -11.9503
 215   2.0000      -0.437940       -11.9169
 216   2.0000      -0.436522       -11.8784
 217   2.0000      -0.434931       -11.8351
 218   2.0000      -0.433009       -11.7828
 219   2.0000      -0.432553       -11.7704
 220   2.0000      -0.431421       -11.7396
 221   2.0000      -0.430522       -11.7151
 222   2.0000      -0.427908       -11.6440
 223   2.0000      -0.426543       -11.6068
 224   2.0000      -0.426458       -11.6045
 225   2.0000      -0.422208       -11.4889
 226   2.0000      -0.419065       -11.4033
 227   2.0000      -0.418688       -11.3931
 228   2.0000      -0.418105       -11.3772
 229   2.0000      -0.414865       -11.2891
 230   2.0000      -0.413307       -11.2467
 231   2.0000      -0.411174       -11.1886
 232   2.0000      -0.406119       -11.0511
 233   2.0000      -0.404692       -11.0122
 234   2.0000      -0.404146       -10.9974
 235   2.0000      -0.400465       -10.8972
 236   2.0000      -0.396944       -10.8014
 237   2.0000      -0.390736       -10.6325
 238   2.0000      -0.388861       -10.5815
 239   2.0000      -0.387613       -10.5475
 240   2.0000      -0.382682       -10.4133
 241   2.0000      -0.377491       -10.2721
 242   2.0000      -0.374406       -10.1881
 243   2.0000      -0.369125       -10.0444
 244   2.0000      -0.365959        -9.9583
 245   2.0000      -0.359920        -9.7939
 246   2.0000      -0.347752        -9.4628
 247   2.0000      -0.346602        -9.4315
 248   2.0000      -0.344474        -9.3736
 249   2.0000      -0.330455        -8.9921
 250   2.0000      -0.322055        -8.7636
 251   2.0000      -0.320299        -8.7158
 252   2.0000      -0.318460        -8.6657
 253   2.0000      -0.306257        -8.3337
 254   2.0000      -0.305996        -8.3266
 255   2.0000      -0.301506        -8.2044
 256   2.0000      -0.293169        -7.9775
 257   2.0000      -0.291921        -7.9436
 258   2.0000      -0.287052        -7.8111
 259   2.0000      -0.275799        -7.5049
 260   2.0000      -0.266303        -7.2465
 261   2.0000      -0.259720        -7.0673
 262   2.0000      -0.217712        -5.9242
 263   0.0000      -0.098933        -2.6921
 264   0.0000      -0.085656        -2.3308
 265   0.0000      -0.061974        -1.6864
 266   0.0000      -0.057839        -1.5739
 267   0.0000      -0.043195        -1.1754

MULLIKEN ATOMIC CHARGES
-----------------------
   0 C :    0.269003
   1 C :   -0.374894
   2 C :   -0.178586
   3 N :    0.144090
   4 C :   -0.190597
   5 N :    0.166249
   6 C :    0.045514
   7 C :    0.015436
   8 C :   -0.087881
   9 C :    0.094191
  10 C :    0.095868
  11 C :   -0.096344
  12 C :   -0.019959
  13 C :    0.035391
  14 C :    0.032043
  15 C :   -0.015680
  16 C :    0.134595
  17 O :   -0.149894
  18 C :   -0.146957
  19 C :    0.074096
  20 C :   -0.167987
  21 S :    0.126670
  22 C :   -0.130123
  23 C :   -0.049991
  24 C :    0.123133
  25 C :   -0.045184
  26 C :   -0.130359
  27 C :    0.296498
  28 C :    0.164864
  29 C :   -0.142178
  30 C :    0.068297
  31 C :   -0.039393
  32 C :    0.002862
  33 C :    0.134165
  34 N :   -0.253342
  35 C :    0.115429
  36 N :   -0.219738
  37 C :    0.044088
  38 C :   -0.092814
  39 C :    0.135512
  40 C :   -0.020781
  41 C :    0.017206
  42 C :    0.008890
  43 C :    0.033309
  44 C :    0.004425
  45 C :   -0.023013
  46 C :   -0.069968
  47 C :    0.069416
  48 C :   -0.134911
  49 S :    0.126435
  50 C :   -0.161009
  51 C :   -0.033671
  52 C :    0.093951
  53 C :   -0.013041
  54 C :   -0.136739
  55 C :    0.249972
  56 C :    0.007207
  57 C :   -0.062251
  58 C :    0.324417
  59 C :   -0.365032
  60 C :   -0.181087
  61 N :    0.146758
  62 C :   -0.189827
  63 N :    0.150152
  64 C :    0.041489
  65 C :    0.012888
  66 C :    0.171047
  67 O :   -0.179429
  68 C :   -0.085399
  69 C :    0.098245
  70 C :    0.091223
  71 C :   -0.077465
  72 C :   -0.017464
  73 C :    0.037598
  74 C :    0.035588
  75 C :   -0.018002
  76 H :   -0.015873
  77 H :   -0.014109
  78 H :   -0.014292
  79 H :   -0.009810
  80 H :   -0.008234
  81 H :   -0.020599
  82 H :    0.016924
  83 H :    0.016811
  84 H :   -0.012255
  85 H :    0.034423
  86 H :    0.044656
  87 H :   -0.038936
  88 H :   -0.046261
  89 H :   -0.012309
  90 H :   -0.001662
  91 H :    0.108443
  92 H :    0.101460
  93 H :   -0.007686
  94 H :   -0.001346
  95 H :    0.088969
  96 H :    0.090636
  97 H :    0.007769
  98 H :    0.038216
  99 H :   -0.019232
 100 H :   -0.036449
 101 H :   -0.038837
 102 H :   -0.037703
 103 H :    0.016722
 104 H :   -0.013445
 105 H :    0.018237
 106 H :    0.009476
 107 H :    0.048569
 108 H :    0.039944
 109 H :   -0.000297
 110 H :   -0.027257
 111 H :   -0.008928
 112 H :   -0.008950
 113 H :   -0.005066
 114 H :   -0.004922
 115 H :   -0.014013
Sum of atomic charges:   -0.0000000

LOEWDIN ATOMIC CHARGES
----------------------
   0 C :    0.057877
   1 C :   -0.146711
   2 C :   -0.018778
   3 N :   -0.064626
   4 C :   -0.015795
   5 N :   -0.055993
   6 C :   -0.021178
   7 C :   -0.055624
   8 C :    0.029050
   9 C :   -0.011421
  10 C :   -0.006815
  11 C :    0.007109
  12 C :   -0.008964
  13 C :   -0.016747
  14 C :   -0.017552
  15 C :   -0.010329
  16 C :    0.081519
  17 O :   -0.152288
  18 C :   -0.107315
  19 C :    0.053381
  20 C :   -0.194763
  21 S :    0.434272
  22 C :   -0.156980
  23 C :   -0.047621
  24 C :   -0.015793
  25 C :   -0.034325
  26 C :    0.030280
  27 C :   -0.011791
  28 C :   -0.037039
  29 C :   -0.001327
  30 C :   -0.026649
  31 C :   -0.027348
  32 C :   -0.041045
  33 C :    0.029217
  34 N :   -0.102061
  35 C :    0.024468
  36 N :   -0.119047
  37 C :   -0.027988
  38 C :    0.084420
  39 C :   -0.032765
  40 C :   -0.035505
  41 C :   -0.016012
  42 C :   -0.040621
  43 C :   -0.032346
  44 C :   -0.005095
  45 C :   -0.022357
  46 C :    0.016430
  47 C :   -0.052356
  48 C :   -0.153442
  49 S :    0.446542
  50 C :   -0.190071
  51 C :   -0.040630
  52 C :   -0.072419
  53 C :    0.059460
  54 C :   -0.049032
  55 C :   -0.009842
  56 C :    0.069855
  57 C :   -0.095467
  58 C :    0.077717
  59 C :   -0.143949
  60 C :   -0.016797
  61 N :   -0.056287
  62 C :   -0.023975
  63 N :   -0.055310
  64 C :   -0.025737
  65 C :   -0.055784
  66 C :    0.097124
  67 O :   -0.147048
  68 C :    0.028968
  69 C :   -0.008392
  70 C :   -0.006044
  71 C :    0.020422
  72 C :   -0.005099
  73 C :   -0.012729
  74 C :   -0.012258
  75 C :   -0.009118
  76 H :    0.037796
  77 H :    0.036344
  78 H :    0.032743
  79 H :    0.031130
  80 H :    0.031155
  81 H :    0.030679
  82 H :    0.044597
  83 H :    0.026506
  84 H :    0.025586
  85 H :    0.048148
  86 H :    0.054941
  87 H :    0.021314
  88 H :    0.019347
  89 H :    0.001892
  90 H :    0.013181
  91 H :    0.053366
  92 H :    0.037966
  93 H :    0.000682
  94 H :    0.016761
  95 H :    0.050534
  96 H :    0.054572
  97 H :    0.028651
  98 H :    0.059969
  99 H :    0.021396
 100 H :    0.029952
 101 H :    0.027730
 102 H :    0.024296
 103 H :    0.030767
 104 H :    0.027662
 105 H :    0.025410
 106 H :    0.027406
 107 H :    0.053691
 108 H :    0.049043
 109 H :    0.046530
 110 H :    0.037001
 111 H :    0.039240
 112 H :    0.035022
 113 H :    0.033223
 114 H :    0.032860
 115 H :    0.033195

  Mayer bond orders larger than 0.100000
B(  0-C ,  1-C ) :   1.6119 B(  0-C ,  6-C ) :   0.9987 B(  0-C , 18-C ) :   1.0758
B(  1-C ,  2-C ) :   1.1445 B(  1-C ,  4-C ) :   1.1593 B(  2-C ,  3-N ) :   2.9654
B(  4-C ,  5-N ) :   3.0085 B(  6-C ,  7-C ) :   1.2164 B(  6-C , 11-C ) :   1.4618
B(  7-C ,  8-C ) :   1.4795 B(  7-C , 16-C ) :   0.9155 B(  8-C ,  9-C ) :   1.1764
B(  8-C , 76-H ) :   1.0156 B(  9-C , 10-C ) :   1.2625 B(  9-C , 15-C ) :   1.2475
B( 10-C , 11-C ) :   1.1944 B( 10-C , 12-C ) :   1.2440 B( 11-C , 77-H ) :   0.9944
B( 12-C , 13-C ) :   1.4873 B( 12-C , 78-H ) :   0.9968 B( 13-C , 14-C ) :   1.2627
B( 13-C , 79-H ) :   0.9882 B( 14-C , 15-C ) :   1.4867 B( 14-C , 80-H ) :   0.9892
B( 15-C , 81-H ) :   0.9969 B( 16-C , 17-O ) :   2.2669 B( 16-C , 18-C ) :   0.9517
B( 18-C , 19-C ) :   1.5891 B( 19-C , 20-C ) :   1.1988 B( 19-C , 82-H ) :   0.9319
B( 20-C , 21-S ) :   1.0902 B( 20-C , 24-C ) :   1.3414 B( 21-S , 22-C ) :   1.1502
B( 22-C , 23-C ) :   1.5753 B( 22-C , 83-H ) :   0.9747 B( 23-C , 24-C ) :   1.3020
B( 23-C , 27-C ) :   0.9850 B( 24-C , 25-C ) :   1.0934 B( 25-C , 26-C ) :   1.6238
B( 25-C , 84-H ) :   0.9814 B( 26-C , 27-C ) :   1.0569 B( 26-C , 28-C ) :   1.0539
B( 27-C , 85-H ) :   0.8715 B( 27-C , 86-H ) :   0.8640 B( 28-C , 29-C ) :   1.4932
B( 28-C , 45-C ) :   1.1125 B( 29-C , 30-C ) :   1.1371 B( 29-C , 87-H ) :   0.9881
B( 30-C , 31-C ) :   1.4670 B( 30-C , 43-C ) :   1.1201 B( 31-C , 32-C ) :   1.0350
B( 31-C , 37-C ) :   1.1063 B( 32-C , 33-C ) :   1.0057 B( 32-C , 35-C ) :   1.0289
B( 32-C , 88-H ) :   0.8830 B( 33-C , 34-N ) :   1.1208 B( 33-C , 89-H ) :   0.9430
B( 33-C , 90-H ) :   0.9286 B( 34-N , 91-H ) :   0.9527 B( 34-N , 92-H ) :   0.9420
B( 35-C , 36-N ) :   1.0794 B( 35-C , 93-H ) :   0.9540 B( 35-C , 94-H ) :   0.9271
B( 36-N , 95-H ) :   0.9709 B( 36-N , 96-H ) :   0.9678 B( 37-C , 38-C ) :   1.6496
B( 37-C , 42-C ) :   1.0630 B( 38-C , 39-C ) :   0.9582 B( 38-C , 97-H ) :   0.9591
B( 39-C , 40-C ) :   0.9881 B( 39-C , 46-C ) :   0.9592 B( 39-C , 98-H ) :   0.8646
B( 40-C , 41-C ) :   1.7310 B( 40-C , 99-H ) :   0.9676 B( 41-C , 42-C ) :   1.1277
B( 41-C ,100-H ) :   0.9879 B( 42-C , 43-C ) :   1.4324 B( 43-C , 44-C ) :   1.1374
B( 44-C , 45-C ) :   1.6185 B( 44-C ,101-H ) :   0.9887 B( 45-C ,102-H ) :   0.9852
B( 46-C , 47-C ) :   1.7962 B( 46-C ,103-H ) :   0.9788 B( 47-C , 48-C ) :   1.0889
B( 47-C ,104-H ) :   0.9526 B( 48-C , 49-S ) :   1.1695 B( 48-C , 52-C ) :   1.3970
B( 49-S , 50-C ) :   1.1158 B( 50-C , 51-C ) :   1.6048 B( 50-C ,105-H ) :   0.9771
B( 51-C , 52-C ) :   1.2522 B( 51-C , 55-C ) :   1.0008 B( 52-C , 53-C ) :   1.0824
B( 53-C , 54-C ) :   1.5702 B( 53-C ,106-H ) :   0.9802 B( 54-C , 55-C ) :   1.0247
B( 54-C , 56-C ) :   1.2289 B( 55-C ,107-H ) :   0.8859 B( 55-C ,108-H ) :   0.8951
B( 56-C , 57-C ) :   1.5125 B( 56-C ,109-H ) :   0.9252 B( 57-C , 58-C ) :   1.0795
B( 57-C , 66-C ) :   0.9788 B( 58-C , 59-C ) :   1.6152 B( 58-C , 64-C ) :   0.9777
B( 59-C , 60-C ) :   1.1509 B( 59-C , 62-C ) :   1.1435 B( 60-C , 61-N ) :   2.9620
B( 62-C , 63-N ) :   2.9669 B( 64-C , 65-C ) :   1.2140 B( 64-C , 71-C ) :   1.4557
B( 65-C , 66-C ) :   0.9585 B( 65-C , 68-C ) :   1.4610 B( 66-C , 67-O ) :   2.0508
B( 68-C , 69-C ) :   1.1890 B( 68-C ,110-H ) :   1.0176 B( 69-C , 70-C ) :   1.2554
B( 69-C , 75-C ) :   1.2430 B( 70-C , 71-C ) :   1.2026 B( 70-C , 72-C ) :   1.2436
B( 71-C ,111-H ) :   0.9888 B( 72-C , 73-C ) :   1.4880 B( 72-C ,112-H ) :   0.9965
B( 73-C , 74-C ) :   1.2616 B( 73-C ,113-H ) :   0.9882 B( 74-C , 75-C ) :   1.4883
B( 74-C ,114-H ) :   0.9885 B( 75-C ,115-H ) :   0.9976

-----------------------------------------------------------------------------
         ABSORPTION SPECTRUM VIA TRANSITION ELECTRIC DIPOLE MOMENTS
-----------------------------------------------------------------------------
State   Energy  Wavelength   fosc         T2         TX        TY        TZ
        (cm-1)    (nm)                  (au**2)     (au)      (au)      (au)
-----------------------------------------------------------------------------
   0   13172.9    759.1   0.161824521   4.04427  -1.63952  -0.72044  -0.91500
   1   13923.8    718.2   0.030466468   0.72034   0.00241   0.41162   0.74223
   2   17287.8    578.4   0.222072833   4.22894   1.50329   0.12161   1.39795
   3   19960.7    501.0   0.814350069  13.43109   2.46362   2.14600  -1.66022
   4   20662.6    484.0   0.363791646   5.79620   1.15654   1.35777   1.61712
   5   22331.8    447.8   0.000401935   0.00593   0.05537   0.01265   0.05195
   6   24153.3    414.0   0.111275152   1.51669   0.86309  -0.83836   0.26253
   7   24345.7    410.8   0.064124267   0.86711   0.49423  -0.71000   0.34462
   8   25201.1    396.8   0.213239502   2.78563  -1.13634   0.79070  -0.93229
   9   25880.8    386.4   0.006598474   0.08393  -0.02095  -0.02956   0.28744
  10   26487.8    377.5   0.051934715   0.64549  -0.54799   0.35778  -0.46603
  11   26681.0    374.8   0.096649111   1.19253   0.65524   0.62936  -0.60588
  12   27000.9    370.4   0.060033153   0.73196  -0.31157   0.53081  -0.59425
  13   27486.4    363.8   0.079547028   0.95276   0.49640  -0.68353   0.48902
  14   27663.7    361.5   0.301774725   3.59127   0.37005  -1.68827   0.77723
  15   27815.8    359.5   0.176713373   2.09148   0.91270   1.11889  -0.08094
  16   28176.1    354.9   0.074865991   0.87474   0.59389  -0.48147   0.53872
  17   28668.1    348.8   0.006070511   0.06971  -0.06522  -0.18141   0.18041
  18   28878.5    346.3   0.012167202   0.13870  -0.02474   0.24105  -0.28282
  19   28921.0    345.8   0.036662583   0.41733   0.09377  -0.59918   0.22254
  20   29284.7    341.5   0.071369851   0.80232  -0.27332   0.83014  -0.19618
  21   29996.4    333.4   0.078792372   0.86475   0.73282  -0.10494   0.56278
  22   30633.2    326.4   0.125513215   1.34888  -0.97062  -0.47912  -0.42098
  23   30716.2    325.6   0.484599634   5.19388   1.27758  -1.29340   1.37434
  24   31038.4    322.2   0.004732389   0.05019   0.04578  -0.16522   0.14423
  25   32040.1    312.1   0.006976700   0.07169  -0.00693  -0.24476   0.10831
  26   32439.9    308.3   0.002581616   0.02620   0.07935   0.10044   0.09906
  27   32761.2    305.2   0.033138166   0.33300   0.25549  -0.42995  -0.28786
  28   32840.6    304.5   0.049637593   0.49759   0.70250   0.04140   0.04878
  29   32916.1    303.8   0.509136676   5.09216   1.48165  -1.67599   0.29656
  30   32969.2    303.3   0.488336160   4.87625  -0.93983  -1.99463   0.12005
  31   33395.5    299.4   0.025337825   0.24978   0.15841  -0.40097   0.25281
  32   33543.7    298.1   0.139644442   1.37053   0.39481  -0.85811   0.69159
  33   33744.7    296.3   0.055649199   0.54291  -0.42368   0.29949  -0.52317
  34   34161.0    292.7   0.792056333   7.63311   1.26959   2.38897  -0.56040
  35   34334.9    291.2   0.001099932   0.01055   0.08989   0.04743  -0.01469
  36   34800.4    287.4   0.001853967   0.01754   0.07620  -0.09236   0.05658
  37   35211.2    284.0   0.127686561   1.19382   0.70022  -0.61622   0.56902
  38   35420.6    282.3   0.011680442   0.10856  -0.10561  -0.29082   0.11328
  39   35428.0    282.3   0.009238744   0.08585   0.24989  -0.15039  -0.02801
  40   35785.2    279.4   0.091321968   0.84013  -0.90364   0.14935  -0.03540
  41   35825.4    279.1   0.204287413   1.87727  -1.30643   0.35461   0.21156
  42   36239.6    275.9   0.006036507   0.05484   0.20951  -0.09352   0.04688
  43   36449.3    274.4   0.063617200   0.57459   0.48576   0.02765   0.58126
  44   36479.5    274.1   0.063907391   0.57674   0.31726  -0.29005   0.62606
  45   36803.9    271.7   0.019321524   0.17283  -0.24503   0.29592  -0.15883
  46   37552.9    266.3   0.134004027   1.17476   0.49770  -0.70692   0.65370
  47   37612.6    265.9   0.202232421   1.77008  -1.19717   0.32365   0.48180
  48   37672.9    265.4   0.033553771   0.29322   0.03261  -0.53268  -0.09166
  49   37725.9    265.1   0.037767318   0.32957   0.50382   0.16080   0.22335
  50   38386.5    260.5   0.004706863   0.04037   0.07500   0.00594  -0.18630
  51   38506.9    259.7   0.007974145   0.06817   0.16290   0.15323   0.13475
  52   38931.5    256.9   0.074018979   0.62592   0.34771   0.54701  -0.45365
  53   39030.1    256.2   0.000301717   0.00254   0.00138  -0.02299   0.04488
  54   39231.5    254.9   0.242998253   2.03913  -0.87316   0.94551  -0.61864
  55   39548.4    252.9   0.140250217   1.16748   0.95056   0.26359  -0.44096
  56   39708.7    251.8   0.026235565   0.21751   0.35994   0.21357  -0.20577
  57   39756.5    251.5   0.011653402   0.09650  -0.18494  -0.19593   0.15462
  58   40002.3    250.0   0.006620455   0.05449   0.04675  -0.17667   0.14521

FINAL SINGLE POINT ENERGY     -3810.184426688453

DIPOLE MOMENT
-------------
                                X             Y             Z
Electronic contribution:      2.30035      10.32834      30.25399
Nuclear contribution   :     -1.61377     -10.96698     -33.93310
                        -----------------------------------------
Total Dipole Moment    :      0.68658      -0.63865      -3.67911
                        -----------------------------------------
Magnitude (a.u.)       :      3.79672
Magnitude (Debye)      :      9.65049

Rotational constants in cm-1:     0.001125     0.000339     0.000292
Rotational constants in MHz :    33.720980    10.149140     8.759600

                             ****ORCA TERMINATED NORMALLY****
TOTAL RUN TIME: 0 days 0 hours 21 minutes 1 seconds 488 msec
