                         Program Version 4.2.0 -  RELEASE  -
|  1> # ORCA input file
|  2> # SCF done       -202.791190503214          0.000847088372
|  3> ! CAM-B3LYP def2-SVP def2/J RIJCOSX Grid4 TightSCF
|  4> %maxcore 5000
|  5> %tddft
|  6>     Mode sTDDFT
|  7>     Ethresh 5.0
|  8>     maxcore 5000
|  9> end
| 10>
| 11> %pal
| 12>   nprocs 6
| 13>   end
| 14> * xyz 0 1
| 15>    C       -5.83209        -2.24997        -2.07948
| 16>    C       -5.28779        -2.59207        -0.86788
| 17>    C       -4.70056        -3.84613        -0.59230
| 18>    N       -4.20153        -4.83682        -0.29583
| 19>    C       -5.23454        -1.79854         0.29845
| 20>    N       -5.14432        -1.24956         1.30446
| 21>    C       -5.90761        -3.14288        -3.22874
| 22>    C       -6.62713        -2.49137        -4.25656
| 23>    C       -6.88177        -3.07396        -5.47430
| 24>    C       -6.39823        -4.36771        -5.69078
| 25>    C       -5.67367        -5.01232        -4.65965
| 26>    C       -5.41875        -4.42184        -3.42866
| 27>    S       -5.16215        -6.60309        -5.13730
| 28>    C       -5.92079        -6.38431        -6.69184
| 29>    C       -6.52481        -5.18244        -6.84886
| 30>   Br       -5.84074        -7.76152        -7.96239
| 31>    C       -7.02865        -1.14411        -3.80842
| 32>    O       -7.66874        -0.35920        -4.47665
| 33>    C       -6.47769        -0.98898        -2.44018
| 34>    C       -6.46006         0.09406        -1.60738
| 35>    C       -7.02731         1.40660        -1.63636
| 36>    C       -6.73169         2.22657        -0.52171
| 37>    C       -7.26372         3.48523        -0.43203
| 38>    C       -8.06846         3.98601        -1.47637
| 39>    C       -8.36691         3.19409        -2.57764
| 40>    C       -7.85976         1.91456        -2.64813
| 41>    C       -8.41999         5.35250        -1.17442
| 42>    C       -7.83858         5.70113         0.05725
| 43>    C       -7.11482         4.51734         0.66337
| 44>    C       -7.89814         4.11378         1.93586
| 45>    C       -7.44586         2.82906         2.61717
| 46>    C       -5.64596         4.83156         0.98301
| 47>    C       -4.89240         5.37036        -0.22784
| 48>    C       -7.98749         6.96525         0.57033
| 49>    C       -8.72238         7.92215        -0.14705
| 50>    C       -9.29295         7.55840        -1.37504
| 51>    C       -9.15405         6.28748        -1.89202
| 52>    C       -8.87061         9.28301         0.31651
| 53>    C       -8.54674         9.71313         1.54603
| 54>    N       -8.63088        11.02507         1.93913
| 55>    C       -8.21036        11.51696         3.13450
| 56>    S       -9.02212        12.92637         3.75913
| 57>    C       -8.10950        12.79442         5.23189
| 58>    N       -8.32966        13.74434         6.22426
| 59>    O       -7.71187        13.62921         7.27251
| 60>    O       -9.13416        14.63027         5.97849
| 61>    C       -7.23979        11.73732         5.22362
| 62>    C       -7.24706        11.00639         4.01690
| 63>    C       -6.27307         9.96097         3.82664
| 64>    C       -5.74789         9.49248         2.66809
| 65>    C       -4.72543         8.51291         2.56011
| 66>    C       -3.86728         8.07097         3.53207
| 67>    C       -2.85674         7.08135         3.36694
| 68>    C       -2.06444         6.88625         4.45536
| 69>    C       -2.39234         7.71142         5.55537
| 70>    S       -3.76904         8.71934         5.16036
| 71>    C       -1.81760         7.82924         6.80045
| 72>    C       -0.76284         7.09438         7.39661
| 73>    C       -0.47755         7.48231         8.66595
| 74>    C       -1.28271         8.55511         9.15348
| 75>    S       -2.43204         9.03516         7.91062
| 76>    C       -1.13953         9.21013        10.34159
| 77>    C       -1.88428        10.37319        10.72572
| 78>    C       -3.19768        10.65866        10.37886
| 79>    O       -4.08761         9.72913         9.93959
| 80>    C       -4.10016         8.46843        10.57698
| 81>    C       -3.75295        11.99332        10.48361
| 82>    O       -4.97795        12.09809         9.93998
| 83>    C       -5.58121        13.37281         9.87055
| 84>    C       -3.06383        13.01289        11.08682
| 85>    C       -1.79176        12.71147        11.60576
| 86>    C       -1.20051        11.40819        11.42699
| 87>    N       -0.00954        11.43196        11.98077
| 88>    O        0.14005        12.66084        12.48828
| 89>    N       -0.92236        13.44615        12.26877
| 90>    H       -7.43684        -2.54676        -6.23431
| 91>    H       -4.85913        -4.95674        -2.68033
| 92>    H       -7.03857        -4.88109        -7.74340
| 93>    H       -5.89148        -0.06737        -0.69865
| 94>    H       -6.07736         1.84610         0.24890
| 95>    H       -8.98893         3.57461        -3.37355
| 96>    H       -8.09447         1.29810        -3.49832
| 97>    H       -8.95192         4.01334         1.66208
| 98>    H       -7.82017         4.94065         2.64572
| 99>    H       -7.60264         1.96808         1.97370
|100>    H       -8.02950         2.68055         3.52307
|101>    H       -6.39741         2.87394         2.89833
|102>    H       -5.15449         3.92249         1.33131
|103>    H       -5.61015         5.56418         1.79272
|104>    H       -4.91113         4.64969        -1.04258
|105>    H       -3.85363         5.56559         0.02998
|106>    H       -5.34096         6.29620        -0.58237
|107>    H       -7.51821         7.22836         1.50551
|108>    H       -9.85625         8.29823        -1.92547
|109>    H       -9.60180         6.02817        -2.83940
|110>    H       -9.26198         9.99204        -0.40234
|111>    H       -8.20531         9.04364         2.31749
|112>    H       -9.14374        11.65706         1.33758
|113>    H       -6.58849        11.51938         6.05159
|114>    H       -5.89654         9.57334         4.76065
|115>    H       -6.11882         9.86610         1.72241
|116>    H       -4.57505         8.09119         1.57399
|117>    H       -2.75055         6.54936         2.43753
|118>    H       -1.24747         6.18777         4.49545
|119>    H       -0.25651         6.30333         6.87235
|120>    H        0.28925         7.04585         9.28140
|121>    H       -0.29982         8.95139        10.97163
|122>    H       -5.13759         8.13427        10.55721
|123>    H       -3.75681         8.54127        11.61178
|124>    H       -3.48083         7.73506        10.05191
|125>    H       -5.85620        13.73530        10.86545
|126>    H       -6.47440        13.25093         9.26026
|127>    H       -4.91873        14.09770         9.39005
|128>    H       -3.45758        14.00754        11.19539
|129> *
|130>
|131>                          ****END OF INPUT****

CARTESIAN COORDINATES (ANGSTROEM)
---------------------------------
  C     -5.832090   -2.249970   -2.079480
  C     -5.287790   -2.592070   -0.867880
  C     -4.700560   -3.846130   -0.592300
  N     -4.201530   -4.836820   -0.295830
  C     -5.234540   -1.798540    0.298450
  N     -5.144320   -1.249560    1.304460
  C     -5.907610   -3.142880   -3.228740
  C     -6.627130   -2.491370   -4.256560
  C     -6.881770   -3.073960   -5.474300
  C     -6.398230   -4.367710   -5.690780
  C     -5.673670   -5.012320   -4.659650
  C     -5.418750   -4.421840   -3.428660
  S     -5.162150   -6.603090   -5.137300
  C     -5.920790   -6.384310   -6.691840
  C     -6.524810   -5.182440   -6.848860
  Br    -5.840740   -7.761520   -7.962390
  C     -7.028650   -1.144110   -3.808420
  O     -7.668740   -0.359200   -4.476650
  C     -6.477690   -0.988980   -2.440180
  C     -6.460060    0.094060   -1.607380
  C     -7.027310    1.406600   -1.636360
  C     -6.731690    2.226570   -0.521710
  C     -7.263720    3.485230   -0.432030
  C     -8.068460    3.986010   -1.476370
  C     -8.366910    3.194090   -2.577640
  C     -7.859760    1.914560   -2.648130
  C     -8.419990    5.352500   -1.174420
  C     -7.838580    5.701130    0.057250
  C     -7.114820    4.517340    0.663370
  C     -7.898140    4.113780    1.935860
  C     -7.445860    2.829060    2.617170
  C     -5.645960    4.831560    0.983010
  C     -4.892400    5.370360   -0.227840
  C     -7.987490    6.965250    0.570330
  C     -8.722380    7.922150   -0.147050
  C     -9.292950    7.558400   -1.375040
  C     -9.154050    6.287480   -1.892020
  C     -8.870610    9.283010    0.316510
  C     -8.546740    9.713130    1.546030
  N     -8.630880   11.025070    1.939130
  C     -8.210360   11.516960    3.134500
  S     -9.022120   12.926370    3.759130
  C     -8.109500   12.794420    5.231890
  N     -8.329660   13.744340    6.224260
  O     -7.711870   13.629210    7.272510
  O     -9.134160   14.630270    5.978490
  C     -7.239790   11.737320    5.223620
  C     -7.247060   11.006390    4.016900
  C     -6.273070    9.960970    3.826640
  C     -5.747890    9.492480    2.668090
  C     -4.725430    8.512910    2.560110
  C     -3.867280    8.070970    3.532070
  C     -2.856740    7.081350    3.366940
  C     -2.064440    6.886250    4.455360
  C     -2.392340    7.711420    5.555370
  S     -3.769040    8.719340    5.160360
  C     -1.817600    7.829240    6.800450
  C     -0.762840    7.094380    7.396610
  C     -0.477550    7.482310    8.665950
  C     -1.282710    8.555110    9.153480
  S     -2.432040    9.035160    7.910620
  C     -1.139530    9.210130   10.341590
  C     -1.884280   10.373190   10.725720
  C     -3.197680   10.658660   10.378860
  O     -4.087610    9.729130    9.939590
  C     -4.100160    8.468430   10.576980
  C     -3.752950   11.993320   10.483610
  O     -4.977950   12.098090    9.939980
  C     -5.581210   13.372810    9.870550
  C     -3.063830   13.012890   11.086820
  C     -1.791760   12.711470   11.605760
  C     -1.200510   11.408190   11.426990
  N     -0.009540   11.431960   11.980770
  O      0.140050   12.660840   12.488280
  N     -0.922360   13.446150   12.268770
  H     -7.436840   -2.546760   -6.234310
  H     -4.859130   -4.956740   -2.680330
  H     -7.038570   -4.881090   -7.743400
  H     -5.891480   -0.067370   -0.698650
  H     -6.077360    1.846100    0.248900
  H     -8.988930    3.574610   -3.373550
  H     -8.094470    1.298100   -3.498320
  H     -8.951920    4.013340    1.662080
  H     -7.820170    4.940650    2.645720
  H     -7.602640    1.968080    1.973700
  H     -8.029500    2.680550    3.523070
  H     -6.397410    2.873940    2.898330
  H     -5.154490    3.922490    1.331310
  H     -5.610150    5.564180    1.792720
  H     -4.911130    4.649690   -1.042580
  H     -3.853630    5.565590    0.029980
  H     -5.340960    6.296200   -0.582370
  H     -7.518210    7.228360    1.505510
  H     -9.856250    8.298230   -1.925470
  H     -9.601800    6.028170   -2.839400
  H     -9.261980    9.992040   -0.402340
  H     -8.205310    9.043640    2.317490
  H     -9.143740   11.657060    1.337580
  H     -6.588490   11.519380    6.051590
  H     -5.896540    9.573340    4.760650
  H     -6.118820    9.866100    1.722410
  H     -4.575050    8.091190    1.573990
  H     -2.750550    6.549360    2.437530
  H     -1.247470    6.187770    4.495450
  H     -0.256510    6.303330    6.872350
  H      0.289250    7.045850    9.281400
  H     -0.299820    8.951390   10.971630
  H     -5.137590    8.134270   10.557210
  H     -3.756810    8.541270   11.611780
  H     -3.480830    7.735060   10.051910
  H     -5.856200   13.735300   10.865450
  H     -6.474400   13.250930    9.260260
  H     -4.918730   14.097700    9.390050
  H     -3.457580   14.007540   11.195390

 Total Charge           Charge          ....    0
 Multiplicity           Mult            ....    1
 Number of Electrons    NEL             ....  576
 Basis Dimension        Dim             .... 1279

ORBITAL ENERGIES
----------------

  NO   OCC          E(Eh)            E(eV)
   0   2.0000    -482.887048    -13140.0246
   1   2.0000     -88.981289     -2421.3040
   2   2.0000     -88.976650     -2421.1777
   3   2.0000     -88.948284     -2420.4059
   4   2.0000     -88.943381     -2420.2724
   5   2.0000     -62.564745     -1702.4733
   6   2.0000     -56.398694     -1534.6865
   7   2.0000     -56.395978     -1534.6126
   8   2.0000     -56.395947     -1534.6117
   9   2.0000     -19.324427      -525.8444
  10   2.0000     -19.249616      -523.8087
  11   2.0000     -19.247351      -523.7471
  12   2.0000     -19.236290      -523.4461
  13   2.0000     -19.235193      -523.4162
  14   2.0000     -19.219848      -522.9987
  15   2.0000     -14.647830      -398.5877
  16   2.0000     -14.482391      -394.0859
  17   2.0000     -14.456229      -393.3740
  18   2.0000     -14.451956      -393.2577
  19   2.0000     -14.418576      -392.3494
  20   2.0000     -14.414836      -392.2476
  21   2.0000     -10.371173      -282.2140
  22   2.0000     -10.370040      -282.1831
  23   2.0000     -10.360441      -281.9219
  24   2.0000     -10.346585      -281.5449
  25   2.0000     -10.346369      -281.5390
  26   2.0000     -10.342864      -281.4436
  27   2.0000     -10.341949      -281.4187
  28   2.0000     -10.339042      -281.3396
  29   2.0000     -10.329235      -281.0728
  30   2.0000     -10.326679      -281.0032
  31   2.0000     -10.322130      -280.8794
  32   2.0000     -10.318318      -280.7757
  33   2.0000     -10.316808      -280.7346
  34   2.0000     -10.316640      -280.7300
  35   2.0000     -10.312389      -280.6144
  36   2.0000     -10.311801      -280.5984
  37   2.0000     -10.311772      -280.5976
  38   2.0000     -10.311058      -280.5782
  39   2.0000     -10.309802      -280.5440
  40   2.0000     -10.308901      -280.5194
  41   2.0000     -10.308602      -280.5113
  42   2.0000     -10.306978      -280.4671
  43   2.0000     -10.306460      -280.4530
  44   2.0000     -10.305917      -280.4383
  45   2.0000     -10.304771      -280.4071
  46   2.0000     -10.301793      -280.3260
  47   2.0000     -10.299448      -280.2622
  48   2.0000     -10.298906      -280.2475
  49   2.0000     -10.297988      -280.2225
  50   2.0000     -10.292906      -280.0842
  51   2.0000     -10.292612      -280.0762
  52   2.0000     -10.292041      -280.0607
  53   2.0000     -10.291856      -280.0556
  54   2.0000     -10.291140      -280.0362
  55   2.0000     -10.290051      -280.0065
  56   2.0000     -10.289586      -279.9939
  57   2.0000     -10.288734      -279.9707
  58   2.0000     -10.288518      -279.9648
  59   2.0000     -10.287014      -279.9239
  60   2.0000     -10.285841      -279.8920
  61   2.0000     -10.285831      -279.8917
  62   2.0000     -10.283938      -279.8402
  63   2.0000     -10.282929      -279.8127
  64   2.0000     -10.282399      -279.7983
  65   2.0000     -10.282296      -279.7955
  66   2.0000     -10.281586      -279.7762
  67   2.0000     -10.278627      -279.6956
  68   2.0000     -10.278003      -279.6787
  69   2.0000     -10.277571      -279.6669
  70   2.0000     -10.277192      -279.6566
  71   2.0000     -10.277047      -279.6527
  72   2.0000     -10.276258      -279.6312
  73   2.0000     -10.275212      -279.6027
  74   2.0000     -10.273634      -279.5598
  75   2.0000     -10.270449      -279.4731
  76   2.0000     -10.268777      -279.4276
  77   2.0000     -10.257360      -279.1169
  78   2.0000     -10.253416      -279.0096
  79   2.0000      -8.794178      -239.3017
  80   2.0000      -8.077383      -219.7968
  81   2.0000      -8.072640      -219.6677
  82   2.0000      -8.044316      -218.8970
  83   2.0000      -8.039050      -218.7537
  84   2.0000      -6.630447      -180.4236
  85   2.0000      -6.615930      -180.0286
  86   2.0000      -6.615715      -180.0228
  87   2.0000      -6.047102      -164.5500
  88   2.0000      -6.042718      -164.4307
  89   2.0000      -6.042333      -164.4202
  90   2.0000      -6.038609      -164.3189
  91   2.0000      -6.038055      -164.3038
  92   2.0000      -6.033865      -164.1898
  93   2.0000      -6.014053      -163.6507
  94   2.0000      -6.009941      -163.5388
  95   2.0000      -6.008877      -163.5099
  96   2.0000      -6.005285      -163.4121
  97   2.0000      -6.004701      -163.3962
  98   2.0000      -5.999852      -163.2643
  99   2.0000      -2.746366       -74.7324
 100   2.0000      -2.742232       -74.6199
 101   2.0000      -2.742081       -74.6158
 102   2.0000      -2.730526       -74.3014
 103   2.0000      -2.730522       -74.3013
 104   2.0000      -1.314886       -35.7799
 105   2.0000      -1.276035       -34.7227
 106   2.0000      -1.166049       -31.7298
 107   2.0000      -1.142137       -31.0791
 108   2.0000      -1.134967       -30.8840
 109   2.0000      -1.133321       -30.8392
 110   2.0000      -1.087178       -29.5836
 111   2.0000      -1.024218       -27.8704
 112   2.0000      -1.015187       -27.6246
 113   2.0000      -1.001651       -27.2563
 114   2.0000      -0.998138       -27.1607
 115   2.0000      -0.997275       -27.1372
 116   2.0000      -0.995444       -27.0874
 117   2.0000      -0.990299       -26.9474
 118   2.0000      -0.986092       -26.8329
 119   2.0000      -0.978131       -26.6163
 120   2.0000      -0.972105       -26.4523
 121   2.0000      -0.957563       -26.0566
 122   2.0000      -0.943546       -25.6752
 123   2.0000      -0.929024       -25.2800
 124   2.0000      -0.920016       -25.0349
 125   2.0000      -0.909493       -24.7486
 126   2.0000      -0.905088       -24.6287
 127   2.0000      -0.901828       -24.5400
 128   2.0000      -0.898363       -24.4457
 129   2.0000      -0.890826       -24.2406
 130   2.0000      -0.886931       -24.1346
 131   2.0000      -0.884201       -24.0603
 132   2.0000      -0.876127       -23.8406
 133   2.0000      -0.864583       -23.5265
 134   2.0000      -0.856526       -23.3072
 135   2.0000      -0.846028       -23.0216
 136   2.0000      -0.843121       -22.9425
 137   2.0000      -0.840560       -22.8728
 138   2.0000      -0.839952       -22.8563
 139   2.0000      -0.836009       -22.7490
 140   2.0000      -0.830070       -22.5874
 141   2.0000      -0.828038       -22.5321
 142   2.0000      -0.820876       -22.3372
 143   2.0000      -0.813419       -22.1342
 144   2.0000      -0.808383       -21.9972
 145   2.0000      -0.791259       -21.5312
 146   2.0000      -0.781640       -21.2695
 147   2.0000      -0.772771       -21.0282
 148   2.0000      -0.771832       -21.0026
 149   2.0000      -0.762307       -20.7434
 150   2.0000      -0.759683       -20.6720
 151   2.0000      -0.742178       -20.1957
 152   2.0000      -0.739964       -20.1354
 153   2.0000      -0.720037       -19.5932
 154   2.0000      -0.714978       -19.4555
 155   2.0000      -0.712391       -19.3851
 156   2.0000      -0.709306       -19.3012
 157   2.0000      -0.700077       -19.0501
 158   2.0000      -0.697756       -18.9869
 159   2.0000      -0.693459       -18.8700
 160   2.0000      -0.691960       -18.8292
 161   2.0000      -0.685486       -18.6530
 162   2.0000      -0.678760       -18.4700
 163   2.0000      -0.671100       -18.2616
 164   2.0000      -0.669376       -18.2146
 165   2.0000      -0.664515       -18.0824
 166   2.0000      -0.661196       -17.9921
 167   2.0000      -0.656821       -17.8730
 168   2.0000      -0.642113       -17.4728
 169   2.0000      -0.639439       -17.4000
 170   2.0000      -0.637544       -17.3485
 171   2.0000      -0.632571       -17.2131
 172   2.0000      -0.628015       -17.0892
 173   2.0000      -0.626836       -17.0571
 174   2.0000      -0.624553       -16.9950
 175   2.0000      -0.623864       -16.9762
 176   2.0000      -0.619274       -16.8513
 177   2.0000      -0.610845       -16.6219
 178   2.0000      -0.601109       -16.3570
 179   2.0000      -0.600931       -16.3522
 180   2.0000      -0.599928       -16.3249
 181   2.0000      -0.593908       -16.1611
 182   2.0000      -0.592890       -16.1334
 183   2.0000      -0.590011       -16.0550
 184   2.0000      -0.585581       -15.9345
 185   2.0000      -0.582839       -15.8599
 186   2.0000      -0.579987       -15.7823
 187   2.0000      -0.577552       -15.7160
 188   2.0000      -0.566473       -15.4145
 189   2.0000      -0.562374       -15.3030
 190   2.0000      -0.560183       -15.2433
 191   2.0000      -0.558213       -15.1897
 192   2.0000      -0.552484       -15.0339
 193   2.0000      -0.549774       -14.9601
 194   2.0000      -0.547740       -14.9048
 195   2.0000      -0.544296       -14.8110
 196   2.0000      -0.542670       -14.7668
 197   2.0000      -0.541751       -14.7418
 198   2.0000      -0.540493       -14.7076
 199   2.0000      -0.539159       -14.6713
 200   2.0000      -0.537420       -14.6239
 201   2.0000      -0.534075       -14.5329
 202   2.0000      -0.530407       -14.4331
 203   2.0000      -0.526870       -14.3369
 204   2.0000      -0.526076       -14.3153
 205   2.0000      -0.524805       -14.2807
 206   2.0000      -0.520950       -14.1758
 207   2.0000      -0.520087       -14.1523
 208   2.0000      -0.516035       -14.0420
 209   2.0000      -0.512041       -13.9333
 210   2.0000      -0.510240       -13.8843
 211   2.0000      -0.508776       -13.8445
 212   2.0000      -0.506085       -13.7713
 213   2.0000      -0.503615       -13.7041
 214   2.0000      -0.498887       -13.5754
 215   2.0000      -0.498688       -13.5700
 216   2.0000      -0.496330       -13.5058
 217   2.0000      -0.494566       -13.4578
 218   2.0000      -0.492530       -13.4024
 219   2.0000      -0.491213       -13.3666
 220   2.0000      -0.488059       -13.2808
 221   2.0000      -0.487025       -13.2526
 222   2.0000      -0.480246       -13.0682
 223   2.0000      -0.479626       -13.0513
 224   2.0000      -0.477528       -12.9942
 225   2.0000      -0.474311       -12.9067
 226   2.0000      -0.472446       -12.8559
 227   2.0000      -0.471945       -12.8423
 228   2.0000      -0.463955       -12.6249
 229   2.0000      -0.462314       -12.5802
 230   2.0000      -0.461455       -12.5568
 231   2.0000      -0.458928       -12.4881
 232   2.0000      -0.457067       -12.4374
 233   2.0000      -0.455532       -12.3957
 234   2.0000      -0.454181       -12.3589
 235   2.0000      -0.452614       -12.3163
 236   2.0000      -0.450365       -12.2551
 237   2.0000      -0.448699       -12.2097
 238   2.0000      -0.446518       -12.1504
 239   2.0000      -0.444483       -12.0950
 240   2.0000      -0.441959       -12.0263
 241   2.0000      -0.440458       -11.9855
 242   2.0000      -0.439678       -11.9642
 243   2.0000      -0.433904       -11.8071
 244   2.0000      -0.433419       -11.7939
 245   2.0000      -0.431583       -11.7440
 246   2.0000      -0.429067       -11.6755
 247   2.0000      -0.428194       -11.6518
 248   2.0000      -0.422287       -11.4910
 249   2.0000      -0.421674       -11.4743
 250   2.0000      -0.420535       -11.4433
 251   2.0000      -0.418159       -11.3787
 252   2.0000      -0.416503       -11.3336
 253   2.0000      -0.408695       -11.1211
 254   2.0000      -0.406544       -11.0626
 255   2.0000      -0.406344       -11.0572
 256   2.0000      -0.403035       -10.9671
 257   2.0000      -0.396112       -10.7788
 258   2.0000      -0.395679       -10.7670
 259   2.0000      -0.391538       -10.6543
 260   2.0000      -0.391195       -10.6450
 261   2.0000      -0.388140       -10.5618
 262   2.0000      -0.386320       -10.5123
 263   2.0000      -0.385019       -10.4769
 264   2.0000      -0.382187       -10.3998
 265   2.0000      -0.378671       -10.3042
 266   2.0000      -0.376297       -10.2396
 267   2.0000      -0.374391       -10.1877
 268   2.0000      -0.372687       -10.1413
 269   2.0000      -0.371776       -10.1165
 270   2.0000      -0.370775       -10.0893
 271   2.0000      -0.364192        -9.9102
 272   2.0000      -0.353055        -9.6071
 273   2.0000      -0.346407        -9.4262
 274   2.0000      -0.341571        -9.2946
 275   2.0000      -0.338898        -9.2219
 276   2.0000      -0.330792        -9.0013
 277   2.0000      -0.328541        -8.9401
 278   2.0000      -0.323338        -8.7985
 279   2.0000      -0.320864        -8.7312
 280   2.0000      -0.316766        -8.6197
 281   2.0000      -0.306399        -8.3375
 282   2.0000      -0.297702        -8.1009
 283   2.0000      -0.295094        -8.0299
 284   2.0000      -0.289587        -7.8801
 285   2.0000      -0.275868        -7.5068
 286   2.0000      -0.254953        -6.9376
 287   2.0000      -0.220394        -5.9972
 288   0.0000      -0.091828        -2.4988
 289   0.0000      -0.081680        -2.2226
 290   0.0000      -0.062944        -1.7128
 291   0.0000      -0.055827        -1.5191
 292   0.0000      -0.032470        -0.8836

MULLIKEN ATOMIC CHARGES
-----------------------
   0 C :    0.319393
   1 C :   -0.369373
   2 C :   -0.186782
   3 N :    0.150195
   4 C :   -0.188054
   5 N :    0.148381
   6 C :    0.009777
   7 C :   -0.002879
   8 C :   -0.077135
   9 C :    0.121570
  10 C :   -0.091534
  11 C :   -0.020979
  12 S :    0.187523
  13 C :   -0.122907
  14 C :    0.038352
  15 Br:    0.024615
  16 C :    0.152934
  17 O :   -0.152550
  18 C :   -0.043239
  19 C :   -0.022305
  20 C :    0.076874
  21 C :   -0.113683
  22 C :    0.030244
  23 C :    0.124189
  24 C :   -0.062801
  25 C :    0.004930
  26 C :    0.088893
  27 C :    0.024330
  28 C :   -0.131862
  29 C :    0.075819
  30 C :    0.028803
  31 C :    0.045745
  32 C :    0.020123
  33 C :   -0.098520
  34 C :    0.127154
  35 C :   -0.028393
  36 C :   -0.038797
  37 C :   -0.035664
  38 C :    0.065058
  39 N :   -0.030971
  40 C :   -0.119583
  41 S :    0.160366
  42 C :   -0.012101
  43 N :    0.296898
  44 O :   -0.271717
  45 O :   -0.267841
  46 C :   -0.002359
  47 C :    0.102984
  48 C :   -0.065540
  49 C :   -0.005432
  50 C :   -0.018329
  51 C :   -0.021287
  52 C :    0.040356
  53 C :    0.033561
  54 C :   -0.042054
  55 S :    0.050912
  56 C :   -0.039759
  57 C :    0.032274
  58 C :    0.047926
  59 C :   -0.044836
  60 S :    0.084842
  61 C :   -0.069042
  62 C :    0.041807
  63 C :    0.052857
  64 O :   -0.306832
  65 C :    0.187615
  66 C :    0.252933
  67 O :   -0.287165
  68 C :    0.164442
  69 C :   -0.204267
  70 C :    0.027066
  71 C :   -0.067109
  72 N :    0.041883
  73 O :   -0.124052
  74 N :    0.044172
  75 H :   -0.010403
  76 H :   -0.006128
  77 H :   -0.003073
  78 H :   -0.007932
  79 H :   -0.008691
  80 H :   -0.030956
  81 H :   -0.003777
  82 H :    0.004256
  83 H :   -0.000095
  84 H :    0.024023
  85 H :    0.015572
  86 H :    0.009846
  87 H :    0.011105
  88 H :    0.000416
  89 H :    0.020972
  90 H :    0.008207
  91 H :    0.024000
  92 H :   -0.047198
  93 H :   -0.030048
  94 H :   -0.031661
  95 H :   -0.029254
  96 H :    0.047995
  97 H :    0.133200
  98 H :    0.020806
  99 H :    0.011770
 100 H :    0.008928
 101 H :   -0.013268
 102 H :   -0.016513
 103 H :   -0.010096
 104 H :   -0.012222
 105 H :   -0.005933
 106 H :    0.008701
 107 H :    0.035816
 108 H :    0.027609
 109 H :    0.036599
 110 H :    0.021485
 111 H :    0.056831
 112 H :    0.024965
 113 H :   -0.025924
Sum of atomic charges:   -0.0000000

LOEWDIN ATOMIC CHARGES
----------------------
   0 C :    0.080709
   1 C :   -0.145400
   2 C :   -0.017394
   3 N :   -0.056014
   4 C :   -0.023464
   5 N :   -0.057563
   6 C :   -0.022705
   7 C :   -0.049560
   8 C :    0.021566
   9 C :   -0.032062
  10 C :   -0.143633
  11 C :   -0.009364
  12 S :    0.432746
  13 C :   -0.270838
  14 C :   -0.070730
  15 Br:    0.137463
  16 C :    0.088629
  17 O :   -0.138665
  18 C :   -0.101290
  19 C :    0.083510
  20 C :   -0.049863
  21 C :    0.004854
  22 C :   -0.007100
  23 C :    0.015115
  24 C :   -0.025878
  25 C :    0.018818
  26 C :   -0.031166
  27 C :    0.016206
  28 C :   -0.033840
  29 C :   -0.009530
  30 C :   -0.057684
  31 C :   -0.017164
  32 C :   -0.058524
  33 C :   -0.028002
  34 C :   -0.009756
  35 C :   -0.027160
  36 C :   -0.008301
  37 C :   -0.074982
  38 C :    0.036171
  39 N :    0.029990
  40 C :   -0.099716
  41 S :    0.440705
  42 C :   -0.217625
  43 N :    0.280025
  44 O :   -0.231609
  45 O :   -0.233204
  46 C :    0.011866
  47 C :   -0.105060
  48 C :   -0.043528
  49 C :   -0.043776
  50 C :   -0.071229
  51 C :   -0.139501
  52 C :   -0.031961
  53 C :   -0.032872
  54 C :   -0.179623
  55 S :    0.385951
  56 C :   -0.175178
  57 C :   -0.035463
  58 C :   -0.024077
  59 C :   -0.145689
  60 S :    0.403495
  61 C :   -0.048801
  62 C :   -0.080517
  63 C :    0.035024
  64 O :   -0.091567
  65 C :    0.076673
  66 C :    0.059454
  67 O :   -0.076980
  68 C :    0.078921
  69 C :   -0.097576
  70 C :   -0.057470
  71 C :   -0.054931
  72 N :   -0.039409
  73 O :    0.051494
  74 N :   -0.040033
  75 H :    0.040615
  76 H :    0.040936
  77 H :    0.038911
  78 H :    0.044144
  79 H :    0.031755
  80 H :    0.029145
  81 H :    0.028464
  82 H :    0.026320
  83 H :    0.020958
  84 H :    0.025553
  85 H :    0.029628
  86 H :    0.022480
  87 H :    0.022375
  88 H :    0.020176
  89 H :    0.026960
  90 H :    0.020956
  91 H :    0.023783
  92 H :    0.023532
  93 H :    0.025578
  94 H :    0.028773
  95 H :    0.024389
  96 H :    0.036322
  97 H :    0.091162
  98 H :    0.049425
  99 H :    0.013190
 100 H :    0.031149
 101 H :    0.034053
 102 H :    0.032863
 103 H :    0.033611
 104 H :    0.032537
 105 H :    0.035641
 106 H :    0.040066
 107 H :    0.026200
 108 H :    0.019573
 109 H :    0.010811
 110 H :    0.016223
 111 H :    0.031281
 112 H :    0.018074
 113 H :    0.038035

  Mayer bond orders larger than 0.100000
B(  0-C ,  1-C ) :   1.6119 B(  0-C ,  6-C ) :   0.9955 B(  0-C , 18-C ) :   1.0824
B(  1-C ,  2-C ) :   1.1507 B(  1-C ,  4-C ) :   1.1393 B(  2-C ,  3-N ) :   2.9673
B(  4-C ,  5-N ) :   2.9778 B(  6-C ,  7-C ) :   1.2775 B(  6-C , 11-C ) :   1.4057
B(  7-C ,  8-C ) :   1.4192 B(  7-C , 16-C ) :   0.9567 B(  8-C ,  9-C ) :   1.2450
B(  8-C , 75-H ) :   1.0172 B(  9-C , 10-C ) :   1.3032 B(  9-C , 14-C ) :   1.1621
B( 10-C , 11-C ) :   1.3347 B( 10-C , 12-S ) :   1.0866 B( 11-C , 76-H ) :   0.9786
B( 12-S , 13-C ) :   1.0860 B( 13-C , 14-C ) :   1.6192 B( 13-C , 15-Br) :   1.0204
B( 14-C , 77-H ) :   0.9996 B( 16-C , 17-O ) :   2.1649 B( 16-C , 18-C ) :   0.9254
B( 17-O , 81-H ) :   0.1046 B( 18-C , 19-C ) :   1.5324 B( 19-C , 20-C ) :   1.1673
B( 19-C , 78-H ) :   0.9333 B( 20-C , 21-C ) :   1.2211 B( 20-C , 25-C ) :   1.3269
B( 21-C , 22-C ) :   1.3972 B( 21-C , 79-H ) :   1.0075 B( 22-C , 23-C ) :   1.3616
B( 22-C , 28-C ) :   0.9165 B( 23-C , 24-C ) :   1.3135 B( 23-C , 26-C ) :   1.0048
B( 24-C , 25-C ) :   1.3962 B( 24-C , 80-H ) :   0.9959 B( 25-C , 81-H ) :   0.9659
B( 26-C , 27-C ) :   1.3606 B( 26-C , 36-C ) :   1.3341 B( 27-C , 28-C ) :   0.9250
B( 27-C , 33-C ) :   1.4161 B( 28-C , 29-C ) :   1.0144 B( 28-C , 31-C ) :   1.0331
B( 29-C , 30-C ) :   1.1137 B( 29-C , 82-H ) :   0.9378 B( 29-C , 83-H ) :   0.9366
B( 30-C , 84-H ) :   0.9615 B( 30-C , 85-H ) :   0.9587 B( 30-C , 86-H ) :   0.9640
B( 31-C , 32-C ) :   1.1059 B( 31-C , 87-H ) :   0.9362 B( 31-C , 88-H ) :   0.9358
B( 32-C , 89-H ) :   0.9608 B( 32-C , 90-H ) :   0.9647 B( 32-C , 91-H ) :   0.9591
B( 33-C , 34-C ) :   1.3010 B( 33-C , 92-H ) :   0.9935 B( 34-C , 35-C ) :   1.3371
B( 34-C , 37-C ) :   1.0853 B( 35-C , 36-C ) :   1.3828 B( 35-C , 93-H ) :   0.9943
B( 36-C , 94-H ) :   0.9913 B( 37-C , 38-C ) :   1.7096 B( 37-C , 95-H ) :   0.9735
B( 38-C , 39-N ) :   1.1112 B( 38-C , 96-H ) :   0.9514 B( 39-N , 40-C ) :   1.1922
B( 39-N , 97-H ) :   0.9125 B( 40-C , 41-S ) :   1.1361 B( 40-C , 47-C ) :   1.3656
B( 41-S , 42-C ) :   1.0691 B( 42-C , 43-N ) :   0.9908 B( 42-C , 46-C ) :   1.4638
B( 43-N , 44-O ) :   1.4792 B( 43-N , 45-O ) :   1.5092 B( 44-O , 45-O ) :   0.2481
B( 46-C , 47-C ) :   1.2330 B( 46-C , 98-H ) :   1.0081 B( 47-C , 48-C ) :   1.0946
B( 48-C , 49-C ) :   1.6665 B( 48-C , 99-H ) :   0.9378 B( 49-C , 50-C ) :   1.1763
B( 49-C ,100-H ) :   0.9574 B( 50-C , 51-C ) :   1.6009 B( 50-C ,101-H ) :   0.9578
B( 51-C , 52-C ) :   1.1336 B( 51-C , 55-S ) :   1.0380 B( 52-C , 53-C ) :   1.6060
B( 52-C ,102-H ) :   0.9972 B( 53-C , 54-C ) :   1.1729 B( 53-C ,103-H ) :   0.9948
B( 54-C , 55-S ) :   1.0343 B( 54-C , 56-C ) :   1.5347 B( 56-C , 57-C ) :   1.1627
B( 56-C , 60-S ) :   1.0405 B( 57-C , 58-C ) :   1.6196 B( 57-C ,104-H ) :   0.9959
B( 58-C , 59-C ) :   1.1144 B( 58-C ,105-H ) :   0.9990 B( 59-C , 60-S ) :   1.0481
B( 59-C , 61-C ) :   1.6170 B( 61-C , 62-C ) :   1.0894 B( 61-C ,106-H ) :   0.9650
B( 62-C , 63-C ) :   1.4452 B( 62-C , 71-C ) :   1.1054 B( 63-C , 64-O ) :   1.1934
B( 63-C , 66-C ) :   1.1327 B( 64-O , 65-C ) :   0.9344 B( 65-C ,107-H ) :   0.9795
B( 65-C ,108-H ) :   0.9649 B( 65-C ,109-H ) :   0.9629 B( 66-C , 67-O ) :   1.2290
B( 66-C , 69-C ) :   1.4448 B( 67-O , 68-C ) :   0.9413 B( 68-C ,110-H ) :   0.9682
B( 68-C ,111-H ) :   0.9690 B( 68-C ,112-H ) :   0.9672 B( 69-C , 70-C ) :   1.0917
B( 69-C ,113-H ) :   1.0447 B( 70-C , 71-C ) :   1.1450 B( 70-C , 74-N ) :   1.6282
B( 71-C , 72-N ) :   1.6647 B( 72-N , 73-O ) :   1.0452 B( 72-N , 74-N ) :   0.1707
B( 73-O , 74-N ) :   1.0448

-----------------------------------------------------------------------------
         ABSORPTION SPECTRUM VIA TRANSITION ELECTRIC DIPOLE MOMENTS
-----------------------------------------------------------------------------
State   Energy  Wavelength   fosc         T2         TX        TY        TZ
        (cm-1)    (nm)                  (au**2)     (au)      (au)      (au)
-----------------------------------------------------------------------------
   0   15645.1    639.2   1.027987558  21.63138   2.27546   0.87704   3.96036
   1   18682.1    535.3   0.146811824   2.58709   0.42180  -1.54074  -0.18788
   2   21349.0    468.4   0.074201293   1.14422   0.14229   0.64236   0.84341
   3   21914.5    456.3   0.989440591  14.86391  -0.85510   3.69146   0.71121
   4   23829.0    419.7   0.249264105   3.44373   0.76791  -1.60460  -0.52850
   5   24727.0    404.4   0.254688071   3.39089   1.12465  -1.42649  -0.30198
   6   26447.9    378.1   0.004968403   0.06184  -0.06369  -0.21852  -0.10018
   7   27640.4    361.8   0.619334965   7.37662   0.18876  -1.77674  -2.04553
   8   28000.3    357.1   0.201700728   2.37149  -1.06006   0.66699  -0.89603
   9   28203.4    354.6   0.725525262   8.46889   1.26700  -2.30212  -1.25055
  10   29076.4    343.9   0.029854734   0.33802   0.17491  -0.04785   0.55240
  11   29286.0    341.5   0.057963817   0.65159  -0.05555   0.73144   0.33689
  12   29749.6    336.1   0.193353718   2.13967   0.06467  -1.14741  -0.90495
  13   30183.6    331.3   0.108292321   1.18114  -0.08807   0.89223   0.61426
  14   30350.4    329.5   0.042490053   0.46089   0.52805   0.10734   0.41296
  15   30509.0    327.8   0.037878681   0.40874  -0.00110  -0.32916  -0.54807
  16   31416.3    318.3   0.044062062   0.46173   0.19414   0.45342  -0.46738
  17   32366.8    309.0   0.018713200   0.19034   0.19454   0.11354   0.37363
  18   32594.5    306.8   0.101428966   1.02446   0.51888  -0.75764  -0.42568
  19   32817.9    304.7   0.050298450   0.50457   0.07193  -0.55212  -0.44109
  20   32874.6    304.2   0.013621580   0.13641  -0.17564   0.21800   0.24091
  21   33407.0    299.3   0.032000134   0.31535   0.34461  -0.33016  -0.29595
  22   33865.1    295.3   0.621639643   6.04312  -0.57903  -0.79281  -2.25373
  23   34143.2    292.9   0.037394444   0.36056   0.22544  -0.33575   0.44386
  24   34750.5    287.8   0.083930637   0.79512   0.39131  -0.78696  -0.15064
  25   35104.3    284.9   0.014494552   0.13593   0.29175  -0.22504   0.01305
  26   35537.8    281.4   0.016845094   0.15605  -0.19882   0.32900  -0.09099
  27   35755.0    279.7   0.073596857   0.67764  -0.64026   0.48049   0.19190
  28   36179.0    276.4   0.020411984   0.18574  -0.04304   0.42761   0.03220
  29   36717.9    272.3   0.042922211   0.38484  -0.03280  -0.39441  -0.47771
  30   37541.9    266.4   0.031076749   0.27252   0.15372  -0.03335   0.49777
  31   37696.3    265.3   0.004208902   0.03676   0.05966  -0.14070   0.11576
  32   38002.5    263.1   0.367930929   3.18735  -0.18264   1.24159   1.26983
  33   38082.4    262.6   0.072076098   0.62308   0.12073   0.30293   0.71884
  34   38113.0    262.4   0.048298101   0.41719   0.26367  -0.50019   0.31221
  35   38299.8    261.1   0.015773548   0.13558  -0.27303   0.24699   0.00577
  36   38815.9    257.6   0.011315347   0.09597  -0.00831  -0.19975  -0.23665
  37   39001.8    256.4   0.120716624   1.01896   0.47638  -0.81794   0.35070
  38   39337.0    254.2   0.191009497   1.59856  -0.30884   1.20007   0.25103
  39   39396.6    253.8   0.114269769   0.95488  -0.38269   0.80650   0.39747
  40   39618.0    252.4   0.017714153   0.14720   0.04583  -0.38027   0.02222
  41   39796.4    251.3   0.002266778   0.01875  -0.02139   0.10397  -0.08651
  42   40024.0    249.9   0.084336432   0.69370  -0.32545   0.28964  -0.70985
  43   40088.4    249.4   0.011145803   0.09153  -0.05503  -0.02619   0.29634

FINAL SINGLE POINT ENERGY     -7175.676000185438

DIPOLE MOMENT
-------------
                                X             Y             Z
Electronic contribution:      6.10743    -168.67716    -125.26693
Nuclear contribution   :     -7.77563     167.66673     121.46219
                        -----------------------------------------
Total Dipole Moment    :     -1.66820      -1.01043      -3.80474
                        -----------------------------------------
Magnitude (a.u.)       :      4.27550
Magnitude (Debye)      :     10.86747

Rotational constants in cm-1:     0.001351     0.000192     0.000172
Rotational constants in MHz :    40.504641     5.762260     5.148756

                             ****ORCA TERMINATED NORMALLY****
TOTAL RUN TIME: 0 days 0 hours 19 minutes 13 seconds 314 msec
