                         Program Version 4.2.0 -  RELEASE  -
|  1> # ORCA input file
|  2> # SCF done       -195.093005507082          0.000577997417
|  3> ! CAM-B3LYP def2-SVP def2/J RIJCOSX Grid4 TightSCF
|  4> %maxcore 5000
|  5> %tddft
|  6>     Mode sTDDFT
|  7>     Ethresh 5.0
|  8>     maxcore 5000
|  9> end
| 10>
| 11> %pal
| 12>   nprocs 6
| 13>   end
| 14> * xyz 0 1
| 15>    C       -4.76149        -2.21245        -0.80254
| 16>    C       -4.20223        -2.04337         0.43904
| 17>    C       -3.53573        -3.06393         1.15081
| 18>    N       -2.97800        -3.83921         1.78835
| 19>    C       -4.19585        -0.87058         1.22468
| 20>    N       -4.13301         0.01424         1.95610
| 21>    C       -4.76186        -3.47298        -1.53552
| 22>    C       -5.48384        -3.29298        -2.73709
| 23>    C       -5.67426        -4.29984        -3.65178
| 24>    C       -5.11988        -5.55146        -3.36720
| 25>    C       -4.39465        -5.72375        -2.16451
| 26>    C       -4.20493        -4.70460        -1.24015
| 27>    S       -3.79080        -7.34654        -2.00968
| 28>    C       -4.51322        -7.76456        -3.54062
| 29>    C       -5.17162        -6.74429        -4.13945
| 30>   Br       -4.32823        -9.50905        -4.20495
| 31>    C       -5.96664        -1.90048        -2.82450
| 32>    O       -6.63097        -1.46096        -3.74048
| 33>    C       -5.47159        -1.21989        -1.60523
| 34>    C       -5.56461         0.08881        -1.21757
| 35>    C       -6.17183         1.26700        -1.74966
| 36>    C       -5.98501         2.44839        -0.99255
| 37>    C       -6.53189         3.62785        -1.41675
| 38>    C       -7.28440         3.67981        -2.60830
| 39>    C       -7.47904         2.52737        -3.36115
| 40>    C       -6.92918         1.33860        -2.93309
| 41>    C       -7.73376         5.03464        -2.80846
| 42>    C       -7.26689         5.82600        -1.74087
| 43>    C       -6.45845         4.99281        -0.77416
| 44>    C       -7.08718         4.98791         0.63170
| 45>    C       -8.53749         4.52017         0.62976
| 46>    C       -5.00356         5.49163        -0.68583
| 47>    C       -4.30491         5.52464        -2.03988
| 48>    C       -7.55747         7.16471        -1.67842
| 49>    C       -8.32574         7.75724        -2.69590
| 50>    C       -8.77130         6.95407        -3.76091
| 51>    C       -8.49043         5.60715        -3.82460
| 52>    C       -8.67388         9.15261        -2.70116
| 53>    C       -8.46195        10.02387        -1.68793
| 54>    C       -8.81440        11.40501        -1.69401
| 55>    C       -8.59370        12.17989        -0.53337
| 56>    C       -8.93770        13.58247        -0.44571
| 57>    N       -8.72428        14.24416         0.68422
| 58>    C       -8.19060        13.63356         1.73023
| 59>    C       -7.83422        12.25597         1.63320
| 60>    N       -8.03987        11.57358         0.53369
| 61>    C       -7.24373        11.60281         2.74463
| 62>    N       -6.76765        11.10191         3.65843
| 63>    C       -7.97532        14.33704         2.93223
| 64>    N       -7.77525        14.85048         3.94018
| 65>    C       -9.50727        14.28550        -1.54669
| 66>    C       -9.71183        13.49719        -2.71904
| 67>    C       -9.38348        12.09607        -2.79367
| 68>    N       -9.67578        11.59076        -3.99098
| 69>    S      -10.29601        12.75122        -4.92356
| 70>    N      -10.22601        13.95462        -3.85409
| 71>    C       -9.87498        15.63093        -1.58608
| 72>    C       -9.83141        16.64178        -0.63922
| 73>    C      -10.27533        17.95537        -0.91700
| 74>    C      -10.17846        18.82729         0.13202
| 75>    C       -9.65123        18.22757         1.28523
| 76>    S       -9.27373        16.53813         1.00706
| 77>    C       -9.41575        18.77818         2.53907
| 78>    C       -9.64078        20.09377         2.99585
| 79>    C       -9.30080        20.28526         4.30309
| 80>    C       -8.78937        19.12899         4.94133
| 81>    S       -8.75676        17.78656         3.80586
| 82>    C       -8.36448        18.99821         6.23913
| 83>    C       -7.87849        17.77937         6.76114
| 84>    C       -7.46717        17.53044         8.02873
| 85>    C       -7.39835        18.53398         9.12781
| 86>    C       -6.90380        16.17293         8.35972
| 87>    N       -5.45672        16.22473         8.27560
| 88>    C       -4.70599        16.70738         9.31496
| 89>    C       -3.51647        17.29362         9.19364
| 90>    H       -6.23329        -4.12548        -4.55778
| 91>    H       -3.64239        -4.89130        -0.34135
| 92>    H       -5.67350        -6.82699        -5.08617
| 93>    H       -5.05436         0.29964        -0.28474
| 94>    H       -5.40908         2.40659        -0.07869
| 95>    H       -8.05648         2.55893        -4.27282
| 96>    H       -7.08055         0.44621        -3.51537
| 97>    H       -7.03351         5.99823         1.04181
| 98>    H       -6.49629         4.33426         1.27624
| 99>    H       -9.15141         5.17108         0.01091
|100>    H       -8.93428         4.53389         1.64207
|101>    H       -8.61555         3.50591         0.24394
|102>    H       -4.45108         4.83791        -0.00807
|103>    H       -5.00484         6.49472        -0.25501
|104>    H       -4.26984         4.53071        -2.48082
|105>    H       -3.28536         5.88507        -1.92480
|106>    H       -4.82787         6.18627        -2.72705
|107>    H       -7.19073         7.76326        -0.85934
|108>    H       -9.35708         7.41573        -4.54283
|109>    H       -8.84883         5.00802        -4.64838
|110>    H       -9.16222         9.51642        -3.59434
|111>    H       -8.00843         9.69608        -0.76355
|112>    H      -10.27744        15.93387        -2.54669
|113>    H      -10.65697        18.21954        -1.88798
|114>    H      -10.47305        19.86120         0.08957
|115>    H      -10.04495        20.85674         2.35469
|116>    H       -9.40182        21.21953         4.82718
|117>    H       -8.42151        19.87434         6.86961
|118>    H       -7.85684        16.95422         6.05785
|119>    H       -7.74568        19.51452         8.82079
|120>    H       -6.36769        18.62391         9.47748
|121>    H       -7.99898        18.19896         9.97399
|122>    H       -7.26073        15.42012         7.65274
|123>    H       -7.17446        15.86875         9.37381
|124>    H       -5.10896        16.46002         7.35510
|125>    H       -5.13051        16.51045        10.29149
|126>    H       -3.07922        17.48911         8.22956
|127>    H       -2.93546        17.56061        10.05554
|128> *
|129>
|130>                          ****END OF INPUT****

CARTESIAN COORDINATES (ANGSTROEM)
---------------------------------
  C     -4.761490   -2.212450   -0.802540
  C     -4.202230   -2.043370    0.439040
  C     -3.535730   -3.063930    1.150810
  N     -2.978000   -3.839210    1.788350
  C     -4.195850   -0.870580    1.224680
  N     -4.133010    0.014240    1.956100
  C     -4.761860   -3.472980   -1.535520
  C     -5.483840   -3.292980   -2.737090
  C     -5.674260   -4.299840   -3.651780
  C     -5.119880   -5.551460   -3.367200
  C     -4.394650   -5.723750   -2.164510
  C     -4.204930   -4.704600   -1.240150
  S     -3.790800   -7.346540   -2.009680
  C     -4.513220   -7.764560   -3.540620
  C     -5.171620   -6.744290   -4.139450
  Br    -4.328230   -9.509050   -4.204950
  C     -5.966640   -1.900480   -2.824500
  O     -6.630970   -1.460960   -3.740480
  C     -5.471590   -1.219890   -1.605230
  C     -5.564610    0.088810   -1.217570
  C     -6.171830    1.267000   -1.749660
  C     -5.985010    2.448390   -0.992550
  C     -6.531890    3.627850   -1.416750
  C     -7.284400    3.679810   -2.608300
  C     -7.479040    2.527370   -3.361150
  C     -6.929180    1.338600   -2.933090
  C     -7.733760    5.034640   -2.808460
  C     -7.266890    5.826000   -1.740870
  C     -6.458450    4.992810   -0.774160
  C     -7.087180    4.987910    0.631700
  C     -8.537490    4.520170    0.629760
  C     -5.003560    5.491630   -0.685830
  C     -4.304910    5.524640   -2.039880
  C     -7.557470    7.164710   -1.678420
  C     -8.325740    7.757240   -2.695900
  C     -8.771300    6.954070   -3.760910
  C     -8.490430    5.607150   -3.824600
  C     -8.673880    9.152610   -2.701160
  C     -8.461950   10.023870   -1.687930
  C     -8.814400   11.405010   -1.694010
  C     -8.593700   12.179890   -0.533370
  C     -8.937700   13.582470   -0.445710
  N     -8.724280   14.244160    0.684220
  C     -8.190600   13.633560    1.730230
  C     -7.834220   12.255970    1.633200
  N     -8.039870   11.573580    0.533690
  C     -7.243730   11.602810    2.744630
  N     -6.767650   11.101910    3.658430
  C     -7.975320   14.337040    2.932230
  N     -7.775250   14.850480    3.940180
  C     -9.507270   14.285500   -1.546690
  C     -9.711830   13.497190   -2.719040
  C     -9.383480   12.096070   -2.793670
  N     -9.675780   11.590760   -3.990980
  S    -10.296010   12.751220   -4.923560
  N    -10.226010   13.954620   -3.854090
  C     -9.874980   15.630930   -1.586080
  C     -9.831410   16.641780   -0.639220
  C    -10.275330   17.955370   -0.917000
  C    -10.178460   18.827290    0.132020
  C     -9.651230   18.227570    1.285230
  S     -9.273730   16.538130    1.007060
  C     -9.415750   18.778180    2.539070
  C     -9.640780   20.093770    2.995850
  C     -9.300800   20.285260    4.303090
  C     -8.789370   19.128990    4.941330
  S     -8.756760   17.786560    3.805860
  C     -8.364480   18.998210    6.239130
  C     -7.878490   17.779370    6.761140
  C     -7.467170   17.530440    8.028730
  C     -7.398350   18.533980    9.127810
  C     -6.903800   16.172930    8.359720
  N     -5.456720   16.224730    8.275600
  C     -4.705990   16.707380    9.314960
  C     -3.516470   17.293620    9.193640
  H     -6.233290   -4.125480   -4.557780
  H     -3.642390   -4.891300   -0.341350
  H     -5.673500   -6.826990   -5.086170
  H     -5.054360    0.299640   -0.284740
  H     -5.409080    2.406590   -0.078690
  H     -8.056480    2.558930   -4.272820
  H     -7.080550    0.446210   -3.515370
  H     -7.033510    5.998230    1.041810
  H     -6.496290    4.334260    1.276240
  H     -9.151410    5.171080    0.010910
  H     -8.934280    4.533890    1.642070
  H     -8.615550    3.505910    0.243940
  H     -4.451080    4.837910   -0.008070
  H     -5.004840    6.494720   -0.255010
  H     -4.269840    4.530710   -2.480820
  H     -3.285360    5.885070   -1.924800
  H     -4.827870    6.186270   -2.727050
  H     -7.190730    7.763260   -0.859340
  H     -9.357080    7.415730   -4.542830
  H     -8.848830    5.008020   -4.648380
  H     -9.162220    9.516420   -3.594340
  H     -8.008430    9.696080   -0.763550
  H    -10.277440   15.933870   -2.546690
  H    -10.656970   18.219540   -1.887980
  H    -10.473050   19.861200    0.089570
  H    -10.044950   20.856740    2.354690
  H     -9.401820   21.219530    4.827180
  H     -8.421510   19.874340    6.869610
  H     -7.856840   16.954220    6.057850
  H     -7.745680   19.514520    8.820790
  H     -6.367690   18.623910    9.477480
  H     -7.998980   18.198960    9.973990
  H     -7.260730   15.420120    7.652740
  H     -7.174460   15.868750    9.373810
  H     -5.108960   16.460020    7.355100
  H     -5.130510   16.510450   10.291490
  H     -3.079220   17.489110    8.229560
  H     -2.935460   17.560610   10.055540

 Total Charge           Charge          ....    0
 Multiplicity           Mult            ....    1
 Number of Electrons    NEL             ....  568
 Basis Dimension        Dim             .... 1274

ORBITAL ENERGIES
----------------

  NO   OCC          E(Eh)            E(eV)
   0   2.0000    -482.881164    -13139.8645
   1   2.0000     -89.020130     -2422.3609
   2   2.0000     -88.969960     -2420.9957
   3   2.0000     -88.959834     -2420.7201
   4   2.0000     -88.958736     -2420.6903
   5   2.0000     -62.558881     -1702.3137
   6   2.0000     -56.392829     -1534.5269
   7   2.0000     -56.390118     -1534.4531
   8   2.0000     -56.390084     -1534.4522
   9   2.0000     -19.210892      -522.7549
  10   2.0000     -14.451983      -393.2585
  11   2.0000     -14.439142      -392.9090
  12   2.0000     -14.436977      -392.8501
  13   2.0000     -14.431100      -392.6902
  14   2.0000     -14.419919      -392.3860
  15   2.0000     -14.417322      -392.3153
  16   2.0000     -14.416617      -392.2961
  17   2.0000     -14.409456      -392.1012
  18   2.0000     -14.406574      -392.0228
  19   2.0000     -10.365274      -282.0535
  20   2.0000     -10.362229      -281.9706
  21   2.0000     -10.354535      -281.7612
  22   2.0000     -10.353861      -281.7429
  23   2.0000     -10.334830      -281.2250
  24   2.0000     -10.334315      -281.2110
  25   2.0000     -10.333396      -281.1860
  26   2.0000     -10.333049      -281.1766
  27   2.0000     -10.327957      -281.0380
  28   2.0000     -10.324434      -280.9421
  29   2.0000     -10.322565      -280.8913
  30   2.0000     -10.322455      -280.8883
  31   2.0000     -10.319443      -280.8063
  32   2.0000     -10.318301      -280.7753
  33   2.0000     -10.316738      -280.7327
  34   2.0000     -10.313034      -280.6319
  35   2.0000     -10.311141      -280.5804
  36   2.0000     -10.310290      -280.5573
  37   2.0000     -10.307998      -280.4949
  38   2.0000     -10.307832      -280.4904
  39   2.0000     -10.307375      -280.4779
  40   2.0000     -10.307274      -280.4752
  41   2.0000     -10.305829      -280.4359
  42   2.0000     -10.303054      -280.3603
  43   2.0000     -10.301741      -280.3246
  44   2.0000     -10.301126      -280.3079
  45   2.0000     -10.300878      -280.3011
  46   2.0000     -10.300824      -280.2997
  47   2.0000     -10.298660      -280.2408
  48   2.0000     -10.296238      -280.1749
  49   2.0000     -10.296009      -280.1687
  50   2.0000     -10.294203      -280.1195
  51   2.0000     -10.291604      -280.0488
  52   2.0000     -10.289815      -280.0001
  53   2.0000     -10.287439      -279.9355
  54   2.0000     -10.286793      -279.9179
  55   2.0000     -10.284706      -279.8611
  56   2.0000     -10.280628      -279.7501
  57   2.0000     -10.280606      -279.7495
  58   2.0000     -10.280035      -279.7340
  59   2.0000     -10.278105      -279.6815
  60   2.0000     -10.276851      -279.6473
  61   2.0000     -10.274124      -279.5731
  62   2.0000     -10.270772      -279.4819
  63   2.0000     -10.270310      -279.4693
  64   2.0000     -10.266787      -279.3735
  65   2.0000     -10.266625      -279.3691
  66   2.0000     -10.264648      -279.3153
  67   2.0000     -10.264515      -279.3116
  68   2.0000     -10.264073      -279.2996
  69   2.0000     -10.262952      -279.2691
  70   2.0000     -10.261039      -279.2171
  71   2.0000     -10.259561      -279.1768
  72   2.0000     -10.259041      -279.1627
  73   2.0000     -10.254689      -279.0443
  74   2.0000     -10.253658      -279.0162
  75   2.0000     -10.253179      -279.0032
  76   2.0000     -10.238659      -278.6081
  77   2.0000     -10.237538      -278.5776
  78   2.0000     -10.235856      -278.5318
  79   2.0000      -8.788306      -239.1420
  80   2.0000      -8.111895      -220.7359
  81   2.0000      -8.065950      -219.4857
  82   2.0000      -8.054624      -219.1775
  83   2.0000      -8.052521      -219.1202
  84   2.0000      -6.624599      -180.2645
  85   2.0000      -6.610045      -179.8685
  86   2.0000      -6.609850      -179.8632
  87   2.0000      -6.083244      -165.5335
  88   2.0000      -6.075464      -165.3218
  89   2.0000      -6.074074      -165.2840
  90   2.0000      -6.035646      -164.2383
  91   2.0000      -6.031372      -164.1220
  92   2.0000      -6.027162      -164.0074
  93   2.0000      -6.024195      -163.9267
  94   2.0000      -6.022370      -163.8770
  95   2.0000      -6.019996      -163.8124
  96   2.0000      -6.017725      -163.7506
  97   2.0000      -6.015879      -163.7004
  98   2.0000      -6.014169      -163.6539
  99   2.0000      -2.740458       -74.5716
 100   2.0000      -2.736392       -74.4610
 101   2.0000      -2.736247       -74.4571
 102   2.0000      -2.724683       -74.1424
 103   2.0000      -2.724666       -74.1419
 104   2.0000      -1.125827       -30.6353
 105   2.0000      -1.120963       -30.5030
 106   2.0000      -1.103262       -30.0213
 107   2.0000      -1.030863       -28.0512
 108   2.0000      -1.022276       -27.8175
 109   2.0000      -1.016538       -27.6614
 110   2.0000      -1.008045       -27.4303
 111   2.0000      -1.007239       -27.4084
 112   2.0000      -1.003060       -27.2947
 113   2.0000      -0.992811       -27.0158
 114   2.0000      -0.986812       -26.8525
 115   2.0000      -0.984358       -26.7857
 116   2.0000      -0.984188       -26.7811
 117   2.0000      -0.981864       -26.7179
 118   2.0000      -0.977152       -26.5896
 119   2.0000      -0.958816       -26.0907
 120   2.0000      -0.944176       -25.6923
 121   2.0000      -0.934266       -25.4227
 122   2.0000      -0.928072       -25.2541
 123   2.0000      -0.914421       -24.8827
 124   2.0000      -0.902059       -24.5463
 125   2.0000      -0.901016       -24.5179
 126   2.0000      -0.891425       -24.2569
 127   2.0000      -0.889635       -24.2082
 128   2.0000      -0.886059       -24.1109
 129   2.0000      -0.879551       -23.9338
 130   2.0000      -0.874476       -23.7957
 131   2.0000      -0.865236       -23.5443
 132   2.0000      -0.858364       -23.3573
 133   2.0000      -0.847558       -23.0632
 134   2.0000      -0.833119       -22.6703
 135   2.0000      -0.832264       -22.6471
 136   2.0000      -0.829110       -22.5612
 137   2.0000      -0.828680       -22.5495
 138   2.0000      -0.826837       -22.4994
 139   2.0000      -0.823112       -22.3980
 140   2.0000      -0.821187       -22.3456
 141   2.0000      -0.815837       -22.2000
 142   2.0000      -0.807704       -21.9788
 143   2.0000      -0.795121       -21.6363
 144   2.0000      -0.787403       -21.4263
 145   2.0000      -0.770772       -20.9738
 146   2.0000      -0.762794       -20.7567
 147   2.0000      -0.754659       -20.5353
 148   2.0000      -0.753190       -20.4953
 149   2.0000      -0.749398       -20.3921
 150   2.0000      -0.735929       -20.0256
 151   2.0000      -0.721811       -19.6415
 152   2.0000      -0.717393       -19.5212
 153   2.0000      -0.709161       -19.2973
 154   2.0000      -0.702116       -19.1056
 155   2.0000      -0.692297       -18.8384
 156   2.0000      -0.685980       -18.6665
 157   2.0000      -0.683582       -18.6012
 158   2.0000      -0.681042       -18.5321
 159   2.0000      -0.675752       -18.3881
 160   2.0000      -0.674507       -18.3543
 161   2.0000      -0.665778       -18.1167
 162   2.0000      -0.665032       -18.0964
 163   2.0000      -0.663870       -18.0648
 164   2.0000      -0.654449       -17.8085
 165   2.0000      -0.650436       -17.6993
 166   2.0000      -0.647135       -17.6095
 167   2.0000      -0.643657       -17.5148
 168   2.0000      -0.638043       -17.3620
 169   2.0000      -0.628278       -17.0963
 170   2.0000      -0.623625       -16.9697
 171   2.0000      -0.621030       -16.8991
 172   2.0000      -0.616123       -16.7656
 173   2.0000      -0.614964       -16.7340
 174   2.0000      -0.610092       -16.6014
 175   2.0000      -0.601709       -16.3733
 176   2.0000      -0.592298       -16.1172
 177   2.0000      -0.588735       -16.0203
 178   2.0000      -0.586548       -15.9608
 179   2.0000      -0.579362       -15.7652
 180   2.0000      -0.573678       -15.6106
 181   2.0000      -0.571459       -15.5502
 182   2.0000      -0.570603       -15.5269
 183   2.0000      -0.563789       -15.3415
 184   2.0000      -0.562278       -15.3004
 185   2.0000      -0.558760       -15.2046
 186   2.0000      -0.553502       -15.0616
 187   2.0000      -0.547195       -14.8899
 188   2.0000      -0.541866       -14.7449
 189   2.0000      -0.538968       -14.6661
 190   2.0000      -0.535941       -14.5837
 191   2.0000      -0.534880       -14.5548
 192   2.0000      -0.534399       -14.5417
 193   2.0000      -0.533159       -14.5080
 194   2.0000      -0.532170       -14.4811
 195   2.0000      -0.525675       -14.3043
 196   2.0000      -0.521686       -14.1958
 197   2.0000      -0.518129       -14.0990
 198   2.0000      -0.515609       -14.0304
 199   2.0000      -0.513904       -13.9840
 200   2.0000      -0.511935       -13.9305
 201   2.0000      -0.509166       -13.8551
 202   2.0000      -0.509114       -13.8537
 203   2.0000      -0.506287       -13.7768
 204   2.0000      -0.504659       -13.7325
 205   2.0000      -0.502680       -13.6786
 206   2.0000      -0.501621       -13.6498
 207   2.0000      -0.499351       -13.5880
 208   2.0000      -0.495541       -13.4843
 209   2.0000      -0.489478       -13.3194
 210   2.0000      -0.487883       -13.2760
 211   2.0000      -0.487536       -13.2665
 212   2.0000      -0.483131       -13.1467
 213   2.0000      -0.481020       -13.0892
 214   2.0000      -0.480703       -13.0806
 215   2.0000      -0.478372       -13.0172
 216   2.0000      -0.475753       -12.9459
 217   2.0000      -0.472299       -12.8519
 218   2.0000      -0.468432       -12.7467
 219   2.0000      -0.467019       -12.7082
 220   2.0000      -0.466107       -12.6834
 221   2.0000      -0.465501       -12.6669
 222   2.0000      -0.464581       -12.6419
 223   2.0000      -0.463205       -12.6045
 224   2.0000      -0.461977       -12.5710
 225   2.0000      -0.461389       -12.5550
 226   2.0000      -0.459772       -12.5110
 227   2.0000      -0.453132       -12.3303
 228   2.0000      -0.451975       -12.2989
 229   2.0000      -0.448196       -12.1960
 230   2.0000      -0.446836       -12.1590
 231   2.0000      -0.446398       -12.1471
 232   2.0000      -0.443981       -12.0813
 233   2.0000      -0.442540       -12.0421
 234   2.0000      -0.441586       -12.0162
 235   2.0000      -0.441091       -12.0027
 236   2.0000      -0.438325       -11.9274
 237   2.0000      -0.436941       -11.8898
 238   2.0000      -0.435593       -11.8531
 239   2.0000      -0.435345       -11.8463
 240   2.0000      -0.434340       -11.8190
 241   2.0000      -0.432778       -11.7765
 242   2.0000      -0.431385       -11.7386
 243   2.0000      -0.421085       -11.4583
 244   2.0000      -0.419701       -11.4206
 245   2.0000      -0.418480       -11.3874
 246   2.0000      -0.417758       -11.3678
 247   2.0000      -0.416324       -11.3288
 248   2.0000      -0.414928       -11.2908
 249   2.0000      -0.411207       -11.1895
 250   2.0000      -0.409043       -11.1306
 251   2.0000      -0.407472       -11.0879
 252   2.0000      -0.405954       -11.0466
 253   2.0000      -0.400848       -10.9076
 254   2.0000      -0.398276       -10.8376
 255   2.0000      -0.397326       -10.8118
 256   2.0000      -0.396591       -10.7918
 257   2.0000      -0.395074       -10.7505
 258   2.0000      -0.391511       -10.6536
 259   2.0000      -0.382951       -10.4206
 260   2.0000      -0.380684       -10.3589
 261   2.0000      -0.379401       -10.3240
 262   2.0000      -0.375551       -10.2193
 263   2.0000      -0.370616       -10.0850
 264   2.0000      -0.369654       -10.0588
 265   2.0000      -0.369171       -10.0457
 266   2.0000      -0.363494        -9.8912
 267   2.0000      -0.357844        -9.7374
 268   2.0000      -0.347820        -9.4647
 269   2.0000      -0.343936        -9.3590
 270   2.0000      -0.334408        -9.0997
 271   2.0000      -0.331825        -9.0294
 272   2.0000      -0.329884        -8.9766
 273   2.0000      -0.329203        -8.9581
 274   2.0000      -0.325705        -8.8629
 275   2.0000      -0.316616        -8.6156
 276   2.0000      -0.309668        -8.4265
 277   2.0000      -0.308658        -8.3990
 278   2.0000      -0.306074        -8.3287
 279   2.0000      -0.288214        -7.8427
 280   2.0000      -0.279095        -7.5946
 281   2.0000      -0.264479        -7.1968
 282   2.0000      -0.251767        -6.8509
 283   2.0000      -0.208110        -5.6630
 284   0.0000      -0.116978        -3.1831
 285   0.0000      -0.082414        -2.2426
 286   0.0000      -0.066328        -1.8049
 287   0.0000      -0.053550        -1.4572
 288   0.0000      -0.037892        -1.0311

MULLIKEN ATOMIC CHARGES
-----------------------
   0 C :    0.321291
   1 C :   -0.369699
   2 C :   -0.185951
   3 N :    0.145314
   4 C :   -0.187497
   5 N :    0.147301
   6 C :    0.009516
   7 C :   -0.003419
   8 C :   -0.076434
   9 C :    0.119743
  10 C :   -0.092774
  11 C :   -0.018450
  12 S :    0.184736
  13 C :   -0.122342
  14 C :    0.039598
  15 Br:    0.020185
  16 C :    0.155602
  17 O :   -0.153485
  18 C :   -0.049265
  19 C :   -0.016334
  20 C :    0.073651
  21 C :   -0.106323
  22 C :    0.023258
  23 C :    0.125015
  24 C :   -0.057930
  25 C :   -0.001209
  26 C :    0.095876
  27 C :    0.018012
  28 C :   -0.134927
  29 C :    0.065164
  30 C :    0.025364
  31 C :    0.069519
  32 C :    0.025798
  33 C :   -0.089384
  34 C :    0.133567
  35 C :   -0.022412
  36 C :   -0.037432
  37 C :   -0.014180
  38 C :   -0.064409
  39 C :    0.069205
  40 C :   -0.032284
  41 C :   -0.015725
  42 N :   -0.026405
  43 C :   -0.085372
  44 C :   -0.141137
  45 N :    0.038989
  46 C :   -0.232801
  47 N :    0.234605
  48 C :   -0.236408
  49 N :    0.196944
  50 C :    0.110354
  51 C :   -0.004440
  52 C :    0.013753
  53 N :   -0.294908
  54 S :    0.502713
  55 N :   -0.277969
  56 C :   -0.134403
  57 C :    0.038949
  58 C :    0.012529
  59 C :    0.042140
  60 C :   -0.034738
  61 S :    0.119729
  62 C :   -0.027651
  63 C :    0.016833
  64 C :    0.055419
  65 C :   -0.046511
  66 S :    0.123031
  67 C :    0.031565
  68 C :   -0.022786
  69 C :   -0.180681
  70 C :    0.097465
  71 C :    0.189473
  72 N :   -0.170935
  73 C :    0.034548
  74 C :   -0.081680
  75 H :   -0.012385
  76 H :   -0.007243
  77 H :   -0.005237
  78 H :   -0.009565
  79 H :   -0.010624
  80 H :   -0.032498
  81 H :   -0.005306
  82 H :    0.003498
  83 H :    0.004670
  84 H :    0.021688
  85 H :    0.010927
  86 H :    0.017277
  87 H :    0.002742
  88 H :    0.001442
  89 H :    0.017697
  90 H :    0.009142
  91 H :    0.022352
  92 H :   -0.035686
  93 H :   -0.027207
  94 H :   -0.035731
  95 H :   -0.010308
  96 H :   -0.013972
  97 H :   -0.001832
  98 H :   -0.008597
  99 H :   -0.015479
 100 H :   -0.008385
 101 H :   -0.003413
 102 H :   -0.009387
 103 H :    0.014560
 104 H :    0.007816
 105 H :    0.047266
 106 H :    0.027236
 107 H :    0.032226
 108 H :    0.011290
 109 H :    0.112554
 110 H :    0.001426
 111 H :   -0.001434
 112 H :    0.012422
Sum of atomic charges:   -0.0000000

LOEWDIN ATOMIC CHARGES
----------------------
   0 C :    0.080754
   1 C :   -0.146681
   2 C :   -0.016632
   3 N :   -0.059304
   4 C :   -0.024297
   5 N :   -0.056592
   6 C :   -0.021899
   7 C :   -0.048832
   8 C :    0.020653
   9 C :   -0.032938
  10 C :   -0.143863
  11 C :   -0.010135
  12 S :    0.430370
  13 C :   -0.271987
  14 C :   -0.070521
  15 Br:    0.134316
  16 C :    0.088454
  17 O :   -0.140327
  18 C :   -0.104814
  19 C :    0.085484
  20 C :   -0.050466
  21 C :    0.006430
  22 C :   -0.005360
  23 C :    0.016072
  24 C :   -0.026124
  25 C :    0.017158
  26 C :   -0.029854
  27 C :    0.011170
  28 C :   -0.035814
  29 C :   -0.011134
  30 C :   -0.057794
  31 C :   -0.010800
  32 C :   -0.058000
  33 C :   -0.017554
  34 C :   -0.010702
  35 C :   -0.018837
  36 C :   -0.012773
  37 C :   -0.019586
  38 C :   -0.016871
  39 C :   -0.064667
  40 C :   -0.000838
  41 C :   -0.009138
  42 N :   -0.028302
  43 C :   -0.071453
  44 C :   -0.022745
  45 N :   -0.019631
  46 C :   -0.032553
  47 N :   -0.018236
  48 C :   -0.037458
  49 N :   -0.057710
  50 C :   -0.026743
  51 C :   -0.047015
  52 C :   -0.033764
  53 N :   -0.287481
  54 S :    0.630262
  55 N :   -0.278567
  56 C :   -0.045583
  57 C :   -0.124303
  58 C :   -0.044444
  59 C :   -0.019696
  60 C :   -0.217565
  61 S :    0.473886
  62 C :   -0.139363
  63 C :   -0.043990
  64 C :   -0.005484
  65 C :   -0.163406
  66 S :    0.436722
  67 C :   -0.000040
  68 C :   -0.072516
  69 C :    0.006869
  70 C :   -0.049495
  71 C :    0.045297
  72 N :   -0.025893
  73 C :    0.015759
  74 C :   -0.151774
  75 H :    0.040050
  76 H :    0.040752
  77 H :    0.038337
  78 H :    0.044491
  79 H :    0.032559
  80 H :    0.028593
  81 H :    0.027843
  82 H :    0.022452
  83 H :    0.022585
  84 H :    0.025235
  85 H :    0.025186
  86 H :    0.023766
  87 H :    0.021849
  88 H :    0.021888
  89 H :    0.023696
  90 H :    0.024499
  91 H :    0.025613
  92 H :    0.026343
  93 H :    0.027203
  94 H :    0.027023
  95 H :    0.023850
  96 H :    0.025518
  97 H :    0.042024
  98 H :    0.033839
  99 H :    0.030494
 100 H :    0.033943
 101 H :    0.036770
 102 H :    0.034203
 103 H :    0.028169
 104 H :    0.027105
 105 H :    0.046642
 106 H :    0.040575
 107 H :    0.034612
 108 H :    0.028287
 109 H :    0.074489
 110 H :    0.022318
 111 H :    0.015540
 112 H :    0.022349

  Mayer bond orders larger than 0.100000
B(  0-C ,  1-C ) :   1.6058 B(  0-C ,  6-C ) :   0.9932 B(  0-C , 18-C ) :   1.0896
B(  1-C ,  2-C ) :   1.1509 B(  1-C ,  4-C ) :   1.1395 B(  2-C ,  3-N ) :   2.9640
B(  4-C ,  5-N ) :   2.9758 B(  6-C ,  7-C ) :   1.2805 B(  6-C , 11-C ) :   1.4040
B(  7-C ,  8-C ) :   1.4223 B(  7-C , 16-C ) :   0.9546 B(  8-C ,  9-C ) :   1.2428
B(  8-C , 75-H ) :   1.0167 B(  9-C , 10-C ) :   1.3071 B(  9-C , 14-C ) :   1.1607
B( 10-C , 11-C ) :   1.3361 B( 10-C , 12-S ) :   1.0844 B( 11-C , 76-H ) :   0.9776
B( 12-S , 13-C ) :   1.0861 B( 13-C , 14-C ) :   1.6193 B( 13-C , 15-Br) :   1.0165
B( 14-C , 77-H ) :   1.0002 B( 16-C , 17-O ) :   2.1630 B( 16-C , 18-C ) :   0.9251
B( 17-O , 81-H ) :   0.1054 B( 18-C , 19-C ) :   1.5188 B( 19-C , 20-C ) :   1.1784
B( 19-C , 78-H ) :   0.9308 B( 20-C , 21-C ) :   1.2184 B( 20-C , 25-C ) :   1.3200
B( 21-C , 22-C ) :   1.3925 B( 21-C , 79-H ) :   1.0144 B( 22-C , 23-C ) :   1.3452
B( 22-C , 28-C ) :   0.9119 B( 23-C , 24-C ) :   1.3114 B( 23-C , 26-C ) :   1.0081
B( 24-C , 25-C ) :   1.4024 B( 24-C , 80-H ) :   0.9950 B( 25-C , 81-H ) :   0.9649
B( 26-C , 27-C ) :   1.3446 B( 26-C , 36-C ) :   1.3295 B( 27-C , 28-C ) :   0.9171
B( 27-C , 33-C ) :   1.4064 B( 28-C , 29-C ) :   1.0366 B( 28-C , 31-C ) :   1.0389
B( 29-C , 30-C ) :   1.1019 B( 29-C , 82-H ) :   0.9397 B( 29-C , 83-H ) :   0.9400
B( 30-C , 84-H ) :   0.9639 B( 30-C , 85-H ) :   0.9639 B( 30-C , 86-H ) :   0.9645
B( 31-C , 32-C ) :   1.1006 B( 31-C , 87-H ) :   0.9394 B( 31-C , 88-H ) :   0.9391
B( 32-C , 89-H ) :   0.9639 B( 32-C , 90-H ) :   0.9636 B( 32-C , 91-H ) :   0.9644
B( 33-C , 34-C ) :   1.2952 B( 33-C , 92-H ) :   1.0026 B( 34-C , 35-C ) :   1.3232
B( 34-C , 37-C ) :   1.0575 B( 35-C , 36-C ) :   1.3836 B( 35-C , 93-H ) :   0.9942
B( 36-C , 94-H ) :   0.9902 B( 37-C , 38-C ) :   1.6091 B( 37-C , 95-H ) :   0.9699
B( 38-C , 39-C ) :   1.1838 B( 38-C , 96-H ) :   0.9508 B( 39-C , 40-C ) :   1.2861
B( 39-C , 50-C ) :   0.1020 B( 39-C , 52-C ) :   1.1421 B( 40-C , 41-C ) :   1.0925
B( 40-C , 45-N ) :   1.4086 B( 41-C , 42-N ) :   1.4830 B( 41-C , 50-C ) :   1.1386
B( 42-N , 43-C ) :   1.5460 B( 42-N , 61-S ) :   0.1081 B( 43-C , 44-C ) :   1.2523
B( 43-C , 48-C ) :   1.1564 B( 44-C , 45-N ) :   1.7412 B( 44-C , 46-C ) :   1.1686
B( 46-C , 47-N ) :   3.0554 B( 48-C , 49-N ) :   2.9709 B( 50-C , 51-C ) :   1.1211
B( 50-C , 56-C ) :   1.3798 B( 51-C , 52-C ) :   1.1196 B( 51-C , 55-N ) :   1.5819
B( 52-C , 53-N ) :   1.5319 B( 53-N , 54-S ) :   1.2324 B( 53-N , 55-N ) :   0.1371
B( 54-S , 55-N ) :   1.2530 B( 56-C , 57-C ) :   1.3488 B( 56-C , 97-H ) :   0.9536
B( 57-C , 58-C ) :   1.2200 B( 57-C , 61-S ) :   1.1052 B( 58-C , 59-C ) :   1.4999
B( 58-C , 98-H ) :   1.0024 B( 59-C , 60-C ) :   1.2531 B( 59-C , 99-H ) :   0.9932
B( 60-C , 61-S ) :   1.0042 B( 60-C , 62-C ) :   1.4024 B( 62-C , 63-C ) :   1.2141
B( 62-C , 66-S ) :   1.1103 B( 63-C , 64-C ) :   1.5613 B( 63-C ,100-H ) :   0.9955
B( 64-C , 65-C ) :   1.1510 B( 64-C ,101-H ) :   0.9981 B( 65-C , 66-S ) :   1.0287
B( 65-C , 67-C ) :   1.5867 B( 67-C , 68-C ) :   1.1284 B( 67-C ,102-H ) :   0.9718
B( 68-C , 69-C ) :   1.7135 B( 68-C ,103-H ) :   0.9602 B( 69-C , 70-C ) :   1.0910
B( 69-C , 71-C ) :   1.0283 B( 70-C ,104-H ) :   0.9502 B( 70-C ,105-H ) :   0.9305
B( 70-C ,106-H ) :   0.9398 B( 71-C , 72-N ) :   1.0372 B( 71-C ,107-H ) :   0.9440
B( 71-C ,108-H ) :   0.9340 B( 72-N , 73-C ) :   1.1641 B( 72-N ,109-H ) :   0.9417
B( 73-C , 74-C ) :   1.8762 B( 73-C ,110-H ) :   0.9575 B( 74-C ,111-H ) :   0.9579
B( 74-C ,112-H ) :   0.9547

-----------------------------------------------------------------------------
         ABSORPTION SPECTRUM VIA TRANSITION ELECTRIC DIPOLE MOMENTS
-----------------------------------------------------------------------------
State   Energy  Wavelength   fosc         T2         TX        TY        TZ
        (cm-1)    (nm)                  (au**2)     (au)      (au)      (au)
-----------------------------------------------------------------------------
   0    6182.9   1617.4   0.486818884  25.92081  -0.16089   4.25048   2.79792
   1   15944.4    627.2   0.080821290   1.66875  -0.33556   1.22955   0.21061
   2   16066.1    622.4   0.418837956   8.58242  -0.98684  -0.40830  -2.72798
   3   17719.5    564.3   0.953637942  17.71770   1.16988  -4.04195   0.10832
   4   19413.0    515.1   0.023054898   0.39097  -0.58141   0.22318  -0.05589
   5   21489.7    465.3   0.250168582   3.83246  -0.67054  -0.11284  -1.83578
   6   22010.0    454.3   0.090119790   1.34796   0.06982  -0.92853  -0.69347
   7   23249.7    430.1   0.261100426   3.69714  -0.22094   1.54608   1.12158
   8   24951.3    400.8   0.010152426   0.13395   0.30371  -0.20423  -0.00157
   9   24973.6    400.4   0.508439487   6.70245  -0.99031   2.13275  -1.08311
  10   25056.9    399.1   0.150170643   1.97302   0.32759  -1.36030   0.12368
  11   27056.5    369.6   0.200971776   2.44534  -0.70313   0.96142  -1.01323
  12   27599.9    362.3   0.151688607   1.80934  -0.44610   1.25987  -0.15190
  13   28220.5    354.4   0.059602288   0.69530  -0.22828  -0.16490  -0.78485
  14   28444.3    351.6   0.289712104   3.35310  -0.01960   1.62538   0.84313
  15   29335.5    340.9   0.186264083   2.09031   0.50861  -0.68715   1.16595
  16   29916.4    334.3   0.009142122   0.10060  -0.05153   0.31267   0.01368
  17   30079.8    332.4   0.155194924   1.69855   0.35906  -1.21529   0.30447
  18   30200.8    331.1   0.078832474   0.85933   0.37916  -0.75198   0.38744
  19   30498.1    327.9   0.061346244   0.66220   0.32302  -0.13853   0.73394
  20   30620.7    326.6   0.093176782   1.00177  -0.00793  -0.42244  -0.90733
  21   30729.9    325.4   0.105103357   1.12598  -0.43706  -0.54032  -0.80188
  22   31140.2    321.1   0.089737091   0.94869  -0.05098   0.79317   0.56300
  23   31869.2    313.8   0.149023708   1.53943  -0.39947   0.25480  -1.14671
  24   31915.1    313.3   0.138791376   1.43167   0.47102  -0.41595   1.01823
  25   32250.4    310.1   0.338453012   3.45492  -0.01621   1.67368   0.80837
  26   32524.7    307.5   0.031231119   0.31612  -0.00625  -0.40591  -0.38899
  27   32640.5    306.4   0.002400625   0.02421   0.06851  -0.09603   0.10148
  28   32728.6    305.5   0.007352596   0.07396   0.02825  -0.27004   0.01547
  29   32835.3    304.6   0.108920418   1.09205  -0.27602   0.03989  -1.00711
  30   33237.6    300.9   0.128663659   1.27439  -0.29474   1.07716  -0.16503
  31   33447.1    299.0   0.007558700   0.07440  -0.03911  -0.26559   0.04829
  32   33935.8    294.7   0.460483573   4.46717  -0.42088  -1.30912  -1.60507
  33   34146.1    292.9   0.125527956   1.21025  -0.36600   0.25517  -1.00558
  34   34393.7    290.8   0.017049079   0.16319   0.09716  -0.29439  -0.25901
  35   34586.9    289.1   0.004198181   0.03996   0.02802  -0.16137  -0.11461
  36   34864.9    286.8   0.171658582   1.62089   0.37586   0.22360   1.19567
  37   35258.4    283.6   0.010512901   0.09816   0.11386  -0.29006   0.03261
  38   36411.8    274.6   0.001218677   0.01102  -0.09516  -0.00854   0.04347
  39   36478.5    274.1   0.000321074   0.00290  -0.03839   0.01921  -0.03248
  40   36849.4    271.4   0.030424567   0.27181   0.22589   0.02821   0.46903
  41   36893.8    271.0   0.056829278   0.50710   0.20753  -0.21274   0.64713
  42   37140.5    269.2   0.057946242   0.51363   0.22164   0.34284   0.58904
  43   37308.2    268.0   0.018995711   0.16762  -0.10979  -0.24806  -0.30664
  44   37776.2    264.7   0.043136739   0.37593  -0.34572   0.10877  -0.49454
  45   38023.4    263.0   0.028031779   0.24270   0.16008   0.13332   0.44643
  46   38534.6    259.5   0.004448373   0.03800  -0.07201  -0.13996  -0.11502
  47   38716.4    258.3   0.031587022   0.26859   0.23642  -0.39375   0.24012
  48   38729.5    258.2   0.018841783   0.16016  -0.24624   0.17709  -0.26109
  49   38959.8    256.7   0.088843813   0.75073  -0.20768  -0.51131  -0.66795
  50   39386.8    253.9   0.025787380   0.21554   0.02379   0.21975   0.40827
  51   39552.1    252.8   0.231963036   1.93074  -0.70539   1.02224  -0.62306
  52   39664.3    252.1   0.002705609   0.02246   0.10756  -0.06109  -0.08459
  53   39834.1    251.0   0.089707154   0.74139   0.33663  -0.72664   0.31632
  54   40096.5    249.4   0.112153317   0.92083   0.14259   0.40581   0.85780
  55   40132.3    249.2   0.006733895   0.05524   0.02378  -0.18934  -0.13720

FINAL SINGLE POINT ENERGY     -7039.678936154376

DIPOLE MOMENT
-------------
                                X             Y             Z
Electronic contribution:     21.26949    -246.61035    -100.63288
Nuclear contribution   :    -23.55090     251.98695      99.77703
                        -----------------------------------------
Total Dipole Moment    :     -2.28141       5.37660      -0.85585
                        -----------------------------------------
Magnitude (a.u.)       :      5.90298
Magnitude (Debye)      :     15.00417

Rotational constants in cm-1:     0.001490     0.000158     0.000144
Rotational constants in MHz :    44.681439     4.738931     4.315148

                             ****ORCA TERMINATED NORMALLY****
TOTAL RUN TIME: 0 days 0 hours 12 minutes 2 seconds 998 msec
