                         Program Version 4.2.0 -  RELEASE  -
|  1> # ORCA input file
|  2> # SCF done       -142.069793207543          0.000389433878
|  3> ! CAM-B3LYP def2-SVP def2/J RIJCOSX Grid4 TightSCF
|  4> %maxcore 5000
|  5> %tddft
|  6>     Mode sTDDFT
|  7>     Ethresh 5.0
|  8>     maxcore 5000
|  9> end
| 10>
| 11> %pal
| 12>   nprocs 6
| 13>   end
| 14> * xyz 0 1
| 15>    C       28.20127       -17.81338         1.33360
| 16>    C       27.44793       -16.74144         1.04508
| 17>    C       27.88109       -15.46558         0.55848
| 18>    C       26.88060       -14.57510         0.35813
| 19>    C       25.58684       -15.06760         0.66769
| 20>    S       25.68675       -16.72414         1.22857
| 21>    C       24.38638       -14.39315         0.56994
| 22>    C       24.16632       -13.06901         0.13699
| 23>    C       22.85421       -12.68960         0.16667
| 24>    C       21.97124       -13.68651         0.62311
| 25>    S       22.86568       -15.14357         1.01099
| 26>    C       20.59964       -13.57364         0.77861
| 27>    C       19.77357       -14.57798         1.24746
| 28>    C       18.40875       -14.44790         1.44796
| 29>    C       17.52877       -15.42635         1.94416
| 30>    C       16.23372       -15.00566         2.07642
| 31>    C       16.02824       -13.66873         1.68801
| 32>    S       17.53196       -12.96279         1.13317
| 33>    C       14.85539       -12.93524         1.73097
| 34>    C       13.58789       -13.34613         2.19551
| 35>    C       12.63763       -12.37412         2.14422
| 36>    C       13.09101       -11.12464         1.63520
| 37>    S       14.79174       -11.27008         1.19497
| 38>    C       12.34703        -9.98230         1.58672
| 39>    C       12.73430        -8.68725         1.09985
| 40>    C       12.10504        -7.51117         1.58423
| 41>    N       11.17433        -7.54269         2.58679
| 42>    C       12.51674        -6.27156         1.08663
| 43>    C       13.51396        -6.16256         0.14751
| 44>    C       14.13722        -7.30998        -0.36110
| 45>    C       13.72207        -8.54511         0.12465
| 46>    C       15.16541        -7.26888        -1.37580
| 47>    C       15.85101        -6.18453        -1.76632
| 48>    N       16.79032        -6.23163        -2.76976
| 49>    C       17.65152        -5.24714        -3.10164
| 50>    S       17.79325        -3.80720        -2.14233
| 51>    C       19.10517        -3.27527        -3.15541
| 52>    N       19.68146        -2.04852        -2.86646
| 53>    O       20.60999        -1.66970        -3.56580
| 54>    O       19.21419        -1.42567        -1.92019
| 55>    C       19.40344        -4.16465        -4.15862
| 56>    C       18.56765        -5.28902        -4.16326
| 57>    C       18.64197        -6.33361        -5.16396
| 58>    C       17.59506        -7.03157        -5.62850
| 59>    C       17.66714        -8.09806        -6.61451
| 60>    C       16.57228        -8.34771        -7.46906
| 61>    N       15.42713        -7.57877        -7.41486
| 62>    C       16.64126        -9.42530        -8.35126
| 63>    C       17.75914       -10.22617        -8.41025
| 64>    C       18.86539        -9.98299        -7.59065
| 65>    C       18.78902        -8.91518        -6.70179
| 66>    C       20.02620       -10.85540        -7.69262
| 67>    C       21.15746       -10.76750        -7.00240
| 68>    H       29.26909       -17.78296         1.20846
| 69>    H       27.76828       -18.72764         1.69548
| 70>    H       28.92365       -15.27040         0.38047
| 71>    H       27.02662       -13.57215        -0.00233
| 72>    H       24.97180       -12.43204        -0.18146
| 73>    H       22.49760       -11.71704        -0.12465
| 74>    H       20.15457       -12.62008         0.52224
| 75>    H       20.21601       -15.53544         1.49270
| 76>    H       17.87396       -16.41368         2.19662
| 77>    H       15.43327       -15.62202         2.44460
| 78>    H       13.41499       -14.34087         2.56585
| 79>    H       11.61922       -12.50606         2.46619
| 80>    H       11.34684       -10.08120         1.99261
| 81>    H       10.71589        -8.40873         2.80689
| 82>    H       10.64440        -6.70409         2.75102
| 83>    H       12.03415        -5.38055         1.46344
| 84>    H       13.79524        -5.18575        -0.21255
| 85>    H       14.16803        -9.43500        -0.29068
| 86>    H       15.40361        -8.22055        -1.83548
| 87>    H       15.71137        -5.20831        -1.32856
| 88>    H       16.92463        -7.12156        -3.23755
| 89>    H       20.18582        -3.98359        -4.87334
| 90>    H       19.62250        -6.48812        -5.59293
| 91>    H       16.59822        -6.78721        -5.28189
| 92>    H       15.53094        -6.62260        -7.11781
| 93>    H       14.79085        -7.70008        -8.18688
| 94>    H       15.79852        -9.62293        -8.99943
| 95>    H       17.78414       -11.05250        -9.10591
| 96>    H       19.61148        -8.72368        -6.03079
| 97>    H       19.92184       -11.65133        -8.42042
| 98>    H       21.33440       -10.00443        -6.26420
| 99>    H       21.96035       -11.46808        -7.15422
|100> *
|101>
|102>                          ****END OF INPUT****

CARTESIAN COORDINATES (ANGSTROEM)
---------------------------------
  C     28.201270  -17.813380    1.333600
  C     27.447930  -16.741440    1.045080
  C     27.881090  -15.465580    0.558480
  C     26.880600  -14.575100    0.358130
  C     25.586840  -15.067600    0.667690
  S     25.686750  -16.724140    1.228570
  C     24.386380  -14.393150    0.569940
  C     24.166320  -13.069010    0.136990
  C     22.854210  -12.689600    0.166670
  C     21.971240  -13.686510    0.623110
  S     22.865680  -15.143570    1.010990
  C     20.599640  -13.573640    0.778610
  C     19.773570  -14.577980    1.247460
  C     18.408750  -14.447900    1.447960
  C     17.528770  -15.426350    1.944160
  C     16.233720  -15.005660    2.076420
  C     16.028240  -13.668730    1.688010
  S     17.531960  -12.962790    1.133170
  C     14.855390  -12.935240    1.730970
  C     13.587890  -13.346130    2.195510
  C     12.637630  -12.374120    2.144220
  C     13.091010  -11.124640    1.635200
  S     14.791740  -11.270080    1.194970
  C     12.347030   -9.982300    1.586720
  C     12.734300   -8.687250    1.099850
  C     12.105040   -7.511170    1.584230
  N     11.174330   -7.542690    2.586790
  C     12.516740   -6.271560    1.086630
  C     13.513960   -6.162560    0.147510
  C     14.137220   -7.309980   -0.361100
  C     13.722070   -8.545110    0.124650
  C     15.165410   -7.268880   -1.375800
  C     15.851010   -6.184530   -1.766320
  N     16.790320   -6.231630   -2.769760
  C     17.651520   -5.247140   -3.101640
  S     17.793250   -3.807200   -2.142330
  C     19.105170   -3.275270   -3.155410
  N     19.681460   -2.048520   -2.866460
  O     20.609990   -1.669700   -3.565800
  O     19.214190   -1.425670   -1.920190
  C     19.403440   -4.164650   -4.158620
  C     18.567650   -5.289020   -4.163260
  C     18.641970   -6.333610   -5.163960
  C     17.595060   -7.031570   -5.628500
  C     17.667140   -8.098060   -6.614510
  C     16.572280   -8.347710   -7.469060
  N     15.427130   -7.578770   -7.414860
  C     16.641260   -9.425300   -8.351260
  C     17.759140  -10.226170   -8.410250
  C     18.865390   -9.982990   -7.590650
  C     18.789020   -8.915180   -6.701790
  C     20.026200  -10.855400   -7.692620
  C     21.157460  -10.767500   -7.002400
  H     29.269090  -17.782960    1.208460
  H     27.768280  -18.727640    1.695480
  H     28.923650  -15.270400    0.380470
  H     27.026620  -13.572150   -0.002330
  H     24.971800  -12.432040   -0.181460
  H     22.497600  -11.717040   -0.124650
  H     20.154570  -12.620080    0.522240
  H     20.216010  -15.535440    1.492700
  H     17.873960  -16.413680    2.196620
  H     15.433270  -15.622020    2.444600
  H     13.414990  -14.340870    2.565850
  H     11.619220  -12.506060    2.466190
  H     11.346840  -10.081200    1.992610
  H     10.715890   -8.408730    2.806890
  H     10.644400   -6.704090    2.751020
  H     12.034150   -5.380550    1.463440
  H     13.795240   -5.185750   -0.212550
  H     14.168030   -9.435000   -0.290680
  H     15.403610   -8.220550   -1.835480
  H     15.711370   -5.208310   -1.328560
  H     16.924630   -7.121560   -3.237550
  H     20.185820   -3.983590   -4.873340
  H     19.622500   -6.488120   -5.592930
  H     16.598220   -6.787210   -5.281890
  H     15.530940   -6.622600   -7.117810
  H     14.790850   -7.700080   -8.186880
  H     15.798520   -9.622930   -8.999430
  H     17.784140  -11.052500   -9.105910
  H     19.611480   -8.723680   -6.030790
  H     19.921840  -11.651330   -8.420420
  H     21.334400  -10.004430   -6.264200
  H     21.960350  -11.468080   -7.154220

 Total Charge           Charge          ....    0
 Multiplicity           Mult            ....    1
 Number of Electrons    NEL             ....  408
 Basis Dimension        Dim             ....  922

ORBITAL ENERGIES
----------------

  NO   OCC          E(Eh)            E(eV)
   0   2.0000     -88.968719     -2420.9619
   1   2.0000     -88.938175     -2420.1308
   2   2.0000     -88.937270     -2420.1062
   3   2.0000     -88.936716     -2420.0911
   4   2.0000     -88.932586     -2419.9787
   5   2.0000     -19.214988      -522.8664
   6   2.0000     -19.214179      -522.8444
   7   2.0000     -14.627069      -398.0228
   8   2.0000     -14.465345      -393.6220
   9   2.0000     -14.419841      -392.3838
  10   2.0000     -14.416880      -392.3033
  11   2.0000     -10.356345      -281.8105
  12   2.0000     -10.320824      -280.8439
  13   2.0000     -10.312377      -280.6141
  14   2.0000     -10.312366      -280.6137
  15   2.0000     -10.308641      -280.5124
  16   2.0000     -10.303062      -280.3606
  17   2.0000     -10.302883      -280.3557
  18   2.0000     -10.302306      -280.3400
  19   2.0000     -10.301694      -280.3233
  20   2.0000     -10.301034      -280.3054
  21   2.0000     -10.300528      -280.2916
  22   2.0000     -10.298689      -280.2416
  23   2.0000     -10.298330      -280.2318
  24   2.0000     -10.294107      -280.1169
  25   2.0000     -10.283138      -279.8184
  26   2.0000     -10.282022      -279.7880
  27   2.0000     -10.281689      -279.7790
  28   2.0000     -10.280685      -279.7517
  29   2.0000     -10.279543      -279.7206
  30   2.0000     -10.279303      -279.7141
  31   2.0000     -10.278545      -279.6934
  32   2.0000     -10.277833      -279.6741
  33   2.0000     -10.276963      -279.6504
  34   2.0000     -10.276806      -279.6461
  35   2.0000     -10.276688      -279.6429
  36   2.0000     -10.276589      -279.6402
  37   2.0000     -10.272565      -279.5307
  38   2.0000     -10.271903      -279.5127
  39   2.0000     -10.269918      -279.4587
  40   2.0000     -10.268440      -279.4185
  41   2.0000     -10.268192      -279.4117
  42   2.0000     -10.266992      -279.3791
  43   2.0000     -10.264100      -279.3004
  44   2.0000     -10.264036      -279.2986
  45   2.0000     -10.263613      -279.2871
  46   2.0000     -10.262757      -279.2638
  47   2.0000     -10.262126      -279.2466
  48   2.0000     -10.260839      -279.2116
  49   2.0000     -10.260489      -279.2021
  50   2.0000     -10.258415      -279.1457
  51   2.0000     -10.258252      -279.1412
  52   2.0000     -10.248678      -278.8807
  53   2.0000      -8.064149      -219.4366
  54   2.0000      -8.034051      -218.6176
  55   2.0000      -8.033518      -218.6031
  56   2.0000      -8.033005      -218.5892
  57   2.0000      -8.029296      -218.4883
  58   2.0000      -6.033837      -164.1890
  59   2.0000      -6.029481      -164.0705
  60   2.0000      -6.025521      -163.9628
  61   2.0000      -6.003866      -163.3735
  62   2.0000      -6.003211      -163.3557
  63   2.0000      -6.002697      -163.3417
  64   2.0000      -5.999746      -163.2614
  65   2.0000      -5.999223      -163.2472
  66   2.0000      -5.999111      -163.2441
  67   2.0000      -5.998753      -163.2344
  68   2.0000      -5.995186      -163.1373
  69   2.0000      -5.994907      -163.1297
  70   2.0000      -5.994516      -163.1191
  71   2.0000      -5.993948      -163.1036
  72   2.0000      -5.989861      -162.9924
  73   2.0000      -1.293381       -35.1947
  74   2.0000      -1.111779       -30.2530
  75   2.0000      -1.074038       -29.2261
  76   2.0000      -1.012990       -27.5649
  77   2.0000      -1.009494       -27.4697
  78   2.0000      -0.987756       -26.8782
  79   2.0000      -0.986389       -26.8410
  80   2.0000      -0.985504       -26.8169
  81   2.0000      -0.966496       -26.2997
  82   2.0000      -0.962192       -26.1826
  83   2.0000      -0.936113       -25.4729
  84   2.0000      -0.934526       -25.4298
  85   2.0000      -0.907252       -24.6876
  86   2.0000      -0.898569       -24.4513
  87   2.0000      -0.886752       -24.1297
  88   2.0000      -0.877776       -23.8855
  89   2.0000      -0.865879       -23.5618
  90   2.0000      -0.860635       -23.4191
  91   2.0000      -0.854498       -23.2521
  92   2.0000      -0.846858       -23.0442
  93   2.0000      -0.845358       -23.0034
  94   2.0000      -0.837477       -22.7889
  95   2.0000      -0.831779       -22.6339
  96   2.0000      -0.819711       -22.3055
  97   2.0000      -0.814584       -22.1660
  98   2.0000      -0.811667       -22.0866
  99   2.0000      -0.808489       -22.0001
 100   2.0000      -0.803322       -21.8595
 101   2.0000      -0.789083       -21.4720
 102   2.0000      -0.785349       -21.3704
 103   2.0000      -0.757569       -20.6145
 104   2.0000      -0.748262       -20.3612
 105   2.0000      -0.731333       -19.9006
 106   2.0000      -0.726207       -19.7611
 107   2.0000      -0.710362       -19.3299
 108   2.0000      -0.703527       -19.1440
 109   2.0000      -0.698477       -19.0065
 110   2.0000      -0.690036       -18.7768
 111   2.0000      -0.684210       -18.6183
 112   2.0000      -0.675653       -18.3855
 113   2.0000      -0.667586       -18.1659
 114   2.0000      -0.663909       -18.0659
 115   2.0000      -0.645975       -17.5779
 116   2.0000      -0.634873       -17.2758
 117   2.0000      -0.632406       -17.2087
 118   2.0000      -0.625510       -17.0210
 119   2.0000      -0.622224       -16.9316
 120   2.0000      -0.617599       -16.8057
 121   2.0000      -0.616615       -16.7789
 122   2.0000      -0.611527       -16.6405
 123   2.0000      -0.608210       -16.5502
 124   2.0000      -0.607032       -16.5182
 125   2.0000      -0.603067       -16.4103
 126   2.0000      -0.601359       -16.3638
 127   2.0000      -0.598747       -16.2927
 128   2.0000      -0.593667       -16.1545
 129   2.0000      -0.590995       -16.0818
 130   2.0000      -0.590881       -16.0787
 131   2.0000      -0.586537       -15.9605
 132   2.0000      -0.579499       -15.7690
 133   2.0000      -0.570044       -15.5117
 134   2.0000      -0.558374       -15.1941
 135   2.0000      -0.553905       -15.0725
 136   2.0000      -0.550034       -14.9672
 137   2.0000      -0.544640       -14.8204
 138   2.0000      -0.534376       -14.5411
 139   2.0000      -0.527526       -14.3547
 140   2.0000      -0.524957       -14.2848
 141   2.0000      -0.522556       -14.2195
 142   2.0000      -0.517356       -14.0780
 143   2.0000      -0.512750       -13.9526
 144   2.0000      -0.511695       -13.9239
 145   2.0000      -0.508337       -13.8326
 146   2.0000      -0.506979       -13.7956
 147   2.0000      -0.502930       -13.6854
 148   2.0000      -0.501131       -13.6365
 149   2.0000      -0.499654       -13.5963
 150   2.0000      -0.492036       -13.3890
 151   2.0000      -0.490479       -13.3466
 152   2.0000      -0.490153       -13.3377
 153   2.0000      -0.488001       -13.2792
 154   2.0000      -0.487245       -13.2586
 155   2.0000      -0.482237       -13.1223
 156   2.0000      -0.481766       -13.1095
 157   2.0000      -0.477141       -12.9837
 158   2.0000      -0.474847       -12.9212
 159   2.0000      -0.469148       -12.7662
 160   2.0000      -0.466467       -12.6932
 161   2.0000      -0.462302       -12.5799
 162   2.0000      -0.461333       -12.5535
 163   2.0000      -0.459563       -12.5054
 164   2.0000      -0.455558       -12.3964
 165   2.0000      -0.450393       -12.2558
 166   2.0000      -0.448815       -12.2129
 167   2.0000      -0.446798       -12.1580
 168   2.0000      -0.442134       -12.0311
 169   2.0000      -0.438722       -11.9382
 170   2.0000      -0.427186       -11.6243
 171   2.0000      -0.425740       -11.5850
 172   2.0000      -0.423044       -11.5116
 173   2.0000      -0.421054       -11.4575
 174   2.0000      -0.415751       -11.3132
 175   2.0000      -0.415671       -11.3110
 176   2.0000      -0.409092       -11.1319
 177   2.0000      -0.408581       -11.1181
 178   2.0000      -0.404797       -11.0151
 179   2.0000      -0.402438       -10.9509
 180   2.0000      -0.401421       -10.9232
 181   2.0000      -0.391817       -10.6619
 182   2.0000      -0.389075       -10.5873
 183   2.0000      -0.385255       -10.4833
 184   2.0000      -0.377905       -10.2833
 185   2.0000      -0.364839        -9.9278
 186   2.0000      -0.356762        -9.7080
 187   2.0000      -0.351708        -9.5705
 188   2.0000      -0.343900        -9.3580
 189   2.0000      -0.339539        -9.2393
 190   2.0000      -0.337854        -9.1935
 191   2.0000      -0.331745        -9.0272
 192   2.0000      -0.331023        -9.0076
 193   2.0000      -0.330169        -8.9843
 194   2.0000      -0.322583        -8.7779
 195   2.0000      -0.316831        -8.6214
 196   2.0000      -0.311773        -8.4838
 197   2.0000      -0.301351        -8.2002
 198   2.0000      -0.289033        -7.8650
 199   2.0000      -0.274117        -7.4591
 200   2.0000      -0.251338        -6.8393
 201   2.0000      -0.240291        -6.5387
 202   2.0000      -0.226014        -6.1502
 203   2.0000      -0.186578        -5.0770
 204   0.0000      -0.084056        -2.2873
 205   0.0000      -0.040012        -1.0888
 206   0.0000      -0.033649        -0.9156
 207   0.0000      -0.013358        -0.3635
 208   0.0000       0.004946         0.1346

MULLIKEN ATOMIC CHARGES
-----------------------
   0 C :   -0.031076
   1 C :   -0.063703
   2 C :    0.046037
   3 C :    0.032376
   4 C :   -0.067923
   5 S :    0.077368
   6 C :   -0.045658
   7 C :    0.020368
   8 C :    0.031285
   9 C :   -0.023772
  10 S :    0.072684
  11 C :   -0.015058
  12 C :   -0.013882
  13 C :   -0.024613
  14 C :    0.031830
  15 C :    0.017910
  16 C :   -0.046980
  17 S :    0.071266
  18 C :   -0.052767
  19 C :    0.032489
  20 C :    0.026552
  21 C :   -0.024580
  22 S :    0.072072
  23 C :   -0.066582
  24 C :    0.108679
  25 C :    0.008950
  26 N :   -0.044754
  27 C :   -0.027907
  28 C :   -0.021597
  29 C :    0.115251
  30 C :   -0.117651
  31 C :   -0.016914
  32 C :    0.053022
  33 N :   -0.034905
  34 C :   -0.109138
  35 S :    0.140597
  36 C :   -0.019542
  37 N :    0.282332
  38 O :   -0.270555
  39 O :   -0.284621
  40 C :    0.011586
  41 C :    0.090007
  42 C :   -0.002924
  43 C :   -0.104578
  44 C :    0.083325
  45 C :    0.015443
  46 N :   -0.071910
  47 C :   -0.030262
  48 C :   -0.025170
  49 C :    0.118533
  50 C :   -0.089454
  51 C :    0.001963
  52 C :   -0.026453
  53 H :    0.019064
  54 H :    0.019914
  55 H :   -0.012984
  56 H :   -0.013530
  57 H :   -0.016100
  58 H :   -0.014694
  59 H :   -0.008486
  60 H :   -0.008285
  61 H :   -0.015015
  62 H :   -0.017119
  63 H :   -0.017697
  64 H :   -0.018537
  65 H :   -0.036844
  66 H :    0.104940
  67 H :    0.111847
  68 H :   -0.048648
  69 H :   -0.033627
  70 H :   -0.021453
  71 H :   -0.020838
  72 H :    0.018530
  73 H :    0.139813
  74 H :    0.004324
  75 H :   -0.001168
  76 H :   -0.007553
  77 H :    0.120463
  78 H :    0.107405
  79 H :   -0.048650
  80 H :   -0.027387
  81 H :   -0.043869
  82 H :   -0.022461
  83 H :    0.004633
  84 H :    0.017013
Sum of atomic charges:   -0.0000000

LOEWDIN ATOMIC CHARGES
----------------------
   0 C :   -0.080239
   1 C :   -0.139206
   2 C :   -0.035682
   3 C :   -0.026917
   4 C :   -0.179734
   5 S :    0.351184
   6 C :   -0.179356
   7 C :   -0.036585
   8 C :   -0.036282
   9 C :   -0.145551
  10 S :    0.369511
  11 C :   -0.064624
  12 C :   -0.062236
  13 C :   -0.147617
  14 C :   -0.036090
  15 C :   -0.038771
  16 C :   -0.178540
  17 S :    0.369641
  18 C :   -0.183723
  19 C :   -0.036734
  20 C :   -0.037230
  21 C :   -0.143127
  22 S :    0.378019
  23 C :   -0.057664
  24 C :   -0.069771
  25 C :    0.040798
  26 N :   -0.014271
  27 C :   -0.063167
  28 C :   -0.005525
  29 C :   -0.054298
  30 C :   -0.013450
  31 C :   -0.055254
  32 C :    0.003097
  33 N :    0.039079
  34 C :   -0.091455
  35 S :    0.444533
  36 C :   -0.227060
  37 N :    0.274735
  38 O :   -0.236177
  39 O :   -0.250631
  40 C :    0.004443
  41 C :   -0.119178
  42 C :   -0.018431
  43 C :   -0.045326
  44 C :   -0.064845
  45 C :    0.033877
  46 N :   -0.029621
  47 C :   -0.067246
  48 C :   -0.005090
  49 C :   -0.057020
  50 C :    0.005179
  51 C :   -0.017199
  52 C :   -0.061369
  53 H :    0.027951
  54 H :    0.025344
  55 H :    0.032494
  56 H :    0.031928
  57 H :    0.030431
  58 H :    0.033088
  59 H :    0.027566
  60 H :    0.027852
  61 H :    0.032891
  62 H :    0.030167
  63 H :    0.030648
  64 H :    0.029920
  65 H :    0.021635
  66 H :    0.066900
  67 H :    0.073964
  68 H :    0.022474
  69 H :    0.024423
  70 H :    0.012599
  71 H :    0.027844
  72 H :    0.019652
  73 H :    0.094331
  74 H :    0.044223
  75 H :    0.031486
  76 H :    0.018453
  77 H :    0.069546
  78 H :    0.072923
  79 H :    0.022210
  80 H :    0.026597
  81 H :    0.022913
  82 H :    0.026196
  83 H :    0.016080
  84 H :    0.023461

  Mayer bond orders larger than 0.100000
B(  0-C ,  1-C ) :   1.8549 B(  0-C , 53-H ) :   0.9508 B(  0-C , 54-H ) :   0.9411
B(  1-C ,  2-C ) :   1.0873 B(  1-C ,  5-S ) :   1.0088 B(  2-C ,  3-C ) :   1.6448
B(  2-C , 55-H ) :   0.9935 B(  3-C ,  4-C ) :   1.1691 B(  3-C , 56-H ) :   0.9915
B(  4-C ,  5-S ) :   1.0468 B(  4-C ,  6-C ) :   1.5190 B(  6-C ,  7-C ) :   1.2001
B(  6-C , 10-S ) :   1.0429 B(  7-C ,  8-C ) :   1.5607 B(  7-C , 57-H ) :   0.9931
B(  8-C ,  9-C ) :   1.1797 B(  8-C , 58-H ) :   0.9993 B(  9-C , 10-S ) :   1.0421
B(  9-C , 11-C ) :   1.5174 B( 11-C , 12-C ) :   1.2191 B( 11-C , 59-H ) :   0.9710
B( 12-C , 13-C ) :   1.5129 B( 12-C , 60-H ) :   0.9716 B( 13-C , 14-C ) :   1.1859
B( 13-C , 17-S ) :   1.0415 B( 14-C , 15-C ) :   1.5488 B( 14-C , 61-H ) :   0.9995
B( 15-C , 16-C ) :   1.2136 B( 15-C , 62-H ) :   0.9933 B( 16-C , 17-S ) :   1.0468
B( 16-C , 18-C ) :   1.4898 B( 18-C , 19-C ) :   1.1905 B( 18-C , 22-S ) :   1.0399
B( 19-C , 20-C ) :   1.5973 B( 19-C , 63-H ) :   0.9927 B( 20-C , 21-C ) :   1.1281
B( 20-C , 64-H ) :   0.9958 B( 21-C , 22-S ) :   1.0237 B( 21-C , 23-C ) :   1.6706
B( 23-C , 24-C ) :   1.0382 B( 23-C , 65-H ) :   0.9527 B( 24-C , 25-C ) :   1.2899
B( 24-C , 30-C ) :   1.3270 B( 25-C , 26-N ) :   1.2821 B( 25-C , 27-C ) :   1.3079
B( 26-N , 66-H ) :   0.9488 B( 26-N , 67-H ) :   0.9438 B( 27-C , 28-C ) :   1.4261
B( 27-C , 68-H ) :   0.9869 B( 28-C , 29-C ) :   1.3099 B( 28-C , 69-H ) :   0.9876
B( 29-C , 30-C ) :   1.3549 B( 29-C , 31-C ) :   1.0852 B( 30-C , 70-H ) :   0.9787
B( 31-C , 32-C ) :   1.7186 B( 31-C , 71-H ) :   0.9743 B( 32-C , 33-N ) :   1.0825
B( 32-C , 72-H ) :   0.9562 B( 33-N , 34-C ) :   1.2542 B( 33-N , 73-H ) :   0.9060
B( 34-C , 35-S ) :   1.1370 B( 34-C , 41-C ) :   1.3411 B( 35-S , 36-C ) :   1.0539
B( 36-C , 37-N ) :   1.0035 B( 36-C , 40-C ) :   1.4522 B( 37-N , 38-O ) :   1.5151
B( 37-N , 39-O ) :   1.4909 B( 38-O , 39-O ) :   0.2440 B( 40-C , 41-C ) :   1.2575
B( 40-C , 74-H ) :   1.0085 B( 41-C , 42-C ) :   1.0568 B( 42-C , 43-C ) :   1.7559
B( 42-C , 75-H ) :   0.9657 B( 43-C , 44-C ) :   1.0339 B( 43-C , 76-H ) :   0.9616
B( 44-C , 45-C ) :   1.3085 B( 44-C , 50-C ) :   1.3875 B( 45-C , 46-N ) :   1.2419
B( 45-C , 47-C ) :   1.3302 B( 46-N , 77-H ) :   0.9425 B( 46-N , 78-H ) :   0.9477
B( 47-C , 48-C ) :   1.3898 B( 47-C , 79-H ) :   0.9902 B( 48-C , 49-C ) :   1.3280
B( 48-C , 80-H ) :   0.9950 B( 49-C , 50-C ) :   1.3325 B( 49-C , 51-C ) :   1.0666
B( 50-C , 81-H ) :   0.9882 B( 51-C , 52-C ) :   1.9557 B( 51-C , 82-H ) :   0.9670
B( 52-C , 83-H ) :   0.9478 B( 52-C , 84-H ) :   0.9484

-----------------------------------------------------------------------------
         ABSORPTION SPECTRUM VIA TRANSITION ELECTRIC DIPOLE MOMENTS
-----------------------------------------------------------------------------
State   Energy  Wavelength   fosc         T2         TX        TY        TZ
        (cm-1)    (nm)                  (au**2)     (au)      (au)      (au)
-----------------------------------------------------------------------------
   0   10870.1    920.0   1.641343013  49.70950   6.36665  -3.02706  -0.11063
   1   18068.3    553.5   0.019597459   0.35707   0.53076   0.24942  -0.11472
   2   19871.6    503.2   0.134298185   2.22491   1.10462   0.95419  -0.30699
   3   21933.2    455.9   0.109295484   1.64050   0.97810   0.55074  -0.61686
   4   22962.4    435.5   0.174562392   2.50270  -1.02404  -1.14130   0.38922
   5   25189.3    397.0   0.613168260   8.01381   2.00165   1.67286  -1.09944
   6   25855.8    386.8   0.030986915   0.39454   0.47209   0.37195  -0.18256
   7   26737.2    374.0   0.022621268   0.27853  -0.21256   0.48183  -0.03459
   8   27415.4    364.8   0.106225979   1.27559  -0.18830   0.62678   0.92048
   9   29191.4    342.6   0.453711885   5.11684   0.13594  -1.38297  -1.78487
  10   29563.0    338.3   0.108742208   1.21095   0.04791  -0.91654   0.60713
  11   30420.2    328.7   0.077023812   0.83356  -0.07868   0.90951  -0.01253
  12   31071.6    321.8   0.048907031   0.51818  -0.58930  -0.37813   0.16711
  13   31332.1    319.2   0.050664013   0.53234  -0.10928  -0.64307   0.32688
  14   31671.6    315.7   0.134302553   1.39601  -0.19018   1.14781  -0.20587
  15   32004.4    312.5   0.009342105   0.09610  -0.07752  -0.28766   0.08566
  16   32504.9    307.6   0.205380521   2.08011   0.40802   1.34619  -0.31845
  17   32799.4    304.9   0.050597672   0.50786   0.53644  -0.46698   0.04493
  18   32836.4    304.5   0.009169297   0.09193   0.28838   0.09332  -0.00772
  19   33070.3    302.4   0.012073027   0.12019  -0.01553  -0.16874   0.30245
  20   33497.5    298.5   0.001681953   0.01653   0.08212   0.09479  -0.02829
  21   33705.7    296.7   0.045970142   0.44900  -0.33633  -0.57749   0.04884
  22   34083.2    293.4   0.060407317   0.58348  -0.01362   0.71123  -0.27828
  23   34349.3    291.1   0.004332834   0.04153  -0.07969   0.16951  -0.08026
  24   34964.1    286.0   0.131731090   1.24034  -0.50386  -0.90351   0.41247
  25   35599.9    280.9   0.037925647   0.35072  -0.57559  -0.07298   0.11869
  26   36561.8    273.5   0.024618374   0.22167  -0.34931   0.24414   0.20013
  27   36578.7    273.4   0.011004652   0.09904   0.05963   0.19344   0.24098
  28   36848.4    271.4   0.004366506   0.03901  -0.06683   0.14892  -0.11122
  29   37146.6    269.2   0.031089959   0.27554  -0.14710   0.47718  -0.16186
  30   37303.9    268.1   0.049901952   0.44039  -0.36383   0.49674  -0.24752
  31   38179.0    261.9   0.034444356   0.29701  -0.11816  -0.10851   0.52084
  32   38541.3    259.5   0.059168209   0.50540  -0.26890  -0.44343  -0.48627
  33   39147.3    255.4   0.088032655   0.74032  -0.76167   0.27251  -0.29312
  34   39664.0    252.1   0.037816939   0.31388  -0.30363  -0.42500   0.20265
  35   40072.0    249.6   0.336864747   2.76752  -1.59419  -0.17203   0.44326

FINAL SINGLE POINT ENERGY     -3976.798316077478

DIPOLE MOMENT
-------------
                                X             Y             Z
Electronic contribution:      7.11075       7.42901      20.44225
Nuclear contribution   :     -9.68674      -9.34036     -20.64532
                        -----------------------------------------
Total Dipole Moment    :     -2.57599      -1.91135      -0.20307
                        -----------------------------------------
Magnitude (a.u.)       :      3.21407
Magnitude (Debye)      :      8.16951

Rotational constants in cm-1:     0.001096     0.000622     0.000488
Rotational constants in MHz :    32.852459    18.656982    14.619235

                             ****ORCA TERMINATED NORMALLY****
TOTAL RUN TIME: 0 days 0 hours 5 minutes 54 seconds 611 msec
