                         Program Version 4.2.0 -  RELEASE  -
|  1> # ORCA input file
|  2> # SCF done       -203.848993750053          0.000748823434
|  3> ! CAM-B3LYP def2-SVP def2/J RIJCOSX Grid4 TightSCF
|  4> %maxcore 5000
|  5> %tddft
|  6>     Mode sTDDFT
|  7>     Ethresh 5.0
|  8>     maxcore 5000
|  9> end
| 10>
| 11> %pal
| 12>   nprocs 6
| 13>   end
| 14> * xyz 0 1
| 15>    C        7.17774         2.43607         3.82605
| 16>    C        6.12645         2.27434         3.01259
| 17>    C        5.38661         3.29203         2.31999
| 18>    C        4.36897         2.82786         1.56467
| 19>    C        4.21545         1.41141         1.59135
| 20>    S        5.43068         0.69135         2.63088
| 21>    C        3.27880         0.66334         0.92807
| 22>    C        2.25860         1.11017         0.04740
| 23>    C        1.49292         0.11657        -0.46220
| 24>    C        1.86081        -1.19526        -0.03948
| 25>    S        3.20602        -1.08095         1.08666
| 26>    C        1.21785        -2.34047        -0.40412
| 27>    C        1.55389        -3.68966        -0.10586
| 28>    S        0.24919        -4.81807         0.14104
| 29>    C        1.33822        -6.15242         0.39224
| 30>    C        2.65102        -5.72263         0.27973
| 31>    C        2.76844        -4.34733        -0.02545
| 32>    C        4.07559        -3.72851        -0.41132
| 33>    N        3.90812        -2.92043        -1.65021
| 34>    O        3.29803        -3.42498        -2.56117
| 35>    O        4.43786        -1.83759        -1.67973
| 36>    C        5.11317        -4.80945        -0.72186
| 37>    C        5.15644        -5.78536         0.44403
| 38>    C        3.85248        -6.59007         0.49595
| 39>    N        3.81204        -7.20540         1.85485
| 40>    O        3.50696        -6.49838         2.77856
| 41>    O        4.13572        -8.36792         1.93378
| 42>    C        0.71260        -7.41256         0.62460
| 43>    C        1.27389        -8.63993         0.65706
| 44>    N        0.59711        -9.81189         0.86690
| 45>    C        1.31877       -10.97315         1.20014
| 46>    C        0.87183       -11.82000         2.21476
| 47>    S       -0.64476       -11.51214         3.07607
| 48>    C       -1.50385       -10.59014         1.83563
| 49>    C       -2.89083       -10.57629         1.86398
| 50>    C       -3.59591        -9.87313         0.90605
| 51>    C       -2.91641        -9.23834        -0.12140
| 52>    C       -1.53542        -9.25693        -0.15274
| 53>    C       -0.80882        -9.88140         0.85870
| 54>    C        1.62766       -12.92253         2.58949
| 55>    C        2.81565       -13.21140         1.94474
| 56>    C        3.24025       -12.40339         0.90327
| 57>    C        2.49668       -11.29821         0.53314
| 58>    C        0.13116       -13.54346        -0.77485
| 59>    C       -1.26945       -13.54771        -0.27841
| 60>    S       -2.45691       -12.58903        -1.08557
| 61>    C       -3.73630       -13.19790        -0.06875
| 62>    C       -3.22648       -14.08604         0.86154
| 63>    C       -1.82894       -14.28295         0.73214
| 64>    C       -1.06517       -15.21606         1.62238
| 65>    N       -0.08938       -16.01707         0.84171
| 66>    O        1.03335       -16.09270         1.27808
| 67>    O       -0.49246       -16.56709        -0.15271
| 68>    C       -2.01518       -16.20741         2.29926
| 69>    C       -3.15308       -15.44614         2.96218
| 70>    C       -4.04483       -14.78822         1.90735
| 71>    N       -4.92023       -13.81173         2.61498
| 72>    O       -4.38133       -12.95758         3.27240
| 73>    O       -6.11294       -13.94594         2.48798
| 74>    C       -5.07640       -12.77632        -0.27658
| 75>    C       -5.40289       -11.72576        -1.07494
| 76>    C       -6.71030       -11.25395        -1.28521
| 77>    C       -6.99243       -10.10178        -1.96941
| 78>    C       -8.27139        -9.54370        -2.23133
| 79>    C       -8.24345        -8.36529        -2.90610
| 80>    C       -6.93739        -7.90740        -3.21525
| 81>    S       -5.74568        -9.05352        -2.63161
| 82>    C       -6.57209        -6.74635        -3.85127
| 83>    C       -7.42908        -5.73759        -4.37608
| 84>    C       -6.78152        -4.69512        -4.94005
| 85>    C       -5.34982        -4.79462        -4.90377
| 86>    S       -4.89415        -6.30986        -4.10835
| 87>    C       -4.45390        -3.91731        -5.37470
| 88>    H        7.56762         3.41749         4.03087
| 89>    H        7.66248         1.60062         4.29682
| 90>    H        5.65585         4.32852         2.42159
| 91>    H        3.71334         3.44904         0.98045
| 92>    H        2.13020         2.15238        -0.18325
| 93>    H        0.67998         0.26299        -1.15128
| 94>    H        0.28623        -2.20980        -0.94123
| 95>    H        4.45868        -3.04556         0.35532
| 96>    H        6.09221        -4.35135        -0.86827
| 97>    H        4.82846        -5.33263        -1.63837
| 98>    H        5.26812        -5.22339         1.37488
| 99>    H        6.00300        -6.46621         0.34437
|100>    H        3.89015        -7.41585        -0.22347
|101>    H       -0.35803        -7.33608         0.75563
|102>    H        2.33638        -8.78792         0.57377
|103>    H        0.34325       -12.60624        -1.28401
|104>    H       -3.40185       -11.11107         2.64939
|105>    H       -4.67301        -9.84089         0.95022
|106>    H       -3.45899        -8.72501        -0.89983
|107>    H       -1.00499        -8.77328        -0.95836
|108>    H        1.28747       -13.53590         3.41003
|109>    H        3.39282       -14.07053         2.24522
|110>    H        4.15467       -12.62966         0.37807
|111>    H        2.83295       -10.67966        -0.28470
|112>    H        0.84669       -13.67090         0.03473
|113>    H        0.27654       -14.35438        -1.49176
|114>    H       -0.48711       -14.66118         2.36967
|115>    H       -1.47193       -16.79018         3.04487
|116>    H       -2.41275       -16.89015         1.54386
|117>    H       -2.74240       -14.66404         3.60625
|118>    H       -3.74873       -16.12459         3.57514
|119>    H       -4.72061       -15.51723         1.44370
|120>    H       -5.86299       -13.31094         0.23660
|121>    H       -4.60335       -11.18244        -1.56481
|122>    H       -7.53707       -11.81097        -0.86552
|123>    H       -9.16972       -10.03923        -1.90730
|124>    H       -9.11903        -7.80694        -3.18524
|125>    H       -8.49933        -5.82652        -4.31566
|126>    H       -7.25976        -3.84227        -5.38819
|127>    H       -4.77453        -3.00768        -5.85112
|128>    H       -3.39641        -4.08953        -5.29310
|129> *
|130>
|131>                          ****END OF INPUT****

CARTESIAN COORDINATES (ANGSTROEM)
---------------------------------
  C      7.177740    2.436070    3.826050
  C      6.126450    2.274340    3.012590
  C      5.386610    3.292030    2.319990
  C      4.368970    2.827860    1.564670
  C      4.215450    1.411410    1.591350
  S      5.430680    0.691350    2.630880
  C      3.278800    0.663340    0.928070
  C      2.258600    1.110170    0.047400
  C      1.492920    0.116570   -0.462200
  C      1.860810   -1.195260   -0.039480
  S      3.206020   -1.080950    1.086660
  C      1.217850   -2.340470   -0.404120
  C      1.553890   -3.689660   -0.105860
  S      0.249190   -4.818070    0.141040
  C      1.338220   -6.152420    0.392240
  C      2.651020   -5.722630    0.279730
  C      2.768440   -4.347330   -0.025450
  C      4.075590   -3.728510   -0.411320
  N      3.908120   -2.920430   -1.650210
  O      3.298030   -3.424980   -2.561170
  O      4.437860   -1.837590   -1.679730
  C      5.113170   -4.809450   -0.721860
  C      5.156440   -5.785360    0.444030
  C      3.852480   -6.590070    0.495950
  N      3.812040   -7.205400    1.854850
  O      3.506960   -6.498380    2.778560
  O      4.135720   -8.367920    1.933780
  C      0.712600   -7.412560    0.624600
  C      1.273890   -8.639930    0.657060
  N      0.597110   -9.811890    0.866900
  C      1.318770  -10.973150    1.200140
  C      0.871830  -11.820000    2.214760
  S     -0.644760  -11.512140    3.076070
  C     -1.503850  -10.590140    1.835630
  C     -2.890830  -10.576290    1.863980
  C     -3.595910   -9.873130    0.906050
  C     -2.916410   -9.238340   -0.121400
  C     -1.535420   -9.256930   -0.152740
  C     -0.808820   -9.881400    0.858700
  C      1.627660  -12.922530    2.589490
  C      2.815650  -13.211400    1.944740
  C      3.240250  -12.403390    0.903270
  C      2.496680  -11.298210    0.533140
  C      0.131160  -13.543460   -0.774850
  C     -1.269450  -13.547710   -0.278410
  S     -2.456910  -12.589030   -1.085570
  C     -3.736300  -13.197900   -0.068750
  C     -3.226480  -14.086040    0.861540
  C     -1.828940  -14.282950    0.732140
  C     -1.065170  -15.216060    1.622380
  N     -0.089380  -16.017070    0.841710
  O      1.033350  -16.092700    1.278080
  O     -0.492460  -16.567090   -0.152710
  C     -2.015180  -16.207410    2.299260
  C     -3.153080  -15.446140    2.962180
  C     -4.044830  -14.788220    1.907350
  N     -4.920230  -13.811730    2.614980
  O     -4.381330  -12.957580    3.272400
  O     -6.112940  -13.945940    2.487980
  C     -5.076400  -12.776320   -0.276580
  C     -5.402890  -11.725760   -1.074940
  C     -6.710300  -11.253950   -1.285210
  C     -6.992430  -10.101780   -1.969410
  C     -8.271390   -9.543700   -2.231330
  C     -8.243450   -8.365290   -2.906100
  C     -6.937390   -7.907400   -3.215250
  S     -5.745680   -9.053520   -2.631610
  C     -6.572090   -6.746350   -3.851270
  C     -7.429080   -5.737590   -4.376080
  C     -6.781520   -4.695120   -4.940050
  C     -5.349820   -4.794620   -4.903770
  S     -4.894150   -6.309860   -4.108350
  C     -4.453900   -3.917310   -5.374700
  H      7.567620    3.417490    4.030870
  H      7.662480    1.600620    4.296820
  H      5.655850    4.328520    2.421590
  H      3.713340    3.449040    0.980450
  H      2.130200    2.152380   -0.183250
  H      0.679980    0.262990   -1.151280
  H      0.286230   -2.209800   -0.941230
  H      4.458680   -3.045560    0.355320
  H      6.092210   -4.351350   -0.868270
  H      4.828460   -5.332630   -1.638370
  H      5.268120   -5.223390    1.374880
  H      6.003000   -6.466210    0.344370
  H      3.890150   -7.415850   -0.223470
  H     -0.358030   -7.336080    0.755630
  H      2.336380   -8.787920    0.573770
  H      0.343250  -12.606240   -1.284010
  H     -3.401850  -11.111070    2.649390
  H     -4.673010   -9.840890    0.950220
  H     -3.458990   -8.725010   -0.899830
  H     -1.004990   -8.773280   -0.958360
  H      1.287470  -13.535900    3.410030
  H      3.392820  -14.070530    2.245220
  H      4.154670  -12.629660    0.378070
  H      2.832950  -10.679660   -0.284700
  H      0.846690  -13.670900    0.034730
  H      0.276540  -14.354380   -1.491760
  H     -0.487110  -14.661180    2.369670
  H     -1.471930  -16.790180    3.044870
  H     -2.412750  -16.890150    1.543860
  H     -2.742400  -14.664040    3.606250
  H     -3.748730  -16.124590    3.575140
  H     -4.720610  -15.517230    1.443700
  H     -5.862990  -13.310940    0.236600
  H     -4.603350  -11.182440   -1.564810
  H     -7.537070  -11.810970   -0.865520
  H     -9.169720  -10.039230   -1.907300
  H     -9.119030   -7.806940   -3.185240
  H     -8.499330   -5.826520   -4.315660
  H     -7.259760   -3.842270   -5.388190
  H     -4.774530   -3.007680   -5.851120
  H     -3.396410   -4.089530   -5.293100

 Total Charge           Charge          ....    0
 Multiplicity           Mult            ....    1
 Number of Electrons    NEL             ....  570
 Basis Dimension        Dim             .... 1255

ORBITAL ENERGIES
----------------

  NO   OCC          E(Eh)            E(eV)
   0   2.0000     -88.951579     -2420.4955
   1   2.0000     -88.944758     -2420.3099
   2   2.0000     -88.942831     -2420.2575
   3   2.0000     -88.937899     -2420.1233
   4   2.0000     -88.937042     -2420.0999
   5   2.0000     -88.935587     -2420.0603
   6   2.0000     -88.933021     -2419.9905
   7   2.0000     -19.253989      -523.9277
   8   2.0000     -19.253380      -523.9111
   9   2.0000     -19.245862      -523.7065
  10   2.0000     -19.244859      -523.6792
  11   2.0000     -19.241508      -523.5881
  12   2.0000     -19.241148      -523.5783
  13   2.0000     -19.232746      -523.3496
  14   2.0000     -19.230956      -523.3009
  15   2.0000     -14.649152      -398.6237
  16   2.0000     -14.642072      -398.4310
  17   2.0000     -14.637033      -398.2939
  18   2.0000     -14.629272      -398.0827
  19   2.0000     -14.453625      -393.3031
  20   2.0000     -10.339457      -281.3509
  21   2.0000     -10.332889      -281.1722
  22   2.0000     -10.332419      -281.1594
  23   2.0000     -10.322823      -280.8983
  24   2.0000     -10.319004      -280.7944
  25   2.0000     -10.314103      -280.6610
  26   2.0000     -10.312423      -280.6153
  27   2.0000     -10.309494      -280.5356
  28   2.0000     -10.307575      -280.4834
  29   2.0000     -10.305749      -280.4337
  30   2.0000     -10.305727      -280.4331
  31   2.0000     -10.304633      -280.4033
  32   2.0000     -10.303210      -280.3646
  33   2.0000     -10.302881      -280.3556
  34   2.0000     -10.302114      -280.3348
  35   2.0000     -10.301802      -280.3263
  36   2.0000     -10.301709      -280.3238
  37   2.0000     -10.301445      -280.3166
  38   2.0000     -10.301024      -280.3051
  39   2.0000     -10.297292      -280.2035
  40   2.0000     -10.296064      -280.1701
  41   2.0000     -10.295208      -280.1469
  42   2.0000     -10.294259      -280.1210
  43   2.0000     -10.292200      -280.0650
  44   2.0000     -10.289467      -279.9906
  45   2.0000     -10.289049      -279.9793
  46   2.0000     -10.288125      -279.9541
  47   2.0000     -10.287838      -279.9463
  48   2.0000     -10.284867      -279.8655
  49   2.0000     -10.284329      -279.8508
  50   2.0000     -10.283300      -279.8228
  51   2.0000     -10.281983      -279.7870
  52   2.0000     -10.280909      -279.7578
  53   2.0000     -10.280833      -279.7557
  54   2.0000     -10.280140      -279.7368
  55   2.0000     -10.278154      -279.6828
  56   2.0000     -10.277418      -279.6628
  57   2.0000     -10.277256      -279.6584
  58   2.0000     -10.277181      -279.6563
  59   2.0000     -10.276789      -279.6457
  60   2.0000     -10.276199      -279.6296
  61   2.0000     -10.275800      -279.6187
  62   2.0000     -10.275757      -279.6176
  63   2.0000     -10.272234      -279.5217
  64   2.0000     -10.270436      -279.4728
  65   2.0000     -10.269468      -279.4464
  66   2.0000     -10.268650      -279.4242
  67   2.0000     -10.268279      -279.4141
  68   2.0000     -10.265297      -279.3329
  69   2.0000     -10.264382      -279.3080
  70   2.0000     -10.263107      -279.2733
  71   2.0000     -10.262899      -279.2677
  72   2.0000     -10.262000      -279.2432
  73   2.0000      -8.046922      -218.9679
  74   2.0000      -8.040878      -218.8034
  75   2.0000      -8.038778      -218.7463
  76   2.0000      -8.034563      -218.6316
  77   2.0000      -8.033058      -218.5906
  78   2.0000      -8.030442      -218.5194
  79   2.0000      -8.029741      -218.5004
  80   2.0000      -6.016014      -163.7041
  81   2.0000      -6.012051      -163.5962
  82   2.0000      -6.010085      -163.5427
  83   2.0000      -6.009251      -163.5200
  84   2.0000      -6.008557      -163.5011
  85   2.0000      -6.006171      -163.4362
  86   2.0000      -6.004599      -163.3934
  87   2.0000      -6.004385      -163.3876
  88   2.0000      -6.002865      -163.3463
  89   2.0000      -6.002818      -163.3450
  90   2.0000      -6.000662      -163.2863
  91   2.0000      -6.000495      -163.2818
  92   2.0000      -5.999589      -163.2571
  93   2.0000      -5.999554      -163.2562
  94   2.0000      -5.998898      -163.2383
  95   2.0000      -5.996856      -163.1827
  96   2.0000      -5.995706      -163.1515
  97   2.0000      -5.995083      -163.1345
  98   2.0000      -5.993767      -163.0987
  99   2.0000      -5.990365      -163.0061
 100   2.0000      -5.990228      -163.0024
 101   2.0000      -1.333856       -36.2961
 102   2.0000      -1.326008       -36.0825
 103   2.0000      -1.321572       -35.9618
 104   2.0000      -1.312646       -35.7189
 105   2.0000      -1.154345       -31.4113
 106   2.0000      -1.146113       -31.1873
 107   2.0000      -1.142467       -31.0881
 108   2.0000      -1.132668       -30.8215
 109   2.0000      -1.075695       -29.2712
 110   2.0000      -1.001306       -27.2469
 111   2.0000      -0.995680       -27.0938
 112   2.0000      -0.991561       -26.9817
 113   2.0000      -0.985523       -26.8174
 114   2.0000      -0.968656       -26.3585
 115   2.0000      -0.963214       -26.2104
 116   2.0000      -0.958568       -26.0840
 117   2.0000      -0.954390       -25.9703
 118   2.0000      -0.951034       -25.8789
 119   2.0000      -0.945854       -25.7380
 120   2.0000      -0.932321       -25.3697
 121   2.0000      -0.923248       -25.1229
 122   2.0000      -0.906576       -24.6692
 123   2.0000      -0.895488       -24.3675
 124   2.0000      -0.886447       -24.1215
 125   2.0000      -0.877400       -23.8753
 126   2.0000      -0.870488       -23.6872
 127   2.0000      -0.856575       -23.3086
 128   2.0000      -0.851830       -23.1795
 129   2.0000      -0.847064       -23.0498
 130   2.0000      -0.846129       -23.0244
 131   2.0000      -0.844110       -22.9694
 132   2.0000      -0.840537       -22.8722
 133   2.0000      -0.838500       -22.8167
 134   2.0000      -0.836782       -22.7700
 135   2.0000      -0.833025       -22.6677
 136   2.0000      -0.821817       -22.3628
 137   2.0000      -0.818649       -22.2766
 138   2.0000      -0.814720       -22.1697
 139   2.0000      -0.811060       -22.0701
 140   2.0000      -0.809173       -22.0187
 141   2.0000      -0.798108       -21.7176
 142   2.0000      -0.786221       -21.3942
 143   2.0000      -0.774018       -21.0621
 144   2.0000      -0.760472       -20.6935
 145   2.0000      -0.757992       -20.6260
 146   2.0000      -0.732958       -19.9448
 147   2.0000      -0.731463       -19.9041
 148   2.0000      -0.723947       -19.6996
 149   2.0000      -0.723768       -19.6947
 150   2.0000      -0.717199       -19.5160
 151   2.0000      -0.712345       -19.3839
 152   2.0000      -0.694923       -18.9098
 153   2.0000      -0.688743       -18.7417
 154   2.0000      -0.685139       -18.6436
 155   2.0000      -0.684540       -18.6273
 156   2.0000      -0.679458       -18.4890
 157   2.0000      -0.678284       -18.4570
 158   2.0000      -0.677499       -18.4357
 159   2.0000      -0.662455       -18.0263
 160   2.0000      -0.660784       -17.9808
 161   2.0000      -0.647064       -17.6075
 162   2.0000      -0.644735       -17.5441
 163   2.0000      -0.641990       -17.4694
 164   2.0000      -0.639824       -17.4105
 165   2.0000      -0.638657       -17.3787
 166   2.0000      -0.635648       -17.2969
 167   2.0000      -0.633422       -17.2363
 168   2.0000      -0.631030       -17.1712
 169   2.0000      -0.629966       -17.1422
 170   2.0000      -0.628891       -17.1130
 171   2.0000      -0.621028       -16.8990
 172   2.0000      -0.620227       -16.8772
 173   2.0000      -0.617761       -16.8101
 174   2.0000      -0.615032       -16.7359
 175   2.0000      -0.614689       -16.7265
 176   2.0000      -0.607599       -16.5336
 177   2.0000      -0.605829       -16.4854
 178   2.0000      -0.602015       -16.3817
 179   2.0000      -0.599090       -16.3021
 180   2.0000      -0.597216       -16.2511
 181   2.0000      -0.597128       -16.2487
 182   2.0000      -0.593448       -16.1485
 183   2.0000      -0.588139       -16.0041
 184   2.0000      -0.586667       -15.9640
 185   2.0000      -0.583716       -15.8837
 186   2.0000      -0.582724       -15.8567
 187   2.0000      -0.571700       -15.5568
 188   2.0000      -0.565808       -15.3964
 189   2.0000      -0.562624       -15.3098
 190   2.0000      -0.559741       -15.2313
 191   2.0000      -0.554555       -15.0902
 192   2.0000      -0.553367       -15.0579
 193   2.0000      -0.552753       -15.0412
 194   2.0000      -0.544487       -14.8163
 195   2.0000      -0.541930       -14.7467
 196   2.0000      -0.539882       -14.6909
 197   2.0000      -0.528540       -14.3823
 198   2.0000      -0.527103       -14.3432
 199   2.0000      -0.524970       -14.2852
 200   2.0000      -0.522048       -14.2056
 201   2.0000      -0.519634       -14.1400
 202   2.0000      -0.517041       -14.0694
 203   2.0000      -0.515430       -14.0256
 204   2.0000      -0.514359       -13.9964
 205   2.0000      -0.511397       -13.9158
 206   2.0000      -0.509400       -13.8615
 207   2.0000      -0.504736       -13.7346
 208   2.0000      -0.501137       -13.6366
 209   2.0000      -0.499153       -13.5826
 210   2.0000      -0.496388       -13.5074
 211   2.0000      -0.494558       -13.4576
 212   2.0000      -0.494278       -13.4500
 213   2.0000      -0.493571       -13.4307
 214   2.0000      -0.488705       -13.2983
 215   2.0000      -0.487623       -13.2689
 216   2.0000      -0.486791       -13.2463
 217   2.0000      -0.485720       -13.2171
 218   2.0000      -0.479115       -13.0374
 219   2.0000      -0.476897       -12.9770
 220   2.0000      -0.474611       -12.9148
 221   2.0000      -0.473265       -12.8782
 222   2.0000      -0.472796       -12.8654
 223   2.0000      -0.470120       -12.7926
 224   2.0000      -0.468984       -12.7617
 225   2.0000      -0.465207       -12.6589
 226   2.0000      -0.463557       -12.6140
 227   2.0000      -0.461243       -12.5511
 228   2.0000      -0.460852       -12.5404
 229   2.0000      -0.456060       -12.4100
 230   2.0000      -0.454528       -12.3683
 231   2.0000      -0.452734       -12.3195
 232   2.0000      -0.449638       -12.2353
 233   2.0000      -0.447079       -12.1656
 234   2.0000      -0.442392       -12.0381
 235   2.0000      -0.440274       -11.9805
 236   2.0000      -0.438646       -11.9362
 237   2.0000      -0.434832       -11.8324
 238   2.0000      -0.429713       -11.6931
 239   2.0000      -0.426765       -11.6129
 240   2.0000      -0.425750       -11.5853
 241   2.0000      -0.422886       -11.5073
 242   2.0000      -0.421238       -11.4625
 243   2.0000      -0.417635       -11.3644
 244   2.0000      -0.416313       -11.3285
 245   2.0000      -0.414502       -11.2792
 246   2.0000      -0.413571       -11.2538
 247   2.0000      -0.409381       -11.1398
 248   2.0000      -0.408424       -11.1138
 249   2.0000      -0.405174       -11.0253
 250   2.0000      -0.400562       -10.8999
 251   2.0000      -0.395078       -10.7506
 252   2.0000      -0.391308       -10.6480
 253   2.0000      -0.389567       -10.6007
 254   2.0000      -0.387586       -10.5467
 255   2.0000      -0.386155       -10.5078
 256   2.0000      -0.383276       -10.4295
 257   2.0000      -0.379782       -10.3344
 258   2.0000      -0.378191       -10.2911
 259   2.0000      -0.375635       -10.2215
 260   2.0000      -0.374801       -10.1989
 261   2.0000      -0.373475       -10.1628
 262   2.0000      -0.372783       -10.1439
 263   2.0000      -0.369453       -10.0533
 264   2.0000      -0.366712        -9.9788
 265   2.0000      -0.366567        -9.9748
 266   2.0000      -0.362919        -9.8755
 267   2.0000      -0.358591        -9.7578
 268   2.0000      -0.355059        -9.6616
 269   2.0000      -0.337157        -9.1745
 270   2.0000      -0.332147        -9.0382
 271   2.0000      -0.331386        -9.0175
 272   2.0000      -0.329483        -8.9657
 273   2.0000      -0.327625        -8.9151
 274   2.0000      -0.320309        -8.7160
 275   2.0000      -0.316564        -8.6141
 276   2.0000      -0.314798        -8.5661
 277   2.0000      -0.314347        -8.5538
 278   2.0000      -0.307319        -8.3626
 279   2.0000      -0.294755        -8.0207
 280   2.0000      -0.274067        -7.4577
 281   2.0000      -0.269915        -7.3448
 282   2.0000      -0.239607        -6.5201
 283   2.0000      -0.213971        -5.8224
 284   2.0000      -0.211471        -5.7544
 285   0.0000      -0.070216        -1.9107
 286   0.0000      -0.058557        -1.5934
 287   0.0000      -0.026146        -0.7115
 288   0.0000      -0.017412        -0.4738
 289   0.0000      -0.014066        -0.3827

MULLIKEN ATOMIC CHARGES
-----------------------
   0 C :   -0.030607
   1 C :   -0.061737
   2 C :    0.051839
   3 C :    0.031103
   4 C :   -0.065178
   5 S :    0.075844
   6 C :   -0.051836
   7 C :    0.038716
   8 C :    0.040049
   9 C :   -0.028561
  10 S :    0.082746
  11 C :   -0.032917
  12 C :   -0.144113
  13 S :    0.127328
  14 C :   -0.118858
  15 C :   -0.045406
  16 C :    0.021907
  17 C :    0.089204
  18 N :    0.188750
  19 O :   -0.223559
  20 O :   -0.221909
  21 C :    0.075584
  22 C :    0.079850
  23 C :    0.083582
  24 N :    0.193751
  25 O :   -0.203467
  26 O :   -0.236243
  27 C :    0.014782
  28 C :    0.068344
  29 N :   -0.186552
  30 C :    0.149849
  31 C :   -0.063160
  32 S :    0.110546
  33 C :   -0.049082
  34 C :   -0.007882
  35 C :    0.035540
  36 C :    0.009062
  37 C :   -0.035955
  38 C :    0.126904
  39 C :   -0.043633
  40 C :    0.056093
  41 C :    0.022702
  42 C :   -0.030109
  43 C :    0.138182
  44 C :   -0.316709
  45 S :    0.136324
  46 C :   -0.108349
  47 C :   -0.016426
  48 C :    0.040786
  49 C :    0.139717
  50 N :    0.178096
  51 O :   -0.227654
  52 O :   -0.218566
  53 C :    0.054133
  54 C :    0.045887
  55 C :    0.139995
  56 N :    0.199817
  57 O :   -0.215582
  58 O :   -0.221252
  59 C :   -0.030211
  60 C :   -0.003989
  61 C :   -0.017624
  62 C :   -0.017939
  63 C :    0.038700
  64 C :    0.029607
  65 C :   -0.048299
  66 S :    0.063495
  67 C :   -0.066257
  68 C :    0.028256
  69 C :    0.051975
  70 C :   -0.063054
  71 S :    0.077661
  72 C :   -0.029466
  73 H :    0.018369
  74 H :    0.021056
  75 H :   -0.012164
  76 H :   -0.011310
  77 H :   -0.015677
  78 H :   -0.011580
  79 H :   -0.003296
  80 H :    0.045811
  81 H :    0.024816
  82 H :    0.027432
  83 H :    0.030047
  84 H :    0.025086
  85 H :    0.029120
  86 H :    0.004013
  87 H :    0.003525
  88 H :    0.020351
  89 H :   -0.010322
  90 H :   -0.002163
  91 H :   -0.014092
  92 H :   -0.011195
  93 H :   -0.007568
  94 H :   -0.005274
  95 H :   -0.011700
  96 H :   -0.021503
  97 H :    0.030297
  98 H :    0.049521
  99 H :    0.016086
 100 H :    0.024386
 101 H :    0.031721
 102 H :    0.039913
 103 H :    0.024263
 104 H :    0.029858
 105 H :   -0.005492
 106 H :    0.007891
 107 H :   -0.012917
 108 H :   -0.012470
 109 H :   -0.013861
 110 H :   -0.010349
 111 H :   -0.010682
 112 H :    0.019963
 113 H :    0.025526
Sum of atomic charges:   -0.0000000

LOEWDIN ATOMIC CHARGES
----------------------
   0 C :   -0.077566
   1 C :   -0.138838
   2 C :   -0.031014
   3 C :   -0.025135
   4 C :   -0.174020
   5 S :    0.348263
   6 C :   -0.176829
   7 C :   -0.029453
   8 C :   -0.028219
   9 C :   -0.145386
  10 S :    0.392708
  11 C :   -0.091472
  12 C :   -0.179285
  13 S :    0.448040
  14 C :   -0.140385
  15 C :   -0.097195
  16 C :   -0.071059
  17 C :    0.005105
  18 N :    0.274128
  19 O :   -0.202569
  20 O :   -0.195253
  21 C :   -0.016273
  22 C :   -0.016883
  23 C :    0.014857
  24 N :    0.273065
  25 O :   -0.181362
  26 O :   -0.207138
  27 C :   -0.124934
  28 C :    0.045011
  29 N :    0.006212
  30 C :    0.012840
  31 C :   -0.162203
  32 S :    0.349581
  33 C :   -0.158660
  34 C :   -0.033562
  35 C :   -0.019365
  36 C :   -0.032131
  37 C :   -0.031336
  38 C :   -0.000479
  39 C :   -0.043043
  40 C :   -0.019167
  41 C :   -0.019942
  42 C :   -0.031427
  43 C :   -0.069409
  44 C :   -0.157880
  45 S :    0.473762
  46 C :   -0.163212
  47 C :   -0.076426
  48 C :   -0.085445
  49 C :    0.019154
  50 N :    0.275899
  51 O :   -0.199068
  52 O :   -0.196066
  53 C :   -0.017822
  54 C :   -0.023118
  55 C :    0.021499
  56 N :    0.279326
  57 O :   -0.183831
  58 O :   -0.192746
  59 C :   -0.052159
  60 C :   -0.029241
  61 C :   -0.059819
  62 C :   -0.141359
  63 C :   -0.034846
  64 C :   -0.028820
  65 C :   -0.182345
  66 S :    0.370406
  67 C :   -0.176301
  68 C :   -0.027123
  69 C :   -0.030278
  70 C :   -0.139467
  71 S :    0.349685
  72 C :   -0.074031
  73 H :    0.028159
  74 H :    0.026057
  75 H :    0.033141
  76 H :    0.032450
  77 H :    0.031278
  78 H :    0.033744
  79 H :    0.034584
  80 H :    0.020250
  81 H :    0.035751
  82 H :    0.031232
  83 H :    0.034136
  84 H :    0.035601
  85 H :    0.034179
  86 H :    0.030746
  87 H :    0.018268
  88 H :    0.033387
  89 H :    0.025689
  90 H :    0.031728
  91 H :    0.019111
  92 H :    0.033132
  93 H :    0.026556
  94 H :    0.033801
  95 H :    0.031378
  96 H :    0.029811
  97 H :    0.038038
  98 H :    0.043548
  99 H :    0.036032
 100 H :    0.035631
 101 H :    0.032250
 102 H :    0.033402
 103 H :    0.035429
 104 H :    0.040554
 105 H :    0.026588
 106 H :    0.014042
 107 H :    0.034647
 108 H :    0.033975
 109 H :    0.031682
 110 H :    0.032598
 111 H :    0.033684
 112 H :    0.028926
 113 H :    0.027653

  Mayer bond orders larger than 0.100000
B(  0-C ,  1-C ) :   1.8671 B(  0-C , 73-H ) :   0.9509 B(  0-C , 74-H ) :   0.9420
B(  1-C ,  2-C ) :   1.0762 B(  1-C ,  5-S ) :   1.0084 B(  2-C ,  3-C ) :   1.6694
B(  2-C , 75-H ) :   0.9929 B(  3-C ,  4-C ) :   1.1461 B(  3-C , 76-H ) :   0.9917
B(  4-C ,  5-S ) :   1.0406 B(  4-C ,  6-C ) :   1.5791 B(  6-C ,  7-C ) :   1.1568
B(  6-C , 10-S ) :   1.0371 B(  7-C ,  8-C ) :   1.6338 B(  7-C , 77-H ) :   0.9907
B(  8-C ,  9-C ) :   1.1120 B(  8-C , 78-H ) :   0.9977 B(  9-C , 10-S ) :   1.0384
B(  9-C , 11-C ) :   1.6672 B( 11-C , 12-C ) :   1.0848 B( 11-C , 79-H ) :   0.9471
B( 12-C , 13-S ) :   1.1031 B( 12-C , 16-C ) :   1.5471 B( 13-S , 14-C ) :   1.1492
B( 14-C , 15-C ) :   1.5104 B( 14-C , 27-C ) :   1.1524 B( 15-C , 16-C ) :   1.2959
B( 15-C , 23-C ) :   0.9890 B( 16-C , 17-C ) :   0.9798 B( 17-C , 18-N ) :   0.8345
B( 17-C , 21-C ) :   1.0697 B( 17-C , 80-H ) :   0.8762 B( 18-N , 19-O ) :   1.5747
B( 18-N , 20-O ) :   1.5547 B( 19-O , 20-O ) :   0.2707 B( 21-C , 22-C ) :   1.1017
B( 21-C , 81-H ) :   0.9261 B( 21-C , 82-H ) :   0.9251 B( 22-C , 23-C ) :   1.0666
B( 22-C , 83-H ) :   0.9185 B( 22-C , 84-H ) :   0.9254 B( 23-C , 24-N ) :   0.8364
B( 23-C , 85-H ) :   0.8936 B( 24-N , 25-O ) :   1.6067 B( 24-N , 26-O ) :   1.5183
B( 25-O , 26-O ) :   0.2688 B( 27-C , 28-C ) :   1.6485 B( 27-C , 86-H ) :   0.9307
B( 28-C , 29-N ) :   1.1227 B( 28-C , 87-H ) :   0.9522 B( 29-N , 30-C ) :   0.9845
B( 29-N , 38-C ) :   0.9661 B( 30-C , 31-C ) :   1.4256 B( 30-C , 42-C ) :   1.4090
B( 31-C , 32-S ) :   0.9844 B( 31-C , 39-C ) :   1.3893 B( 32-S , 33-C ) :   0.9805
B( 33-C , 34-C ) :   1.3989 B( 33-C , 38-C ) :   1.4340 B( 34-C , 35-C ) :   1.3983
B( 34-C , 89-H ) :   0.9767 B( 35-C , 36-C ) :   1.3593 B( 35-C , 90-H ) :   0.9896
B( 36-C , 37-C ) :   1.3660 B( 36-C , 91-H ) :   0.9811 B( 37-C , 38-C ) :   1.3952
B( 37-C , 92-H ) :   1.0010 B( 39-C , 40-C ) :   1.3959 B( 39-C , 93-H ) :   0.9802
B( 40-C , 41-C ) :   1.3669 B( 40-C , 94-H ) :   0.9955 B( 41-C , 42-C ) :   1.3636
B( 41-C , 95-H ) :   0.9908 B( 42-C , 96-H ) :   0.9885 B( 43-C , 44-C ) :   1.0938
B( 43-C , 88-H ) :   0.9309 B( 43-C , 97-H ) :   0.9396 B( 43-C , 98-H ) :   0.9329
B( 44-C , 45-S ) :   1.1610 B( 44-C , 48-C ) :   1.5931 B( 45-S , 46-C ) :   1.1258
B( 46-C , 47-C ) :   1.5087 B( 46-C , 59-C ) :   1.1261 B( 47-C , 48-C ) :   1.3056
B( 47-C , 55-C ) :   0.9865 B( 48-C , 49-C ) :   0.9552 B( 49-C , 50-N ) :   0.8337
B( 49-C , 53-C ) :   1.0690 B( 49-C , 99-H ) :   0.8871 B( 50-N , 51-O ) :   1.5428
B( 50-N , 52-O ) :   1.5782 B( 51-O , 52-O ) :   0.2688 B( 53-C , 54-C ) :   1.0913
B( 53-C ,100-H ) :   0.9267 B( 53-C ,101-H ) :   0.9290 B( 54-C , 55-C ) :   1.0564
B( 54-C ,102-H ) :   0.9212 B( 54-C ,103-H ) :   0.9277 B( 55-C , 56-N ) :   0.8310
B( 55-C ,104-H ) :   0.8921 B( 56-N , 57-O ) :   1.5510 B( 56-N , 58-O ) :   1.5473
B( 57-O , 58-O ) :   0.2633 B( 59-C , 60-C ) :   1.6368 B( 59-C ,105-H ) :   0.9701
B( 60-C , 61-C ) :   1.1496 B( 60-C ,106-H ) :   0.9667 B( 61-C , 62-C ) :   1.5743
B( 61-C ,107-H ) :   0.9881 B( 62-C , 63-C ) :   1.1309 B( 62-C , 66-S ) :   1.0309
B( 63-C , 64-C ) :   1.6086 B( 63-C ,108-H ) :   0.9989 B( 64-C , 65-C ) :   1.1698
B( 64-C ,109-H ) :   0.9924 B( 65-C , 66-S ) :   1.0369 B( 65-C , 67-C ) :   1.5600
B( 67-C , 68-C ) :   1.1499 B( 67-C , 71-S ) :   1.0434 B( 68-C , 69-C ) :   1.6642
B( 68-C ,110-H ) :   0.9925 B( 69-C , 70-C ) :   1.0787 B( 69-C ,111-H ) :   0.9925
B( 70-C , 71-S ) :   1.0070 B( 70-C , 72-C ) :   1.8656 B( 72-C ,112-H ) :   0.9505
B( 72-C ,113-H ) :   0.9423

-----------------------------------------------------------------------------
         ABSORPTION SPECTRUM VIA TRANSITION ELECTRIC DIPOLE MOMENTS
-----------------------------------------------------------------------------
State   Energy  Wavelength   fosc         T2         TX        TY        TZ
        (cm-1)    (nm)                  (au**2)     (au)      (au)      (au)
-----------------------------------------------------------------------------
   0   17875.7    559.4   1.094199785  20.15161  -1.08829   3.61468  -2.42926
   1   19283.5    518.6   1.620811309  27.67090  -2.23048  -4.66242  -0.97860
   2   20729.7    482.4   0.000237027   0.00376   0.01101   0.04916   0.03502
   3   23727.2    421.5   0.003494639   0.04849  -0.04744   0.21088   0.04202
   4   23935.0    417.8   0.001824740   0.02510   0.11024   0.10747  -0.03735
   5   24595.6    406.6   0.003886806   0.05202   0.06567   0.14969   0.15908
   6   25169.1    397.3   0.001873261   0.02450   0.10794   0.01245   0.11268
   7   25688.3    389.3   0.000666854   0.00855  -0.04344  -0.00290  -0.08155
   8   26114.6    382.9   0.207287427   2.61315   1.15290  -0.17757   1.11913
   9   26548.6    376.7   0.026699056   0.33108   0.18670  -0.45445   0.29949
  10   28633.5    349.2   0.001769972   0.02035   0.11195  -0.08781  -0.01032
  11   29122.8    343.4   0.238537901   2.69649   0.18628  -1.44298   0.76131
  12   29534.1    338.6   0.056446680   0.62920   0.11714  -0.66507   0.41613
  13   30172.5    331.4   0.010247735   0.11181   0.29434   0.02578  -0.15657
  14   31118.3    321.4   0.012984608   0.13737   0.31994   0.17930  -0.05349
  15   31322.2    319.3   0.553193331   5.81434   2.37802   0.33886  -0.21100
  16   32325.4    309.4   0.006828787   0.06955   0.15553   0.21138  -0.02594
  17   32551.4    307.2   0.000255203   0.00258   0.03804  -0.00918  -0.03240
  18   32983.5    303.2   0.074819269   0.74678  -0.54498  -0.65918  -0.12351
  19   33172.2    301.5   0.033702791   0.33448   0.16914   0.55305   0.00254
  20   33584.8    297.8   0.017003317   0.16667   0.08478  -0.26356   0.30003
  21   33908.3    294.9   0.059630408   0.57894   0.51803  -0.38661   0.40140
  22   33932.1    294.7   0.002335461   0.02266   0.00289   0.08407  -0.12483
  23   34110.1    293.2   0.003217087   0.03105  -0.13312   0.10119  -0.05558
  24   34140.3    292.9   0.004798429   0.04627   0.16353  -0.08825   0.10836
  25   34181.7    292.6   0.007267202   0.06999  -0.23727   0.10398  -0.05372
  26   34317.9    291.4   0.019384684   0.18596  -0.10415   0.41461  -0.05662
  27   34423.7    290.5   0.002193457   0.02098   0.07982   0.07501  -0.09476
  28   35079.9    285.1   0.035426263   0.33246   0.44352  -0.36742   0.02747
  29   35327.0    283.1   0.056536024   0.52686   0.72039  -0.08587  -0.02273
  30   35788.0    279.4   0.105470043   0.97021  -0.81127  -0.42608   0.36127
  31   35928.4    278.3   0.002418345   0.02216  -0.08844   0.04932  -0.10911
  32   35973.7    278.0   0.005353062   0.04899  -0.18385   0.00145   0.12324
  33   36293.7    275.5   0.076043990   0.68978   0.49948   0.66309  -0.02451
  34   36371.6    274.9   0.001203626   0.01089   0.04767  -0.06190   0.06922
  35   36441.8    274.4   0.001789897   0.01617   0.05496   0.11208  -0.02422
  36   36504.4    273.9   0.001923335   0.01735   0.11715   0.01723  -0.05765
  37   36957.0    270.6   0.124130563   1.10575  -0.29730   0.90054  -0.45431
  38   37624.8    265.8   0.029262033   0.25604  -0.07191  -0.28766   0.41003
  39   37695.3    265.3   0.001691194   0.01477  -0.09691  -0.00376  -0.07324
  40   37896.9    263.9   0.010085767   0.08762  -0.11421  -0.25729   0.09150
  41   38004.8    263.1   0.060881273   0.52738   0.03484  -0.69578   0.20506
  42   38382.3    260.5   0.007366064   0.06318  -0.16664  -0.17811   0.06071
  43   38549.4    259.4   0.031985333   0.27316  -0.05378   0.50677  -0.11598
  44   38936.6    256.8   0.014974274   0.12661  -0.00869   0.34553   0.08453
  45   39114.9    255.7   0.004317454   0.03634  -0.04434   0.00204   0.18539
  46   39355.6    254.1   0.087035742   0.72806  -0.36112  -0.66298   0.39763
  47   39431.2    253.6   0.024142352   0.20157  -0.16666  -0.39787   0.12445
  48   39703.4    251.9   0.006037717   0.05006  -0.12321  -0.15694   0.10126
  49   40284.8    248.2   0.001574104   0.01286   0.05418  -0.06333   0.07692
  50   40320.5    248.0   0.033962846   0.27730  -0.44190  -0.03906   0.28373

FINAL SINGLE POINT ENERGY     -5702.278005765035

DIPOLE MOMENT
-------------
                                X             Y             Z
Electronic contribution:     -2.57619      10.03508       2.87261
Nuclear contribution   :      1.50030      -9.48608      -3.67255
                        -----------------------------------------
Total Dipole Moment    :     -1.07589       0.54900      -0.79994
                        -----------------------------------------
Magnitude (a.u.)       :      1.44874
Magnitude (Debye)      :      3.68240

Rotational constants in cm-1:     0.001065     0.000412     0.000323
Rotational constants in MHz :    31.928042    12.359964     9.681484

                             ****ORCA TERMINATED NORMALLY****
TOTAL RUN TIME: 0 days 0 hours 11 minutes 37 seconds 445 msec
