                         Program Version 4.2.0 -  RELEASE  -
|  1> # ORCA input file
|  2> # SCF done       -157.780063244903          0.000436262793
|  3> ! CAM-B3LYP def2-SVP def2/J RIJCOSX Grid4 TightSCF
|  4> %maxcore 5000
|  5> %tddft
|  6>     Mode sTDDFT
|  7>     Ethresh 5.0
|  8>     maxcore 5000
|  9> end
| 10>
| 11> %pal
| 12>   nprocs 6
| 13>   end
| 14> * xyz 0 1
| 15>    C       -1.10559        -0.23767        -5.84821
| 16>    C       -0.11518        -1.08576        -6.15494
| 17>    C        0.70958        -1.08254        -7.33013
| 18>    C        1.63151        -2.06832        -7.36728
| 19>    C        1.61798        -2.92893        -6.23195
| 20>    S        0.37148        -2.42961        -5.10743
| 21>    C        2.43359        -4.00809        -5.99760
| 22>    C        3.47029        -4.51170        -6.82366
| 23>    C        4.09393        -5.60519        -6.31861
| 24>    C        3.60787        -6.03155        -5.05120
| 25>    S        2.28830        -4.99028        -4.54762
| 26>    C        4.04030        -7.14705        -4.38690
| 27>    C        3.68402        -7.60359        -3.10209
| 28>    S        3.73850        -9.33148        -2.81570
| 29>    C        3.19349        -9.13860        -1.18246
| 30>    C        3.01899        -7.79271        -0.87575
| 31>    C        3.31029        -6.92473        -1.94501
| 32>    S        3.43773        -5.16992        -1.81577
| 33>    C        3.74773        -4.98304        -0.01440
| 34>    C        2.38950        -5.03689         0.62425
| 35>    O        1.81283        -4.07365         1.05263
| 36>    C        1.74182        -6.41600         0.59259
| 37>    O        2.64812        -7.47757         0.39976
| 38>    C        2.94713       -10.20830        -0.29270
| 39>    S        2.38246        -9.87397         1.31976
| 40>    C        2.29599       -11.57168         1.69466
| 41>    C        2.72038       -12.34301         0.62562
| 42>    C        3.05756       -11.57402        -0.50981
| 43>    S        3.54659       -12.22114        -2.07439
| 44>    C        2.77182       -13.88371        -2.00351
| 45>    C        3.75645       -14.73732        -1.25524
| 46>    O        4.45061       -15.56948        -1.77462
| 47>    C        3.88731       -14.38572         0.22154
| 48>    O        2.78554       -13.69860         0.76638
| 49>    C        1.85614       -12.00572         2.97441
| 50>    S        2.14499       -10.97642         4.34941
| 51>    C        1.38704       -12.10167         5.44376
| 52>    C        0.93364       -13.21267         4.74285
| 53>    C        1.18804       -13.16095         3.35399
| 54>    S        0.66960       -14.35040         2.16652
| 55>    C       -0.52346       -15.41644         3.07998
| 56>    C       -1.55593       -14.56419         3.75763
| 57>    O       -2.58824       -14.21627         3.24910
| 58>    C       -1.15172       -14.15800         5.16767
| 59>    O        0.24528       -14.22579         5.36363
| 60>    C        1.34811       -11.76596         6.81444
| 61>    C        1.02609       -12.52033         7.91028
| 62>    C        1.07408       -12.01692         9.24297
| 63>    C        0.78071       -12.92607        10.20512
| 64>    C        0.47786       -14.21403         9.69589
| 65>    S        0.56808       -14.21216         7.94138
| 66>    C        0.14779       -15.34350        10.40267
| 67>    C        0.05032       -15.48820        11.81574
| 68>    C       -0.28587       -16.72951        12.22832
| 69>    C       -0.48453       -17.67493        11.16649
| 70>    S       -0.21470       -16.86681         9.61308
| 71>    C       -0.81787       -18.96803        11.27227
| 72>    H       -1.36815         0.56420        -6.51555
| 73>    H       -1.66528        -0.32825        -4.93558
| 74>    H        0.57238        -0.33769        -8.09391
| 75>    H        2.33080        -2.21506        -8.17120
| 76>    H        3.72055        -4.05244        -7.76301
| 77>    H        4.90233        -6.12457        -6.80242
| 78>    H        4.69556        -7.80800        -4.94070
| 79>    H        4.20378        -4.00305         0.11156
| 80>    H        4.41435        -5.77510         0.31985
| 81>    H        0.95898        -6.40920        -0.17922
| 82>    H        1.26344        -6.60255         1.55838
| 83>    H        2.66060       -14.21648        -3.03355
| 84>    H        1.80778       -13.80444        -1.50512
| 85>    H        4.82083       -13.82015         0.35643
| 86>    H        3.97078       -15.31475         0.79333
| 87>    H        0.02916       -16.03139         3.78790
| 88>    H       -0.97225       -16.01919         2.29189
| 89>    H       -1.58671       -14.87553         5.87192
| 90>    H       -1.54720       -13.16046         5.39989
| 91>    H        1.66607       -10.75242         7.02773
| 92>    H        1.33310       -10.99018         9.43438
| 93>    H        0.77387       -12.71137        11.25879
| 94>    H        0.23773       -14.65951        12.47546
| 95>    H       -0.40379       -17.02710        13.25521
| 96>    H       -0.97137       -19.41807        12.23716
| 97>    H       -0.94199       -19.59304        10.40716
| 98> *
| 99>
|100>                          ****END OF INPUT****

CARTESIAN COORDINATES (ANGSTROEM)
---------------------------------
  C     -1.105590   -0.237670   -5.848210
  C     -0.115180   -1.085760   -6.154940
  C      0.709580   -1.082540   -7.330130
  C      1.631510   -2.068320   -7.367280
  C      1.617980   -2.928930   -6.231950
  S      0.371480   -2.429610   -5.107430
  C      2.433590   -4.008090   -5.997600
  C      3.470290   -4.511700   -6.823660
  C      4.093930   -5.605190   -6.318610
  C      3.607870   -6.031550   -5.051200
  S      2.288300   -4.990280   -4.547620
  C      4.040300   -7.147050   -4.386900
  C      3.684020   -7.603590   -3.102090
  S      3.738500   -9.331480   -2.815700
  C      3.193490   -9.138600   -1.182460
  C      3.018990   -7.792710   -0.875750
  C      3.310290   -6.924730   -1.945010
  S      3.437730   -5.169920   -1.815770
  C      3.747730   -4.983040   -0.014400
  C      2.389500   -5.036890    0.624250
  O      1.812830   -4.073650    1.052630
  C      1.741820   -6.416000    0.592590
  O      2.648120   -7.477570    0.399760
  C      2.947130  -10.208300   -0.292700
  S      2.382460   -9.873970    1.319760
  C      2.295990  -11.571680    1.694660
  C      2.720380  -12.343010    0.625620
  C      3.057560  -11.574020   -0.509810
  S      3.546590  -12.221140   -2.074390
  C      2.771820  -13.883710   -2.003510
  C      3.756450  -14.737320   -1.255240
  O      4.450610  -15.569480   -1.774620
  C      3.887310  -14.385720    0.221540
  O      2.785540  -13.698600    0.766380
  C      1.856140  -12.005720    2.974410
  S      2.144990  -10.976420    4.349410
  C      1.387040  -12.101670    5.443760
  C      0.933640  -13.212670    4.742850
  C      1.188040  -13.160950    3.353990
  S      0.669600  -14.350400    2.166520
  C     -0.523460  -15.416440    3.079980
  C     -1.555930  -14.564190    3.757630
  O     -2.588240  -14.216270    3.249100
  C     -1.151720  -14.158000    5.167670
  O      0.245280  -14.225790    5.363630
  C      1.348110  -11.765960    6.814440
  C      1.026090  -12.520330    7.910280
  C      1.074080  -12.016920    9.242970
  C      0.780710  -12.926070   10.205120
  C      0.477860  -14.214030    9.695890
  S      0.568080  -14.212160    7.941380
  C      0.147790  -15.343500   10.402670
  C      0.050320  -15.488200   11.815740
  C     -0.285870  -16.729510   12.228320
  C     -0.484530  -17.674930   11.166490
  S     -0.214700  -16.866810    9.613080
  C     -0.817870  -18.968030   11.272270
  H     -1.368150    0.564200   -6.515550
  H     -1.665280   -0.328250   -4.935580
  H      0.572380   -0.337690   -8.093910
  H      2.330800   -2.215060   -8.171200
  H      3.720550   -4.052440   -7.763010
  H      4.902330   -6.124570   -6.802420
  H      4.695560   -7.808000   -4.940700
  H      4.203780   -4.003050    0.111560
  H      4.414350   -5.775100    0.319850
  H      0.958980   -6.409200   -0.179220
  H      1.263440   -6.602550    1.558380
  H      2.660600  -14.216480   -3.033550
  H      1.807780  -13.804440   -1.505120
  H      4.820830  -13.820150    0.356430
  H      3.970780  -15.314750    0.793330
  H      0.029160  -16.031390    3.787900
  H     -0.972250  -16.019190    2.291890
  H     -1.586710  -14.875530    5.871920
  H     -1.547200  -13.160460    5.399890
  H      1.666070  -10.752420    7.027730
  H      1.333100  -10.990180    9.434380
  H      0.773870  -12.711370   11.258790
  H      0.237730  -14.659510   12.475460
  H     -0.403790  -17.027100   13.255210
  H     -0.971370  -19.418070   12.237160
  H     -0.941990  -19.593040   10.407160

 Total Charge           Charge          ....    0
 Multiplicity           Mult            ....    1
 Number of Electrons    NEL             ....  480
 Basis Dimension        Dim             ....  968

ORBITAL ENERGIES
----------------

  NO   OCC          E(Eh)            E(eV)
   0   2.0000     -88.957441     -2420.6550
   1   2.0000     -88.955400     -2420.5995
   2   2.0000     -88.952492     -2420.5204
   3   2.0000     -88.945072     -2420.3185
   4   2.0000     -88.940797     -2420.2021
   5   2.0000     -88.939867     -2420.1768
   6   2.0000     -88.936484     -2420.0848
   7   2.0000     -88.935354     -2420.0540
   8   2.0000     -88.932653     -2419.9805
   9   2.0000     -88.930840     -2419.9312
  10   2.0000     -19.266120      -524.2578
  11   2.0000     -19.255719      -523.9747
  12   2.0000     -19.250951      -523.8450
  13   2.0000     -19.213759      -522.8330
  14   2.0000     -19.212864      -522.8086
  15   2.0000     -19.208839      -522.6991
  16   2.0000     -10.365024      -282.0467
  17   2.0000     -10.364790      -282.0403
  18   2.0000     -10.359085      -281.8850
  19   2.0000     -10.341509      -281.4068
  20   2.0000     -10.338308      -281.3197
  21   2.0000     -10.336691      -281.2757
  22   2.0000     -10.333309      -281.1836
  23   2.0000     -10.331214      -281.1266
  24   2.0000     -10.327186      -281.0170
  25   2.0000     -10.312840      -280.6267
  26   2.0000     -10.309081      -280.5244
  27   2.0000     -10.307902      -280.4923
  28   2.0000     -10.307379      -280.4780
  29   2.0000     -10.306910      -280.4653
  30   2.0000     -10.306635      -280.4578
  31   2.0000     -10.306469      -280.4533
  32   2.0000     -10.306118      -280.4437
  33   2.0000     -10.305942      -280.4389
  34   2.0000     -10.305901      -280.4378
  35   2.0000     -10.304892      -280.4104
  36   2.0000     -10.304287      -280.3939
  37   2.0000     -10.303267      -280.3662
  38   2.0000     -10.303171      -280.3635
  39   2.0000     -10.302059      -280.3333
  40   2.0000     -10.301835      -280.3272
  41   2.0000     -10.301386      -280.3150
  42   2.0000     -10.297881      -280.2196
  43   2.0000     -10.297172      -280.2003
  44   2.0000     -10.294430      -280.1257
  45   2.0000     -10.288228      -279.9569
  46   2.0000     -10.285870      -279.8927
  47   2.0000     -10.284427      -279.8535
  48   2.0000     -10.283875      -279.8385
  49   2.0000     -10.282196      -279.7928
  50   2.0000     -10.282011      -279.7878
  51   2.0000     -10.281613      -279.7769
  52   2.0000     -10.280684      -279.7516
  53   2.0000     -10.279360      -279.7156
  54   2.0000     -10.278354      -279.6882
  55   2.0000     -10.268967      -279.4328
  56   2.0000     -10.264687      -279.3163
  57   2.0000      -8.052402      -219.1170
  58   2.0000      -8.049678      -219.0429
  59   2.0000      -8.048309      -219.0056
  60   2.0000      -8.039599      -218.7686
  61   2.0000      -8.036916      -218.6956
  62   2.0000      -8.034073      -218.6183
  63   2.0000      -8.033241      -218.5956
  64   2.0000      -8.030425      -218.5190
  65   2.0000      -8.029293      -218.4882
  66   2.0000      -8.024885      -218.3682
  67   2.0000      -6.021920      -163.8648
  68   2.0000      -6.019216      -163.7912
  69   2.0000      -6.017899      -163.7553
  70   2.0000      -6.017653      -163.7487
  71   2.0000      -6.015120      -163.6797
  72   2.0000      -6.013898      -163.6465
  73   2.0000      -6.013866      -163.6456
  74   2.0000      -6.011254      -163.5745
  75   2.0000      -6.010103      -163.5432
  76   2.0000      -6.009859      -163.5366
  77   2.0000      -6.006698      -163.4506
  78   2.0000      -6.006103      -163.4344
  79   2.0000      -6.004609      -163.3937
  80   2.0000      -6.003061      -163.3516
  81   2.0000      -6.002657      -163.3406
  82   2.0000      -6.000604      -163.2847
  83   2.0000      -6.000291      -163.2762
  84   2.0000      -5.999164      -163.2456
  85   2.0000      -5.999145      -163.2450
  86   2.0000      -5.999036      -163.2421
  87   2.0000      -5.997658      -163.2046
  88   2.0000      -5.996119      -163.1627
  89   2.0000      -5.995589      -163.1483
  90   2.0000      -5.995206      -163.1378
  91   2.0000      -5.993726      -163.0976
  92   2.0000      -5.993352      -163.0874
  93   2.0000      -5.991322      -163.0322
  94   2.0000      -5.991234      -163.0298
  95   2.0000      -5.989820      -162.9913
  96   2.0000      -5.984089      -162.8353
  97   2.0000      -1.172338       -31.9009
  98   2.0000      -1.163916       -31.6718
  99   2.0000      -1.159820       -31.5603
 100   2.0000      -1.132060       -30.8049
 101   2.0000      -1.131710       -30.7954
 102   2.0000      -1.125662       -30.6308
 103   2.0000      -1.001780       -27.2598
 104   2.0000      -0.992160       -26.9981
 105   2.0000      -0.987801       -26.8794
 106   2.0000      -0.984636       -26.7933
 107   2.0000      -0.974854       -26.5271
 108   2.0000      -0.965847       -26.2820
 109   2.0000      -0.962173       -26.1821
 110   2.0000      -0.921386       -25.0722
 111   2.0000      -0.917040       -24.9539
 112   2.0000      -0.907916       -24.7057
 113   2.0000      -0.893162       -24.3042
 114   2.0000      -0.883410       -24.0388
 115   2.0000      -0.871916       -23.7260
 116   2.0000      -0.865888       -23.5620
 117   2.0000      -0.859807       -23.3965
 118   2.0000      -0.857243       -23.3268
 119   2.0000      -0.853994       -23.2384
 120   2.0000      -0.843009       -22.9394
 121   2.0000      -0.841058       -22.8864
 122   2.0000      -0.838105       -22.8060
 123   2.0000      -0.825471       -22.4622
 124   2.0000      -0.817651       -22.2494
 125   2.0000      -0.813790       -22.1443
 126   2.0000      -0.806617       -21.9492
 127   2.0000      -0.796826       -21.6827
 128   2.0000      -0.788982       -21.4693
 129   2.0000      -0.785235       -21.3673
 130   2.0000      -0.774205       -21.0672
 131   2.0000      -0.771398       -20.9908
 132   2.0000      -0.755272       -20.5520
 133   2.0000      -0.751355       -20.4454
 134   2.0000      -0.738615       -20.0987
 135   2.0000      -0.726398       -19.7663
 136   2.0000      -0.704890       -19.1810
 137   2.0000      -0.690769       -18.7968
 138   2.0000      -0.684456       -18.6250
 139   2.0000      -0.674615       -18.3572
 140   2.0000      -0.671674       -18.2772
 141   2.0000      -0.661180       -17.9916
 142   2.0000      -0.658807       -17.9271
 143   2.0000      -0.650128       -17.6909
 144   2.0000      -0.648242       -17.6396
 145   2.0000      -0.639235       -17.3945
 146   2.0000      -0.631016       -17.1708
 147   2.0000      -0.623452       -16.9650
 148   2.0000      -0.619716       -16.8633
 149   2.0000      -0.617570       -16.8049
 150   2.0000      -0.612952       -16.6793
 151   2.0000      -0.605998       -16.4901
 152   2.0000      -0.604085       -16.4380
 153   2.0000      -0.600514       -16.3408
 154   2.0000      -0.596308       -16.2264
 155   2.0000      -0.592942       -16.1348
 156   2.0000      -0.589800       -16.0493
 157   2.0000      -0.588435       -16.0121
 158   2.0000      -0.587318       -15.9817
 159   2.0000      -0.577888       -15.7251
 160   2.0000      -0.572068       -15.5668
 161   2.0000      -0.563785       -15.3414
 162   2.0000      -0.561977       -15.2922
 163   2.0000      -0.554816       -15.0973
 164   2.0000      -0.548175       -14.9166
 165   2.0000      -0.547124       -14.8880
 166   2.0000      -0.536202       -14.5908
 167   2.0000      -0.534311       -14.5393
 168   2.0000      -0.531110       -14.4522
 169   2.0000      -0.528288       -14.3755
 170   2.0000      -0.523231       -14.2378
 171   2.0000      -0.519076       -14.1248
 172   2.0000      -0.518359       -14.1053
 173   2.0000      -0.514346       -13.9961
 174   2.0000      -0.510699       -13.8968
 175   2.0000      -0.509834       -13.8733
 176   2.0000      -0.504750       -13.7349
 177   2.0000      -0.504598       -13.7308
 178   2.0000      -0.502505       -13.6739
 179   2.0000      -0.498916       -13.5762
 180   2.0000      -0.495622       -13.4866
 181   2.0000      -0.495359       -13.4794
 182   2.0000      -0.493281       -13.4228
 183   2.0000      -0.491776       -13.3819
 184   2.0000      -0.490026       -13.3343
 185   2.0000      -0.489651       -13.3241
 186   2.0000      -0.486424       -13.2363
 187   2.0000      -0.481213       -13.0945
 188   2.0000      -0.480663       -13.0795
 189   2.0000      -0.478134       -13.0107
 190   2.0000      -0.473670       -12.8892
 191   2.0000      -0.472609       -12.8603
 192   2.0000      -0.465228       -12.6595
 193   2.0000      -0.463754       -12.6194
 194   2.0000      -0.460181       -12.5222
 195   2.0000      -0.457409       -12.4467
 196   2.0000      -0.454281       -12.3616
 197   2.0000      -0.452244       -12.3062
 198   2.0000      -0.450350       -12.2546
 199   2.0000      -0.447594       -12.1797
 200   2.0000      -0.444939       -12.1074
 201   2.0000      -0.438209       -11.9243
 202   2.0000      -0.429967       -11.7000
 203   2.0000      -0.429084       -11.6760
 204   2.0000      -0.427060       -11.6209
 205   2.0000      -0.426212       -11.5978
 206   2.0000      -0.424118       -11.5408
 207   2.0000      -0.421479       -11.4690
 208   2.0000      -0.418981       -11.4011
 209   2.0000      -0.413898       -11.2627
 210   2.0000      -0.410392       -11.1673
 211   2.0000      -0.406255       -11.0547
 212   2.0000      -0.399906       -10.8820
 213   2.0000      -0.398217       -10.8360
 214   2.0000      -0.392407       -10.6779
 215   2.0000      -0.390283       -10.6201
 216   2.0000      -0.388242       -10.5646
 217   2.0000      -0.382102       -10.3975
 218   2.0000      -0.379831       -10.3357
 219   2.0000      -0.369560       -10.0562
 220   2.0000      -0.365088        -9.9345
 221   2.0000      -0.361966        -9.8496
 222   2.0000      -0.356989        -9.7142
 223   2.0000      -0.344562        -9.3760
 224   2.0000      -0.337013        -9.1706
 225   2.0000      -0.334657        -9.1065
 226   2.0000      -0.331415        -9.0183
 227   2.0000      -0.330741        -8.9999
 228   2.0000      -0.329218        -8.9585
 229   2.0000      -0.322365        -8.7720
 230   2.0000      -0.320070        -8.7095
 231   2.0000      -0.315403        -8.5825
 232   2.0000      -0.307310        -8.3623
 233   2.0000      -0.290852        -7.9145
 234   2.0000      -0.282667        -7.6918
 235   2.0000      -0.274622        -7.4728
 236   2.0000      -0.272425        -7.4131
 237   2.0000      -0.251001        -6.8301
 238   2.0000      -0.217794        -5.9265
 239   2.0000      -0.204055        -5.5526
 240   0.0000      -0.071504        -1.9457
 241   0.0000      -0.060097        -1.6353
 242   0.0000      -0.022736        -0.6187
 243   0.0000       0.001737         0.0473
 244   0.0000       0.005803         0.1579

MULLIKEN ATOMIC CHARGES
-----------------------
   0 C :   -0.028455
   1 C :   -0.064488
   2 C :    0.051999
   3 C :    0.029118
   4 C :   -0.065185
   5 S :    0.085432
   6 C :   -0.064811
   7 C :    0.038518
   8 C :    0.028842
   9 C :   -0.029075
  10 S :    0.099719
  11 C :   -0.015102
  12 C :   -0.133001
  13 S :    0.139139
  14 C :   -0.117061
  15 C :    0.130507
  16 C :   -0.043790
  17 S :    0.032336
  18 C :   -0.041598
  19 C :   -0.006680
  20 O :   -0.164811
  21 C :    0.247073
  22 O :   -0.347645
  23 C :   -0.091289
  24 S :    0.161678
  25 C :   -0.121596
  26 C :    0.170113
  27 C :   -0.081168
  28 S :    0.008860
  29 C :   -0.041249
  30 C :   -0.005171
  31 O :   -0.165900
  32 C :    0.248065
  33 O :   -0.333179
  34 C :   -0.154710
  35 S :    0.131152
  36 C :   -0.108033
  37 C :    0.104407
  38 C :    0.002342
  39 S :    0.045042
  40 C :   -0.018016
  41 C :   -0.055848
  42 O :   -0.162269
  43 C :    0.290221
  44 O :   -0.350179
  45 C :   -0.004630
  46 C :   -0.020896
  47 C :    0.031055
  48 C :    0.033206
  49 C :   -0.046476
  50 S :    0.094471
  51 C :   -0.073773
  52 C :    0.031796
  53 C :    0.047078
  54 C :   -0.057911
  55 S :    0.071767
  56 C :   -0.034992
  57 H :    0.020599
  58 H :    0.023951
  59 H :   -0.009711
  60 H :   -0.011013
  61 H :   -0.014723
  62 H :   -0.012160
  63 H :   -0.005726
  64 H :    0.064875
  65 H :    0.084152
  66 H :    0.060616
  67 H :    0.050496
  68 H :    0.066709
  69 H :    0.091804
  70 H :    0.053878
  71 H :    0.051003
  72 H :    0.073845
  73 H :    0.062340
  74 H :    0.052271
  75 H :    0.032794
  76 H :   -0.021458
  77 H :   -0.015446
  78 H :   -0.016972
  79 H :   -0.012617
  80 H :   -0.012725
  81 H :    0.018192
  82 H :    0.020073
Sum of atomic charges:    0.0000000

LOEWDIN ATOMIC CHARGES
----------------------
   0 C :   -0.073214
   1 C :   -0.139553
   2 C :   -0.029226
   3 C :   -0.027388
   4 C :   -0.174009
   5 S :    0.355211
   6 C :   -0.182788
   7 C :   -0.030286
   8 C :   -0.034607
   9 C :   -0.145927
  10 S :    0.379468
  11 C :   -0.095008
  12 C :   -0.188522
  13 S :    0.443215
  14 C :   -0.216902
  15 C :   -0.016084
  16 C :   -0.231682
  17 S :    0.331786
  18 C :   -0.153947
  19 C :    0.040209
  20 O :   -0.129649
  21 C :    0.055873
  22 O :   -0.108853
  23 C :   -0.195286
  24 S :    0.458466
  25 C :   -0.226242
  26 C :   -0.015674
  27 C :   -0.230625
  28 S :    0.320812
  29 C :   -0.146571
  30 C :    0.039851
  31 O :   -0.129892
  32 C :    0.055601
  33 O :   -0.105849
  34 C :   -0.211654
  35 S :    0.430146
  36 C :   -0.186631
  37 C :   -0.023976
  38 C :   -0.204805
  39 S :    0.349215
  40 C :   -0.163049
  41 C :    0.039913
  42 O :   -0.125993
  43 C :    0.054057
  44 O :   -0.119436
  45 C :   -0.089167
  46 C :   -0.143777
  47 C :   -0.034134
  48 C :   -0.033833
  49 C :   -0.187559
  50 S :    0.397062
  51 C :   -0.178502
  52 C :   -0.026370
  53 C :   -0.033816
  54 C :   -0.138688
  55 S :    0.344506
  56 C :   -0.080556
  57 H :    0.029009
  58 H :    0.027281
  59 H :    0.033857
  60 H :    0.032279
  61 H :    0.031331
  62 H :    0.033047
  63 H :    0.033941
  64 H :    0.040465
  65 H :    0.039317
  66 H :    0.042969
  67 H :    0.044463
  68 H :    0.040685
  69 H :    0.043341
  70 H :    0.040682
  71 H :    0.045404
  72 H :    0.032457
  73 H :    0.039416
  74 H :    0.040656
  75 H :    0.032315
  76 H :    0.032377
  77 H :    0.031545
  78 H :    0.029627
  79 H :    0.031891
  80 H :    0.032691
  81 H :    0.027872
  82 H :    0.025424

  Mayer bond orders larger than 0.100000
B(  0-C ,  1-C ) :   1.8661 B(  0-C , 57-H ) :   0.9508 B(  0-C , 58-H ) :   0.9419
B(  1-C ,  2-C ) :   1.0779 B(  1-C ,  5-S ) :   1.0068 B(  2-C ,  3-C ) :   1.6656
B(  2-C , 59-H ) :   0.9928 B(  3-C ,  4-C ) :   1.1485 B(  3-C , 60-H ) :   0.9914
B(  4-C ,  5-S ) :   1.0476 B(  4-C ,  6-C ) :   1.5655 B(  6-C ,  7-C ) :   1.1626
B(  6-C , 10-S ) :   1.0402 B(  7-C ,  8-C ) :   1.6187 B(  7-C , 61-H ) :   0.9911
B(  8-C ,  9-C ) :   1.1279 B(  8-C , 62-H ) :   0.9987 B(  9-C , 10-S ) :   1.0378
B(  9-C , 11-C ) :   1.6246 B( 11-C , 12-C ) :   1.1387 B( 11-C , 63-H ) :   0.9466
B( 12-C , 13-S ) :   1.0998 B( 12-C , 14-C ) :   0.1064 B( 12-C , 16-C ) :   1.4888
B( 13-S , 14-C ) :   1.1070 B( 14-C , 15-C ) :   1.4878 B( 14-C , 23-C ) :   1.1852
B( 15-C , 16-C ) :   1.2627 B( 15-C , 22-O ) :   1.0847 B( 16-C , 17-S ) :   0.9993
B( 17-S , 18-C ) :   0.9780 B( 18-C , 19-C ) :   0.9751 B( 18-C , 64-H ) :   0.9396
B( 18-C , 65-H ) :   0.9300 B( 19-C , 20-O ) :   2.2104 B( 19-C , 21-C ) :   0.9379
B( 21-C , 22-O ) :   0.9384 B( 21-C , 66-H ) :   0.9259 B( 21-C , 67-H ) :   0.9361
B( 23-C , 24-S ) :   1.1271 B( 23-C , 25-C ) :   0.1209 B( 23-C , 27-C ) :   1.5256
B( 24-S , 25-C ) :   1.0737 B( 25-C , 26-C ) :   1.5545 B( 25-C , 34-C ) :   1.0827
B( 26-C , 27-C ) :   1.2335 B( 26-C , 33-O ) :   1.1064 B( 27-C , 28-S ) :   0.9929
B( 28-S , 29-C ) :   0.9841 B( 29-C , 30-C ) :   0.9717 B( 29-C , 68-H ) :   0.9405
B( 29-C , 69-H ) :   0.9302 B( 30-C , 31-O ) :   2.2071 B( 30-C , 32-C ) :   0.9347
B( 32-C , 33-O ) :   0.9507 B( 32-C , 70-H ) :   0.9263 B( 32-C , 71-H ) :   0.9353
B( 34-C , 35-S ) :   1.1116 B( 34-C , 36-C ) :   0.1198 B( 34-C , 38-C ) :   1.5715
B( 35-S , 36-C ) :   1.1009 B( 36-C , 37-C ) :   1.5046 B( 36-C , 45-C ) :   1.1400
B( 37-C , 38-C ) :   1.2464 B( 37-C , 44-O ) :   1.0753 B( 38-C , 39-S ) :   1.0192
B( 39-S , 40-C ) :   0.9767 B( 40-C , 41-C ) :   0.9532 B( 40-C , 72-H ) :   0.9373
B( 40-C , 73-H ) :   0.9373 B( 41-C , 42-O ) :   2.2221 B( 41-C , 43-C ) :   0.9542
B( 43-C , 44-O ) :   0.9417 B( 43-C , 74-H ) :   0.9206 B( 43-C , 75-H ) :   0.9266
B( 45-C , 46-C ) :   1.6243 B( 45-C , 76-H ) :   0.9399 B( 46-C , 47-C ) :   1.1233
B( 46-C , 50-S ) :   1.0458 B( 47-C , 48-C ) :   1.6144 B( 47-C , 77-H ) :   0.9990
B( 48-C , 49-C ) :   1.1593 B( 48-C , 78-H ) :   0.9930 B( 49-C , 50-S ) :   1.0071
B( 49-C , 51-C ) :   1.5686 B( 51-C , 52-C ) :   1.1500 B( 51-C , 55-S ) :   1.0391
B( 52-C , 53-C ) :   1.6622 B( 52-C , 79-H ) :   0.9919 B( 53-C , 54-C ) :   1.0787
B( 53-C , 80-H ) :   0.9935 B( 54-C , 55-S ) :   1.0063 B( 54-C , 56-C ) :   1.8640
B( 56-C , 81-H ) :   0.9509 B( 56-C , 82-H ) :   0.9423

-----------------------------------------------------------------------------
         ABSORPTION SPECTRUM VIA TRANSITION ELECTRIC DIPOLE MOMENTS
-----------------------------------------------------------------------------
State   Energy  Wavelength   fosc         T2         TX        TY        TZ
        (cm-1)    (nm)                  (au**2)     (au)      (au)      (au)
-----------------------------------------------------------------------------
   0   15953.8    626.8   2.655811748  54.80367  -0.00289  -5.15780   5.31044
   1   19056.3    524.8   0.377452689   6.52079  -2.04054   0.44478   1.46942
   2   21373.9    467.9   0.030886754   0.47573   0.46102  -0.45604   0.23500
   3   24246.1    412.4   0.228817421   3.10687  -0.83539   1.52758  -0.27475
   4   25216.9    396.6   0.003027579   0.03953   0.03562  -0.12327   0.15186
   5   27647.1    361.7   0.076224995   0.90766   0.63784   0.63030  -0.32177
   6   28177.9    354.9   0.129030289   1.50751  -0.70375   0.58781   0.81653
   7   28232.4    354.2   0.087183247   1.01662   0.33700  -0.73534  -0.60194
   8   29642.3    337.4   0.067159512   0.74588  -0.59324   0.55564   0.29192
   9   29984.8    333.5   0.072093376   0.79154  -0.58670  -0.23343   0.62676
  10   30664.8    326.1   0.029483347   0.31653  -0.23417  -0.46598  -0.21108
  11   31012.0    322.5   0.131687152   1.39794   0.57359   0.85588   0.58001
  12   31120.7    321.3   0.006488920   0.06864   0.10230  -0.12898   0.20382
  13   31410.8    318.4   0.007641119   0.08009  -0.25915   0.01456   0.11275
  14   32446.4    308.2   0.086796664   0.88067   0.35415  -0.47922  -0.72498
  15   33059.8    302.5   0.052122436   0.51904   0.32606   0.63759  -0.07880
  16   33547.8    298.1   0.045040195   0.44199   0.32985  -0.48140  -0.31851
  17   33933.9    294.7   0.001890935   0.01835  -0.03056   0.09138  -0.09519
  18   34051.1    293.7   0.105718399   1.02210   0.13297   0.95581   0.30142
  19   34831.4    287.1   0.007362566   0.06959  -0.09346  -0.23931   0.05986
  20   35451.8    282.1   0.014293335   0.13273   0.21868   0.29139  -0.00102
  21   35830.6    279.1   0.003022529   0.02777  -0.13603   0.09244   0.02688
  22   36290.3    275.6   0.136690098   1.24000   0.14598   1.08424   0.20765
  23   36409.4    274.7   0.029309389   0.26501  -0.02931  -0.31757  -0.40411
  24   36455.0    274.3   0.017324128   0.15645  -0.14279  -0.36682  -0.03876
  25   36825.2    271.6   0.018058572   0.16144  -0.11852   0.25278   0.28896
  26   36963.1    270.5   0.004821826   0.04295  -0.08367  -0.18167   0.05424
  27   37340.1    267.8   0.040972195   0.36123   0.19669   0.09169  -0.56048
  28   37525.4    266.5   0.000931726   0.00817   0.07676  -0.04761  -0.00392
  29   37783.1    264.7   0.064386594   0.56101  -0.28343   0.43440   0.54035
  30   38396.2    260.4   0.057557892   0.49351  -0.00222  -0.50451   0.48885
  31   38867.3    257.3   0.040061405   0.33933   0.15938   0.49451  -0.26340
  32   39022.2    256.3   0.041796910   0.35262  -0.09016   0.58565  -0.03883
  33   39271.3    254.6   0.018528751   0.15533   0.12883   0.15916  -0.33675
  34   39408.8    253.8   0.002961255   0.02474   0.06026   0.09288  -0.11171
  35   39605.1    252.5   0.008500937   0.07066  -0.20532   0.07028   0.15352
  36   40075.1    249.5   0.133324785   1.09525   0.70223  -0.75040   0.19754

FINAL SINGLE POINT ENERGY     -6007.375003559467

DIPOLE MOMENT
-------------
                                X             Y             Z
Electronic contribution:      9.88944       0.67797     -10.58159
Nuclear contribution   :     -9.38194       0.16463      10.61192
                        -----------------------------------------
Total Dipole Moment    :      0.50750       0.84261       0.03033
                        -----------------------------------------
Magnitude (a.u.)       :      0.98410
Magnitude (Debye)      :      2.50139

Rotational constants in cm-1:     0.002422     0.000370     0.000342
Rotational constants in MHz :    72.598565    11.094634    10.241219

                             ****ORCA TERMINATED NORMALLY****
TOTAL RUN TIME: 0 days 0 hours 6 minutes 38 seconds 791 msec
