                         Program Version 4.2.0 -  RELEASE  -
|  1> # ORCA input file
|  2> # SCF done       -183.499422134827          0.000417235258
|  3> ! CAM-B3LYP def2-SVP def2/J RIJCOSX Grid4 TightSCF
|  4> %maxcore 5000
|  5> %tddft
|  6>     Mode sTDDFT
|  7>     Ethresh 5.0
|  8>     maxcore 5000
|  9> end
| 10>
| 11> %pal
| 12>   nprocs 6
| 13>   end
| 14> * xyz 0 1
| 15>    C        6.76421        -2.64685        -0.14294
| 16>    C        7.72348        -3.45135         0.33386
| 17>    C        9.03862        -3.08461         0.77664
| 18>    C        9.78644        -4.11840         1.22027
| 19>    C        9.13074        -5.38128         1.16753
| 20>    S        7.51640        -5.20136         0.51559
| 21>    C        9.62988        -6.59628         1.57405
| 22>    C       10.89683        -6.87673         2.14112
| 23>    C       11.06971        -8.18114         2.47937
| 24>    C        9.95268        -9.01382         2.20754
| 25>    S        8.67684        -8.06715         1.46863
| 26>    C        9.88597       -10.35014         2.52109
| 27>    C        8.79950       -11.21399         2.34400
| 28>    S        7.35711       -10.62996         1.55620
| 29>    C        6.52624       -12.13013         1.72550
| 30>    C        7.34362       -13.07916         2.34759
| 31>    C        8.63905       -12.57211         2.71047
| 32>    C        9.53431       -13.49976         3.29863
| 33>    N       10.82919       -13.16603         3.82764
| 34>    O       10.95144       -12.13053         4.45184
| 35>    O       11.72101       -13.97175         3.65815
| 36>    C        9.18683       -14.82710         3.44184
| 37>    C        7.93063       -15.30059         3.05266
| 38>    C        7.01383       -14.43771         2.52059
| 39>    C        5.13851       -12.27612         1.36094
| 40>    C        4.25648       -12.81064         2.29213
| 41>    C        2.89440       -12.87275         2.05270
| 42>    C        2.34287       -12.44640         0.84958
| 43>    C        3.23270       -11.96700        -0.16448
| 44>    C        4.62587       -11.85490         0.09852
| 45>    C        5.43850       -11.37853        -0.94953
| 46>    C        4.86878       -11.01767        -2.14201
| 47>    C        3.48044       -11.14908        -2.28436
| 48>    N        2.70051       -11.60755        -1.34452
| 49>    C        0.93782       -12.46217         0.58935
| 50>    C       -0.02381       -12.44899         1.55366
| 51>    C       -1.40434       -12.45324         1.30095
| 52>    C       -2.34661       -12.22939         2.27683
| 53>    C       -3.75488       -12.23526         2.15094
| 54>    C       -4.42098       -11.90355         3.29476
| 55>    C       -3.57127       -11.59795         4.37951
| 56>    S       -1.90265       -11.80080         3.92397
| 57>    C       -3.91521       -11.12728         5.63846
| 58>    C       -5.19669       -10.89727         6.17258
| 59>    C       -5.17784       -10.34573         7.42372
| 60>    C       -3.88286       -10.10360         7.92735
| 61>    S       -2.68258       -10.64936         6.78486
| 62>    C       -3.55625        -9.48819         9.12555
| 63>    C       -2.24958        -9.20204         9.48941
| 64>    C       -1.78078        -8.52410        10.59912
| 65>    C       -0.42692        -7.93585        10.53827
| 66>    O        0.43134        -8.15610         9.70896
| 67>    C       -0.36057        -6.98279        11.66758
| 68>    C        0.62923        -6.10301        11.99185
| 69>    C        0.44558        -5.23927        13.09600
| 70>    C       -0.76569        -5.30968        13.84172
| 71>    C       -0.94845        -4.43787        14.93310
| 72>    C        0.02546        -3.53932        15.26855
| 73>    C        1.22267        -3.47166        14.53119
| 74>    C        1.43043        -4.30426        13.46733
| 75>    F        2.16201        -2.57830        14.88095
| 76>    F       -0.15276        -2.70879        16.30764
| 77>    C       -1.76902        -6.24297        13.48720
| 78>    C       -1.56773        -7.07015        12.41649
| 79>    C       -2.40284        -8.12065        11.82628
| 80>    C       -3.47401        -8.71277        12.45793
| 81>    C       -4.10070        -9.89602        12.02397
| 82>    N       -4.62253       -10.88207        11.74861
| 83>    C       -4.00823        -8.26552        13.68059
| 84>    N       -4.50030        -7.93548        14.66524
| 85>    H        6.93080        -1.58803        -0.23373
| 86>    H        5.80559        -3.02694        -0.44515
| 87>    H        9.36153        -2.05925         0.74482
| 88>    H       10.79155        -4.02553         1.59133
| 89>    H       11.63533        -6.11012         2.29079
| 90>    H       11.95875        -8.58115         2.93363
| 91>    H       10.76383       -10.73727         3.01397
| 92>    H        9.90772       -15.50220         3.87761
| 93>    H        7.69576       -16.34520         3.18011
| 94>    H        6.04282       -14.78446         2.20312
| 95>    H        4.63773       -13.12776         3.25165
| 96>    H        2.25054       -13.26860         2.82299
| 97>    H        6.50762       -11.31101        -0.81496
| 98>    H        5.46828       -10.65113        -2.96030
| 99>    H        2.99152       -10.87778        -3.21148
|100>    H        0.65378       -12.40528        -0.45211
|101>    H        0.26857       -12.38230         2.59436
|102>    H       -1.75088       -12.62157         0.29014
|103>    H       -4.23306       -12.48079         1.21906
|104>    H       -5.49150       -11.85190         3.37935
|105>    H       -6.09417       -11.13555         5.63040
|106>    H       -6.05548       -10.09801         7.99357
|107>    H       -4.38079        -9.18194         9.75140
|108>    H       -1.47668        -9.43689         8.76195
|109>    H        1.53839        -6.06082        11.41150
|110>    H       -1.85890        -4.47808        15.51045
|111>    H        2.35285        -4.24021        12.91157
|112>    H       -2.67694        -6.26889        14.06813
|113> *
|114>
|115>                          ****END OF INPUT****

CARTESIAN COORDINATES (ANGSTROEM)
---------------------------------
  C      6.764210   -2.646850   -0.142940
  C      7.723480   -3.451350    0.333860
  C      9.038620   -3.084610    0.776640
  C      9.786440   -4.118400    1.220270
  C      9.130740   -5.381280    1.167530
  S      7.516400   -5.201360    0.515590
  C      9.629880   -6.596280    1.574050
  C     10.896830   -6.876730    2.141120
  C     11.069710   -8.181140    2.479370
  C      9.952680   -9.013820    2.207540
  S      8.676840   -8.067150    1.468630
  C      9.885970  -10.350140    2.521090
  C      8.799500  -11.213990    2.344000
  S      7.357110  -10.629960    1.556200
  C      6.526240  -12.130130    1.725500
  C      7.343620  -13.079160    2.347590
  C      8.639050  -12.572110    2.710470
  C      9.534310  -13.499760    3.298630
  N     10.829190  -13.166030    3.827640
  O     10.951440  -12.130530    4.451840
  O     11.721010  -13.971750    3.658150
  C      9.186830  -14.827100    3.441840
  C      7.930630  -15.300590    3.052660
  C      7.013830  -14.437710    2.520590
  C      5.138510  -12.276120    1.360940
  C      4.256480  -12.810640    2.292130
  C      2.894400  -12.872750    2.052700
  C      2.342870  -12.446400    0.849580
  C      3.232700  -11.967000   -0.164480
  C      4.625870  -11.854900    0.098520
  C      5.438500  -11.378530   -0.949530
  C      4.868780  -11.017670   -2.142010
  C      3.480440  -11.149080   -2.284360
  N      2.700510  -11.607550   -1.344520
  C      0.937820  -12.462170    0.589350
  C     -0.023810  -12.448990    1.553660
  C     -1.404340  -12.453240    1.300950
  C     -2.346610  -12.229390    2.276830
  C     -3.754880  -12.235260    2.150940
  C     -4.420980  -11.903550    3.294760
  C     -3.571270  -11.597950    4.379510
  S     -1.902650  -11.800800    3.923970
  C     -3.915210  -11.127280    5.638460
  C     -5.196690  -10.897270    6.172580
  C     -5.177840  -10.345730    7.423720
  C     -3.882860  -10.103600    7.927350
  S     -2.682580  -10.649360    6.784860
  C     -3.556250   -9.488190    9.125550
  C     -2.249580   -9.202040    9.489410
  C     -1.780780   -8.524100   10.599120
  C     -0.426920   -7.935850   10.538270
  O      0.431340   -8.156100    9.708960
  C     -0.360570   -6.982790   11.667580
  C      0.629230   -6.103010   11.991850
  C      0.445580   -5.239270   13.096000
  C     -0.765690   -5.309680   13.841720
  C     -0.948450   -4.437870   14.933100
  C      0.025460   -3.539320   15.268550
  C      1.222670   -3.471660   14.531190
  C      1.430430   -4.304260   13.467330
  F      2.162010   -2.578300   14.880950
  F     -0.152760   -2.708790   16.307640
  C     -1.769020   -6.242970   13.487200
  C     -1.567730   -7.070150   12.416490
  C     -2.402840   -8.120650   11.826280
  C     -3.474010   -8.712770   12.457930
  C     -4.100700   -9.896020   12.023970
  N     -4.622530  -10.882070   11.748610
  C     -4.008230   -8.265520   13.680590
  N     -4.500300   -7.935480   14.665240
  H      6.930800   -1.588030   -0.233730
  H      5.805590   -3.026940   -0.445150
  H      9.361530   -2.059250    0.744820
  H     10.791550   -4.025530    1.591330
  H     11.635330   -6.110120    2.290790
  H     11.958750   -8.581150    2.933630
  H     10.763830  -10.737270    3.013970
  H      9.907720  -15.502200    3.877610
  H      7.695760  -16.345200    3.180110
  H      6.042820  -14.784460    2.203120
  H      4.637730  -13.127760    3.251650
  H      2.250540  -13.268600    2.822990
  H      6.507620  -11.311010   -0.814960
  H      5.468280  -10.651130   -2.960300
  H      2.991520  -10.877780   -3.211480
  H      0.653780  -12.405280   -0.452110
  H      0.268570  -12.382300    2.594360
  H     -1.750880  -12.621570    0.290140
  H     -4.233060  -12.480790    1.219060
  H     -5.491500  -11.851900    3.379350
  H     -6.094170  -11.135550    5.630400
  H     -6.055480  -10.098010    7.993570
  H     -4.380790   -9.181940    9.751400
  H     -1.476680   -9.436890    8.761950
  H      1.538390   -6.060820   11.411500
  H     -1.858900   -4.478080   15.510450
  H      2.352850   -4.240210   12.911570
  H     -2.676940   -6.268890   14.068130

 Total Charge           Charge          ....    0
 Multiplicity           Mult            ....    1
 Number of Electrons    NEL             ....  514
 Basis Dimension        Dim             .... 1140

ORBITAL ENERGIES
----------------

  NO   OCC          E(Eh)            E(eV)
   0   2.0000     -88.977130     -2421.1908
   1   2.0000     -88.963638     -2420.8237
   2   2.0000     -88.958019     -2420.6708
   3   2.0000     -88.950616     -2420.4693
   4   2.0000     -88.944236     -2420.2957
   5   2.0000     -24.784559      -674.4221
   6   2.0000     -24.783537      -674.3943
   7   2.0000     -19.244648      -523.6735
   8   2.0000     -19.243896      -523.6530
   9   2.0000     -19.191865      -522.2372
  10   2.0000     -14.648608      -398.6089
  11   2.0000     -14.411985      -392.1700
  12   2.0000     -14.395607      -391.7244
  13   2.0000     -14.393634      -391.6707
  14   2.0000     -10.365973      -282.0725
  15   2.0000     -10.365458      -282.0585
  16   2.0000     -10.343195      -281.4526
  17   2.0000     -10.336818      -281.2791
  18   2.0000     -10.333229      -281.1815
  19   2.0000     -10.325778      -280.9787
  20   2.0000     -10.321962      -280.8749
  21   2.0000     -10.320062      -280.8232
  22   2.0000     -10.319878      -280.8182
  23   2.0000     -10.319680      -280.8128
  24   2.0000     -10.319458      -280.8067
  25   2.0000     -10.318772      -280.7881
  26   2.0000     -10.316997      -280.7398
  27   2.0000     -10.316695      -280.7316
  28   2.0000     -10.311952      -280.6025
  29   2.0000     -10.311444      -280.5887
  30   2.0000     -10.311235      -280.5830
  31   2.0000     -10.310719      -280.5689
  32   2.0000     -10.307537      -280.4823
  33   2.0000     -10.306790      -280.4620
  34   2.0000     -10.305935      -280.4387
  35   2.0000     -10.305033      -280.4142
  36   2.0000     -10.304027      -280.3868
  37   2.0000     -10.303438      -280.3708
  38   2.0000     -10.299635      -280.2673
  39   2.0000     -10.299216      -280.2559
  40   2.0000     -10.298842      -280.2457
  41   2.0000     -10.298664      -280.2409
  42   2.0000     -10.297602      -280.2120
  43   2.0000     -10.297181      -280.2005
  44   2.0000     -10.295203      -280.1467
  45   2.0000     -10.294649      -280.1316
  46   2.0000     -10.294430      -280.1257
  47   2.0000     -10.293426      -280.0984
  48   2.0000     -10.293151      -280.0909
  49   2.0000     -10.291973      -280.0588
  50   2.0000     -10.291029      -280.0331
  51   2.0000     -10.290874      -280.0289
  52   2.0000     -10.289995      -280.0050
  53   2.0000     -10.289713      -279.9973
  54   2.0000     -10.289168      -279.9825
  55   2.0000     -10.288705      -279.9699
  56   2.0000     -10.288581      -279.9665
  57   2.0000     -10.288577      -279.9664
  58   2.0000     -10.288127      -279.9542
  59   2.0000     -10.288125      -279.9541
  60   2.0000     -10.286254      -279.9032
  61   2.0000     -10.285260      -279.8762
  62   2.0000     -10.285011      -279.8694
  63   2.0000     -10.283948      -279.8405
  64   2.0000     -10.283089      -279.8171
  65   2.0000     -10.281788      -279.7817
  66   2.0000     -10.276646      -279.6418
  67   2.0000     -10.276087      -279.6265
  68   2.0000     -10.274227      -279.5759
  69   2.0000     -10.270782      -279.4822
  70   2.0000      -8.071629      -219.6402
  71   2.0000      -8.059938      -219.3221
  72   2.0000      -8.054433      -219.1723
  73   2.0000      -8.046687      -218.9615
  74   2.0000      -8.041001      -218.8068
  75   2.0000      -6.040588      -164.3727
  76   2.0000      -6.036383      -164.2583
  77   2.0000      -6.034556      -164.2086
  78   2.0000      -6.029565      -164.0728
  79   2.0000      -6.025566      -163.9640
  80   2.0000      -6.024011      -163.9217
  81   2.0000      -6.020994      -163.8396
  82   2.0000      -6.019996      -163.8124
  83   2.0000      -6.016442      -163.7157
  84   2.0000      -6.015566      -163.6919
  85   2.0000      -6.012236      -163.6013
  86   2.0000      -6.010836      -163.5632
  87   2.0000      -6.007681      -163.4773
  88   2.0000      -6.006869      -163.4552
  89   2.0000      -6.001535      -163.3101
  90   2.0000      -1.324207       -36.0335
  91   2.0000      -1.306018       -35.5386
  92   2.0000      -1.291277       -35.1374
  93   2.0000      -1.142163       -31.0798
  94   2.0000      -1.106191       -30.1010
  95   2.0000      -1.051313       -28.6077
  96   2.0000      -1.013387       -27.5757
  97   2.0000      -1.012490       -27.5512
  98   2.0000      -0.999049       -27.1855
  99   2.0000      -0.996607       -27.1190
 100   2.0000      -0.989096       -26.9147
 101   2.0000      -0.985612       -26.8199
 102   2.0000      -0.974606       -26.5204
 103   2.0000      -0.973581       -26.4925
 104   2.0000      -0.967868       -26.3370
 105   2.0000      -0.962227       -26.1835
 106   2.0000      -0.953539       -25.9471
 107   2.0000      -0.931643       -25.3513
 108   2.0000      -0.917767       -24.9737
 109   2.0000      -0.911974       -24.8161
 110   2.0000      -0.908618       -24.7248
 111   2.0000      -0.897805       -24.4305
 112   2.0000      -0.890149       -24.2222
 113   2.0000      -0.880900       -23.9705
 114   2.0000      -0.876517       -23.8512
 115   2.0000      -0.871888       -23.7253
 116   2.0000      -0.866627       -23.5821
 117   2.0000      -0.861704       -23.4482
 118   2.0000      -0.855789       -23.2872
 119   2.0000      -0.851017       -23.1573
 120   2.0000      -0.849328       -23.1114
 121   2.0000      -0.842541       -22.9267
 122   2.0000      -0.837685       -22.7946
 123   2.0000      -0.830075       -22.5875
 124   2.0000      -0.825289       -22.4572
 125   2.0000      -0.823058       -22.3966
 126   2.0000      -0.814189       -22.1552
 127   2.0000      -0.798576       -21.7304
 128   2.0000      -0.789284       -21.4775
 129   2.0000      -0.777108       -21.1462
 130   2.0000      -0.764411       -20.8007
 131   2.0000      -0.750051       -20.4099
 132   2.0000      -0.745976       -20.2991
 133   2.0000      -0.736888       -20.0517
 134   2.0000      -0.736753       -20.0481
 135   2.0000      -0.724770       -19.7220
 136   2.0000      -0.721096       -19.6220
 137   2.0000      -0.709800       -19.3146
 138   2.0000      -0.703040       -19.1307
 139   2.0000      -0.700750       -19.0684
 140   2.0000      -0.698056       -18.9951
 141   2.0000      -0.691246       -18.8097
 142   2.0000      -0.675450       -18.3799
 143   2.0000      -0.673488       -18.3265
 144   2.0000      -0.664062       -18.0700
 145   2.0000      -0.662553       -18.0290
 146   2.0000      -0.653905       -17.7937
 147   2.0000      -0.649539       -17.6749
 148   2.0000      -0.640301       -17.4235
 149   2.0000      -0.639860       -17.4115
 150   2.0000      -0.636928       -17.3317
 151   2.0000      -0.632690       -17.2164
 152   2.0000      -0.630266       -17.1504
 153   2.0000      -0.628269       -17.0961
 154   2.0000      -0.625159       -17.0114
 155   2.0000      -0.620976       -16.8976
 156   2.0000      -0.620658       -16.8890
 157   2.0000      -0.613552       -16.6956
 158   2.0000      -0.610872       -16.6227
 159   2.0000      -0.609407       -16.5828
 160   2.0000      -0.604062       -16.4374
 161   2.0000      -0.600630       -16.3440
 162   2.0000      -0.595138       -16.1945
 163   2.0000      -0.594978       -16.1902
 164   2.0000      -0.588356       -16.0100
 165   2.0000      -0.578457       -15.7406
 166   2.0000      -0.573960       -15.6182
 167   2.0000      -0.570965       -15.5367
 168   2.0000      -0.569982       -15.5100
 169   2.0000      -0.564632       -15.3644
 170   2.0000      -0.560849       -15.2615
 171   2.0000      -0.559642       -15.2286
 172   2.0000      -0.557378       -15.1670
 173   2.0000      -0.550776       -14.9874
 174   2.0000      -0.546840       -14.8803
 175   2.0000      -0.543014       -14.7762
 176   2.0000      -0.537937       -14.6380
 177   2.0000      -0.533010       -14.5039
 178   2.0000      -0.530610       -14.4386
 179   2.0000      -0.527612       -14.3571
 180   2.0000      -0.522463       -14.2169
 181   2.0000      -0.519369       -14.1327
 182   2.0000      -0.517901       -14.0928
 183   2.0000      -0.517010       -14.0685
 184   2.0000      -0.515868       -14.0375
 185   2.0000      -0.512862       -13.9557
 186   2.0000      -0.511818       -13.9273
 187   2.0000      -0.510871       -13.9015
 188   2.0000      -0.510549       -13.8927
 189   2.0000      -0.508221       -13.8294
 190   2.0000      -0.505483       -13.7549
 191   2.0000      -0.504008       -13.7147
 192   2.0000      -0.498632       -13.5685
 193   2.0000      -0.497797       -13.5457
 194   2.0000      -0.494780       -13.4636
 195   2.0000      -0.493804       -13.4371
 196   2.0000      -0.490656       -13.3514
 197   2.0000      -0.489823       -13.3288
 198   2.0000      -0.484625       -13.1873
 199   2.0000      -0.484229       -13.1765
 200   2.0000      -0.480077       -13.0636
 201   2.0000      -0.478178       -13.0119
 202   2.0000      -0.475177       -12.9302
 203   2.0000      -0.472265       -12.8510
 204   2.0000      -0.470303       -12.7976
 205   2.0000      -0.467598       -12.7240
 206   2.0000      -0.466526       -12.6948
 207   2.0000      -0.463121       -12.6022
 208   2.0000      -0.462646       -12.5892
 209   2.0000      -0.459422       -12.5015
 210   2.0000      -0.452723       -12.3192
 211   2.0000      -0.451189       -12.2775
 212   2.0000      -0.447850       -12.1866
 213   2.0000      -0.447575       -12.1791
 214   2.0000      -0.445815       -12.1312
 215   2.0000      -0.440279       -11.9806
 216   2.0000      -0.437064       -11.8931
 217   2.0000      -0.435652       -11.8547
 218   2.0000      -0.432936       -11.7808
 219   2.0000      -0.431565       -11.7435
 220   2.0000      -0.429197       -11.6790
 221   2.0000      -0.428901       -11.6710
 222   2.0000      -0.425995       -11.5919
 223   2.0000      -0.423870       -11.5341
 224   2.0000      -0.417713       -11.3666
 225   2.0000      -0.414481       -11.2786
 226   2.0000      -0.410466       -11.1693
 227   2.0000      -0.408271       -11.1096
 228   2.0000      -0.405760       -11.0413
 229   2.0000      -0.401833       -10.9344
 230   2.0000      -0.398523       -10.8444
 231   2.0000      -0.392771       -10.6878
 232   2.0000      -0.392020       -10.6674
 233   2.0000      -0.386683       -10.5222
 234   2.0000      -0.385495       -10.4899
 235   2.0000      -0.382764       -10.4155
 236   2.0000      -0.378230       -10.2922
 237   2.0000      -0.372897       -10.1470
 238   2.0000      -0.363220        -9.8837
 239   2.0000      -0.360816        -9.8183
 240   2.0000      -0.351699        -9.5702
 241   2.0000      -0.344335        -9.3698
 242   2.0000      -0.343502        -9.3472
 243   2.0000      -0.339670        -9.2429
 244   2.0000      -0.338187        -9.2025
 245   2.0000      -0.334498        -9.1022
 246   2.0000      -0.333297        -9.0695
 247   2.0000      -0.330366        -8.9897
 248   2.0000      -0.321678        -8.7533
 249   2.0000      -0.318344        -8.6626
 250   2.0000      -0.312199        -8.4954
 251   2.0000      -0.300008        -8.1636
 252   2.0000      -0.289071        -7.8660
 253   2.0000      -0.281794        -7.6680
 254   2.0000      -0.269751        -7.3403
 255   2.0000      -0.226249        -6.1566
 256   2.0000      -0.213563        -5.8113
 257   0.0000      -0.111094        -3.0230
 258   0.0000      -0.083283        -2.2663
 259   0.0000      -0.060470        -1.6455
 260   0.0000      -0.052295        -1.4230
 261   0.0000      -0.042569        -1.1584

MULLIKEN ATOMIC CHARGES
-----------------------
   0 C :   -0.023309
   1 C :   -0.067445
   2 C :    0.054385
   3 C :    0.032788
   4 C :   -0.064486
   5 S :    0.084405
   6 C :   -0.036151
   7 C :    0.032072
   8 C :    0.031155
   9 C :   -0.052317
  10 S :    0.055451
  11 C :   -0.018827
  12 C :   -0.124725
  13 S :    0.148821
  14 C :   -0.191712
  15 C :    0.099500
  16 C :    0.157956
  17 C :    0.050640
  18 N :    0.242254
  19 O :   -0.238340
  20 O :   -0.231017
  21 C :    0.009161
  22 C :    0.017533
  23 C :   -0.003529
  24 C :    0.065363
  25 C :   -0.007531
  26 C :   -0.053930
  27 C :    0.095119
  28 C :   -0.049759
  29 C :    0.073482
  30 C :    0.004781
  31 C :    0.012533
  32 C :    0.029598
  33 N :   -0.056104
  34 C :    0.011044
  35 C :   -0.002008
  36 C :    0.019631
  37 C :   -0.037522
  38 C :    0.056527
  39 C :    0.016541
  40 C :   -0.023424
  41 S :    0.093707
  42 C :   -0.061015
  43 C :    0.041646
  44 C :    0.030188
  45 C :   -0.018264
  46 S :    0.106587
  47 C :    0.002387
  48 C :    0.020136
  49 C :   -0.136434
  50 C :    0.140066
  51 O :   -0.160919
  52 C :    0.006913
  53 C :   -0.090817
  54 C :    0.114129
  55 C :    0.113759
  56 C :   -0.109666
  57 C :    0.237395
  58 C :    0.236286
  59 C :   -0.106249
  60 F :   -0.178700
  61 F :   -0.177690
  62 C :   -0.089233
  63 C :    0.039060
  64 C :    0.299966
  65 C :   -0.359056
  66 C :   -0.220750
  67 N :    0.158384
  68 C :   -0.175836
  69 N :    0.133453
  70 H :    0.023802
  71 H :    0.024170
  72 H :   -0.007879
  73 H :   -0.008739
  74 H :   -0.013120
  75 H :   -0.002270
  76 H :   -0.002191
  77 H :    0.007363
  78 H :   -0.003359
  79 H :   -0.007925
  80 H :   -0.007661
  81 H :   -0.014844
  82 H :    0.002972
  83 H :   -0.000724
  84 H :    0.004851
  85 H :    0.008028
  86 H :    0.010097
  87 H :   -0.001315
  88 H :   -0.002165
  89 H :   -0.004173
  90 H :   -0.005514
  91 H :    0.001784
  92 H :    0.004262
  93 H :    0.013769
  94 H :   -0.015699
  95 H :    0.003141
  96 H :   -0.005769
  97 H :   -0.008932
Sum of atomic charges:   -0.0000000

LOEWDIN ATOMIC CHARGES
----------------------
   0 C :   -0.069021
   1 C :   -0.139893
   2 C :   -0.025599
   3 C :   -0.025893
   4 C :   -0.169513
   5 S :    0.355088
   6 C :   -0.183626
   7 C :   -0.035609
   8 C :   -0.028078
   9 C :   -0.150469
  10 S :    0.361836
  11 C :   -0.080061
  12 C :   -0.166722
  13 S :    0.500947
  14 C :   -0.190448
  15 C :   -0.039456
  16 C :   -0.048146
  17 C :   -0.023754
  18 N :    0.284869
  19 O :   -0.198937
  20 O :   -0.197238
  21 C :    0.003722
  22 C :   -0.030585
  23 C :    0.009886
  24 C :   -0.028758
  25 C :   -0.014868
  26 C :   -0.003025
  27 C :   -0.031099
  28 C :    0.017559
  29 C :   -0.032415
  30 C :    0.015239
  31 C :   -0.044786
  32 C :    0.030450
  33 N :   -0.069435
  34 C :    0.024882
  35 C :   -0.041642
  36 C :   -0.012031
  37 C :   -0.157840
  38 C :   -0.009418
  39 C :   -0.040340
  40 C :   -0.144653
  41 S :    0.395487
  42 C :   -0.197963
  43 C :   -0.006461
  44 C :   -0.042489
  45 C :   -0.098469
  46 S :    0.406515
  47 C :   -0.072629
  48 C :    0.050869
  49 C :   -0.112496
  50 C :    0.076607
  51 O :   -0.162131
  52 C :   -0.049361
  53 C :    0.022173
  54 C :   -0.011520
  55 C :   -0.007856
  56 C :   -0.031755
  57 C :    0.063032
  58 C :    0.063244
  59 C :   -0.035221
  60 F :   -0.055901
  61 F :   -0.054877
  62 C :    0.007677
  63 C :   -0.016354
  64 C :    0.068023
  65 C :   -0.157611
  66 C :   -0.024347
  67 N :   -0.065534
  68 C :   -0.019202
  69 N :   -0.069970
  70 H :    0.030323
  71 H :    0.027566
  72 H :    0.034965
  73 H :    0.033742
  74 H :    0.032037
  75 H :    0.037596
  76 H :    0.033582
  77 H :    0.040798
  78 H :    0.035186
  79 H :    0.034617
  80 H :    0.034899
  81 H :    0.032166
  82 H :    0.024912
  83 H :    0.035170
  84 H :    0.022925
  85 H :    0.034616
  86 H :    0.020530
  87 H :    0.039044
  88 H :    0.038190
  89 H :    0.035120
  90 H :    0.035449
  91 H :    0.039728
  92 H :    0.037342
  93 H :    0.032341
  94 H :    0.037839
  95 H :    0.045939
  96 H :    0.042710
  97 H :    0.038067

  Mayer bond orders larger than 0.100000
B(  0-C ,  1-C ) :   1.8655 B(  0-C , 70-H ) :   0.9507 B(  0-C , 71-H ) :   0.9410
B(  1-C ,  2-C ) :   1.0795 B(  1-C ,  5-S ) :   1.0058 B(  2-C ,  3-C ) :   1.6612
B(  2-C , 72-H ) :   0.9932 B(  3-C ,  4-C ) :   1.1527 B(  3-C , 73-H ) :   0.9915
B(  4-C ,  5-S ) :   1.0513 B(  4-C ,  6-C ) :   1.5540 B(  6-C ,  7-C ) :   1.1716
B(  6-C , 10-S ) :   1.0250 B(  7-C ,  8-C ) :   1.5986 B(  7-C , 74-H ) :   0.9922
B(  8-C ,  9-C ) :   1.1501 B(  8-C , 75-H ) :   1.0002 B(  9-C , 10-S ) :   1.0377
B(  9-C , 11-C ) :   1.5596 B( 11-C , 12-C ) :   1.2277 B( 11-C , 76-H ) :   0.9451
B( 12-C , 13-S ) :   1.1202 B( 12-C , 14-C ) :   0.1078 B( 12-C , 16-C ) :   1.3176
B( 13-S , 14-C ) :   1.1748 B( 14-C , 15-C ) :   1.3685 B( 14-C , 24-C ) :   0.9965
B( 15-C , 16-C ) :   1.2073 B( 15-C , 23-C ) :   1.2107 B( 16-C , 17-C ) :   1.1932
B( 17-C , 18-N ) :   0.8735 B( 17-C , 21-C ) :   1.5451 B( 18-N , 19-O ) :   1.5002
B( 18-N , 20-O ) :   1.5527 B( 19-O , 20-O ) :   0.2607 B( 21-C , 22-C ) :   1.2068
B( 21-C , 77-H ) :   0.9796 B( 22-C , 23-C ) :   1.5084 B( 22-C , 78-H ) :   0.9882
B( 23-C , 79-H ) :   0.9917 B( 24-C , 25-C ) :   1.4382 B( 24-C , 29-C ) :   1.2186
B( 25-C , 26-C ) :   1.2930 B( 25-C , 80-H ) :   0.9928 B( 26-C , 27-C ) :   1.3930
B( 26-C , 81-H ) :   0.9935 B( 27-C , 28-C ) :   1.1862 B( 27-C , 34-C ) :   1.1094
B( 28-C , 29-C ) :   1.2346 B( 28-C , 33-N ) :   1.4674 B( 29-C , 30-C ) :   1.2759
B( 30-C , 31-C ) :   1.5314 B( 30-C , 82-H ) :   0.9621 B( 31-C , 32-C ) :   1.2512
B( 31-C , 83-H ) :   0.9713 B( 32-C , 33-N ) :   1.6477 B( 32-C , 84-H ) :   0.9781
B( 34-C , 35-C ) :   1.6038 B( 34-C , 85-H ) :   0.9746 B( 35-C , 36-C ) :   1.1700
B( 35-C , 86-H ) :   0.9644 B( 36-C , 37-C ) :   1.5449 B( 36-C , 87-H ) :   0.9864
B( 37-C , 38-C ) :   1.1555 B( 37-C , 41-S ) :   1.0244 B( 38-C , 39-C ) :   1.5699
B( 38-C , 88-H ) :   0.9990 B( 39-C , 40-C ) :   1.2054 B( 39-C , 89-H ) :   0.9960
B( 40-C , 41-S ) :   1.0891 B( 40-C , 42-C ) :   1.4455 B( 42-C , 43-C ) :   1.2341
B( 42-C , 46-S ) :   1.0438 B( 43-C , 44-C ) :   1.5260 B( 43-C , 90-H ) :   0.9949
B( 44-C , 45-C ) :   1.1968 B( 44-C , 91-H ) :   1.0013 B( 45-C , 46-S ) :   1.0936
B( 45-C , 47-C ) :   1.4675 B( 47-C , 48-C ) :   1.2527 B( 47-C , 92-H ) :   0.9653
B( 48-C , 49-C ) :   1.4977 B( 48-C , 93-H ) :   0.9348 B( 49-C , 50-C ) :   0.9758
B( 49-C , 64-C ) :   1.0952 B( 50-C , 51-O ) :   2.2357 B( 50-C , 52-C ) :   0.9160
B( 52-C , 53-C ) :   1.4903 B( 52-C , 63-C ) :   1.2184 B( 53-C , 54-C ) :   1.1807
B( 53-C , 94-H ) :   1.0153 B( 54-C , 55-C ) :   1.2620 B( 54-C , 59-C ) :   1.1986
B( 55-C , 56-C ) :   1.1918 B( 55-C , 62-C ) :   1.2058 B( 56-C , 57-C ) :   1.4379
B( 56-C , 59-C ) :   0.1096 B( 56-C , 95-H ) :   1.0069 B( 57-C , 58-C ) :   1.1987
B( 57-C , 61-F ) :   1.1279 B( 58-C , 59-C ) :   1.4380 B( 58-C , 60-F ) :   1.1261
B( 59-C , 96-H ) :   1.0067 B( 62-C , 63-C ) :   1.4674 B( 62-C , 97-H ) :   0.9915
B( 63-C , 64-C ) :   0.9864 B( 64-C , 65-C ) :   1.5934 B( 65-C , 66-C ) :   1.1735
B( 65-C , 68-C ) :   1.1376 B( 66-C , 67-N ) :   3.0051 B( 68-C , 69-N ) :   2.9680

-----------------------------------------------------------------------------
         ABSORPTION SPECTRUM VIA TRANSITION ELECTRIC DIPOLE MOMENTS
-----------------------------------------------------------------------------
State   Energy  Wavelength   fosc         T2         TX        TY        TZ
        (cm-1)    (nm)                  (au**2)     (au)      (au)      (au)
-----------------------------------------------------------------------------
   0   10298.1    971.1   1.019886035  32.60406   3.15832  -0.43444  -4.73712
   1   13553.5    737.8   0.874174699  21.23347   1.02213   3.29924   3.05020
   2   15699.0    637.0   0.442557898   9.28057  -0.55322  -2.99470   0.07915
   3   19131.6    522.7   0.186628494   3.21145  -0.35609  -1.75478   0.07337
   4   20063.0    498.4   0.346238346   5.68139  -1.40201   1.69622  -0.91575
   5   21343.7    468.5   0.010159158   0.15670   0.32645   0.16783   0.14818
   6   22441.5    445.6   0.686266649  10.06736  -2.77991   1.02360  -1.13654
   7   23071.3    433.4   0.033817561   0.48255  -0.14930  -0.61674   0.28265
   8   24445.9    409.1   0.033776937   0.45487  -0.37937  -0.20863   0.51713
   9   25087.6    398.6   0.197560802   2.59249  -1.49574  -0.24575  -0.54301
  10   25937.8    385.5   0.180993790   2.29724  -1.24517  -0.86391  -0.02151
  11   26611.6    375.8   0.001818636   0.02250  -0.08729   0.06430   0.10365
  12   26971.5    370.8   0.004025113   0.04913  -0.17799  -0.09074  -0.09601
  13   27580.2    362.6   0.104019801   1.24164   1.02433   0.42730  -0.09896
  14   28046.3    356.6   0.057758482   0.67798  -0.53638   0.43398  -0.44937
  15   28186.2    354.8   0.051083821   0.59665   0.55677   0.53336   0.04673
  16   28883.3    346.2   0.029533077   0.33662  -0.40970  -0.27873  -0.30179
  17   29280.9    341.5   0.284817536   3.20227   1.39571  -0.85285   0.72589
  18   30062.1    332.6   0.028437996   0.31143   0.38003   0.40447   0.05841
  19   30668.9    326.1   0.002623391   0.02816  -0.15413   0.06522  -0.01224
  20   30895.8    323.7   0.006714544   0.07155  -0.04454   0.01418   0.26337
  21   31045.6    322.1   0.012795820   0.13569   0.28053   0.18343   0.15280
  22   31747.1    315.0   0.003735887   0.03874  -0.10509   0.08070   0.14554
  23   31868.4    313.8   0.077671128   0.80237  -0.54938  -0.59436  -0.38379
  24   32252.3    310.1   0.034188629   0.34898   0.51208  -0.05424   0.28950
  25   32344.5    309.2   0.012443212   0.12665   0.05326   0.35179  -0.00766
  26   32477.0    307.9   0.025632011   0.25983   0.08095  -0.48179   0.14545
  27   33016.6    302.9   0.432766413   4.31516  -1.57449  -1.27353  -0.46291
  28   33244.3    300.8   0.001749806   0.01733   0.08411   0.08001   0.06208
  29   33550.4    298.1   0.046644464   0.45770  -0.63856  -0.10084  -0.19942
  30   33688.4    296.8   0.058223525   0.56898  -0.23671  -0.71019   0.09257
  31   33714.9    296.6   0.064156823   0.62646   0.11056   0.59922   0.50515
  32   34148.3    292.8   0.029455991   0.28398  -0.01587   0.19377  -0.49616
  33   34384.7    290.8   0.044941657   0.43029   0.48580   0.09678  -0.43003
  34   34716.5    288.0   0.030849934   0.29255   0.12730   0.41671  -0.32046
  35   34879.9    286.7   0.054326467   0.51276   0.40575   0.52071   0.27747
  36   35210.9    284.0   0.033137777   0.30983  -0.43930  -0.30706  -0.15020
  37   35850.0    278.9   0.027979849   0.25694  -0.33392  -0.36842  -0.09852
  38   35921.2    278.4   0.017368798   0.15918  -0.16895  -0.09910   0.34759
  39   36213.9    276.1   0.063054675   0.57321   0.75576   0.04404  -0.00981
  40   36429.8    274.5   0.015846625   0.14320   0.01312  -0.24712   0.28630
  41   36873.3    271.2   0.021235590   0.18960   0.00715  -0.35314   0.25463
  42   37080.0    269.7   0.072382385   0.64264  -0.45738  -0.50673  -0.42032
  43   37190.6    268.9   0.012822677   0.11351  -0.22069  -0.03247   0.25249
  44   37412.8    267.3   0.036949489   0.32513  -0.26066  -0.39173  -0.32208
  45   37609.6    265.9   0.137805213   1.20626   0.69069   0.83333  -0.18646
  46   38079.5    262.6   0.018864364   0.16309  -0.18099  -0.34654   0.10119
  47   38197.2    261.8   0.080533401   0.69410  -0.74846  -0.34072   0.13349
  48   38359.6    260.7   0.091913417   0.78882   0.55422  -0.67964   0.14051
  49   38791.6    257.8   0.063553833   0.53936   0.71497   0.11141  -0.12556
  50   38902.1    257.1   0.002480260   0.02099   0.08999  -0.11353   0.00195
  51   39034.9    256.2   0.014489072   0.12220  -0.12205   0.13035  -0.30051
  52   39208.4    255.0   0.017490905   0.14686  -0.27397   0.24509  -0.10833
  53   39475.2    253.3   0.186893195   1.55864  -0.90061  -0.75832   0.41532
  54   39685.9    252.0   0.050185532   0.41631   0.28975  -0.48448   0.31246
  55   39694.0    251.9   0.085038255   0.70529   0.82096   0.01431  -0.17639
  56   40136.3    249.2   0.058121345   0.47673  -0.65886   0.17347  -0.11200

FINAL SINGLE POINT ENERGY     -4781.813107415222

DIPOLE MOMENT
-------------
                                X             Y             Z
Electronic contribution:     -7.04716      16.59238      51.82410
Nuclear contribution   :      7.72759     -16.67762     -57.95119
                        -----------------------------------------
Total Dipole Moment    :      0.68042      -0.08525      -6.12710
                        -----------------------------------------
Magnitude (a.u.)       :      6.16535
Magnitude (Debye)      :     15.67108

Rotational constants in cm-1:     0.000758     0.000333     0.000273
Rotational constants in MHz :    22.722393     9.976003     8.195714

                             ****ORCA TERMINATED NORMALLY****
TOTAL RUN TIME: 0 days 0 hours 9 minutes 57 seconds 370 msec
