                         Program Version 4.2.0 -  RELEASE  -
|  1> # ORCA input file
|  2> # SCF done       -208.956019960732          0.001398368790
|  3> ! CAM-B3LYP def2-SVP def2/J RIJCOSX Grid4 TightSCF
|  4> %maxcore 5000
|  5> %tddft
|  6>     Mode sTDDFT
|  7>     Ethresh 5.0
|  8>     maxcore 5000
|  9> end
| 10>
| 11> %pal
| 12>   nprocs 6
| 13>   end
| 14> * xyz 0 1
| 15>    C        8.65402        13.59050         1.30614
| 16>    C        8.02524        14.55958         2.03754
| 17>    F        8.33067        15.85076         1.82576
| 18>    C        7.06219        14.25993         3.01167
| 19>    C        6.73902        12.95205         3.24357
| 20>    C        7.35618        11.91182         2.51815
| 21>    C        8.32904        12.23790         1.52732
| 22>    C        8.94621        11.21475         0.77214
| 23>    C        8.60033         9.90965         1.00119
| 24>    C        7.64542         9.58726         2.01069
| 25>    C        7.03148        10.55724         2.75100
| 26>    C        7.48037         8.12477         2.08219
| 27>    O        6.72826         7.48421         2.77731
| 28>    C        8.49429         7.57387         1.13343
| 29>    C        9.01854         8.67710         0.34473
| 30>    C        9.57961         8.58587        -0.89922
| 31>    C        9.70623         7.37668        -1.61352
| 32>    N        9.77043         6.42730        -2.25571
| 33>    C       10.00022         9.70221        -1.65366
| 34>    N       10.37462        10.57252        -2.30016
| 35>    C        8.84218         6.26957         1.17526
| 36>    C       10.01438         5.68048         0.58910
| 37>    C       11.28251         6.15750         0.68837
| 38>    C       12.18885         5.20505         0.06752
| 39>    C       13.57329         5.39799        -0.04119
| 40>    N       14.70609         5.56350        -0.11964
| 41>    C       11.47139         4.13907        -0.38937
| 42>    C       10.07717         4.38060        -0.10833
| 43>    C        9.00379         3.68323        -0.58480
| 44>    C        9.01280         2.39269        -1.31460
| 45>    C        7.82089         2.29561        -1.97155
| 46>    C        6.99886         3.43557        -1.62189
| 47>    C        7.68473         4.23386        -0.74863
| 48>    C        5.70711         3.66077        -2.12019
| 49>    N        4.64967         3.82975        -2.53190
| 50>    C        9.99678         1.36159        -1.28680
| 51>    C       10.86686         1.12174        -0.27989
| 52>    C       11.80115         0.03666        -0.28507
| 53>    N       12.48351        -0.17974         0.83043
| 54>    N       13.32594        -1.14365         0.98812
| 55>    C       13.59574        -2.04939         0.05863
| 56>    C       12.97472        -1.90107        -1.21764
| 57>    C       12.04912        -0.82279        -1.39840
| 58>    N       11.54243        -0.80537        -2.62855
| 59>    S       12.16561        -2.02901        -3.46765
| 60>    N       13.10368        -2.63911        -2.31656
| 61>    C       14.52332        -3.10432         0.33524
| 62>    C       15.23874        -3.79189        -0.60402
| 63>    C       16.18364        -4.64972         0.07439
| 64>    C       17.04924        -5.53826        -0.57955
| 65>    N       17.75986        -6.25156        -1.12972
| 66>    C       16.08522        -4.44642         1.42603
| 67>    C       15.02020        -3.50990         1.66331
| 68>    C       14.50733        -3.20326         2.89521
| 69>    C       15.18606        -3.45322         4.18404
| 70>    C       14.26782        -3.27260         5.17308
| 71>    C       13.00480        -2.88760         4.56810
| 72>    C       13.15801        -2.81583         3.21144
| 73>    C       11.82773        -2.64388         5.28848
| 74>    N       10.86921        -2.44512         5.88777
| 75>    C       16.58520        -3.71282         4.33119
| 76>    C       17.11247        -4.51496         5.28384
| 77>    C       18.50447        -4.77772         5.38629
| 78>    C       19.08237        -5.86112         5.97162
| 79>    C       20.51942        -5.84449         6.36300
| 80>    O       21.34978        -5.03184         6.02923
| 81>    C       20.68087        -6.99130         7.27773
| 82>    C       21.78101        -7.36998         7.99163
| 83>    C       21.70624        -8.51111         8.82120
| 84>    C       20.48209        -9.23761         8.90145
| 85>    C       20.41435       -10.37281         9.73231
| 86>    C       21.52122       -10.75461        10.43859
| 87>    C       22.73386       -10.05465        10.37200
| 88>    C       22.81653        -8.94912         9.57199
| 89>    F       21.45913       -11.83941        11.23052
| 90>    C       19.35839        -8.82500         8.14791
| 91>    C       19.45849        -7.72277         7.34253
| 92>    C       18.50508        -7.10794         6.42388
| 93>    C       17.39149        -7.71468         5.90029
| 94>    C       16.70355        -7.22798         4.77044
| 95>    N       16.16075        -6.89570         3.81436
| 96>    C       16.88772        -8.95196         6.35187
| 97>    N       16.42567        -9.94197         6.70311
| 98>    H        9.38715        13.85760         0.56119
| 99>    H        6.59820        15.06722         3.55573
|100>    H        6.00076        12.69714         3.98877
|101>    H        9.68333        11.48712         0.03320
|102>    H        6.30300        10.29338         3.50302
|103>    H        8.21798         5.62326         1.78584
|104>    H       11.59845         7.06570         1.16914
|105>    H       11.85482         3.31549        -0.95778
|106>    H        7.49835         1.49170        -2.60675
|107>    H        7.34969         5.17616        -0.36064
|108>    H        9.97116         0.67144        -2.12105
|109>    H       10.86974         1.71505         0.62364
|110>    H       15.14537        -3.70758        -1.67001
|111>    H       16.59103        -5.01089         2.18614
|112>    H       14.42922        -3.34502         6.23256
|113>    H       12.38047        -2.61897         2.50271
|114>    H       17.24270        -3.27488         3.59087
|115>    H       16.44968        -5.02297         5.97206
|116>    H       19.18743        -4.02576         5.00486
|117>    H       22.70003        -6.80774         7.92101
|118>    H       19.49843       -10.93821         9.80520
|119>    H       23.57364       -10.40325        10.95197
|120>    H       23.73986        -8.39388         9.50384
|121>    H       18.44284        -9.38918         8.23119
|122> *
|123>
|124>                          ****END OF INPUT****

CARTESIAN COORDINATES (ANGSTROEM)
---------------------------------
  C      8.654020   13.590500    1.306140
  C      8.025240   14.559580    2.037540
  F      8.330670   15.850760    1.825760
  C      7.062190   14.259930    3.011670
  C      6.739020   12.952050    3.243570
  C      7.356180   11.911820    2.518150
  C      8.329040   12.237900    1.527320
  C      8.946210   11.214750    0.772140
  C      8.600330    9.909650    1.001190
  C      7.645420    9.587260    2.010690
  C      7.031480   10.557240    2.751000
  C      7.480370    8.124770    2.082190
  O      6.728260    7.484210    2.777310
  C      8.494290    7.573870    1.133430
  C      9.018540    8.677100    0.344730
  C      9.579610    8.585870   -0.899220
  C      9.706230    7.376680   -1.613520
  N      9.770430    6.427300   -2.255710
  C     10.000220    9.702210   -1.653660
  N     10.374620   10.572520   -2.300160
  C      8.842180    6.269570    1.175260
  C     10.014380    5.680480    0.589100
  C     11.282510    6.157500    0.688370
  C     12.188850    5.205050    0.067520
  C     13.573290    5.397990   -0.041190
  N     14.706090    5.563500   -0.119640
  C     11.471390    4.139070   -0.389370
  C     10.077170    4.380600   -0.108330
  C      9.003790    3.683230   -0.584800
  C      9.012800    2.392690   -1.314600
  C      7.820890    2.295610   -1.971550
  C      6.998860    3.435570   -1.621890
  C      7.684730    4.233860   -0.748630
  C      5.707110    3.660770   -2.120190
  N      4.649670    3.829750   -2.531900
  C      9.996780    1.361590   -1.286800
  C     10.866860    1.121740   -0.279890
  C     11.801150    0.036660   -0.285070
  N     12.483510   -0.179740    0.830430
  N     13.325940   -1.143650    0.988120
  C     13.595740   -2.049390    0.058630
  C     12.974720   -1.901070   -1.217640
  C     12.049120   -0.822790   -1.398400
  N     11.542430   -0.805370   -2.628550
  S     12.165610   -2.029010   -3.467650
  N     13.103680   -2.639110   -2.316560
  C     14.523320   -3.104320    0.335240
  C     15.238740   -3.791890   -0.604020
  C     16.183640   -4.649720    0.074390
  C     17.049240   -5.538260   -0.579550
  N     17.759860   -6.251560   -1.129720
  C     16.085220   -4.446420    1.426030
  C     15.020200   -3.509900    1.663310
  C     14.507330   -3.203260    2.895210
  C     15.186060   -3.453220    4.184040
  C     14.267820   -3.272600    5.173080
  C     13.004800   -2.887600    4.568100
  C     13.158010   -2.815830    3.211440
  C     11.827730   -2.643880    5.288480
  N     10.869210   -2.445120    5.887770
  C     16.585200   -3.712820    4.331190
  C     17.112470   -4.514960    5.283840
  C     18.504470   -4.777720    5.386290
  C     19.082370   -5.861120    5.971620
  C     20.519420   -5.844490    6.363000
  O     21.349780   -5.031840    6.029230
  C     20.680870   -6.991300    7.277730
  C     21.781010   -7.369980    7.991630
  C     21.706240   -8.511110    8.821200
  C     20.482090   -9.237610    8.901450
  C     20.414350  -10.372810    9.732310
  C     21.521220  -10.754610   10.438590
  C     22.733860  -10.054650   10.372000
  C     22.816530   -8.949120    9.571990
  F     21.459130  -11.839410   11.230520
  C     19.358390   -8.825000    8.147910
  C     19.458490   -7.722770    7.342530
  C     18.505080   -7.107940    6.423880
  C     17.391490   -7.714680    5.900290
  C     16.703550   -7.227980    4.770440
  N     16.160750   -6.895700    3.814360
  C     16.887720   -8.951960    6.351870
  N     16.425670   -9.941970    6.703110
  H      9.387150   13.857600    0.561190
  H      6.598200   15.067220    3.555730
  H      6.000760   12.697140    3.988770
  H      9.683330   11.487120    0.033200
  H      6.303000   10.293380    3.503020
  H      8.217980    5.623260    1.785840
  H     11.598450    7.065700    1.169140
  H     11.854820    3.315490   -0.957780
  H      7.498350    1.491700   -2.606750
  H      7.349690    5.176160   -0.360640
  H      9.971160    0.671440   -2.121050
  H     10.869740    1.715050    0.623640
  H     15.145370   -3.707580   -1.670010
  H     16.591030   -5.010890    2.186140
  H     14.429220   -3.345020    6.232560
  H     12.380470   -2.618970    2.502710
  H     17.242700   -3.274880    3.590870
  H     16.449680   -5.022970    5.972060
  H     19.187430   -4.025760    5.004860
  H     22.700030   -6.807740    7.921010
  H     19.498430  -10.938210    9.805200
  H     23.573640  -10.403250   10.951970
  H     23.739860   -8.393880    9.503840
  H     18.442840   -9.389180    8.231190

 Total Charge           Charge          ....    0
 Multiplicity           Mult            ....    1
 Number of Electrons    NEL             ....  554
 Basis Dimension        Dim             .... 1286

ORBITAL ENERGIES
----------------

  NO   OCC          E(Eh)            E(eV)
   0   2.0000     -89.060120     -2423.4491
   1   2.0000     -24.794245      -674.6857
   2   2.0000     -24.789410      -674.5541
   3   2.0000     -19.228955      -523.2465
   4   2.0000     -19.219679      -522.9941
   5   2.0000     -14.474959      -393.8837
   6   2.0000     -14.474865      -393.8811
   7   2.0000     -14.456337      -393.3769
   8   2.0000     -14.454902      -393.3379
   9   2.0000     -14.429961      -392.6592
  10   2.0000     -14.428501      -392.6195
  11   2.0000     -14.425268      -392.5315
  12   2.0000     -14.423158      -392.4741
  13   2.0000     -14.419530      -392.3754
  14   2.0000     -14.418342      -392.3430
  15   2.0000     -14.412504      -392.1842
  16   2.0000     -14.412439      -392.1824
  17   2.0000     -10.379935      -282.4524
  18   2.0000     -10.379158      -282.4313
  19   2.0000     -10.373752      -282.2841
  20   2.0000     -10.370997      -282.2092
  21   2.0000     -10.359466      -281.8954
  22   2.0000     -10.357128      -281.8318
  23   2.0000     -10.356758      -281.8217
  24   2.0000     -10.356652      -281.8188
  25   2.0000     -10.352983      -281.7190
  26   2.0000     -10.352947      -281.7180
  27   2.0000     -10.349357      -281.6203
  28   2.0000     -10.347682      -281.5747
  29   2.0000     -10.337278      -281.2916
  30   2.0000     -10.336644      -281.2744
  31   2.0000     -10.334933      -281.2278
  32   2.0000     -10.334403      -281.2134
  33   2.0000     -10.332431      -281.1598
  34   2.0000     -10.332258      -281.1550
  35   2.0000     -10.332033      -281.1489
  36   2.0000     -10.330147      -281.0976
  37   2.0000     -10.329353      -281.0760
  38   2.0000     -10.328630      -281.0563
  39   2.0000     -10.325840      -280.9804
  40   2.0000     -10.325156      -280.9618
  41   2.0000     -10.324281      -280.9380
  42   2.0000     -10.322914      -280.9008
  43   2.0000     -10.319195      -280.7996
  44   2.0000     -10.318955      -280.7930
  45   2.0000     -10.317329      -280.7488
  46   2.0000     -10.317134      -280.7435
  47   2.0000     -10.316949      -280.7385
  48   2.0000     -10.316177      -280.7174
  49   2.0000     -10.316060      -280.7143
  50   2.0000     -10.313896      -280.6554
  51   2.0000     -10.313217      -280.6369
  52   2.0000     -10.312252      -280.6106
  53   2.0000     -10.311812      -280.5987
  54   2.0000     -10.311751      -280.5970
  55   2.0000     -10.311403      -280.5876
  56   2.0000     -10.311113      -280.5797
  57   2.0000     -10.310957      -280.5754
  58   2.0000     -10.310739      -280.5695
  59   2.0000     -10.310624      -280.5664
  60   2.0000     -10.310528      -280.5637
  61   2.0000     -10.309880      -280.5461
  62   2.0000     -10.309079      -280.5243
  63   2.0000     -10.308941      -280.5206
  64   2.0000     -10.307152      -280.4719
  65   2.0000     -10.306834      -280.4632
  66   2.0000     -10.306798      -280.4622
  67   2.0000     -10.305934      -280.4387
  68   2.0000     -10.305914      -280.4382
  69   2.0000     -10.305886      -280.4374
  70   2.0000     -10.304867      -280.4097
  71   2.0000     -10.303945      -280.3846
  72   2.0000     -10.303942      -280.3845
  73   2.0000     -10.303905      -280.3835
  74   2.0000     -10.303851      -280.3820
  75   2.0000     -10.302621      -280.3486
  76   2.0000     -10.301931      -280.3298
  77   2.0000     -10.301772      -280.3255
  78   2.0000     -10.299660      -280.2680
  79   2.0000     -10.298600      -280.2391
  80   2.0000     -10.298362      -280.2327
  81   2.0000     -10.295213      -280.1470
  82   2.0000     -10.293196      -280.0921
  83   2.0000      -8.151794      -221.8216
  84   2.0000      -6.122981      -166.6148
  85   2.0000      -6.115010      -166.3979
  86   2.0000      -6.114387      -166.3809
  87   2.0000      -1.309771       -35.6407
  88   2.0000      -1.304611       -35.5003
  89   2.0000      -1.163633       -31.6641
  90   2.0000      -1.144283       -31.1375
  91   2.0000      -1.135990       -30.9118
  92   2.0000      -1.134845       -30.8807
  93   2.0000      -1.035536       -28.1784
  94   2.0000      -1.026994       -27.9459
  95   2.0000      -1.026163       -27.9233
  96   2.0000      -1.024084       -27.8667
  97   2.0000      -1.014522       -27.6066
  98   2.0000      -1.013347       -27.5746
  99   2.0000      -1.012054       -27.5394
 100   2.0000      -1.007053       -27.4033
 101   2.0000      -1.007005       -27.4020
 102   2.0000      -1.005265       -27.3547
 103   2.0000      -1.002564       -27.2812
 104   2.0000      -0.997538       -27.1444
 105   2.0000      -0.991529       -26.9809
 106   2.0000      -0.990508       -26.9531
 107   2.0000      -0.986701       -26.8495
 108   2.0000      -0.983853       -26.7720
 109   2.0000      -0.982136       -26.7253
 110   2.0000      -0.957875       -26.0651
 111   2.0000      -0.940907       -25.6034
 112   2.0000      -0.939835       -25.5742
 113   2.0000      -0.937821       -25.5194
 114   2.0000      -0.926376       -25.2080
 115   2.0000      -0.920405       -25.0455
 116   2.0000      -0.905902       -24.6509
 117   2.0000      -0.901528       -24.5318
 118   2.0000      -0.899399       -24.4739
 119   2.0000      -0.893674       -24.3181
 120   2.0000      -0.891106       -24.2482
 121   2.0000      -0.887181       -24.1414
 122   2.0000      -0.885143       -24.0860
 123   2.0000      -0.871604       -23.7175
 124   2.0000      -0.858717       -23.3669
 125   2.0000      -0.847918       -23.0730
 126   2.0000      -0.842039       -22.9131
 127   2.0000      -0.840101       -22.8603
 128   2.0000      -0.834027       -22.6950
 129   2.0000      -0.829833       -22.5809
 130   2.0000      -0.810373       -22.0514
 131   2.0000      -0.804585       -21.8939
 132   2.0000      -0.803167       -21.8553
 133   2.0000      -0.799440       -21.7539
 134   2.0000      -0.794070       -21.6077
 135   2.0000      -0.774509       -21.0755
 136   2.0000      -0.768102       -20.9011
 137   2.0000      -0.758426       -20.6378
 138   2.0000      -0.747515       -20.3409
 139   2.0000      -0.742946       -20.2166
 140   2.0000      -0.740431       -20.1482
 141   2.0000      -0.735131       -20.0039
 142   2.0000      -0.729156       -19.8413
 143   2.0000      -0.723735       -19.6938
 144   2.0000      -0.720534       -19.6067
 145   2.0000      -0.719876       -19.5888
 146   2.0000      -0.714185       -19.4340
 147   2.0000      -0.710795       -19.3417
 148   2.0000      -0.698494       -19.0070
 149   2.0000      -0.694006       -18.8849
 150   2.0000      -0.692801       -18.8521
 151   2.0000      -0.689296       -18.7567
 152   2.0000      -0.677508       -18.4359
 153   2.0000      -0.671557       -18.2740
 154   2.0000      -0.668629       -18.1943
 155   2.0000      -0.654898       -17.8207
 156   2.0000      -0.652894       -17.7661
 157   2.0000      -0.647381       -17.6161
 158   2.0000      -0.647323       -17.6146
 159   2.0000      -0.642487       -17.4830
 160   2.0000      -0.640030       -17.4161
 161   2.0000      -0.639599       -17.4044
 162   2.0000      -0.634539       -17.2667
 163   2.0000      -0.625546       -17.0220
 164   2.0000      -0.623642       -16.9702
 165   2.0000      -0.615576       -16.7507
 166   2.0000      -0.614967       -16.7341
 167   2.0000      -0.610511       -16.6129
 168   2.0000      -0.607286       -16.5251
 169   2.0000      -0.603664       -16.4265
 170   2.0000      -0.601458       -16.3665
 171   2.0000      -0.589055       -16.0290
 172   2.0000      -0.585127       -15.9221
 173   2.0000      -0.582403       -15.8480
 174   2.0000      -0.580708       -15.8019
 175   2.0000      -0.573690       -15.6109
 176   2.0000      -0.573542       -15.6069
 177   2.0000      -0.569250       -15.4901
 178   2.0000      -0.567460       -15.4414
 179   2.0000      -0.567005       -15.4290
 180   2.0000      -0.562034       -15.2937
 181   2.0000      -0.557521       -15.1709
 182   2.0000      -0.552980       -15.0473
 183   2.0000      -0.548771       -14.9328
 184   2.0000      -0.548402       -14.9228
 185   2.0000      -0.543588       -14.7918
 186   2.0000      -0.542827       -14.7711
 187   2.0000      -0.539667       -14.6851
 188   2.0000      -0.538047       -14.6410
 189   2.0000      -0.536852       -14.6085
 190   2.0000      -0.534183       -14.5359
 191   2.0000      -0.533676       -14.5221
 192   2.0000      -0.532899       -14.5009
 193   2.0000      -0.531637       -14.4666
 194   2.0000      -0.528047       -14.3689
 195   2.0000      -0.527514       -14.3544
 196   2.0000      -0.524620       -14.2756
 197   2.0000      -0.522728       -14.2241
 198   2.0000      -0.521400       -14.1880
 199   2.0000      -0.518002       -14.0955
 200   2.0000      -0.514283       -13.9943
 201   2.0000      -0.511488       -13.9183
 202   2.0000      -0.510579       -13.8936
 203   2.0000      -0.508401       -13.8343
 204   2.0000      -0.507800       -13.8179
 205   2.0000      -0.506584       -13.7848
 206   2.0000      -0.505538       -13.7564
 207   2.0000      -0.504678       -13.7330
 208   2.0000      -0.503871       -13.7110
 209   2.0000      -0.501297       -13.6410
 210   2.0000      -0.500595       -13.6219
 211   2.0000      -0.497559       -13.5393
 212   2.0000      -0.493738       -13.4353
 213   2.0000      -0.493150       -13.4193
 214   2.0000      -0.492560       -13.4032
 215   2.0000      -0.489282       -13.3140
 216   2.0000      -0.487326       -13.2608
 217   2.0000      -0.479624       -13.0512
 218   2.0000      -0.478901       -13.0316
 219   2.0000      -0.474892       -12.9225
 220   2.0000      -0.468442       -12.7470
 221   2.0000      -0.467005       -12.7079
 222   2.0000      -0.464487       -12.6393
 223   2.0000      -0.463292       -12.6068
 224   2.0000      -0.463014       -12.5992
 225   2.0000      -0.461978       -12.5710
 226   2.0000      -0.459564       -12.5054
 227   2.0000      -0.458674       -12.4811
 228   2.0000      -0.452801       -12.3214
 229   2.0000      -0.451590       -12.2884
 230   2.0000      -0.447703       -12.1826
 231   2.0000      -0.447348       -12.1730
 232   2.0000      -0.446550       -12.1512
 233   2.0000      -0.445554       -12.1241
 234   2.0000      -0.444141       -12.0857
 235   2.0000      -0.443452       -12.0669
 236   2.0000      -0.442427       -12.0391
 237   2.0000      -0.440682       -11.9916
 238   2.0000      -0.440045       -11.9742
 239   2.0000      -0.439019       -11.9463
 240   2.0000      -0.438287       -11.9264
 241   2.0000      -0.436624       -11.8812
 242   2.0000      -0.434539       -11.8244
 243   2.0000      -0.432519       -11.7694
 244   2.0000      -0.428635       -11.6637
 245   2.0000      -0.423092       -11.5129
 246   2.0000      -0.420038       -11.4298
 247   2.0000      -0.419265       -11.4088
 248   2.0000      -0.418812       -11.3964
 249   2.0000      -0.418111       -11.3774
 250   2.0000      -0.415956       -11.3187
 251   2.0000      -0.413564       -11.2536
 252   2.0000      -0.408826       -11.1247
 253   2.0000      -0.406325       -11.0567
 254   2.0000      -0.403592       -10.9823
 255   2.0000      -0.401093       -10.9143
 256   2.0000      -0.397845       -10.8259
 257   2.0000      -0.391295       -10.6477
 258   2.0000      -0.387719       -10.5504
 259   2.0000      -0.386699       -10.5226
 260   2.0000      -0.378976       -10.3125
 261   2.0000      -0.368544       -10.0286
 262   2.0000      -0.364225        -9.9111
 263   2.0000      -0.348129        -9.4731
 264   2.0000      -0.347981        -9.4690
 265   2.0000      -0.340494        -9.2653
 266   2.0000      -0.339642        -9.2421
 267   2.0000      -0.332493        -9.0476
 268   2.0000      -0.326514        -8.8849
 269   2.0000      -0.319575        -8.6961
 270   2.0000      -0.317717        -8.6455
 271   2.0000      -0.312997        -8.5171
 272   2.0000      -0.312041        -8.4911
 273   2.0000      -0.304790        -8.2938
 274   2.0000      -0.303821        -8.2674
 275   2.0000      -0.287089        -7.8121
 276   2.0000      -0.280307        -7.6275
 277   0.0000      -0.135810        -3.6956
 278   0.0000      -0.129007        -3.5105
 279   0.0000      -0.103262        -2.8099
 280   0.0000      -0.097657        -2.6574
 281   0.0000      -0.094328        -2.5668

MULLIKEN ATOMIC CHARGES
-----------------------
   0 C :   -0.096367
   1 C :    0.303834
   2 F :   -0.185844
   3 C :   -0.024761
   4 C :   -0.008152
   5 C :    0.098058
   6 C :    0.099959
   7 C :   -0.081139
   8 C :    0.042197
   9 C :    0.003722
  10 C :   -0.073603
  11 C :    0.139721
  12 O :   -0.128591
  13 C :   -0.116103
  14 C :    0.272011
  15 C :   -0.333598
  16 C :   -0.168286
  17 N :    0.163235
  18 C :   -0.179197
  19 N :    0.165845
  20 C :    0.001843
  21 C :   -0.017129
  22 C :    0.032036
  23 C :   -0.109309
  24 C :   -0.132383
  25 N :    0.151111
  26 C :    0.002605
  27 C :    0.092649
  28 C :    0.055685
  29 C :    0.084871
  30 C :    0.004528
  31 C :   -0.088140
  32 C :   -0.017814
  33 C :   -0.129734
  34 N :    0.149658
  35 C :    0.008835
  36 C :   -0.034580
  37 C :   -0.037609
  38 N :   -0.047367
  39 N :   -0.066315
  40 C :   -0.027444
  41 C :    0.053309
  42 C :    0.041526
  43 N :   -0.271202
  44 S :    0.554488
  45 N :   -0.259458
  46 C :    0.032067
  47 C :   -0.007123
  48 C :   -0.099350
  49 C :   -0.129400
  50 N :    0.147855
  51 C :   -0.008285
  52 C :    0.028853
  53 C :    0.074664
  54 C :    0.074602
  55 C :    0.000971
  56 C :   -0.121259
  57 C :    0.055144
  58 C :   -0.135063
  59 N :    0.140524
  60 C :   -0.008814
  61 C :   -0.004688
  62 C :    0.026899
  63 C :   -0.110753
  64 C :    0.147611
  65 O :   -0.137426
  66 C :    0.001660
  67 C :   -0.075784
  68 C :    0.100194
  69 C :    0.101744
  70 C :   -0.097280
  71 C :    0.304084
  72 C :   -0.028666
  73 C :   -0.008117
  74 F :   -0.188481
  75 C :   -0.083511
  76 C :    0.043557
  77 C :    0.272828
  78 C :   -0.332410
  79 C :   -0.187939
  80 N :    0.157775
  81 C :   -0.170388
  82 N :    0.158024
  83 H :    0.002356
  84 H :    0.008223
  85 H :   -0.004813
  86 H :   -0.000507
  87 H :   -0.005806
  88 H :    0.043050
  89 H :    0.004317
  90 H :    0.020204
  91 H :   -0.002078
  92 H :    0.009292
  93 H :    0.017684
  94 H :   -0.002697
  95 H :    0.007729
  96 H :    0.015577
  97 H :    0.000875
  98 H :   -0.000748
  99 H :    0.027081
 100 H :    0.026178
 101 H :    0.026781
 102 H :   -0.009141
 103 H :   -0.000707
 104 H :    0.005407
 105 H :   -0.006923
 106 H :   -0.003250
Sum of atomic charges:    0.0000000

LOEWDIN ATOMIC CHARGES
----------------------
   0 C :   -0.040623
   1 C :    0.095696
   2 F :   -0.060539
   3 C :   -0.032061
   4 C :    0.006480
   5 C :   -0.016759
   6 C :    0.004618
   7 C :    0.015234
   8 C :   -0.020043
   9 C :   -0.062113
  10 C :    0.039539
  11 C :    0.082748
  12 O :   -0.133461
  13 C :   -0.078855
  14 C :    0.068349
  15 C :   -0.127406
  16 C :   -0.012221
  17 N :   -0.045908
  18 C :   -0.020214
  19 N :   -0.039636
  20 C :    0.064806
  21 C :   -0.045169
  22 C :    0.043188
  23 C :   -0.058140
  24 C :   -0.031750
  25 N :   -0.037000
  26 C :    0.033122
  27 C :    0.039123
  28 C :    0.050055
  29 C :   -0.025815
  30 C :    0.024483
  31 C :   -0.043379
  32 C :    0.012050
  33 C :   -0.029918
  34 N :   -0.032981
  35 C :    0.008462
  36 C :   -0.029595
  37 C :   -0.011661
  38 N :   -0.048552
  39 N :   -0.046729
  40 C :   -0.002652
  41 C :   -0.053387
  42 C :   -0.052971
  43 N :   -0.269331
  44 S :    0.680280
  45 N :   -0.264726
  46 C :   -0.048408
  47 C :    0.045726
  48 C :   -0.060751
  49 C :   -0.029950
  50 N :   -0.039172
  51 C :    0.029567
  52 C :    0.038458
  53 C :    0.060786
  54 C :   -0.038360
  55 C :    0.039821
  56 C :   -0.064082
  57 C :    0.039268
  58 C :   -0.031205
  59 N :   -0.042957
  60 C :    0.028768
  61 C :   -0.028120
  62 C :    0.068946
  63 C :   -0.087723
  64 C :    0.082501
  65 O :   -0.138893
  66 C :   -0.060091
  67 C :    0.036744
  68 C :   -0.017635
  69 C :    0.003721
  70 C :   -0.041382
  71 C :    0.094392
  72 C :   -0.034605
  73 C :    0.005485
  74 F :   -0.062974
  75 C :    0.012942
  76 C :   -0.019311
  77 C :    0.072381
  78 C :   -0.135582
  79 C :   -0.008884
  80 N :   -0.053488
  81 C :   -0.019694
  82 N :   -0.044760
  83 H :    0.044701
  84 H :    0.043872
  85 H :    0.037398
  86 H :    0.040533
  87 H :    0.042019
  88 H :    0.050816
  89 H :    0.037413
  90 H :    0.040446
  91 H :    0.036762
  92 H :    0.037368
  93 H :    0.037348
  94 H :    0.037514
  95 H :    0.035281
  96 H :    0.037579
  97 H :    0.035969
  98 H :    0.033641
  99 H :    0.038957
 100 H :    0.034504
 101 H :    0.048278
 102 H :    0.040763
 103 H :    0.043740
 104 H :    0.042810
 105 H :    0.036556
 106 H :    0.039609

  Mayer bond orders larger than 0.100000
B(  0-C ,  1-C ) :   1.4413 B(  0-C ,  6-C ) :   1.2031 B(  0-C , 83-H ) :   1.0066
B(  1-C ,  2-F ) :   1.0937 B(  1-C ,  3-C ) :   1.2501 B(  3-C ,  4-C ) :   1.4654
B(  3-C , 84-H ) :   0.9929 B(  4-C ,  5-C ) :   1.2304 B(  4-C , 85-H ) :   0.9978
B(  5-C ,  6-C ) :   1.2513 B(  5-C , 10-C ) :   1.2006 B(  6-C ,  7-C ) :   1.2089
B(  7-C ,  8-C ) :   1.4523 B(  7-C , 86-H ) :   0.9944 B(  8-C ,  9-C ) :   1.2161
B(  8-C , 14-C ) :   1.0046 B(  9-C , 10-C ) :   1.4619 B(  9-C , 11-C ) :   0.9221
B( 10-C , 87-H ) :   1.0159 B( 11-C , 12-O ) :   2.2952 B( 11-C , 13-C ) :   0.9171
B( 13-C , 14-C ) :   1.0102 B( 13-C , 20-C ) :   1.7664 B( 14-C , 15-C ) :   1.6792
B( 15-C , 16-C ) :   1.1678 B( 15-C , 18-C ) :   1.1276 B( 16-C , 17-N ) :   2.9638
B( 18-C , 19-N ) :   2.9896 B( 20-C , 21-C ) :   0.9716 B( 20-C , 88-H ) :   0.9306
B( 21-C , 22-C ) :   1.6421 B( 21-C , 27-C ) :   1.0629 B( 22-C , 23-C ) :   1.0847
B( 22-C , 89-H ) :   1.0211 B( 23-C , 24-C ) :   1.0621 B( 23-C , 26-C ) :   1.6561
B( 24-C , 25-N ) :   3.0456 B( 26-C , 27-C ) :   1.0781 B( 26-C , 90-H ) :   1.0078
B( 27-C , 28-C ) :   1.5224 B( 28-C , 29-C ) :   1.0205 B( 28-C , 32-C ) :   1.0906
B( 29-C , 30-C ) :   1.5936 B( 29-C , 35-C ) :   1.0982 B( 30-C , 31-C ) :   1.0905
B( 30-C , 91-H ) :   1.0223 B( 31-C , 32-C ) :   1.6254 B( 31-C , 33-C ) :   1.0659
B( 32-C , 92-H ) :   1.0038 B( 33-C , 34-N ) :   3.0415 B( 35-C , 36-C ) :   1.6116
B( 35-C , 93-H ) :   0.9474 B( 36-C , 37-C ) :   1.1610 B( 36-C , 94-H ) :   0.9644
B( 37-C , 38-N ) :   1.6465 B( 37-C , 40-C ) :   0.1199 B( 37-C , 42-C ) :   1.0827
B( 38-N , 39-N ) :   1.2117 B( 39-N , 40-C ) :   1.6649 B( 40-C , 41-C ) :   1.1179
B( 40-C , 46-C ) :   1.0733 B( 41-C , 42-C ) :   1.2023 B( 41-C , 45-N ) :   1.5484
B( 42-C , 43-N ) :   1.5161 B( 43-N , 44-S ) :   1.2715 B( 43-N , 45-N ) :   0.1424
B( 44-S , 45-N ) :   1.2820 B( 46-C , 47-C ) :   1.6210 B( 46-C , 52-C ) :   1.0391
B( 47-C , 48-C ) :   1.0870 B( 47-C , 95-H ) :   1.0059 B( 48-C , 49-C ) :   1.0571
B( 48-C , 51-C ) :   1.6185 B( 49-C , 50-N ) :   3.0441 B( 51-C , 52-C ) :   1.0903
B( 51-C , 96-H ) :   0.9987 B( 52-C , 53-C ) :   1.5083 B( 53-C , 54-C ) :   1.0508
B( 53-C , 57-C ) :   1.0755 B( 54-C , 55-C ) :   1.6221 B( 54-C , 60-C ) :   1.0485
B( 55-C , 56-C ) :   1.0735 B( 55-C , 97-H ) :   1.0171 B( 56-C , 57-C ) :   1.6549
B( 56-C , 58-C ) :   1.0634 B( 57-C , 98-H ) :   1.0079 B( 58-C , 59-N ) :   3.0420
B( 60-C , 61-C ) :   1.7112 B( 60-C , 99-H ) :   0.9626 B( 61-C , 62-C ) :   1.1107
B( 61-C ,100-H ) :   0.9567 B( 62-C , 63-C ) :   1.6375 B( 62-C ,101-H ) :   0.9564
B( 63-C , 64-C ) :   0.9308 B( 63-C , 77-C ) :   1.0438 B( 64-C , 65-O ) :   2.2816
B( 64-C , 66-C ) :   0.9214 B( 66-C , 67-C ) :   1.4729 B( 66-C , 76-C ) :   1.2144
B( 67-C , 68-C ) :   1.1931 B( 67-C ,102-H ) :   1.0147 B( 68-C , 69-C ) :   1.2538
B( 68-C , 73-C ) :   1.2352 B( 69-C , 70-C ) :   1.2025 B( 69-C , 75-C ) :   1.2048
B( 70-C , 71-C ) :   1.4407 B( 70-C ,103-H ) :   1.0061 B( 71-C , 72-C ) :   1.2548
B( 71-C , 74-F ) :   1.0906 B( 72-C , 73-C ) :   1.4608 B( 72-C ,104-H ) :   0.9929
B( 73-C ,105-H ) :   0.9969 B( 75-C , 76-C ) :   1.4597 B( 75-C ,106-H ) :   0.9934
B( 76-C , 77-C ) :   1.0039 B( 77-C , 78-C ) :   1.6417 B( 78-C , 79-C ) :   1.1701
B( 78-C , 81-C ) :   1.1274 B( 79-C , 80-N ) :   2.9607 B( 81-C , 82-N ) :   2.9842

-----------------------------------------------------------------------------
         ABSORPTION SPECTRUM VIA TRANSITION ELECTRIC DIPOLE MOMENTS
-----------------------------------------------------------------------------
State   Energy  Wavelength   fosc         T2         TX        TY        TZ
        (cm-1)    (nm)                  (au**2)     (au)      (au)      (au)
-----------------------------------------------------------------------------
   0   13634.8    733.4   0.238000078   5.74652   1.09929  -2.02581   0.65890
   1   14356.4    696.6   0.044143496   1.01227   0.48046   0.04902   0.88262
   2   15842.2    631.2   0.036704171   0.76274  -0.45314   0.43496  -0.60680
   3   17305.0    577.9   0.003686449   0.07013  -0.01543   0.10824   0.24120
   4   18141.6    551.2   0.014673546   0.26628   0.04225   0.51170   0.05152
   5   20069.8    498.3   0.038016377   0.62360  -0.44892   0.53664  -0.36618
   6   21475.3    465.7   0.523991489   8.03269  -1.66279   2.18579  -0.70010
   7   22799.7    438.6   0.005095136   0.07357   0.23421  -0.09456   0.09887
   8   23175.9    431.5   0.409764638   5.82067   1.10035  -1.39393   1.63305
   9   23644.5    422.9   0.090357667   1.25809   0.05186   0.99176   0.52134
  10   24039.0    416.0   0.020092859   0.27517  -0.27676   0.38952   0.21645
  11   24440.8    409.2   0.007444424   0.10027   0.08639   0.28512   0.10732
  12   24820.6    402.9   0.040722406   0.54013  -0.29029   0.65315   0.17104
  13   24861.6    402.2   0.066119560   0.87554   0.07911   0.93230  -0.01003
  14   25575.5    391.0   0.075470200   0.97146   0.75824  -0.61270   0.14537
  15   25898.0    386.1   0.017083899   0.21717   0.24389  -0.32363  -0.23011
  16   26386.4    379.0   0.059844499   0.74665   0.02252  -0.85002   0.15367
  17   26651.7    375.2   0.041848794   0.51693   0.36076  -0.61798  -0.06994
  18   27391.9    365.1   0.010196197   0.12254   0.28660  -0.10321  -0.17249
  19   27947.1    357.8   0.012230408   0.14407  -0.34807   0.11236   0.10146
  20   28028.2    356.8   0.142179738   1.67001  -0.93545   0.60804   0.65209
  21   28147.0    355.3   0.006343762   0.07420  -0.21830  -0.15539  -0.04898
  22   28227.1    354.3   0.023865534   0.27834  -0.30656   0.42911  -0.01506
  23   28503.6    350.8   0.060178595   0.69505   0.00847  -0.13428  -0.82277
  24   29215.6    342.3   0.299797237   3.37823  -0.99878  -1.12939  -1.05125
  25   29483.6    339.2   0.107885651   1.20464  -0.27807   0.21452  -1.03986
  26   29656.1    337.2   0.126930162   1.40905  -1.12121   0.34455  -0.18228
  27   29729.6    336.4   0.102037671   1.12992   0.57088   0.10177  -0.89087
  28   30170.4    331.5   0.067483923   0.73637   0.15638   0.71773   0.44359
  29   30634.4    326.4   0.078727997   0.84605   0.26810  -0.83324  -0.28264
  30   30742.8    325.3   0.232865268   2.49366   0.85240   0.25596   1.30444
  31   31093.9    321.6   0.058186990   0.61606  -0.23685  -0.04482  -0.74697
  32   31537.3    317.1   0.108393178   1.13150   0.43671  -0.14659   0.95880
  33   31924.4    313.2   0.019637885   0.20251  -0.08074   0.35423   0.26554
  34   32034.6    312.2   0.012757267   0.13110   0.01407   0.29978   0.20258
  35   32385.6    308.8   0.255611415   2.59839   1.48234  -0.61963   0.13079
  36   32433.4    308.3   0.143699142   1.45860   1.16330  -0.32032   0.05221
  37   32729.7    305.5   0.000708215   0.00712  -0.07128  -0.03369  -0.03014
  38   32912.7    303.8   0.009061044   0.09063   0.03418  -0.13029  -0.26924
  39   33258.4    300.7   0.103494234   1.02445  -0.11757   0.91190   0.42316
  40   33449.7    299.0   0.082264005   0.80964  -0.67931   0.03033  -0.58929
  41   33634.3    297.3   0.010552603   0.10329  -0.25676  -0.08330  -0.17442
  42   33752.5    296.3   0.023126600   0.22557   0.29811   0.07458  -0.36213
  43   33883.8    295.1   0.039471343   0.38350  -0.45965   0.41495  -0.00624
  44   34036.5    293.8   0.043973223   0.42532   0.53304   0.08454   0.36612
  45   34108.3    293.2   0.167561313   1.61730   0.96247  -0.83101   0.01940
  46   34280.3    291.7   0.267219519   2.56625  -0.63444   1.02104   1.05887
  47   34559.3    289.4   0.121771872   1.16000   0.14086   1.05382   0.17211
  48   34767.6    287.6   0.118661465   1.12360   0.93044  -0.49549  -0.11127
  49   34998.5    285.7   0.705209753   6.63353   1.52619  -1.96443  -0.66731
  50   35073.5    285.1   0.444887421   4.17586   1.09343  -0.08945   1.72403
  51   35140.0    284.6   0.076925229   0.72068   0.55767  -0.38452   0.51169
  52   35377.5    282.7   0.222092945   2.06673  -0.91076   0.87260   0.68979
  53   35667.1    280.4   0.036271824   0.33479   0.56246   0.12145  -0.06069
  54   35862.1    278.8   0.025063729   0.23008  -0.00556  -0.03211   0.47856
  55   36139.5    276.7   0.074196566   0.67589  -0.06977  -0.14055   0.80701
  56   36178.6    276.4   0.024570076   0.22358  -0.12101  -0.36284   0.27799
  57   36370.9    274.9   0.087232007   0.78958  -0.13893  -0.75428  -0.44872
  58   36552.6    273.6   0.116219614   1.04674  -0.88261   0.48537  -0.17931
  59   36767.8    272.0   0.009141632   0.08185  -0.11322  -0.25646  -0.05711
  60   36884.1    271.1   0.012418597   0.11084  -0.03696   0.13792  -0.30076
  61   37195.0    268.9   0.088492803   0.78325   0.04940  -0.54298   0.69712
  62   37223.6    268.6   0.038437951   0.33995   0.18504   0.17585   0.52420
  63   37606.3    265.9   0.139166688   1.21829  -0.96454   0.40617  -0.35068
  64   37838.9    264.3   0.001092856   0.00951   0.01656   0.05466  -0.07904
  65   38148.8    262.1   0.034817195   0.30046   0.37250  -0.23988  -0.32274
  66   38332.8    260.9   0.317102927   2.72336   1.53618  -0.60227  -0.02789
  67   38399.1    260.4   0.121827869   1.04448  -0.91274   0.36809  -0.27551
  68   38435.9    260.2   0.220687640   1.89024  -1.35932   0.16177  -0.12769
  69   38633.6    258.8   0.192984482   1.64450   1.08604  -0.58526   0.34999
  70   38743.9    258.1   0.105233361   0.89418   0.51748  -0.72678   0.31334
  71   38962.4    256.7   0.102263290   0.86407  -0.92409  -0.09873   0.01929
  72   39131.7    255.5   0.085333679   0.71790   0.52515   0.46071  -0.47944
  73   39156.1    255.4   0.024649366   0.20724  -0.20080   0.05752   0.40449
  74   39283.6    254.6   0.001549661   0.01299   0.06737   0.05347   0.07476
  75   39379.5    253.9   0.131161512   1.09651  -0.69573  -0.60383   0.49786
  76   39432.4    253.6   0.085508394   0.71389   0.37578   0.75267   0.07853
  77   39791.7    251.3   0.000797147   0.00660   0.03842  -0.05040   0.05078

FINAL SINGLE POINT ENERGY     -3929.891371718260

DIPOLE MOMENT
-------------
                                X             Y             Z
Electronic contribution:     -3.48753      -0.73752     -12.55160
Nuclear contribution   :      3.88640       2.07432      14.24875
                        -----------------------------------------
Total Dipole Moment    :      0.39886       1.33680       1.69715
                        -----------------------------------------
Magnitude (a.u.)       :      2.19691
Magnitude (Debye)      :      5.58411

Rotational constants in cm-1:     0.001268     0.000191     0.000177
Rotational constants in MHz :    38.010858     5.716414     5.300250

                             ****ORCA TERMINATED NORMALLY****
TOTAL RUN TIME: 0 days 0 hours 15 minutes 2 seconds 415 msec
