                         Program Version 4.2.0 -  RELEASE  -
|  1> # ORCA input file
|  2> # SCF done       -172.612665998884          0.000218293011
|  3> ! CAM-B3LYP def2-SVP def2/J RIJCOSX Grid4 TightSCF
|  4> %maxcore 5000
|  5> %tddft
|  6>     Mode sTDDFT
|  7>     Ethresh 5.0
|  8>     maxcore 5000
|  9> end
| 10>
| 11> %pal
| 12>   nprocs 6
| 13>   end
| 14> * xyz 0 1
| 15>    C        5.85657        -0.12666        -4.40118
| 16>    C        6.38492         1.07625        -4.78806
| 17>    C        5.91183         2.27110        -4.24467
| 18>    C        4.89803         2.30630        -3.30074
| 19>    C        4.33346         1.06066        -2.88550
| 20>    C        4.82534        -0.14904        -3.44512
| 21>    N        4.30829        -1.33757        -3.06458
| 22>    C        3.35034        -1.35724        -2.17690
| 23>    C        2.85146        -0.14543        -1.61425
| 24>    N        3.34430         1.01116        -1.97317
| 25>    C        1.75631        -0.14065        -0.60115
| 26>    C        2.80228        -2.68630        -1.77682
| 27>    C        4.43920         3.55943        -2.76379
| 28>    C        3.44505         3.78649        -1.84172
| 29>    C        3.27404         5.14250        -1.55295
| 30>    C        4.16010         5.97427        -2.27264
| 31>    S        5.19023         5.07494        -3.29461
| 32>    C        3.91183         7.31544        -1.91577
| 33>    C        2.86609         7.33338        -0.96861
| 34>    C        2.43577         5.96061        -0.71468
| 35>    C        1.44707         5.55084         0.13879
| 36>    C        0.67863         6.44123         0.91509
| 37>    N        0.03374         7.13799         1.56029
| 38>    C        1.11209         4.19447         0.31480
| 39>    N        0.81481         3.09828         0.48395
| 40>    C        2.52896         8.60052        -0.53716
| 41>    C        3.30328         9.59884        -1.13839
| 42>    S        4.47358         8.89715        -2.26531
| 43>    C        3.26754        10.98805        -0.97154
| 44>    C        2.41801        11.69751        -0.14604
| 45>    C        2.36901        13.10030         0.02786
| 46>    C        1.41618        13.53417         0.91139
| 47>    C        0.66277        12.49484         1.48175
| 48>    S        1.20217        10.95283         0.86463
| 49>    C       -0.38230        12.47066         2.39609
| 50>    C       -1.07232        13.48300         3.08615
| 51>    C       -2.06390        13.00893         3.90209
| 52>    C       -2.20540        11.60145         3.89612
| 53>    S       -1.02464        10.90130         2.81611
| 54>    C       -3.11015        10.83192         4.59693
| 55>    C       -3.21428         9.43756         4.55117
| 56>    C       -4.14343         8.65579         5.25205
| 57>    C       -3.99576         7.30535         4.99397
| 58>    C       -2.94447         7.02991         4.08841
| 59>    S       -2.14734         8.43863         3.56033
| 60>    C       -2.87280         5.63635         3.89046
| 61>    C       -3.87508         5.01822         4.66499
| 62>    C       -4.61077         6.03791         5.37896
| 63>    C       -5.66302         5.85566         6.23241
| 64>    C       -6.17779         4.57765         6.52727
| 65>    N       -6.60988         3.54446         6.77780
| 66>    C       -6.30426         6.93442         6.87249
| 67>    N       -6.82964         7.81016         7.39574
| 68>    C       -3.87921         3.62793         4.53184
| 69>    C       -2.90158         3.17601         3.67315
| 70>    S       -1.94656         4.50878         3.00741
| 71>    C       -2.59664         1.82244         3.29014
| 72>    C       -1.55748         1.55640         2.41286
| 73>    C       -1.22765         0.25907         2.01942
| 74>    C       -1.93026        -0.81685         2.49288
| 75>    C       -2.99653        -0.60344         3.38512
| 76>    C       -3.34308         0.71255         3.79385
| 77>    N       -4.36948         0.88949         4.64752
| 78>    C       -5.03151        -0.14809         5.08900
| 79>    C       -4.67809        -1.46729         4.67689
| 80>    N       -3.68764        -1.66737         3.84916
| 81>    C       -5.42103        -2.66370         5.17087
| 82>    C       -6.15930         0.10452         6.03145
| 83>    H        6.20336        -1.06465        -4.80409
| 84>    H        7.17708         1.11204        -5.52106
| 85>    H        6.35236         3.20230        -4.57284
| 86>    H        2.05777        -0.70586         0.28027
| 87>    H        0.86245        -0.60872        -1.01227
| 88>    H        1.52713         0.88205        -0.31205
| 89>    H        3.32353        -3.46852        -2.32087
| 90>    H        1.73745        -2.73947        -1.99890
| 91>    H        2.93092        -2.84256        -0.70676
| 92>    H        2.88302         2.97867        -1.41215
| 93>    H        1.75714         8.79149         0.18178
| 94>    H        3.97641        11.56545        -1.55049
| 95>    H        3.03802        13.75323        -0.50506
| 96>    H        1.24462        14.56704         1.15776
| 97>    H       -0.82952        14.52424         2.96848
| 98>    H       -2.69845        13.63298         4.50682
| 99>    H       -3.81030        11.34739         5.24121
|100>    H       -4.87811         9.08607         5.90881
|101>    H       -4.55010         2.94916         5.02428
|102>    H       -0.97608         2.37548         2.01366
|103>    H       -0.40626         0.12115         1.33401
|104>    H       -1.69767        -1.83047         2.20714
|105>    H       -6.47112        -2.60007         4.88928
|106>    H       -5.36740        -2.72138         6.25700
|107>    H       -4.98587        -3.56066         4.73969
|108>    H       -6.26120         1.17112         6.21287
|109>    H       -5.98092        -0.40378         6.97804
|110>    H       -7.09054        -0.27899         5.61688
|111> *
|112>
|113>                          ****END OF INPUT****

CARTESIAN COORDINATES (ANGSTROEM)
---------------------------------
  C      5.856570   -0.126660   -4.401180
  C      6.384920    1.076250   -4.788060
  C      5.911830    2.271100   -4.244670
  C      4.898030    2.306300   -3.300740
  C      4.333460    1.060660   -2.885500
  C      4.825340   -0.149040   -3.445120
  N      4.308290   -1.337570   -3.064580
  C      3.350340   -1.357240   -2.176900
  C      2.851460   -0.145430   -1.614250
  N      3.344300    1.011160   -1.973170
  C      1.756310   -0.140650   -0.601150
  C      2.802280   -2.686300   -1.776820
  C      4.439200    3.559430   -2.763790
  C      3.445050    3.786490   -1.841720
  C      3.274040    5.142500   -1.552950
  C      4.160100    5.974270   -2.272640
  S      5.190230    5.074940   -3.294610
  C      3.911830    7.315440   -1.915770
  C      2.866090    7.333380   -0.968610
  C      2.435770    5.960610   -0.714680
  C      1.447070    5.550840    0.138790
  C      0.678630    6.441230    0.915090
  N      0.033740    7.137990    1.560290
  C      1.112090    4.194470    0.314800
  N      0.814810    3.098280    0.483950
  C      2.528960    8.600520   -0.537160
  C      3.303280    9.598840   -1.138390
  S      4.473580    8.897150   -2.265310
  C      3.267540   10.988050   -0.971540
  C      2.418010   11.697510   -0.146040
  C      2.369010   13.100300    0.027860
  C      1.416180   13.534170    0.911390
  C      0.662770   12.494840    1.481750
  S      1.202170   10.952830    0.864630
  C     -0.382300   12.470660    2.396090
  C     -1.072320   13.483000    3.086150
  C     -2.063900   13.008930    3.902090
  C     -2.205400   11.601450    3.896120
  S     -1.024640   10.901300    2.816110
  C     -3.110150   10.831920    4.596930
  C     -3.214280    9.437560    4.551170
  C     -4.143430    8.655790    5.252050
  C     -3.995760    7.305350    4.993970
  C     -2.944470    7.029910    4.088410
  S     -2.147340    8.438630    3.560330
  C     -2.872800    5.636350    3.890460
  C     -3.875080    5.018220    4.664990
  C     -4.610770    6.037910    5.378960
  C     -5.663020    5.855660    6.232410
  C     -6.177790    4.577650    6.527270
  N     -6.609880    3.544460    6.777800
  C     -6.304260    6.934420    6.872490
  N     -6.829640    7.810160    7.395740
  C     -3.879210    3.627930    4.531840
  C     -2.901580    3.176010    3.673150
  S     -1.946560    4.508780    3.007410
  C     -2.596640    1.822440    3.290140
  C     -1.557480    1.556400    2.412860
  C     -1.227650    0.259070    2.019420
  C     -1.930260   -0.816850    2.492880
  C     -2.996530   -0.603440    3.385120
  C     -3.343080    0.712550    3.793850
  N     -4.369480    0.889490    4.647520
  C     -5.031510   -0.148090    5.089000
  C     -4.678090   -1.467290    4.676890
  N     -3.687640   -1.667370    3.849160
  C     -5.421030   -2.663700    5.170870
  C     -6.159300    0.104520    6.031450
  H      6.203360   -1.064650   -4.804090
  H      7.177080    1.112040   -5.521060
  H      6.352360    3.202300   -4.572840
  H      2.057770   -0.705860    0.280270
  H      0.862450   -0.608720   -1.012270
  H      1.527130    0.882050   -0.312050
  H      3.323530   -3.468520   -2.320870
  H      1.737450   -2.739470   -1.998900
  H      2.930920   -2.842560   -0.706760
  H      2.883020    2.978670   -1.412150
  H      1.757140    8.791490    0.181780
  H      3.976410   11.565450   -1.550490
  H      3.038020   13.753230   -0.505060
  H      1.244620   14.567040    1.157760
  H     -0.829520   14.524240    2.968480
  H     -2.698450   13.632980    4.506820
  H     -3.810300   11.347390    5.241210
  H     -4.878110    9.086070    5.908810
  H     -4.550100    2.949160    5.024280
  H     -0.976080    2.375480    2.013660
  H     -0.406260    0.121150    1.334010
  H     -1.697670   -1.830470    2.207140
  H     -6.471120   -2.600070    4.889280
  H     -5.367400   -2.721380    6.257000
  H     -4.985870   -3.560660    4.739690
  H     -6.261200    1.171120    6.212870
  H     -5.980920   -0.403780    6.978040
  H     -7.090540   -0.278990    5.616880

 Total Charge           Charge          ....    0
 Multiplicity           Mult            ....    1
 Number of Electrons    NEL             ....  504
 Basis Dimension        Dim             .... 1116

ORBITAL ENERGIES
----------------

  NO   OCC          E(Eh)            E(eV)
   0   2.0000     -88.977994     -2421.2143
   1   2.0000     -88.976678     -2421.1785
   2   2.0000     -88.969644     -2420.9871
   3   2.0000     -88.966366     -2420.8979
   4   2.0000     -88.946908     -2420.3684
   5   2.0000     -88.946387     -2420.3542
   6   2.0000     -14.432023      -392.7153
   7   2.0000     -14.429335      -392.6422
   8   2.0000     -14.416657      -392.2972
   9   2.0000     -14.415109      -392.2551
  10   2.0000     -14.412474      -392.1833
  11   2.0000     -14.410998      -392.1432
  12   2.0000     -14.402611      -391.9150
  13   2.0000     -14.402303      -391.9066
  14   2.0000     -10.357181      -281.8332
  15   2.0000     -10.346345      -281.5384
  16   2.0000     -10.345247      -281.5085
  17   2.0000     -10.335324      -281.2385
  18   2.0000     -10.334646      -281.2200
  19   2.0000     -10.331303      -281.1290
  20   2.0000     -10.323911      -280.9279
  21   2.0000     -10.318289      -280.7749
  22   2.0000     -10.318088      -280.7695
  23   2.0000     -10.318031      -280.7679
  24   2.0000     -10.316975      -280.7392
  25   2.0000     -10.316434      -280.7244
  26   2.0000     -10.316055      -280.7141
  27   2.0000     -10.313582      -280.6468
  28   2.0000     -10.311470      -280.5894
  29   2.0000     -10.310917      -280.5743
  30   2.0000     -10.310430      -280.5611
  31   2.0000     -10.310357      -280.5591
  32   2.0000     -10.309411      -280.5333
  33   2.0000     -10.308115      -280.4981
  34   2.0000     -10.306939      -280.4661
  35   2.0000     -10.306846      -280.4635
  36   2.0000     -10.306725      -280.4603
  37   2.0000     -10.306406      -280.4516
  38   2.0000     -10.305791      -280.4348
  39   2.0000     -10.300657      -280.2951
  40   2.0000     -10.298067      -280.2246
  41   2.0000     -10.296207      -280.1740
  42   2.0000     -10.294606      -280.1305
  43   2.0000     -10.293686      -280.1054
  44   2.0000     -10.292500      -280.0732
  45   2.0000     -10.289965      -280.0042
  46   2.0000     -10.289681      -279.9964
  47   2.0000     -10.288941      -279.9763
  48   2.0000     -10.288843      -279.9737
  49   2.0000     -10.287560      -279.9387
  50   2.0000     -10.287031      -279.9243
  51   2.0000     -10.286552      -279.9113
  52   2.0000     -10.285780      -279.8903
  53   2.0000     -10.285637      -279.8864
  54   2.0000     -10.282187      -279.7925
  55   2.0000     -10.280253      -279.7399
  56   2.0000     -10.278101      -279.6813
  57   2.0000     -10.277948      -279.6772
  58   2.0000     -10.276633      -279.6414
  59   2.0000     -10.271331      -279.4971
  60   2.0000     -10.266538      -279.3667
  61   2.0000     -10.266475      -279.3650
  62   2.0000     -10.266079      -279.3542
  63   2.0000     -10.265994      -279.3519
  64   2.0000     -10.262382      -279.2536
  65   2.0000     -10.261895      -279.2404
  66   2.0000     -10.258954      -279.1603
  67   2.0000     -10.250104      -278.9195
  68   2.0000      -8.072370      -219.6604
  69   2.0000      -8.070894      -219.6202
  70   2.0000      -8.063355      -219.4150
  71   2.0000      -8.060137      -219.3275
  72   2.0000      -8.042928      -218.8592
  73   2.0000      -8.042814      -218.8561
  74   2.0000      -6.041655      -164.4018
  75   2.0000      -6.040160      -164.3611
  76   2.0000      -6.037601      -164.2915
  77   2.0000      -6.035960      -164.2468
  78   2.0000      -6.034641      -164.2109
  79   2.0000      -6.033387      -164.1768
  80   2.0000      -6.032610      -164.1557
  81   2.0000      -6.029361      -164.0672
  82   2.0000      -6.028189      -164.0354
  83   2.0000      -6.025875      -163.9724
  84   2.0000      -6.025234      -163.9550
  85   2.0000      -6.022682      -163.8855
  86   2.0000      -6.012631      -163.6120
  87   2.0000      -6.012534      -163.6094
  88   2.0000      -6.008382      -163.4964
  89   2.0000      -6.008344      -163.4954
  90   2.0000      -6.003943      -163.3756
  91   2.0000      -6.003922      -163.3750
  92   2.0000      -1.072883       -29.1946
  93   2.0000      -1.063291       -28.9336
  94   2.0000      -1.034590       -28.1526
  95   2.0000      -1.024464       -27.8771
  96   2.0000      -1.019380       -27.7387
  97   2.0000      -1.007791       -27.4234
  98   2.0000      -1.006469       -27.3874
  99   2.0000      -1.000317       -27.2200
 100   2.0000      -0.996627       -27.1196
 101   2.0000      -0.993484       -27.0341
 102   2.0000      -0.987480       -26.8707
 103   2.0000      -0.984754       -26.7965
 104   2.0000      -0.978395       -26.6235
 105   2.0000      -0.970556       -26.4102
 106   2.0000      -0.956132       -26.0177
 107   2.0000      -0.946226       -25.7481
 108   2.0000      -0.943782       -25.6816
 109   2.0000      -0.932970       -25.3874
 110   2.0000      -0.910075       -24.7644
 111   2.0000      -0.901500       -24.5311
 112   2.0000      -0.885091       -24.0845
 113   2.0000      -0.879462       -23.9314
 114   2.0000      -0.870847       -23.6970
 115   2.0000      -0.866595       -23.5812
 116   2.0000      -0.864140       -23.5145
 117   2.0000      -0.855937       -23.2912
 118   2.0000      -0.852909       -23.2088
 119   2.0000      -0.843274       -22.9467
 120   2.0000      -0.842173       -22.9167
 121   2.0000      -0.839147       -22.8343
 122   2.0000      -0.830339       -22.5947
 123   2.0000      -0.820214       -22.3192
 124   2.0000      -0.812228       -22.1018
 125   2.0000      -0.807144       -21.9635
 126   2.0000      -0.799589       -21.7579
 127   2.0000      -0.797784       -21.7088
 128   2.0000      -0.788508       -21.4564
 129   2.0000      -0.779679       -21.2161
 130   2.0000      -0.769059       -20.9271
 131   2.0000      -0.758233       -20.6326
 132   2.0000      -0.756718       -20.5914
 133   2.0000      -0.739346       -20.1186
 134   2.0000      -0.716189       -19.4885
 135   2.0000      -0.712356       -19.3842
 136   2.0000      -0.710816       -19.3423
 137   2.0000      -0.704017       -19.1573
 138   2.0000      -0.702676       -19.1208
 139   2.0000      -0.699521       -19.0349
 140   2.0000      -0.692676       -18.8487
 141   2.0000      -0.686044       -18.6682
 142   2.0000      -0.678115       -18.4524
 143   2.0000      -0.674215       -18.3463
 144   2.0000      -0.663048       -18.0425
 145   2.0000      -0.660261       -17.9666
 146   2.0000      -0.654124       -17.7996
 147   2.0000      -0.643127       -17.5004
 148   2.0000      -0.632599       -17.2139
 149   2.0000      -0.628227       -17.0949
 150   2.0000      -0.626752       -17.0548
 151   2.0000      -0.622941       -16.9511
 152   2.0000      -0.621769       -16.9192
 153   2.0000      -0.612942       -16.6790
 154   2.0000      -0.609048       -16.5730
 155   2.0000      -0.601980       -16.3807
 156   2.0000      -0.600357       -16.3366
 157   2.0000      -0.596424       -16.2295
 158   2.0000      -0.591927       -16.1072
 159   2.0000      -0.588732       -16.0202
 160   2.0000      -0.587791       -15.9946
 161   2.0000      -0.567650       -15.4465
 162   2.0000      -0.562638       -15.3102
 163   2.0000      -0.557776       -15.1779
 164   2.0000      -0.550324       -14.9751
 165   2.0000      -0.544996       -14.8301
 166   2.0000      -0.544885       -14.8271
 167   2.0000      -0.539170       -14.6716
 168   2.0000      -0.537662       -14.6305
 169   2.0000      -0.535551       -14.5731
 170   2.0000      -0.532227       -14.4826
 171   2.0000      -0.530778       -14.4432
 172   2.0000      -0.527832       -14.3630
 173   2.0000      -0.523217       -14.2374
 174   2.0000      -0.516190       -14.0463
 175   2.0000      -0.508242       -13.8300
 176   2.0000      -0.504086       -13.7169
 177   2.0000      -0.503154       -13.6915
 178   2.0000      -0.500888       -13.6299
 179   2.0000      -0.496930       -13.5222
 180   2.0000      -0.495501       -13.4833
 181   2.0000      -0.494737       -13.4625
 182   2.0000      -0.494334       -13.4515
 183   2.0000      -0.490256       -13.3405
 184   2.0000      -0.489846       -13.3294
 185   2.0000      -0.488592       -13.2953
 186   2.0000      -0.487667       -13.2701
 187   2.0000      -0.485737       -13.2176
 188   2.0000      -0.485578       -13.2132
 189   2.0000      -0.484644       -13.1878
 190   2.0000      -0.480363       -13.0713
 191   2.0000      -0.477960       -13.0060
 192   2.0000      -0.477889       -13.0040
 193   2.0000      -0.476001       -12.9526
 194   2.0000      -0.475946       -12.9511
 195   2.0000      -0.473839       -12.8938
 196   2.0000      -0.473480       -12.8840
 197   2.0000      -0.469931       -12.7875
 198   2.0000      -0.466204       -12.6861
 199   2.0000      -0.466141       -12.6843
 200   2.0000      -0.464009       -12.6263
 201   2.0000      -0.461066       -12.5462
 202   2.0000      -0.458045       -12.4640
 203   2.0000      -0.455578       -12.3969
 204   2.0000      -0.454491       -12.3673
 205   2.0000      -0.452202       -12.3050
 206   2.0000      -0.449575       -12.2336
 207   2.0000      -0.446347       -12.1457
 208   2.0000      -0.443691       -12.0734
 209   2.0000      -0.441441       -12.0122
 210   2.0000      -0.441030       -12.0010
 211   2.0000      -0.439927       -11.9710
 212   2.0000      -0.437069       -11.8932
 213   2.0000      -0.435122       -11.8403
 214   2.0000      -0.432049       -11.7566
 215   2.0000      -0.429611       -11.6903
 216   2.0000      -0.429381       -11.6840
 217   2.0000      -0.427541       -11.6340
 218   2.0000      -0.426935       -11.6175
 219   2.0000      -0.425078       -11.5670
 220   2.0000      -0.422267       -11.4905
 221   2.0000      -0.419612       -11.4182
 222   2.0000      -0.417013       -11.3475
 223   2.0000      -0.415439       -11.3047
 224   2.0000      -0.412721       -11.2307
 225   2.0000      -0.408817       -11.1245
 226   2.0000      -0.404139       -10.9972
 227   2.0000      -0.404018       -10.9939
 228   2.0000      -0.401427       -10.9234
 229   2.0000      -0.395442       -10.7605
 230   2.0000      -0.387978       -10.5574
 231   2.0000      -0.378956       -10.3119
 232   2.0000      -0.373943       -10.1755
 233   2.0000      -0.368477       -10.0268
 234   2.0000      -0.359320        -9.7776
 235   2.0000      -0.356297        -9.6953
 236   2.0000      -0.342911        -9.3311
 237   2.0000      -0.338630        -9.2146
 238   2.0000      -0.336236        -9.1495
 239   2.0000      -0.329118        -8.9558
 240   2.0000      -0.319417        -8.6918
 241   2.0000      -0.316442        -8.6108
 242   2.0000      -0.313166        -8.5217
 243   2.0000      -0.312372        -8.5001
 244   2.0000      -0.311754        -8.4832
 245   2.0000      -0.304023        -8.2729
 246   2.0000      -0.302369        -8.2279
 247   2.0000      -0.301210        -8.1964
 248   2.0000      -0.290811        -7.9134
 249   2.0000      -0.263822        -7.1790
 250   2.0000      -0.240603        -6.5471
 251   2.0000      -0.201495        -5.4830
 252   0.0000      -0.104596        -2.8462
 253   0.0000      -0.092116        -2.5066
 254   0.0000      -0.073141        -1.9903
 255   0.0000      -0.042522        -1.1571
 256   0.0000      -0.032519        -0.8849

MULLIKEN ATOMIC CHARGES
-----------------------
   0 C :    0.000153
   1 C :    0.038836
   2 C :   -0.078348
   3 C :    0.159805
   4 C :   -0.031317
   5 C :   -0.024764
   6 N :    0.011109
   7 C :   -0.189568
   8 C :   -0.139907
   9 N :   -0.007547
  10 C :    0.079737
  11 C :    0.138236
  12 C :   -0.123297
  13 C :   -0.040187
  14 C :    0.008926
  15 C :   -0.084131
  16 S :    0.147863
  17 C :   -0.103605
  18 C :   -0.008844
  19 C :    0.341604
  20 C :   -0.336310
  21 C :   -0.182476
  22 N :    0.164932
  23 C :   -0.147923
  24 N :    0.157797
  25 C :   -0.052460
  26 C :   -0.093569
  27 S :    0.172741
  28 C :    0.035732
  29 C :   -0.024920
  30 C :    0.025024
  31 C :    0.034170
  32 C :   -0.025126
  33 S :    0.024823
  34 C :   -0.008110
  35 C :    0.026553
  36 C :    0.038461
  37 C :   -0.037592
  38 S :    0.039162
  39 C :    0.017617
  40 C :   -0.065896
  41 C :   -0.049172
  42 C :    0.031531
  43 C :   -0.084591
  44 S :    0.180769
  45 C :   -0.070174
  46 C :    0.024993
  47 C :    0.309842
  48 C :   -0.315471
  49 C :   -0.178779
  50 N :    0.178586
  51 C :   -0.195678
  52 N :    0.166422
  53 C :   -0.050686
  54 C :   -0.123561
  55 S :    0.151516
  56 C :    0.171950
  57 C :   -0.072080
  58 C :    0.043093
  59 C :    0.003422
  60 C :   -0.025020
  61 C :   -0.037438
  62 N :   -0.009586
  63 C :   -0.157918
  64 C :   -0.188249
  65 N :    0.007335
  66 C :    0.132603
  67 C :    0.123863
  68 H :   -0.028624
  69 H :   -0.009080
  70 H :   -0.013224
  71 H :    0.027756
  72 H :    0.028392
  73 H :    0.045146
  74 H :    0.026050
  75 H :    0.024388
  76 H :    0.024211
  77 H :    0.011015
  78 H :    0.033675
  79 H :   -0.020474
  80 H :   -0.013234
  81 H :   -0.013164
  82 H :   -0.014011
  83 H :   -0.008797
  84 H :   -0.004382
  85 H :    0.002627
  86 H :    0.011889
  87 H :   -0.018095
  88 H :   -0.024894
  89 H :   -0.036735
  90 H :    0.023674
  91 H :    0.023989
  92 H :    0.023011
  93 H :    0.035811
  94 H :    0.019007
  95 H :    0.019169
Sum of atomic charges:   -0.0000000

LOEWDIN ATOMIC CHARGES
----------------------
   0 C :   -0.016868
   1 C :   -0.018143
   2 C :   -0.030743
   3 C :   -0.035762
   4 C :   -0.007143
   5 C :   -0.012396
   6 N :   -0.045581
   7 C :   -0.004091
   8 C :    0.006242
   9 N :   -0.039934
  10 C :   -0.061416
  11 C :   -0.052994
  12 C :   -0.158612
  13 C :   -0.022152
  14 C :   -0.088949
  15 C :   -0.166656
  16 S :    0.462874
  17 C :   -0.197024
  18 C :   -0.062761
  19 C :    0.094769
  20 C :   -0.118193
  21 C :   -0.008331
  22 N :   -0.056237
  23 C :    0.007237
  24 N :   -0.043940
  25 C :   -0.048572
  26 C :   -0.157772
  27 S :    0.459057
  28 C :   -0.088434
  29 C :   -0.143295
  30 C :   -0.038336
  31 C :   -0.033953
  32 C :   -0.185450
  33 S :    0.402458
  34 C :   -0.168388
  35 C :   -0.045524
  36 C :   -0.023067
  37 C :   -0.167638
  38 S :    0.382022
  39 C :   -0.053971
  40 C :   -0.175952
  41 C :   -0.021891
  42 C :   -0.071413
  43 C :   -0.184562
  44 S :    0.501631
  45 C :   -0.173318
  46 C :   -0.079676
  47 C :    0.089156
  48 C :   -0.115964
  49 C :   -0.004465
  50 N :   -0.039899
  51 C :   -0.016523
  52 N :   -0.045424
  53 C :   -0.025490
  54 C :   -0.153089
  55 S :    0.476849
  56 C :   -0.039337
  57 C :   -0.022579
  58 C :   -0.016953
  59 C :   -0.019516
  60 C :   -0.014384
  61 C :   -0.007027
  62 N :   -0.040499
  63 C :    0.004476
  64 C :   -0.006418
  65 N :   -0.048207
  66 C :   -0.053409
  67 C :   -0.056302
  68 H :    0.033399
  69 H :    0.032200
  70 H :    0.018637
  71 H :    0.037334
  72 H :    0.037266
  73 H :    0.036825
  74 H :    0.038588
  75 H :    0.038035
  76 H :    0.037897
  77 H :    0.033773
  78 H :    0.020026
  79 H :    0.032416
  80 H :    0.032432
  81 H :    0.033112
  82 H :    0.032569
  83 H :    0.034510
  84 H :    0.043524
  85 H :    0.039073
  86 H :    0.033877
  87 H :    0.016705
  88 H :    0.033258
  89 H :    0.030246
  90 H :    0.037227
  91 H :    0.037131
  92 H :    0.036953
  93 H :    0.038008
  94 H :    0.036454
  95 H :    0.036377

  Mayer bond orders larger than 0.100000
B(  0-C ,  1-C ) :   1.4255 B(  0-C ,  3-C ) :   0.1069 B(  0-C ,  5-C ) :   1.2623
B(  0-C , 68-H ) :   1.0093 B(  1-C ,  2-C ) :   1.2715 B(  1-C , 69-H ) :   0.9868
B(  2-C ,  3-C ) :   1.4326 B(  2-C , 70-H ) :   0.9878 B(  3-C ,  4-C ) :   1.2048
B(  3-C , 12-C ) :   1.0979 B(  4-C ,  5-C ) :   1.2610 B(  4-C ,  9-N ) :   1.4318
B(  5-C ,  6-N ) :   1.3903 B(  6-N ,  7-C ) :   1.7244 B(  7-C ,  8-C ) :   1.1640
B(  7-C , 11-C ) :   1.0995 B(  8-C ,  9-N ) :   1.6801 B(  8-C , 10-C ) :   1.0775
B( 10-C , 71-H ) :   0.9382 B( 10-C , 72-H ) :   0.9386 B( 10-C , 73-H ) :   0.9388
B( 11-C , 74-H ) :   0.9392 B( 11-C , 75-H ) :   0.9404 B( 11-C , 76-H ) :   0.9403
B( 12-C , 13-C ) :   1.5224 B( 12-C , 16-S ) :   1.0705 B( 13-C , 14-C ) :   1.1997
B( 13-C , 77-H ) :   0.9758 B( 14-C , 15-C ) :   1.4136 B( 14-C , 19-C ) :   1.0287
B( 15-C , 16-S ) :   1.1333 B( 15-C , 17-C ) :   1.2081 B( 17-C , 18-C ) :   1.4238
B( 17-C , 27-S ) :   1.0997 B( 18-C , 19-C ) :   0.9836 B( 18-C , 25-C ) :   1.3667
B( 19-C , 20-C ) :   1.6678 B( 20-C , 21-C ) :   1.1452 B( 20-C , 23-C ) :   1.1643
B( 21-C , 22-N ) :   2.9722 B( 23-C , 24-N ) :   2.8972 B( 25-C , 26-C ) :   1.3713
B( 25-C , 78-H ) :   0.9623 B( 26-C , 27-S ) :   1.0947 B( 26-C , 28-C ) :   1.2080
B( 28-C , 29-C ) :   1.5467 B( 28-C , 79-H ) :   0.9541 B( 29-C , 30-C ) :   1.1736
B( 29-C , 33-S ) :   1.0532 B( 30-C , 31-C ) :   1.5582 B( 30-C , 80-H ) :   0.9976
B( 31-C , 32-C ) :   1.2182 B( 31-C , 81-H ) :   0.9953 B( 32-C , 33-S ) :   1.0425
B( 32-C , 34-C ) :   1.4583 B( 34-C , 35-C ) :   1.2095 B( 34-C , 38-S ) :   1.0562
B( 35-C , 36-C ) :   1.5639 B( 35-C , 82-H ) :   0.9953 B( 36-C , 37-C ) :   1.1686
B( 36-C , 83-H ) :   0.9984 B( 37-C , 38-S ) :   1.0342 B( 37-C , 39-C ) :   1.5154
B( 39-C , 40-C ) :   1.2266 B( 39-C , 84-H ) :   0.9746 B( 40-C , 41-C ) :   1.3465
B( 40-C , 44-S ) :   1.0709 B( 41-C , 42-C ) :   1.3457 B( 41-C , 85-H ) :   1.0052
B( 42-C , 43-C ) :   1.3780 B( 42-C , 47-C ) :   0.9732 B( 43-C , 44-S ) :   1.1513
B( 43-C , 45-C ) :   1.2014 B( 45-C , 46-C ) :   1.4091 B( 45-C , 55-S ) :   1.1343
B( 46-C , 47-C ) :   1.0226 B( 46-C , 53-C ) :   1.2036 B( 47-C , 48-C ) :   1.6939
B( 48-C , 49-C ) :   1.1429 B( 48-C , 51-C ) :   1.1345 B( 49-C , 50-N ) :   2.9863
B( 51-C , 52-N ) :   2.9950 B( 53-C , 54-C ) :   1.5092 B( 53-C , 86-H ) :   0.9780
B( 54-C , 55-S ) :   1.0814 B( 54-C , 56-C ) :   1.0934 B( 56-C , 57-C ) :   1.4203
B( 56-C , 59-C ) :   0.1059 B( 56-C , 61-C ) :   1.2016 B( 57-C , 58-C ) :   1.2865
B( 57-C , 87-H ) :   0.9845 B( 58-C , 59-C ) :   1.4146 B( 58-C , 88-H ) :   0.9892
B( 59-C , 60-C ) :   1.2601 B( 59-C , 89-H ) :   1.0083 B( 60-C , 61-C ) :   1.2637
B( 60-C , 65-N ) :   1.3885 B( 61-C , 62-N ) :   1.4373 B( 62-N , 63-C ) :   1.6720
B( 63-C , 64-C ) :   1.1650 B( 63-C , 67-C ) :   1.0908 B( 64-C , 65-N ) :   1.7231
B( 64-C , 66-C ) :   1.0952 B( 66-C , 90-H ) :   0.9415 B( 66-C , 91-H ) :   0.9413
B( 66-C , 92-H ) :   0.9415 B( 67-C , 93-H ) :   0.9317 B( 67-C , 94-H ) :   0.9354
B( 67-C , 95-H ) :   0.9358

-----------------------------------------------------------------------------
         ABSORPTION SPECTRUM VIA TRANSITION ELECTRIC DIPOLE MOMENTS
-----------------------------------------------------------------------------
State   Energy  Wavelength   fosc         T2         TX        TY        TZ
        (cm-1)    (nm)                  (au**2)     (au)      (au)      (au)
-----------------------------------------------------------------------------
   0    5769.8   1733.2   0.100392117   5.72817   1.62700  -0.88764  -1.51431
   1    8704.9   1148.8   0.182954933   6.91922  -1.59971  -1.69130   1.22459
   2   13279.8    753.0   0.524612980  13.00538   2.71220  -0.00797  -2.37682
   3   14122.0    708.1   0.080473917   1.87600  -0.14028   1.33820   0.25602
   4   16878.2    592.5   0.070016637   1.36569   0.33380  -1.04753  -0.39616
   5   19948.3    501.3   0.015707422   0.25922   0.33294  -0.21897  -0.31690
   6   21876.6    457.1   0.196946002   2.96376   0.07557  -1.70294  -0.24096
   7   22760.5    439.4   1.505799257  21.78013  -0.31614   4.59669   0.74206
   8   24263.5    412.1   0.005252097   0.07126  -0.18110  -0.13211   0.14495
   9   24456.0    408.9   0.374035728   5.03504   0.44671  -2.11805  -0.59107
  10   25819.3    387.3   0.032924935   0.41981   0.17026   0.62017  -0.07884
  11   27494.1    363.7   0.264675882   3.16921  -0.57068  -1.65610   0.31761
  12   27954.6    357.7   0.019790644   0.23307   0.30966   0.27580  -0.24721
  13   29006.3    344.8   0.054273336   0.61598   0.59524   0.16353  -0.48469
  14   29275.0    341.6   0.070800743   0.79619   0.29582  -0.76651  -0.34805
  15   29546.7    338.4   0.005982062   0.06665   0.08868  -0.09805  -0.22175
  16   29577.3    338.1   0.002437910   0.02714   0.15148  -0.03941   0.05133
  17   29714.6    336.5   0.348589176   3.86207   1.32418  -0.78926  -1.21888
  18   29852.5    335.0   0.000638704   0.00704   0.01685   0.06638   0.04851
  19   30112.4    332.1   0.085417727   0.93385   0.70496  -0.16372  -0.64037
  20   30512.7    327.7   0.016196382   0.17475  -0.19159   0.32910   0.17245
  21   30944.3    323.2   0.315099549   3.35229  -1.37634  -0.22846   1.18566
  22   31061.6    321.9   0.544519841   5.77119  -1.60147  -1.26563   1.26676
  23   31345.5    319.0   0.119887257   1.25914   0.33180  -1.01815  -0.33528
  24   31631.2    316.1   0.190604807   1.98378  -0.57736   1.13770   0.59671
  25   31690.4    315.6   0.004281357   0.04448  -0.10297  -0.05425  -0.17587
  26   31844.3    314.0   0.240320427   2.48448  -0.34331   1.46498   0.46951
  27   31962.1    312.9   0.009266405   0.09544  -0.25583  -0.02985   0.17060
  28   32064.4    311.9   0.003413544   0.03505   0.08727  -0.00574   0.16552
  29   32333.8    309.3   0.076914089   0.78311  -0.53150  -0.59927   0.37617
  30   32875.7    304.2   0.046161028   0.46225   0.44798  -0.30885  -0.40765
  31   33119.4    301.9   0.094019492   0.93457  -0.66863  -0.45971   0.52553
  32   33564.8    297.9   0.000093554   0.00092  -0.00912  -0.02318   0.01724
  33   33629.5    297.4   0.000034730   0.00034   0.00549  -0.01475   0.00960
  34   33828.5    295.6   0.042487880   0.41348   0.43995   0.31316  -0.34908
  35   33938.3    294.7   0.001615673   0.01567  -0.09627  -0.06633   0.04477
  36   34229.6    292.1   0.011381794   0.10947  -0.22021  -0.20342   0.13998
  37   34542.1    289.5   0.111394728   1.06168  -0.77368   0.00236   0.68051
  38   34639.3    288.7   0.029476665   0.28015  -0.39552  -0.02702   0.35069
  39   35191.5    284.2   0.003638757   0.03404   0.01433  -0.18307  -0.01793
  40   35349.8    282.9   0.068662119   0.63945   0.43980  -0.52180  -0.41683
  41   35383.8    282.6   0.010816003   0.10063   0.03055  -0.31104  -0.05436
  42   35603.0    280.9   0.054648199   0.50532   0.22465  -0.62481  -0.25390
  43   35902.9    278.5   0.017269228   0.15835   0.00643  -0.39412  -0.05458
  44   36371.9    274.9   0.000606295   0.00549  -0.05496  -0.00493   0.04942
  45   36504.0    273.9   0.035047372   0.31608  -0.14364   0.51241   0.18133
  46   37140.2    269.2   0.000281916   0.00250   0.01438   0.01242   0.04624
  47   37244.3    268.5   0.078477560   0.69368  -0.44786  -0.62272   0.32454
  48   37342.1    267.8   0.185101040   1.63187  -0.02462  -1.27358  -0.09620
  49   37929.0    263.7   0.000302482   0.00263  -0.02953   0.01806  -0.03778
  50   38027.6    263.0   0.054741867   0.47391   0.33256  -0.50963  -0.32186
  51   38230.0    261.6   0.093800166   0.80775   0.59659  -0.33131  -0.58486
  52   38336.7    260.8   0.059830050   0.51378  -0.35604  -0.56793   0.25391
  53   38959.2    256.7   0.085976918   0.72652  -0.65459   0.01551   0.54570
  54   39071.1    255.9   0.000546224   0.00460   0.01899  -0.00439   0.06498
  55   39331.0    254.3   0.102312252   0.85638  -0.50055  -0.66495   0.40456
  56   39356.5    254.1   0.016291535   0.13628  -0.23075   0.17577   0.22833
  57   39570.6    252.7   0.004191668   0.03487  -0.06814   0.15161   0.08512
  58   39758.0    251.5   0.037792972   0.31294   0.01595   0.55675   0.05214
  59   40065.8    249.6   0.000312841   0.00257  -0.03658  -0.02079   0.02828
  60   40130.8    249.2   0.130224582   1.06829   0.79806   0.08092  -0.65180
  61   40290.9    248.2   0.013705118   0.11198   0.18109  -0.20406  -0.19377

FINAL SINGLE POINT ENERGY     -4897.725554150701

DIPOLE MOMENT
-------------
                                X             Y             Z
Electronic contribution:     10.08790      57.07032      -3.15126
Nuclear contribution   :     -7.81199     -55.93144       1.29111
                        -----------------------------------------
Total Dipole Moment    :      2.27590       1.13888      -1.86015
                        -----------------------------------------
Magnitude (a.u.)       :      3.15229
Magnitude (Debye)      :      8.01249

Rotational constants in cm-1:     0.000838     0.000707     0.000384
Rotational constants in MHz :    25.125487    21.209605    11.505603

                             ****ORCA TERMINATED NORMALLY****
TOTAL RUN TIME: 0 days 0 hours 14 minutes 0 seconds 504 msec
