                         Program Version 4.2.0 -  RELEASE  -
|  1> # ORCA input file
|  2> # SCF done       -196.500715383341          0.000913971884
|  3> ! CAM-B3LYP def2-SVP def2/J RIJCOSX Grid4 TightSCF
|  4> %maxcore 5000
|  5> %tddft
|  6>     Mode sTDDFT
|  7>     Ethresh 5.0
|  8>     maxcore 5000
|  9> end
| 10>
| 11> %pal
| 12>   nprocs 6
| 13>   end
| 14> * xyz 0 1
| 15>    C       -3.10696        -0.77116        -0.17179
| 16>    C       -2.69261        -1.43001        -1.29757
| 17>    C       -1.59180        -2.30980        -1.33778
| 18>    N       -0.69944        -3.02677        -1.41804
| 19>    C       -3.37052        -1.34368        -2.53184
| 20>    N       -3.91026        -1.32698        -3.54472
| 21>    C       -2.55991        -0.89550         1.16917
| 22>    C       -3.42563        -0.23319         2.07848
| 23>    C       -3.15795        -0.15266         3.42377
| 24>    C       -1.98029        -0.74745         3.88843
| 25>    C       -1.12806        -1.41537         2.97583
| 26>    C       -1.40061        -1.50234         1.61639
| 27>    S        0.27045        -2.07116         3.77121
| 28>    C       -0.29583        -1.43385         5.29494
| 29>    C       -1.47483        -0.77455         5.21653
| 30>   Br        0.73253        -1.69145         6.84144
| 31>    C       -4.57286         0.33559         1.34495
| 32>    O       -5.54068         0.89453         1.81333
| 33>    C       -4.25197         0.12023        -0.09239
| 34>    C       -4.76541         0.86798        -1.10167
| 35>    C       -5.82590         1.83649        -0.93023
| 36>    C       -7.06870         1.57802        -0.32782
| 37>    O       -7.63681         0.35894        -0.17977
| 38>    C       -7.06295        -0.80699        -0.70636
| 39>    C       -7.88390         2.66846         0.05464
| 40>    O       -9.05812         2.53868         0.72567
| 41>    C       -9.20412         1.49782         1.67643
| 42>    C       -7.49331         3.97397        -0.25189
| 43>    C       -6.31865         4.19916        -0.97595
| 44>    C       -5.50920         3.14941        -1.31594
| 45>    C       -8.29349         5.11882         0.18593
| 46>    C       -7.70560         6.15282         0.85196
| 47>    C       -8.36239         7.30962         1.29807
| 48>    C       -9.79633         7.47612         1.02169
| 49>    C      -10.56505         6.56220         0.38507
| 50>    S       -9.98965         5.06012        -0.20578
| 51>    C      -10.15583         8.71967         1.60863
| 52>    C       -9.04515         9.27021         2.24330
| 53>    C       -9.34268        10.50409         2.86258
| 54>    C      -10.64468        10.84993         2.68605
| 55>    S      -11.55992         9.70070         1.76817
| 56>    C       -7.90796         8.40155         2.05859
| 57>    C       -6.65967         8.66131         2.68759
| 58>    C       -5.47969         8.04164         2.43990
| 59>    C       -4.26051         8.09088         3.19178
| 60>    C       -3.98061         8.98402         4.26377
| 61>    O       -4.88630         9.97474         4.44535
| 62>    C       -4.62756        11.08409         5.28057
| 63>    C       -2.82833         8.79424         5.02913
| 64>    O       -2.55933         9.59486         6.12598
| 65>    C       -2.81143         8.98076         7.37592
| 66>    C       -1.92666         7.74876         4.73635
| 67>    C       -2.16787         6.94123         3.61839
| 68>    C       -3.29768         7.12058         2.87137
| 69>    C       -0.74946         7.55465         5.53020
| 70>    C       -0.12176         6.36672         5.74878
| 71>    C       -0.57673         5.00982         5.53568
| 72>    C       -1.86953         4.55731         5.63535
| 73>    C       -2.22767         3.20245         5.53973
| 74>    N       -2.56321         2.10611         5.46172
| 75>    C       -2.96518         5.38350         5.95602
| 76>    N       -3.87730         5.99540         6.29010
| 77>    C        0.60678         4.16167         5.47048
| 78>    C        1.72804         4.91724         5.89611
| 79>    C        1.29966         6.30807         6.17427
| 80>    O        1.97155         7.21498         6.60877
| 81>    C        2.98778         4.37654         5.97781
| 82>    C        3.15125         3.03921         5.59711
| 83>    C        2.02962         2.30657         5.14220
| 84>    C        0.75016         2.84415         5.08142
| 85>    S        2.46914         0.69135         4.68126
| 86>    C        4.12525         1.00589         5.12111
| 87>    C        4.34195         2.26151         5.57911
| 88>   Br        5.40264        -0.35230         4.92610
| 89>    H       -3.81657         0.36902         4.09884
| 90>    H       -0.72009        -2.00927         0.95217
| 91>    H       -1.96708        -0.30319         6.04685
| 92>    H       -4.24823         0.88724        -2.05459
| 93>    H       -6.31814        -1.23392        -0.02615
| 94>    H       -6.59630        -0.63248        -1.68102
| 95>    H       -7.88755        -1.51257        -0.81709
| 96>    H       -8.25871         1.28662         2.17797
| 97>    H       -9.58226         0.58608         1.21035
| 98>    H       -9.93113         1.86559         2.40108
| 99>    H       -6.05468         5.20851        -1.25147
|100>    H       -4.57825         3.32352        -1.83410
|101>    H       -6.65841         6.02510         1.07690
|102>    H      -11.62030         6.71836         0.22323
|103>    H       -8.63798        11.10650         3.40662
|104>    H      -11.14637        11.72861         3.04203
|105>    H       -6.69888         9.41124         3.46233
|106>    H       -5.43060         7.35323         1.60884
|107>    H       -4.73651        10.83201         6.33749
|108>    H       -5.38422        11.82213         5.01015
|109>    H       -3.63396        11.49900         5.10683
|110>    H       -2.61325         9.74283         8.12779
|111>    H       -2.15450         8.12114         7.54228
|112>    H       -3.85011         8.64237         7.44873
|113>    H       -1.43770         6.19768         3.33468
|114>    H       -3.47504         6.48071         2.01908
|115>    H       -0.26633         8.44113         5.92753
|116>    H        3.82452         4.96598         6.31814
|117>    H       -0.07786         2.25157         4.72705
|118>    H        5.30290         2.62678         5.89211
|119> *
|120>
|121>                          ****END OF INPUT****

CARTESIAN COORDINATES (ANGSTROEM)
---------------------------------
  C     -3.106960   -0.771160   -0.171790
  C     -2.692610   -1.430010   -1.297570
  C     -1.591800   -2.309800   -1.337780
  N     -0.699440   -3.026770   -1.418040
  C     -3.370520   -1.343680   -2.531840
  N     -3.910260   -1.326980   -3.544720
  C     -2.559910   -0.895500    1.169170
  C     -3.425630   -0.233190    2.078480
  C     -3.157950   -0.152660    3.423770
  C     -1.980290   -0.747450    3.888430
  C     -1.128060   -1.415370    2.975830
  C     -1.400610   -1.502340    1.616390
  S      0.270450   -2.071160    3.771210
  C     -0.295830   -1.433850    5.294940
  C     -1.474830   -0.774550    5.216530
  Br     0.732530   -1.691450    6.841440
  C     -4.572860    0.335590    1.344950
  O     -5.540680    0.894530    1.813330
  C     -4.251970    0.120230   -0.092390
  C     -4.765410    0.867980   -1.101670
  C     -5.825900    1.836490   -0.930230
  C     -7.068700    1.578020   -0.327820
  O     -7.636810    0.358940   -0.179770
  C     -7.062950   -0.806990   -0.706360
  C     -7.883900    2.668460    0.054640
  O     -9.058120    2.538680    0.725670
  C     -9.204120    1.497820    1.676430
  C     -7.493310    3.973970   -0.251890
  C     -6.318650    4.199160   -0.975950
  C     -5.509200    3.149410   -1.315940
  C     -8.293490    5.118820    0.185930
  C     -7.705600    6.152820    0.851960
  C     -8.362390    7.309620    1.298070
  C     -9.796330    7.476120    1.021690
  C    -10.565050    6.562200    0.385070
  S     -9.989650    5.060120   -0.205780
  C    -10.155830    8.719670    1.608630
  C     -9.045150    9.270210    2.243300
  C     -9.342680   10.504090    2.862580
  C    -10.644680   10.849930    2.686050
  S    -11.559920    9.700700    1.768170
  C     -7.907960    8.401550    2.058590
  C     -6.659670    8.661310    2.687590
  C     -5.479690    8.041640    2.439900
  C     -4.260510    8.090880    3.191780
  C     -3.980610    8.984020    4.263770
  O     -4.886300    9.974740    4.445350
  C     -4.627560   11.084090    5.280570
  C     -2.828330    8.794240    5.029130
  O     -2.559330    9.594860    6.125980
  C     -2.811430    8.980760    7.375920
  C     -1.926660    7.748760    4.736350
  C     -2.167870    6.941230    3.618390
  C     -3.297680    7.120580    2.871370
  C     -0.749460    7.554650    5.530200
  C     -0.121760    6.366720    5.748780
  C     -0.576730    5.009820    5.535680
  C     -1.869530    4.557310    5.635350
  C     -2.227670    3.202450    5.539730
  N     -2.563210    2.106110    5.461720
  C     -2.965180    5.383500    5.956020
  N     -3.877300    5.995400    6.290100
  C      0.606780    4.161670    5.470480
  C      1.728040    4.917240    5.896110
  C      1.299660    6.308070    6.174270
  O      1.971550    7.214980    6.608770
  C      2.987780    4.376540    5.977810
  C      3.151250    3.039210    5.597110
  C      2.029620    2.306570    5.142200
  C      0.750160    2.844150    5.081420
  S      2.469140    0.691350    4.681260
  C      4.125250    1.005890    5.121110
  C      4.341950    2.261510    5.579110
  Br     5.402640   -0.352300    4.926100
  H     -3.816570    0.369020    4.098840
  H     -0.720090   -2.009270    0.952170
  H     -1.967080   -0.303190    6.046850
  H     -4.248230    0.887240   -2.054590
  H     -6.318140   -1.233920   -0.026150
  H     -6.596300   -0.632480   -1.681020
  H     -7.887550   -1.512570   -0.817090
  H     -8.258710    1.286620    2.177970
  H     -9.582260    0.586080    1.210350
  H     -9.931130    1.865590    2.401080
  H     -6.054680    5.208510   -1.251470
  H     -4.578250    3.323520   -1.834100
  H     -6.658410    6.025100    1.076900
  H    -11.620300    6.718360    0.223230
  H     -8.637980   11.106500    3.406620
  H    -11.146370   11.728610    3.042030
  H     -6.698880    9.411240    3.462330
  H     -5.430600    7.353230    1.608840
  H     -4.736510   10.832010    6.337490
  H     -5.384220   11.822130    5.010150
  H     -3.633960   11.499000    5.106830
  H     -2.613250    9.742830    8.127790
  H     -2.154500    8.121140    7.542280
  H     -3.850110    8.642370    7.448730
  H     -1.437700    6.197680    3.334680
  H     -3.475040    6.480710    2.019080
  H     -0.266330    8.441130    5.927530
  H      3.824520    4.965980    6.318140
  H     -0.077860    2.251570    4.727050
  H      5.302900    2.626780    5.892110

 Total Charge           Charge          ....    0
 Multiplicity           Mult            ....    1
 Number of Electrons    NEL             ....  588
 Basis Dimension        Dim             .... 1238

ORBITAL ENERGIES
----------------

  NO   OCC          E(Eh)            E(eV)
   0   2.0000    -482.887426    -13140.0349
   1   2.0000    -482.883753    -13139.9350
   2   2.0000     -88.977331     -2421.1963
   3   2.0000     -88.975450     -2421.1451
   4   2.0000     -88.963293     -2420.8143
   5   2.0000     -88.943896     -2420.2865
   6   2.0000     -62.565099     -1702.4829
   7   2.0000     -62.561332     -1702.3804
   8   2.0000     -56.399036     -1534.6958
   9   2.0000     -56.396325     -1534.6220
  10   2.0000     -56.396319     -1534.6218
  11   2.0000     -56.395275     -1534.5935
  12   2.0000     -56.392596     -1534.5206
  13   2.0000     -56.392530     -1534.5188
  14   2.0000     -19.258851      -524.0600
  15   2.0000     -19.245048      -523.6844
  16   2.0000     -19.238172      -523.4973
  17   2.0000     -19.237707      -523.4846
  18   2.0000     -19.221763      -523.0508
  19   2.0000     -19.213784      -522.8336
  20   2.0000     -14.424690      -392.5158
  21   2.0000     -14.419207      -392.3666
  22   2.0000     -14.419116      -392.3641
  23   2.0000     -14.413117      -392.2009
  24   2.0000     -10.371826      -282.2317
  25   2.0000     -10.365781      -282.0672
  26   2.0000     -10.360239      -281.9164
  27   2.0000     -10.356763      -281.8218
  28   2.0000     -10.349843      -281.6335
  29   2.0000     -10.346719      -281.5485
  30   2.0000     -10.344928      -281.4998
  31   2.0000     -10.344078      -281.4767
  32   2.0000     -10.342121      -281.4234
  33   2.0000     -10.335820      -281.2520
  34   2.0000     -10.334518      -281.2165
  35   2.0000     -10.332550      -281.1630
  36   2.0000     -10.330189      -281.0987
  37   2.0000     -10.327755      -281.0325
  38   2.0000     -10.327541      -281.0267
  39   2.0000     -10.326120      -280.9880
  40   2.0000     -10.322613      -280.8926
  41   2.0000     -10.322102      -280.8787
  42   2.0000     -10.321625      -280.8657
  43   2.0000     -10.316345      -280.7220
  44   2.0000     -10.315125      -280.6888
  45   2.0000     -10.314691      -280.6770
  46   2.0000     -10.314356      -280.6679
  47   2.0000     -10.313841      -280.6539
  48   2.0000     -10.310660      -280.5673
  49   2.0000     -10.309907      -280.5468
  50   2.0000     -10.309793      -280.5437
  51   2.0000     -10.309428      -280.5338
  52   2.0000     -10.309078      -280.5243
  53   2.0000     -10.307422      -280.4792
  54   2.0000     -10.305647      -280.4309
  55   2.0000     -10.305405      -280.4243
  56   2.0000     -10.303064      -280.3606
  57   2.0000     -10.301442      -280.3165
  58   2.0000     -10.298126      -280.2263
  59   2.0000     -10.297176      -280.2004
  60   2.0000     -10.294618      -280.1308
  61   2.0000     -10.293503      -280.1005
  62   2.0000     -10.293302      -280.0950
  63   2.0000     -10.292458      -280.0720
  64   2.0000     -10.291819      -280.0546
  65   2.0000     -10.288518      -279.9648
  66   2.0000     -10.284913      -279.8667
  67   2.0000     -10.284663      -279.8599
  68   2.0000     -10.283801      -279.8365
  69   2.0000     -10.283705      -279.8338
  70   2.0000     -10.281182      -279.7652
  71   2.0000     -10.280225      -279.7392
  72   2.0000     -10.273866      -279.5661
  73   2.0000     -10.273812      -279.5646
  74   2.0000     -10.273314      -279.5511
  75   2.0000     -10.271277      -279.4957
  76   2.0000     -10.269212      -279.4395
  77   2.0000     -10.262919      -279.2682
  78   2.0000     -10.262265      -279.2504
  79   2.0000     -10.258225      -279.1405
  80   2.0000     -10.257994      -279.1342
  81   2.0000     -10.257819      -279.1294
  82   2.0000      -8.794523      -239.3111
  83   2.0000      -8.790716      -239.2076
  84   2.0000      -8.072909      -219.6750
  85   2.0000      -8.071206      -219.6287
  86   2.0000      -8.058479      -219.2824
  87   2.0000      -8.039240      -218.7588
  88   2.0000      -6.630814      -180.4336
  89   2.0000      -6.627004      -180.3299
  90   2.0000      -6.616267      -180.0378
  91   2.0000      -6.616054      -180.0320
  92   2.0000      -6.612436      -179.9335
  93   2.0000      -6.612275      -179.9292
  94   2.0000      -6.042609      -164.4278
  95   2.0000      -6.040916      -164.3817
  96   2.0000      -6.038274      -164.3098
  97   2.0000      -6.036634      -164.2652
  98   2.0000      -6.034219      -164.1995
  99   2.0000      -6.032448      -164.1513
 100   2.0000      -6.027894      -164.0273
 101   2.0000      -6.023278      -163.9017
 102   2.0000      -6.020701      -163.8316
 103   2.0000      -6.008718      -163.5055
 104   2.0000      -6.004508      -163.3910
 105   2.0000      -6.001212      -163.3013
 106   2.0000      -2.746732       -74.7424
 107   2.0000      -2.742863       -74.6371
 108   2.0000      -2.742582       -74.6295
 109   2.0000      -2.742432       -74.6254
 110   2.0000      -2.738813       -74.5269
 111   2.0000      -2.738649       -74.5224
 112   2.0000      -2.730873       -74.3108
 113   2.0000      -2.730866       -74.3106
 114   2.0000      -2.727088       -74.2078
 115   2.0000      -2.727077       -74.2075
 116   2.0000      -1.168595       -31.7991
 117   2.0000      -1.155399       -31.4400
 118   2.0000      -1.137818       -30.9616
 119   2.0000      -1.135050       -30.8863
 120   2.0000      -1.132396       -30.8141
 121   2.0000      -1.128759       -30.7151
 122   2.0000      -1.026099       -27.9216
 123   2.0000      -1.024679       -27.8829
 124   2.0000      -1.016955       -27.6728
 125   2.0000      -1.014640       -27.6098
 126   2.0000      -0.998728       -27.1768
 127   2.0000      -0.998033       -27.1579
 128   2.0000      -0.992588       -27.0097
 129   2.0000      -0.992065       -26.9955
 130   2.0000      -0.990597       -26.9555
 131   2.0000      -0.970175       -26.3998
 132   2.0000      -0.957958       -26.0674
 133   2.0000      -0.954235       -25.9661
 134   2.0000      -0.942689       -25.6519
 135   2.0000      -0.942004       -25.6332
 136   2.0000      -0.916922       -24.9507
 137   2.0000      -0.910520       -24.7765
 138   2.0000      -0.910251       -24.7692
 139   2.0000      -0.907466       -24.6934
 140   2.0000      -0.902719       -24.5642
 141   2.0000      -0.887933       -24.1619
 142   2.0000      -0.885502       -24.0957
 143   2.0000      -0.884943       -24.0805
 144   2.0000      -0.878657       -23.9095
 145   2.0000      -0.864646       -23.5282
 146   2.0000      -0.856732       -23.3129
 147   2.0000      -0.850807       -23.1516
 148   2.0000      -0.844904       -22.9910
 149   2.0000      -0.835179       -22.7264
 150   2.0000      -0.833804       -22.6890
 151   2.0000      -0.830304       -22.5937
 152   2.0000      -0.827951       -22.5297
 153   2.0000      -0.814683       -22.1687
 154   2.0000      -0.800295       -21.7771
 155   2.0000      -0.793301       -21.5868
 156   2.0000      -0.792256       -21.5584
 157   2.0000      -0.778797       -21.1921
 158   2.0000      -0.768064       -20.9001
 159   2.0000      -0.763593       -20.7784
 160   2.0000      -0.762236       -20.7415
 161   2.0000      -0.759745       -20.6737
 162   2.0000      -0.756542       -20.5866
 163   2.0000      -0.745885       -20.2966
 164   2.0000      -0.726199       -19.7609
 165   2.0000      -0.719585       -19.5809
 166   2.0000      -0.708120       -19.2689
 167   2.0000      -0.699117       -19.0239
 168   2.0000      -0.695431       -18.9236
 169   2.0000      -0.691493       -18.8165
 170   2.0000      -0.689750       -18.7691
 171   2.0000      -0.687087       -18.6966
 172   2.0000      -0.676965       -18.4212
 173   2.0000      -0.674303       -18.3487
 174   2.0000      -0.667657       -18.1679
 175   2.0000      -0.665415       -18.1069
 176   2.0000      -0.656043       -17.8518
 177   2.0000      -0.650971       -17.7138
 178   2.0000      -0.649379       -17.6705
 179   2.0000      -0.629942       -17.1416
 180   2.0000      -0.626342       -17.0436
 181   2.0000      -0.625667       -17.0253
 182   2.0000      -0.623062       -16.9544
 183   2.0000      -0.613884       -16.7046
 184   2.0000      -0.612328       -16.6623
 185   2.0000      -0.609306       -16.5801
 186   2.0000      -0.602114       -16.3843
 187   2.0000      -0.600183       -16.3318
 188   2.0000      -0.595634       -16.2080
 189   2.0000      -0.594929       -16.1888
 190   2.0000      -0.589712       -16.0469
 191   2.0000      -0.583728       -15.8841
 192   2.0000      -0.578013       -15.7285
 193   2.0000      -0.576033       -15.6746
 194   2.0000      -0.569309       -15.4917
 195   2.0000      -0.566219       -15.4076
 196   2.0000      -0.562520       -15.3069
 197   2.0000      -0.560048       -15.2397
 198   2.0000      -0.556978       -15.1561
 199   2.0000      -0.551587       -15.0094
 200   2.0000      -0.549900       -14.9635
 201   2.0000      -0.546633       -14.8747
 202   2.0000      -0.546463       -14.8700
 203   2.0000      -0.545322       -14.8390
 204   2.0000      -0.542242       -14.7552
 205   2.0000      -0.537837       -14.6353
 206   2.0000      -0.536289       -14.5932
 207   2.0000      -0.534990       -14.5578
 208   2.0000      -0.531792       -14.4708
 209   2.0000      -0.531214       -14.4551
 210   2.0000      -0.528577       -14.3833
 211   2.0000      -0.523407       -14.2426
 212   2.0000      -0.521505       -14.1909
 213   2.0000      -0.520746       -14.1702
 214   2.0000      -0.518655       -14.1133
 215   2.0000      -0.517362       -14.0781
 216   2.0000      -0.512649       -13.9499
 217   2.0000      -0.511722       -13.9247
 218   2.0000      -0.509144       -13.8545
 219   2.0000      -0.508777       -13.8445
 220   2.0000      -0.504494       -13.7280
 221   2.0000      -0.503753       -13.7078
 222   2.0000      -0.501919       -13.6579
 223   2.0000      -0.497192       -13.5293
 224   2.0000      -0.495682       -13.4882
 225   2.0000      -0.494596       -13.4586
 226   2.0000      -0.493607       -13.4317
 227   2.0000      -0.492403       -13.3990
 228   2.0000      -0.491439       -13.3727
 229   2.0000      -0.476691       -12.9714
 230   2.0000      -0.475769       -12.9463
 231   2.0000      -0.473722       -12.8906
 232   2.0000      -0.470539       -12.8040
 233   2.0000      -0.469027       -12.7629
 234   2.0000      -0.466387       -12.6910
 235   2.0000      -0.463558       -12.6141
 236   2.0000      -0.460888       -12.5414
 237   2.0000      -0.455901       -12.4057
 238   2.0000      -0.454546       -12.3688
 239   2.0000      -0.452688       -12.3183
 240   2.0000      -0.452337       -12.3087
 241   2.0000      -0.451758       -12.2930
 242   2.0000      -0.448538       -12.2053
 243   2.0000      -0.448074       -12.1927
 244   2.0000      -0.446887       -12.1604
 245   2.0000      -0.444685       -12.1005
 246   2.0000      -0.442950       -12.0533
 247   2.0000      -0.440797       -11.9947
 248   2.0000      -0.439314       -11.9543
 249   2.0000      -0.436509       -11.8780
 250   2.0000      -0.434751       -11.8302
 251   2.0000      -0.433759       -11.8032
 252   2.0000      -0.431956       -11.7541
 253   2.0000      -0.430653       -11.7187
 254   2.0000      -0.429245       -11.6804
 255   2.0000      -0.427939       -11.6448
 256   2.0000      -0.424301       -11.5458
 257   2.0000      -0.423031       -11.5113
 258   2.0000      -0.418701       -11.3934
 259   2.0000      -0.416743       -11.3402
 260   2.0000      -0.415692       -11.3116
 261   2.0000      -0.413541       -11.2530
 262   2.0000      -0.410695       -11.1756
 263   2.0000      -0.406507       -11.0616
 264   2.0000      -0.406026       -11.0485
 265   2.0000      -0.402422       -10.9505
 266   2.0000      -0.398059       -10.8317
 267   2.0000      -0.395466       -10.7612
 268   2.0000      -0.390226       -10.6186
 269   2.0000      -0.388671       -10.5763
 270   2.0000      -0.384284       -10.4569
 271   2.0000      -0.380574       -10.3559
 272   2.0000      -0.376702       -10.2506
 273   2.0000      -0.375429       -10.2159
 274   2.0000      -0.372936       -10.1481
 275   2.0000      -0.369421       -10.0525
 276   2.0000      -0.366355        -9.9690
 277   2.0000      -0.360318        -9.8048
 278   2.0000      -0.351742        -9.5714
 279   2.0000      -0.343693        -9.3524
 280   2.0000      -0.340884        -9.2759
 281   2.0000      -0.338325        -9.2063
 282   2.0000      -0.328591        -8.9414
 283   2.0000      -0.317697        -8.6450
 284   2.0000      -0.316771        -8.6198
 285   2.0000      -0.315133        -8.5752
 286   2.0000      -0.298488        -8.1223
 287   2.0000      -0.296745        -8.0748
 288   2.0000      -0.294351        -8.0097
 289   2.0000      -0.292448        -7.9579
 290   2.0000      -0.280409        -7.6303
 291   2.0000      -0.279670        -7.6102
 292   2.0000      -0.263747        -7.1769
 293   2.0000      -0.218293        -5.9401
 294   0.0000      -0.090639        -2.4664
 295   0.0000      -0.086571        -2.3557
 296   0.0000      -0.059601        -1.6218
 297   0.0000      -0.055545        -1.5115
 298   0.0000      -0.036899        -1.0041

MULLIKEN ATOMIC CHARGES
-----------------------
   0 C :    0.284952
   1 C :   -0.334103
   2 C :   -0.185267
   3 N :    0.156475
   4 C :   -0.200680
   5 N :    0.156888
   6 C :    0.019877
   7 C :   -0.011090
   8 C :   -0.053466
   9 C :    0.091642
  10 C :   -0.087028
  11 C :   -0.028737
  12 S :    0.178122
  13 C :   -0.142856
  14 C :    0.065454
  15 Br:    0.022915
  16 C :    0.156809
  17 O :   -0.141032
  18 C :   -0.122519
  19 C :   -0.061020
  20 C :   -0.039039
  21 C :    0.198581
  22 O :   -0.311004
  23 C :    0.188112
  24 C :    0.138997
  25 O :   -0.325040
  26 C :    0.197385
  27 C :    0.020268
  28 C :   -0.025445
  29 C :    0.007132
  30 C :   -0.118166
  31 C :   -0.012801
  32 C :    0.048624
  33 C :    0.061026
  34 C :   -0.144391
  35 S :    0.194133
  36 C :   -0.109192
  37 C :    0.046130
  38 C :    0.008075
  39 C :   -0.071526
  40 S :    0.114898
  41 C :    0.072577
  42 C :    0.007500
  43 C :   -0.062728
  44 C :    0.106693
  45 C :    0.153847
  46 O :   -0.319113
  47 C :    0.207998
  48 C :    0.093151
  49 O :   -0.357319
  50 C :    0.194102
  51 C :   -0.007124
  52 C :    0.002109
  53 C :   -0.039832
  54 C :    0.000188
  55 C :   -0.110593
  56 C :    0.251651
  57 C :   -0.344523
  58 C :   -0.160319
  59 N :    0.132349
  60 C :   -0.175656
  61 N :    0.166799
  62 C :   -0.000128
  63 C :    0.003191
  64 C :    0.136339
  65 O :   -0.139048
  66 C :   -0.074372
  67 C :    0.108673
  68 C :   -0.082587
  69 C :   -0.019869
  70 S :    0.179956
  71 C :   -0.121062
  72 C :    0.041652
  73 Br:    0.025840
  74 H :    0.002542
  75 H :   -0.005151
  76 H :    0.008623
  77 H :    0.041041
  78 H :    0.032889
  79 H :    0.042168
  80 H :    0.037089
  81 H :    0.034776
  82 H :    0.022622
  83 H :    0.025493
  84 H :   -0.018895
  85 H :   -0.022732
  86 H :   -0.021788
  87 H :    0.031685
  88 H :   -0.022223
  89 H :    0.020381
  90 H :   -0.007491
  91 H :   -0.037196
  92 H :    0.014418
  93 H :    0.024426
  94 H :    0.031861
  95 H :    0.031677
  96 H :    0.026764
  97 H :    0.033756
  98 H :   -0.017668
  99 H :   -0.027245
 100 H :    0.036958
 101 H :   -0.008510
 102 H :   -0.009829
 103 H :   -0.002872
Sum of atomic charges:   -0.0000000

LOEWDIN ATOMIC CHARGES
----------------------
   0 C :    0.076540
   1 C :   -0.141273
   2 C :   -0.020093
   3 N :   -0.049510
   4 C :   -0.024840
   5 N :   -0.053715
   6 C :   -0.024528
   7 C :   -0.054999
   8 C :    0.035844
   9 C :   -0.030292
  10 C :   -0.145805
  11 C :   -0.012129
  12 S :    0.423754
  13 C :   -0.281792
  14 C :   -0.060630
  15 Br:    0.133600
  16 C :    0.083861
  17 O :   -0.133859
  18 C :   -0.096914
  19 C :    0.074028
  20 C :   -0.074559
  21 C :    0.058376
  22 O :   -0.072944
  23 C :    0.082595
  24 C :    0.038650
  25 O :   -0.114079
  26 C :    0.080196
  27 C :   -0.052880
  28 C :   -0.030978
  29 C :   -0.014287
  30 C :   -0.158127
  31 C :   -0.022408
  32 C :   -0.015428
  33 C :   -0.048556
  34 C :   -0.147121
  35 S :    0.491659
  36 C :   -0.209627
  37 C :   -0.039186
  38 C :   -0.065794
  39 C :   -0.170063
  40 S :    0.410121
  41 C :   -0.063309
  42 C :    0.007095
  43 C :   -0.049672
  44 C :   -0.006095
  45 C :    0.048121
  46 O :   -0.089446
  47 C :    0.081209
  48 C :    0.033663
  49 O :   -0.132027
  50 C :    0.078790
  51 C :   -0.069012
  52 C :   -0.017364
  53 C :   -0.022985
  54 C :    0.089682
  55 C :   -0.101981
  56 C :    0.073832
  57 C :   -0.147158
  58 C :    0.002718
  59 N :   -0.066971
  60 C :   -0.012912
  61 N :   -0.049589
  62 C :   -0.020381
  63 C :   -0.051275
  64 C :    0.082485
  65 O :   -0.142297
  66 C :    0.022598
  67 C :   -0.033064
  68 C :   -0.144199
  69 C :   -0.015131
  70 S :    0.438131
  71 C :   -0.272672
  72 C :   -0.070632
  73 Br:    0.138328
  74 H :    0.042829
  75 H :    0.040689
  76 H :    0.040521
  77 H :    0.046467
  78 H :    0.017015
  79 H :    0.023941
  80 H :    0.028233
  81 H :    0.021584
  82 H :    0.013604
  83 H :    0.021011
  84 H :    0.031734
  85 H :    0.030572
  86 H :    0.034907
  87 H :    0.033935
  88 H :    0.028354
  89 H :    0.020686
  90 H :    0.028204
  91 H :    0.020986
  92 H :    0.014713
  93 H :    0.020433
  94 H :    0.019934
  95 H :    0.023933
  96 H :    0.012587
  97 H :    0.017725
  98 H :    0.028303
  99 H :    0.028655
 100 H :    0.047850
 101 H :    0.041700
 102 H :    0.038666
 103 H :    0.038939

  Mayer bond orders larger than 0.100000
B(  0-C ,  1-C ) :   1.6660 B(  0-C ,  6-C ) :   1.0251 B(  0-C , 18-C ) :   1.0292
B(  1-C ,  2-C ) :   1.1291 B(  1-C ,  4-C ) :   1.1496 B(  2-C ,  3-N ) :   2.9854
B(  4-C ,  5-N ) :   2.9821 B(  6-C ,  7-C ) :   1.2585 B(  6-C , 11-C ) :   1.4065
B(  7-C ,  8-C ) :   1.4048 B(  7-C , 16-C ) :   0.9519 B(  8-C ,  9-C ) :   1.2571
B(  8-C , 74-H ) :   1.0157 B(  9-C , 10-C ) :   1.3005 B(  9-C , 14-C ) :   1.1712
B( 10-C , 11-C ) :   1.3283 B( 10-C , 12-S ) :   1.0823 B( 11-C , 75-H ) :   0.9843
B( 12-S , 13-C ) :   1.0762 B( 13-C , 14-C ) :   1.5985 B( 13-C , 15-Br) :   1.0205
B( 14-C , 76-H ) :   0.9979 B( 16-C , 17-O ) :   2.1928 B( 16-C , 18-C ) :   0.9274
B( 18-C , 19-C ) :   1.6812 B( 19-C , 20-C ) :   1.0638 B( 19-C , 77-H ) :   0.9542
B( 20-C , 21-C ) :   1.2954 B( 20-C , 29-C ) :   1.2915 B( 21-C , 22-O ) :   1.1767
B( 21-C , 24-C ) :   1.2645 B( 22-O , 23-C ) :   0.9505 B( 23-C , 78-H ) :   0.9637
B( 23-C , 79-H ) :   0.9542 B( 23-C , 80-H ) :   0.9731 B( 24-C , 25-O ) :   1.2005
B( 24-C , 27-C ) :   1.4393 B( 25-O , 26-C ) :   0.9259 B( 26-C , 81-H ) :   0.9720
B( 26-C , 82-H ) :   0.9751 B( 26-C , 83-H ) :   0.9774 B( 27-C , 28-C ) :   1.3291
B( 27-C , 30-C ) :   0.9544 B( 28-C , 29-C ) :   1.4070 B( 28-C , 84-H ) :   1.0029
B( 29-C , 85-H ) :   0.9973 B( 30-C , 31-C ) :   1.6160 B( 30-C , 35-S ) :   1.0879
B( 31-C , 32-C ) :   1.1867 B( 31-C , 86-H ) :   0.9705 B( 32-C , 33-C ) :   1.0737
B( 32-C , 41-C ) :   1.3972 B( 33-C , 34-C ) :   1.5870 B( 33-C , 36-C ) :   1.1774
B( 34-C , 35-S ) :   1.1589 B( 34-C , 87-H ) :   0.9408 B( 36-C , 37-C ) :   1.4478
B( 36-C , 40-S ) :   1.0650 B( 37-C , 38-C ) :   1.2193 B( 37-C , 41-C ) :   1.0981
B( 38-C , 39-C ) :   1.5827 B( 38-C , 88-H ) :   0.9973 B( 39-C , 40-S ) :   1.1538
B( 39-C , 89-H ) :   0.9667 B( 41-C , 42-C ) :   1.1400 B( 42-C , 43-C ) :   1.6209
B( 42-C , 90-H ) :   0.9575 B( 43-C , 44-C ) :   1.1260 B( 43-C , 91-H ) :   0.9708
B( 44-C , 45-C ) :   1.2716 B( 44-C , 53-C ) :   1.3074 B( 45-C , 46-O ) :   1.1794
B( 45-C , 48-C ) :   1.3398 B( 46-O , 47-C ) :   0.9315 B( 47-C , 92-H ) :   0.9758
B( 47-C , 93-H ) :   0.9761 B( 47-C , 94-H ) :   0.9736 B( 48-C , 49-O ) :   1.1327
B( 48-C , 51-C ) :   1.3062 B( 49-O , 50-C ) :   0.9319 B( 50-C , 95-H ) :   0.9784
B( 50-C , 96-H ) :   0.9616 B( 50-C , 97-H ) :   0.9625 B( 51-C , 52-C ) :   1.3042
B( 51-C , 54-C ) :   1.0619 B( 52-C , 53-C ) :   1.3908 B( 52-C , 98-H ) :   0.9935
B( 53-C , 99-H ) :   1.0025 B( 54-C , 55-C ) :   1.6213 B( 54-C ,100-H ) :   0.9532
B( 55-C , 56-C ) :   1.0472 B( 55-C , 64-C ) :   0.9406 B( 56-C , 57-C ) :   1.6385
B( 56-C , 62-C ) :   1.0110 B( 57-C , 58-C ) :   1.1460 B( 57-C , 60-C ) :   1.1586
B( 58-C , 59-N ) :   2.9513 B( 60-C , 61-N ) :   2.9861 B( 62-C , 63-C ) :   1.2770
B( 62-C , 69-C ) :   1.4122 B( 63-C , 64-C ) :   0.9110 B( 63-C , 66-C ) :   1.4270
B( 64-C , 65-O ) :   2.2838 B( 66-C , 67-C ) :   1.2489 B( 66-C ,101-H ) :   1.0160
B( 67-C , 68-C ) :   1.3094 B( 67-C , 72-C ) :   1.1653 B( 68-C , 69-C ) :   1.3285
B( 68-C , 70-S ) :   1.0842 B( 69-C ,102-H ) :   0.9858 B( 70-S , 71-C ) :   1.0911
B( 71-C , 72-C ) :   1.6168 B( 71-C , 73-Br) :   1.0208 B( 72-C ,103-H ) :   0.9999

-----------------------------------------------------------------------------
         ABSORPTION SPECTRUM VIA TRANSITION ELECTRIC DIPOLE MOMENTS
-----------------------------------------------------------------------------
State   Energy  Wavelength   fosc         T2         TX        TY        TZ
        (cm-1)    (nm)                  (au**2)     (au)      (au)      (au)
-----------------------------------------------------------------------------
   0   13672.9    731.4   0.356416274   8.58166  -2.44388   0.39970  -1.56504
   1   17086.4    585.3   0.121530427   2.34159   0.63980  -1.38186  -0.15072
   2   21102.3    473.9   0.254417000   3.96910  -1.22241  -1.21749  -0.99626
   3   22580.4    442.9   0.000921485   0.01343  -0.00370   0.06950   0.09269
   4   23251.3    430.1   0.166639232   2.35942   1.25525  -0.80230   0.37428
   5   23538.8    424.8   0.114051778   1.59512   1.17633  -0.45063   0.09111
   6   23913.7    418.2   0.017527270   0.24129   0.11996   0.36140  -0.31031
   7   25330.8    394.8   0.361453370   4.69764  -1.45458   1.59672  -0.17975
   8   26026.6    384.2   0.210849419   2.66705   1.19052  -1.11208   0.11401
   9   27309.3    366.2   0.048343652   0.58278  -0.50592   0.53875  -0.19123
  10   27687.5    361.2   0.242532087   2.88378   1.36680   0.95531   0.32095
  11   27810.0    359.6   0.066411956   0.78618  -0.38648   0.29827   0.74017
  12   28310.5    353.2   0.283991104   3.30242   0.05972  -1.03635  -1.49158
  13   28473.1    351.2   0.436313852   5.04475  -1.66999   0.83574  -1.24796
  14   29139.0    343.2   0.004380982   0.04950  -0.02446  -0.18004   0.12839
  15   29764.2    336.0   0.009640846   0.10663   0.12745   0.30055  -0.00760
  16   30016.2    333.2   0.023184002   0.25428   0.29308   0.40141  -0.08516
  17   30220.1    330.9   0.003854285   0.04199  -0.05165   0.19743   0.01846
  18   30320.2    329.8   0.077205431   0.83829  -0.62665   0.66600  -0.04516
  19   30809.7    324.6   0.007129156   0.07618  -0.13271   0.15525   0.18564
  20   31100.7    321.5   0.086557002   0.91624   0.34616   0.05275   0.89086
  21   31168.9    320.8   0.276988968   2.92561  -1.35138  -0.02837  -1.04813
  22   31738.1    315.1   0.121479706   1.26008   1.09955   0.01344  -0.22556
  23   32423.5    308.4   0.077527581   0.78718   0.84656   0.14683   0.22124
  24   32491.9    307.8   0.041802238   0.42355  -0.61748   0.19112  -0.07573
  25   32682.3    306.0   0.032432379   0.32669  -0.45822   0.16140  -0.30113
  26   33147.8    301.7   0.073994187   0.73488  -0.56841   0.47917  -0.42683
  27   33245.0    300.8   0.173871571   1.72178   0.97598  -0.60547   0.63454
  28   33343.8    299.9   0.050194226   0.49558   0.48501  -0.46265   0.21520
  29   33928.8    294.7   0.360710247   3.49998  -0.72143  -0.35208  -1.68984
  30   34069.0    293.5   0.367126832   3.54758   1.39090  -0.93404  -0.86055
  31   34286.8    291.7   0.038878070   0.37330   0.05212   0.30382   0.52752
  32   34512.2    289.8   0.153611300   1.46530   1.11283  -0.42708  -0.21096
  33   34701.9    288.2   0.048292711   0.45815  -0.30417   0.52852  -0.29377
  34   34815.4    287.2   0.022121285   0.20918  -0.33863   0.30701   0.01592
  35   35058.0    285.2   0.084523744   0.79372   0.65060  -0.37335  -0.48068
  36   35160.1    284.4   0.020419662   0.19119  -0.19175   0.23083   0.31803
  37   35507.4    281.6   0.064218691   0.59541  -0.54966  -0.53386   0.09100
  38   35726.5    279.9   0.103177012   0.95075   0.41851  -0.84566   0.24588
  39   35987.8    277.9   0.239703281   2.19278  -1.11425   0.07845  -0.97215
  40   36490.8    274.0   0.023548510   0.21245   0.35660   0.28053   0.08115
  41   36920.1    270.9   0.043372569   0.38675  -0.37903   0.42234  -0.25439
  42   36994.6    270.3   0.005272023   0.04692  -0.19279   0.08736   0.04599
  43   37244.6    268.5   0.097984004   0.86610  -0.82021   0.43065  -0.08885
  44   37387.0    267.5   0.090364816   0.79571   0.48207   0.56107   0.49852
  45   37904.4    263.8   0.030564147   0.26546  -0.08791   0.47387   0.18214
  46   38193.7    261.8   0.052758690   0.45476   0.52299   0.31022   0.29155
  47   38269.6    261.3   0.003326841   0.02862  -0.12145   0.04075  -0.11049
  48   38655.4    258.7   0.071865944   0.61205   0.36539  -0.59354  -0.35533
  49   39013.0    256.3   0.003474947   0.02932  -0.01664  -0.16827  -0.02708
  50   39161.2    255.4   0.100381370   0.84386   0.45367  -0.78459  -0.14990
  51   39361.9    254.1   0.000826407   0.00691   0.05720  -0.02481   0.05500
  52   39435.3    253.6   0.271427860   2.26592  -0.56026   1.35552   0.33853
  53   39684.9    252.0   0.024443776   0.20278   0.34138   0.12730  -0.26464
  54   39778.9    251.4   0.064997605   0.53792  -0.15271   0.69249   0.18723
  55   39922.5    250.5   0.281939658   2.32495   0.05331  -1.47329  -0.38927
  56   40214.2    248.7   0.062749082   0.51369  -0.02960  -0.69815  -0.15938

FINAL SINGLE POINT ENERGY     -9634.979206450691

DIPOLE MOMENT
-------------
                                X             Y             Z
Electronic contribution:    159.19024    -129.87491      56.28048
Nuclear contribution   :   -158.96615     130.50086     -54.97599
                        -----------------------------------------
Total Dipole Moment    :      0.22409       0.62596       1.30449
                        -----------------------------------------
Magnitude (a.u.)       :      1.46415
Magnitude (Debye)      :      3.72158

Rotational constants in cm-1:     0.000929     0.000454     0.000333
Rotational constants in MHz :    27.850213    13.624863     9.988169

                             ****ORCA TERMINATED NORMALLY****
TOTAL RUN TIME: 0 days 0 hours 13 minutes 13 seconds 879 msec
