                         Program Version 4.2.0 -  RELEASE  -
|  1> # ORCA input file
|  2> # SCF done       -191.310984926110          0.000633232059
|  3> ! CAM-B3LYP def2-SVP def2/J RIJCOSX Grid4 TightSCF
|  4> %maxcore 5000
|  5> %tddft
|  6>     Mode sTDDFT
|  7>     Ethresh 5.0
|  8>     maxcore 5000
|  9> end
| 10>
| 11> %pal
| 12>   nprocs 6
| 13>   end
| 14> * xyz 0 1
| 15>    C      -11.06801        -4.26659         3.03342
| 16>    C      -10.32517        -3.91218         4.12337
| 17>    C       -9.41689        -2.83431         4.10425
| 18>    C       -9.19971        -2.04709         2.99168
| 19>    C       -9.96008        -2.39112         1.83829
| 20>    C      -10.88712        -3.49790         1.86875
| 21>    N      -11.43704        -3.57578         0.67046
| 22>    O      -10.89894        -2.59918        -0.04982
| 23>    N      -10.01155        -1.87522         0.62602
| 24>    C       -8.27440        -0.95317         2.96574
| 25>    C       -7.99507        -0.11543         1.90525
| 26>    C       -7.02889         0.83860         2.23276
| 27>    C       -6.57206         0.72091         3.55738
| 28>    S       -7.32986        -0.55491         4.39561
| 29>    C       -5.58896         1.71479         3.79032
| 30>    C       -5.42368         2.46286         2.61253
| 31>    C       -6.32652         1.93891         1.59566
| 32>    C       -6.46888         2.39233         0.31775
| 33>    C       -5.71398         3.47813        -0.17467
| 34>    N       -5.09658         4.36001        -0.56985
| 35>    C       -7.37245         1.81620        -0.60124
| 36>    N       -8.09912         1.36348        -1.36313
| 37>    C       -4.45825         3.45930         2.73347
| 38>    C       -3.88492         3.47482         3.99369
| 39>    S       -4.55908         2.24050         5.04857
| 40>    C       -2.85070         4.32380         4.45487
| 41>    C       -2.24624         4.32726         5.69967
| 42>    C       -1.22779         5.27454         5.78422
| 43>    C       -1.05784         6.00434         4.58785
| 44>    S       -2.15776         5.52421         3.36940
| 45>    C        0.01048         6.90360         4.75425
| 46>    C        0.53184         6.75213         6.05974
| 47>    C       -0.24427         5.72666         6.74835
| 48>    C       -0.07218         5.28362         8.02758
| 49>    C        0.93140         5.80251         8.87174
| 50>    N        1.74595         6.22319         9.56038
| 51>    C       -0.88729         4.27630         8.58502
| 52>    N       -1.55023         3.45668         9.03620
| 53>    C        1.62010         7.56802         6.30549
| 54>    C        1.96076         8.36032         5.20150
| 55>    S        0.86715         8.07037         3.84700
| 56>    C        3.06193         9.21918         5.15810
| 57>    C        3.49759        10.01866         4.12320
| 58>    C        2.92851        10.29795         2.86088
| 59>    C        3.68111        11.12977         2.08357
| 60>    C        4.88944        11.54100         2.68387
| 61>    S        5.02621        10.87206         4.28512
| 62>    C        5.88245        12.33340         2.12241
| 63>    C        5.88490        12.93216         0.84711
| 64>    C        7.03028        13.62211         0.56868
| 65>    C        7.98615        13.59160         1.60639
| 66>    S        7.37145        12.68413         2.96568
| 67>    C        9.23866        14.17927         1.58563
| 68>    C       10.16048        14.06123         2.61734
| 69>    C       11.42320        14.61202         2.69759
| 70>    C       12.40994        14.00823         3.62160
| 71>    O       12.19004        13.19488         4.49293
| 72>    C       13.71793        14.56655         3.21688
| 73>    C       14.96310        14.26085         3.68183
| 74>    C       16.08617        14.90212         3.11074
| 75>    C       15.89156        15.84765         2.06331
| 76>    C       17.01481        16.47798         1.49244
| 77>    C       18.27200        16.18504         1.94191
| 78>    C       18.46305        15.25065         2.97819
| 79>    C       17.39357        14.62167         3.55180
| 80>    F       19.70786        14.98089         3.39866
| 81>    F       19.33926        16.78677         1.39714
| 82>    C       14.58626        16.14919         1.60783
| 83>    C       13.51409        15.52132         2.18054
| 84>    C       12.07398        15.64412         1.94111
| 85>    C       11.47796        16.69007         1.27361
| 86>    C       10.09651        16.96376         1.29100
| 87>    N        8.98766        17.26397         1.30065
| 88>    C       12.19203        17.68381         0.57680
| 89>    N       12.71807        18.50908        -0.02476
| 90>    H      -11.76327        -5.08835         3.03905
| 91>    H      -10.42615        -4.46994         5.04214
| 92>    H       -8.86524        -2.61781         5.00798
| 93>    H       -8.48177        -0.21713         0.95222
| 94>    H       -4.16982         4.14315         1.95543
| 95>    H       -2.54038         3.66005         6.49003
| 96>    H        2.17171         7.60588         7.22736
| 97>    H        3.66661         9.22249         6.05631
| 98>    H        1.98050         9.89768         2.55261
| 99>    H        3.39840        11.44559         1.09592
|100>    H        5.05463        12.84316         0.17030
|101>    H        7.21624        14.15075        -0.34890
|102>    H        9.49996        14.71759         0.68640
|103>    H        9.91546        13.37959         3.42719
|104>    H       15.09160        13.53841         4.47343
|105>    H       16.88601        17.19835         0.69975
|106>    H       17.55631        13.90824         4.34445
|107>    H       14.47145        16.86473         0.80952
|108> *
|109>
|110>                          ****END OF INPUT****

CARTESIAN COORDINATES (ANGSTROEM)
---------------------------------
  C    -11.068010   -4.266590    3.033420
  C    -10.325170   -3.912180    4.123370
  C     -9.416890   -2.834310    4.104250
  C     -9.199710   -2.047090    2.991680
  C     -9.960080   -2.391120    1.838290
  C    -10.887120   -3.497900    1.868750
  N    -11.437040   -3.575780    0.670460
  O    -10.898940   -2.599180   -0.049820
  N    -10.011550   -1.875220    0.626020
  C     -8.274400   -0.953170    2.965740
  C     -7.995070   -0.115430    1.905250
  C     -7.028890    0.838600    2.232760
  C     -6.572060    0.720910    3.557380
  S     -7.329860   -0.554910    4.395610
  C     -5.588960    1.714790    3.790320
  C     -5.423680    2.462860    2.612530
  C     -6.326520    1.938910    1.595660
  C     -6.468880    2.392330    0.317750
  C     -5.713980    3.478130   -0.174670
  N     -5.096580    4.360010   -0.569850
  C     -7.372450    1.816200   -0.601240
  N     -8.099120    1.363480   -1.363130
  C     -4.458250    3.459300    2.733470
  C     -3.884920    3.474820    3.993690
  S     -4.559080    2.240500    5.048570
  C     -2.850700    4.323800    4.454870
  C     -2.246240    4.327260    5.699670
  C     -1.227790    5.274540    5.784220
  C     -1.057840    6.004340    4.587850
  S     -2.157760    5.524210    3.369400
  C      0.010480    6.903600    4.754250
  C      0.531840    6.752130    6.059740
  C     -0.244270    5.726660    6.748350
  C     -0.072180    5.283620    8.027580
  C      0.931400    5.802510    8.871740
  N      1.745950    6.223190    9.560380
  C     -0.887290    4.276300    8.585020
  N     -1.550230    3.456680    9.036200
  C      1.620100    7.568020    6.305490
  C      1.960760    8.360320    5.201500
  S      0.867150    8.070370    3.847000
  C      3.061930    9.219180    5.158100
  C      3.497590   10.018660    4.123200
  C      2.928510   10.297950    2.860880
  C      3.681110   11.129770    2.083570
  C      4.889440   11.541000    2.683870
  S      5.026210   10.872060    4.285120
  C      5.882450   12.333400    2.122410
  C      5.884900   12.932160    0.847110
  C      7.030280   13.622110    0.568680
  C      7.986150   13.591600    1.606390
  S      7.371450   12.684130    2.965680
  C      9.238660   14.179270    1.585630
  C     10.160480   14.061230    2.617340
  C     11.423200   14.612020    2.697590
  C     12.409940   14.008230    3.621600
  O     12.190040   13.194880    4.492930
  C     13.717930   14.566550    3.216880
  C     14.963100   14.260850    3.681830
  C     16.086170   14.902120    3.110740
  C     15.891560   15.847650    2.063310
  C     17.014810   16.477980    1.492440
  C     18.272000   16.185040    1.941910
  C     18.463050   15.250650    2.978190
  C     17.393570   14.621670    3.551800
  F     19.707860   14.980890    3.398660
  F     19.339260   16.786770    1.397140
  C     14.586260   16.149190    1.607830
  C     13.514090   15.521320    2.180540
  C     12.073980   15.644120    1.941110
  C     11.477960   16.690070    1.273610
  C     10.096510   16.963760    1.291000
  N      8.987660   17.263970    1.300650
  C     12.192030   17.683810    0.576800
  N     12.718070   18.509080   -0.024760
  H    -11.763270   -5.088350    3.039050
  H    -10.426150   -4.469940    5.042140
  H     -8.865240   -2.617810    5.007980
  H     -8.481770   -0.217130    0.952220
  H     -4.169820    4.143150    1.955430
  H     -2.540380    3.660050    6.490030
  H      2.171710    7.605880    7.227360
  H      3.666610    9.222490    6.056310
  H      1.980500    9.897680    2.552610
  H      3.398400   11.445590    1.095920
  H      5.054630   12.843160    0.170300
  H      7.216240   14.150750   -0.348900
  H      9.499960   14.717590    0.686400
  H      9.915460   13.379590    3.427190
  H     15.091600   13.538410    4.473430
  H     16.886010   17.198350    0.699750
  H     17.556310   13.908240    4.344450
  H     14.471450   16.864730    0.809520

 Total Charge           Charge          ....    0
 Multiplicity           Mult            ....    1
 Number of Electrons    NEL             ....  546
 Basis Dimension        Dim             .... 1164

ORBITAL ENERGIES
----------------

  NO   OCC          E(Eh)            E(eV)
   0   2.0000     -89.003675     -2421.9131
   1   2.0000     -89.003337     -2421.9039
   2   2.0000     -89.001484     -2421.8535
   3   2.0000     -88.996634     -2421.7215
   4   2.0000     -88.970840     -2421.0196
   5   2.0000     -88.966785     -2420.9093
   6   2.0000     -24.789067      -674.5448
   7   2.0000     -24.788333      -674.5248
   8   2.0000     -19.361343      -526.8489
   9   2.0000     -19.200162      -522.4630
  10   2.0000     -14.486667      -394.2022
  11   2.0000     -14.484252      -394.1365
  12   2.0000     -14.442872      -393.0105
  13   2.0000     -14.442136      -392.9905
  14   2.0000     -14.438148      -392.8820
  15   2.0000     -14.433210      -392.7476
  16   2.0000     -14.403260      -391.9326
  17   2.0000     -14.401551      -391.8861
  18   2.0000     -10.378191      -282.4049
  19   2.0000     -10.372135      -282.2402
  20   2.0000     -10.371132      -282.2128
  21   2.0000     -10.370611      -282.1987
  22   2.0000     -10.364914      -282.0437
  23   2.0000     -10.358404      -281.8665
  24   2.0000     -10.351381      -281.6754
  25   2.0000     -10.346442      -281.5410
  26   2.0000     -10.345208      -281.5074
  27   2.0000     -10.343745      -281.4676
  28   2.0000     -10.342873      -281.4439
  29   2.0000     -10.342327      -281.4290
  30   2.0000     -10.342010      -281.4204
  31   2.0000     -10.341655      -281.4108
  32   2.0000     -10.341343      -281.4023
  33   2.0000     -10.340976      -281.3923
  34   2.0000     -10.339324      -281.3473
  35   2.0000     -10.338467      -281.3240
  36   2.0000     -10.334316      -281.2110
  37   2.0000     -10.333782      -281.1965
  38   2.0000     -10.332988      -281.1749
  39   2.0000     -10.332411      -281.1592
  40   2.0000     -10.330303      -281.1018
  41   2.0000     -10.330286      -281.1014
  42   2.0000     -10.330177      -281.0984
  43   2.0000     -10.328339      -281.0484
  44   2.0000     -10.327794      -281.0336
  45   2.0000     -10.326100      -280.9875
  46   2.0000     -10.320907      -280.8461
  47   2.0000     -10.318045      -280.7683
  48   2.0000     -10.317444      -280.7519
  49   2.0000     -10.316961      -280.7388
  50   2.0000     -10.315386      -280.6959
  51   2.0000     -10.314459      -280.6707
  52   2.0000     -10.313985      -280.6578
  53   2.0000     -10.313890      -280.6552
  54   2.0000     -10.313181      -280.6359
  55   2.0000     -10.310383      -280.5598
  56   2.0000     -10.308712      -280.5143
  57   2.0000     -10.308102      -280.4977
  58   2.0000     -10.306913      -280.4654
  59   2.0000     -10.306611      -280.4571
  60   2.0000     -10.304935      -280.4115
  61   2.0000     -10.304923      -280.4112
  62   2.0000     -10.303530      -280.3733
  63   2.0000     -10.303338      -280.3681
  64   2.0000     -10.299231      -280.2563
  65   2.0000     -10.298943      -280.2485
  66   2.0000     -10.298177      -280.2277
  67   2.0000     -10.295338      -280.1504
  68   2.0000     -10.291255      -280.0393
  69   2.0000     -10.290409      -280.0163
  70   2.0000     -10.290378      -280.0154
  71   2.0000     -10.289608      -279.9945
  72   2.0000     -10.286866      -279.9199
  73   2.0000     -10.280922      -279.7581
  74   2.0000     -10.280879      -279.7570
  75   2.0000      -8.097920      -220.3556
  76   2.0000      -8.097800      -220.3524
  77   2.0000      -8.095946      -220.3019
  78   2.0000      -8.091267      -220.1746
  79   2.0000      -8.067441      -219.5262
  80   2.0000      -8.063086      -219.4077
  81   2.0000      -6.067175      -165.0962
  82   2.0000      -6.067142      -165.0953
  83   2.0000      -6.065269      -165.0444
  84   2.0000      -6.063050      -164.9840
  85   2.0000      -6.062965      -164.9817
  86   2.0000      -6.061092      -164.9307
  87   2.0000      -6.060499      -164.9145
  88   2.0000      -6.060234      -164.9073
  89   2.0000      -6.059988      -164.9007
  90   2.0000      -6.058155      -164.8508
  91   2.0000      -6.056339      -164.8014
  92   2.0000      -6.053646      -164.7281
  93   2.0000      -6.037141      -164.2790
  94   2.0000      -6.033086      -164.1686
  95   2.0000      -6.032672      -164.1574
  96   2.0000      -6.028653      -164.0480
  97   2.0000      -6.028329      -164.0392
  98   2.0000      -6.024236      -163.9278
  99   2.0000      -1.315399       -35.7938
 100   2.0000      -1.311165       -35.6786
 101   2.0000      -1.296404       -35.2769
 102   2.0000      -1.114872       -30.3372
 103   2.0000      -1.058358       -28.7994
 104   2.0000      -1.052658       -28.6443
 105   2.0000      -1.034297       -28.1446
 106   2.0000      -1.028486       -27.9865
 107   2.0000      -1.022181       -27.8150
 108   2.0000      -1.020319       -27.7643
 109   2.0000      -1.019775       -27.7495
 110   2.0000      -1.014832       -27.6150
 111   2.0000      -1.012292       -27.5459
 112   2.0000      -1.008370       -27.4392
 113   2.0000      -1.006608       -27.3912
 114   2.0000      -0.998858       -27.1803
 115   2.0000      -0.995054       -27.0768
 116   2.0000      -0.992154       -26.9979
 117   2.0000      -0.981319       -26.7030
 118   2.0000      -0.973196       -26.4820
 119   2.0000      -0.969049       -26.3692
 120   2.0000      -0.963550       -26.2195
 121   2.0000      -0.935180       -25.4475
 122   2.0000      -0.929058       -25.2810
 123   2.0000      -0.923988       -25.1430
 124   2.0000      -0.917657       -24.9707
 125   2.0000      -0.910286       -24.7701
 126   2.0000      -0.897797       -24.4303
 127   2.0000      -0.887996       -24.1636
 128   2.0000      -0.885342       -24.0914
 129   2.0000      -0.882170       -24.0051
 130   2.0000      -0.878662       -23.9096
 131   2.0000      -0.874745       -23.8030
 132   2.0000      -0.872361       -23.7381
 133   2.0000      -0.867697       -23.6112
 134   2.0000      -0.861186       -23.4341
 135   2.0000      -0.852906       -23.2088
 136   2.0000      -0.847142       -23.0519
 137   2.0000      -0.832793       -22.6615
 138   2.0000      -0.829089       -22.5607
 139   2.0000      -0.817120       -22.2350
 140   2.0000      -0.795595       -21.6492
 141   2.0000      -0.791671       -21.5425
 142   2.0000      -0.786518       -21.4022
 143   2.0000      -0.782823       -21.3017
 144   2.0000      -0.768805       -20.9203
 145   2.0000      -0.755896       -20.5690
 146   2.0000      -0.754149       -20.5214
 147   2.0000      -0.751080       -20.4379
 148   2.0000      -0.737022       -20.0554
 149   2.0000      -0.724163       -19.7055
 150   2.0000      -0.715373       -19.4663
 151   2.0000      -0.714506       -19.4427
 152   2.0000      -0.708210       -19.2714
 153   2.0000      -0.704944       -19.1825
 154   2.0000      -0.699296       -19.0288
 155   2.0000      -0.697493       -18.9798
 156   2.0000      -0.687880       -18.7182
 157   2.0000      -0.681402       -18.5419
 158   2.0000      -0.674146       -18.3445
 159   2.0000      -0.670926       -18.2568
 160   2.0000      -0.658933       -17.9305
 161   2.0000      -0.656979       -17.8773
 162   2.0000      -0.648626       -17.6500
 163   2.0000      -0.647544       -17.6206
 164   2.0000      -0.643541       -17.5116
 165   2.0000      -0.639953       -17.4140
 166   2.0000      -0.635986       -17.3061
 167   2.0000      -0.632980       -17.2243
 168   2.0000      -0.631669       -17.1886
 169   2.0000      -0.629331       -17.1250
 170   2.0000      -0.626555       -17.0494
 171   2.0000      -0.620982       -16.8978
 172   2.0000      -0.618786       -16.8380
 173   2.0000      -0.615111       -16.7380
 174   2.0000      -0.612309       -16.6618
 175   2.0000      -0.602692       -16.4001
 176   2.0000      -0.601566       -16.3695
 177   2.0000      -0.589980       -16.0542
 178   2.0000      -0.582554       -15.8521
 179   2.0000      -0.579391       -15.7660
 180   2.0000      -0.575881       -15.6705
 181   2.0000      -0.573519       -15.6063
 182   2.0000      -0.569745       -15.5035
 183   2.0000      -0.566174       -15.4064
 184   2.0000      -0.561313       -15.2741
 185   2.0000      -0.560555       -15.2535
 186   2.0000      -0.554641       -15.0925
 187   2.0000      -0.550440       -14.9782
 188   2.0000      -0.544218       -14.8089
 189   2.0000      -0.543203       -14.7813
 190   2.0000      -0.537742       -14.6327
 191   2.0000      -0.535679       -14.5766
 192   2.0000      -0.532296       -14.4845
 193   2.0000      -0.526797       -14.3349
 194   2.0000      -0.524656       -14.2766
 195   2.0000      -0.522851       -14.2275
 196   2.0000      -0.522097       -14.2070
 197   2.0000      -0.520937       -14.1754
 198   2.0000      -0.519301       -14.1309
 199   2.0000      -0.517908       -14.0930
 200   2.0000      -0.515873       -14.0376
 201   2.0000      -0.512884       -13.9563
 202   2.0000      -0.510708       -13.8971
 203   2.0000      -0.510023       -13.8784
 204   2.0000      -0.506994       -13.7960
 205   2.0000      -0.505431       -13.7535
 206   2.0000      -0.504304       -13.7228
 207   2.0000      -0.498607       -13.5678
 208   2.0000      -0.496423       -13.5084
 209   2.0000      -0.495751       -13.4901
 210   2.0000      -0.493691       -13.4340
 211   2.0000      -0.491709       -13.3801
 212   2.0000      -0.491190       -13.3660
 213   2.0000      -0.486513       -13.2387
 214   2.0000      -0.485083       -13.1998
 215   2.0000      -0.483125       -13.1465
 216   2.0000      -0.479899       -13.0587
 217   2.0000      -0.474643       -12.9157
 218   2.0000      -0.473172       -12.8757
 219   2.0000      -0.473027       -12.8717
 220   2.0000      -0.472864       -12.8673
 221   2.0000      -0.469896       -12.7865
 222   2.0000      -0.469279       -12.7697
 223   2.0000      -0.467747       -12.7280
 224   2.0000      -0.463563       -12.6142
 225   2.0000      -0.460220       -12.5232
 226   2.0000      -0.457834       -12.4583
 227   2.0000      -0.456817       -12.4306
 228   2.0000      -0.453383       -12.3372
 229   2.0000      -0.452261       -12.3066
 230   2.0000      -0.452186       -12.3046
 231   2.0000      -0.449977       -12.2445
 232   2.0000      -0.449196       -12.2233
 233   2.0000      -0.446043       -12.1374
 234   2.0000      -0.445362       -12.1189
 235   2.0000      -0.444826       -12.1043
 236   2.0000      -0.444164       -12.0863
 237   2.0000      -0.443787       -12.0760
 238   2.0000      -0.439188       -11.9509
 239   2.0000      -0.437341       -11.9006
 240   2.0000      -0.435462       -11.8495
 241   2.0000      -0.432216       -11.7612
 242   2.0000      -0.430817       -11.7231
 243   2.0000      -0.430104       -11.7037
 244   2.0000      -0.423625       -11.5274
 245   2.0000      -0.420561       -11.4440
 246   2.0000      -0.415654       -11.3105
 247   2.0000      -0.414982       -11.2922
 248   2.0000      -0.413114       -11.2414
 249   2.0000      -0.409719       -11.1490
 250   2.0000      -0.408547       -11.1171
 251   2.0000      -0.404573       -11.0090
 252   2.0000      -0.398297       -10.8382
 253   2.0000      -0.395931       -10.7738
 254   2.0000      -0.389561       -10.6005
 255   2.0000      -0.378955       -10.3119
 256   2.0000      -0.373465       -10.1625
 257   2.0000      -0.369478       -10.0540
 258   2.0000      -0.365154        -9.9363
 259   2.0000      -0.359495        -9.7823
 260   2.0000      -0.357301        -9.7226
 261   2.0000      -0.355863        -9.6835
 262   2.0000      -0.343955        -9.3595
 263   2.0000      -0.338140        -9.2013
 264   2.0000      -0.334883        -9.1126
 265   2.0000      -0.330060        -8.9814
 266   2.0000      -0.324417        -8.8278
 267   2.0000      -0.313326        -8.5260
 268   2.0000      -0.305664        -8.3176
 269   2.0000      -0.292698        -7.9647
 270   2.0000      -0.286081        -7.7847
 271   2.0000      -0.260098        -7.0776
 272   2.0000      -0.226414        -6.1610
 273   0.0000      -0.130279        -3.5451
 274   0.0000      -0.112440        -3.0596
 275   0.0000      -0.107157        -2.9159
 276   0.0000      -0.074149        -2.0177
 277   0.0000      -0.064579        -1.7573

MULLIKEN ATOMIC CHARGES
-----------------------
   0 C :   -0.027179
   1 C :    0.044361
   2 C :   -0.077355
   3 C :    0.171440
   4 C :   -0.073896
   5 C :    0.007398
   6 N :    0.059367
   7 O :   -0.088115
   8 N :    0.041359
   9 C :   -0.119397
  10 C :   -0.048606
  11 C :    0.020662
  12 C :   -0.088731
  13 S :    0.168953
  14 C :   -0.098466
  15 C :    0.018955
  16 C :    0.303208
  17 C :   -0.293591
  18 C :   -0.189077
  19 N :    0.168994
  20 C :   -0.191958
  21 N :    0.192234
  22 C :   -0.067535
  23 C :   -0.049461
  24 S :    0.197170
  25 C :   -0.048284
  26 C :   -0.063619
  27 C :    0.014863
  28 C :   -0.091592
  29 S :    0.196715
  30 C :   -0.085357
  31 C :    0.032677
  32 C :    0.297461
  33 C :   -0.288389
  34 C :   -0.187260
  35 N :    0.178222
  36 C :   -0.188297
  37 N :    0.175191
  38 C :   -0.045490
  39 C :   -0.056141
  40 S :    0.153768
  41 C :    0.048584
  42 C :   -0.085635
  43 C :    0.031583
  44 C :    0.015748
  45 C :   -0.030953
  46 S :    0.124460
  47 C :   -0.057328
  48 C :    0.037610
  49 C :    0.039482
  50 C :   -0.018925
  51 S :    0.116880
  52 C :    0.001409
  53 C :    0.024088
  54 C :   -0.135523
  55 C :    0.141202
  56 O :   -0.153864
  57 C :    0.005759
  58 C :   -0.088071
  59 C :    0.113577
  60 C :    0.113171
  61 C :   -0.109613
  62 C :    0.240307
  63 C :    0.235879
  64 C :   -0.107393
  65 F :   -0.175708
  66 F :   -0.175338
  67 C :   -0.089566
  68 C :    0.040958
  69 C :    0.295755
  70 C :   -0.350382
  71 C :   -0.220676
  72 N :    0.158007
  73 C :   -0.176331
  74 N :    0.138398
  75 H :   -0.004100
  76 H :    0.004610
  77 H :   -0.004519
  78 H :    0.027113
  79 H :    0.012181
  80 H :    0.012157
  81 H :    0.013121
  82 H :    0.007982
  83 H :    0.004111
  84 H :   -0.003937
  85 H :   -0.002586
  86 H :    0.003890
  87 H :    0.009505
  88 H :    0.015273
  89 H :   -0.012992
  90 H :    0.004309
  91 H :   -0.002405
  92 H :   -0.006464
Sum of atomic charges:   -0.0000000

LOEWDIN ATOMIC CHARGES
----------------------
   0 C :   -0.016198
   1 C :   -0.005559
   2 C :   -0.022509
   3 C :   -0.033924
   4 C :   -0.047738
   5 C :   -0.056602
   6 N :   -0.018419
   7 O :    0.084049
   8 N :   -0.023756
   9 C :   -0.164120
  10 C :   -0.014974
  11 C :   -0.071670
  12 C :   -0.174273
  13 S :    0.475539
  14 C :   -0.180808
  15 C :   -0.063202
  16 C :    0.079348
  17 C :   -0.095358
  18 C :   -0.014224
  19 N :   -0.034555
  20 C :   -0.022189
  21 N :   -0.016230
  22 C :   -0.037373
  23 C :   -0.181277
  24 S :    0.483614
  25 C :   -0.173366
  26 C :   -0.038590
  27 C :   -0.064124
  28 C :   -0.180859
  29 S :    0.483881
  30 C :   -0.176803
  31 C :   -0.068419
  32 C :    0.080880
  33 C :   -0.096446
  34 C :   -0.017177
  35 N :   -0.026696
  36 C :   -0.015901
  37 N :   -0.029223
  38 C :   -0.013277
  39 C :   -0.164193
  40 S :    0.476396
  41 C :   -0.046828
  42 C :   -0.160250
  43 C :   -0.035422
  44 C :   -0.022709
  45 C :   -0.155487
  46 S :    0.404135
  47 C :   -0.188317
  48 C :   -0.009565
  49 C :   -0.033751
  50 C :   -0.101940
  51 S :    0.409530
  52 C :   -0.063506
  53 C :    0.050396
  54 C :   -0.104216
  55 C :    0.077191
  56 O :   -0.155762
  57 C :   -0.050813
  58 C :    0.024554
  59 C :   -0.010976
  60 C :   -0.007313
  61 C :   -0.031340
  62 C :    0.064133
  63 C :    0.064123
  64 C :   -0.034739
  65 F :   -0.053240
  66 F :   -0.052640
  67 C :    0.009156
  68 C :   -0.017535
  69 C :    0.067153
  70 C :   -0.152565
  71 C :   -0.024549
  72 N :   -0.062063
  73 C :   -0.019400
  74 N :   -0.064434
  75 H :    0.041947
  76 H :    0.038120
  77 H :    0.025832
  78 H :    0.042588
  79 H :    0.035384
  80 H :    0.036508
  81 H :    0.043715
  82 H :    0.045160
  83 H :    0.021583
  84 H :    0.036505
  85 H :    0.035965
  86 H :    0.041112
  87 H :    0.038848
  88 H :    0.034749
  89 H :    0.038759
  90 H :    0.046321
  91 H :    0.043585
  92 H :    0.038629

  Mayer bond orders larger than 0.100000
B(  0-C ,  1-C ) :   1.5307 B(  0-C ,  3-C ) :   0.1066 B(  0-C ,  5-C ) :   1.1620
B(  0-C , 75-H ) :   1.0241 B(  1-C ,  2-C ) :   1.2043 B(  1-C , 76-H ) :   0.9806
B(  2-C ,  3-C ) :   1.5186 B(  2-C , 77-H ) :   0.9859 B(  3-C ,  4-C ) :   1.1469
B(  3-C ,  9-C ) :   1.1062 B(  4-C ,  5-C ) :   1.1499 B(  4-C ,  8-N ) :   1.5917
B(  5-C ,  6-N ) :   1.5913 B(  6-N ,  7-O ) :   1.0770 B(  6-N ,  8-N ) :   0.1848
B(  7-O ,  8-N ) :   1.0642 B(  9-C , 10-C ) :   1.5029 B(  9-C , 13-S ) :   1.0852
B( 10-C , 11-C ) :   1.2403 B( 10-C , 78-H ) :   0.9810 B( 11-C , 12-C ) :   1.4430
B( 11-C , 16-C ) :   1.0001 B( 12-C , 13-S ) :   1.1298 B( 12-C , 14-C ) :   1.1844
B( 14-C , 15-C ) :   1.4477 B( 14-C , 24-S ) :   1.1161 B( 15-C , 16-C ) :   0.9887
B( 15-C , 22-C ) :   1.3077 B( 16-C , 17-C ) :   1.7143 B( 17-C , 18-C ) :   1.1338
B( 17-C , 20-C ) :   1.1350 B( 18-C , 19-N ) :   2.9872 B( 20-C , 21-N ) :   2.9949
B( 22-C , 23-C ) :   1.4481 B( 22-C , 79-H ) :   0.9849 B( 23-C , 24-S ) :   1.1079
B( 23-C , 25-C ) :   1.1788 B( 25-C , 26-C ) :   1.4514 B( 25-C , 29-S ) :   1.1070
B( 26-C , 27-C ) :   1.3047 B( 26-C , 80-H ) :   0.9869 B( 27-C , 28-C ) :   1.4187
B( 27-C , 32-C ) :   1.0051 B( 28-C , 29-S ) :   1.1123 B( 28-C , 30-C ) :   1.2194
B( 30-C , 31-C ) :   1.3966 B( 30-C , 40-S ) :   1.1233 B( 31-C , 32-C ) :   0.9845
B( 31-C , 38-C ) :   1.3208 B( 32-C , 33-C ) :   1.7158 B( 33-C , 34-C ) :   1.1336
B( 33-C , 36-C ) :   1.1335 B( 34-C , 35-N ) :   2.9909 B( 36-C , 37-N ) :   2.9907
B( 38-C , 39-C ) :   1.3680 B( 38-C , 81-H ) :   1.0038 B( 39-C , 40-S ) :   1.0764
B( 39-C , 41-C ) :   1.2606 B( 41-C , 42-C ) :   1.5174 B( 41-C , 82-H ) :   0.9508
B( 42-C , 43-C ) :   1.1701 B( 42-C , 46-S ) :   1.0375 B( 43-C , 44-C ) :   1.5906
B( 43-C , 83-H ) :   0.9774 B( 44-C , 45-C ) :   1.2139 B( 44-C , 84-H ) :   0.9929
B( 45-C , 46-S ) :   1.0888 B( 45-C , 47-C ) :   1.4402 B( 47-C , 48-C ) :   1.2266
B( 47-C , 51-S ) :   1.0520 B( 48-C , 49-C ) :   1.5380 B( 48-C , 85-H ) :   0.9937
B( 49-C , 50-C ) :   1.1866 B( 49-C , 86-H ) :   1.0006 B( 50-C , 51-S ) :   1.0845
B( 50-C , 52-C ) :   1.4905 B( 52-C , 53-C ) :   1.2310 B( 52-C , 87-H ) :   0.9624
B( 53-C , 54-C ) :   1.5177 B( 53-C , 88-H ) :   0.9392 B( 54-C , 55-C ) :   0.9661
B( 54-C , 69-C ) :   1.0910 B( 55-C , 56-O ) :   2.2489 B( 55-C , 57-C ) :   0.9155
B( 57-C , 58-C ) :   1.4855 B( 57-C , 68-C ) :   1.2206 B( 58-C , 59-C ) :   1.1838
B( 58-C , 89-H ) :   1.0163 B( 59-C , 60-C ) :   1.2621 B( 59-C , 64-C ) :   1.1968
B( 60-C , 61-C ) :   1.1924 B( 60-C , 67-C ) :   1.2068 B( 61-C , 62-C ) :   1.4379
B( 61-C , 64-C ) :   0.1089 B( 61-C , 90-H ) :   1.0074 B( 62-C , 63-C ) :   1.1946
B( 62-C , 66-F ) :   1.1307 B( 63-C , 64-C ) :   1.4397 B( 63-C , 65-F ) :   1.1296
B( 64-C , 91-H ) :   1.0073 B( 67-C , 68-C ) :   1.4648 B( 67-C , 92-H ) :   0.9921
B( 68-C , 69-C ) :   0.9900 B( 69-C , 70-C ) :   1.5955 B( 70-C , 71-C ) :   1.1688
B( 70-C , 73-C ) :   1.1382 B( 71-C , 72-N ) :   3.0094 B( 73-C , 74-N ) :   2.9705

-----------------------------------------------------------------------------
         ABSORPTION SPECTRUM VIA TRANSITION ELECTRIC DIPOLE MOMENTS
-----------------------------------------------------------------------------
State   Energy  Wavelength   fosc         T2         TX        TY        TZ
        (cm-1)    (nm)                  (au**2)     (au)      (au)      (au)
-----------------------------------------------------------------------------
   0    7758.3   1288.9   1.001271486  42.48770   5.06729   4.01237  -0.84329
   1   11692.8    855.2   0.864240693  24.33272  -3.89856  -2.96837   0.56809
   2   12421.4    805.1   0.360717301   9.56029   2.41815   1.48062  -1.23313
   3   15467.3    646.5   0.019141080   0.40741   0.25793   0.44802   0.37437
   4   18302.3    546.4   0.007900402   0.14211  -0.20636  -0.27148  -0.16069
   5   20844.3    479.7   0.206960120   3.26869   1.23214   1.31967   0.09481
   6   21526.1    464.6   0.060631441   0.92728  -0.48576  -0.81902   0.14322
   7   22937.0    436.0   0.124987882   1.79394  -0.89384  -0.86144  -0.50290
   8   23600.4    423.7   0.253577699   3.53727  -1.48610  -1.14413  -0.14050
   9   23931.9    417.9   0.275307460   3.78719  -1.04513  -1.51326  -0.63633
  10   25361.1    394.3   0.083877478   1.08881   0.92838  -0.23484   0.41445
  11   25664.1    389.6   0.007961509   0.10213  -0.03975   0.30226  -0.09583
  12   25958.8    385.2   0.002171010   0.02753  -0.04599  -0.15453  -0.03924
  13   26995.4    370.4   0.011303706   0.13785   0.28235  -0.12027   0.20896
  14   27494.1    363.7   0.072745258   0.87105   0.86623  -0.18915   0.29140
  15   28169.5    355.0   0.168434467   1.96846   0.64024   0.20283   1.23183
  16   28464.8    351.3   0.083316425   0.96360   0.21503   0.83584  -0.46770
  17   29292.3    341.4   0.439098130   4.93495  -1.58555  -0.91668  -1.25725
  18   29823.0    335.3   0.036876898   0.40708   0.36871  -0.19151   0.48420
  19   30517.2    327.7   0.101693514   1.09705   0.19806  -0.28632   0.98785
  20   30769.4    325.0   0.107743759   1.15278   0.82620   0.43663  -0.52871
  21   30903.8    323.6   0.711673113   7.58131   0.59432  -1.07358   2.46485
  22   31255.5    319.9   0.059433675   0.62601  -0.29416   0.08524   0.72953
  23   31522.4    317.2   0.200082148   2.08961   0.97644   0.78856  -0.71717
  24   31883.2    313.6   0.157644355   1.62777  -0.37653   0.25899  -1.19118
  25   32176.1    310.8   0.112973823   1.15590  -0.72887   0.22681  -0.75711
  26   32529.3    307.4   0.028984446   0.29334  -0.19783  -0.38195  -0.32911
  27   32910.4    303.9   0.273013498   2.73103   1.57208   0.27759   0.42725
  28   33322.9    300.1   0.181043564   1.78861  -0.77288  -0.98735  -0.46519
  29   33459.3    298.9   0.073683171   0.72498  -0.11093   0.56055  -0.63124
  30   33499.0    298.5   0.042507124   0.41774  -0.57904  -0.10425  -0.26755
  31   33784.4    296.0   0.024605459   0.23977   0.45896  -0.04447   0.16476
  32   34163.9    292.7   0.009758465   0.09404   0.06943  -0.07600  -0.28886
  33   34293.7    291.6   0.017884506   0.17169   0.35850   0.13426   0.15855
  34   34497.1    289.9   0.050428415   0.48125  -0.57040  -0.11021  -0.37914
  35   35000.9    285.7   0.270702505   2.54617  -0.24467   0.99361  -1.22436
  36   35239.1    283.8   0.354125137   3.30832  -1.78315   0.22277  -0.28122
  37   35644.1    280.6   0.044320639   0.40935   0.12065   0.37602  -0.50339
  38   35981.9    277.9   0.021012039   0.19225  -0.04726   0.14922   0.40957
  39   36173.8    276.4   0.054186557   0.49314  -0.39977  -0.29614   0.49561
  40   36365.4    275.0   0.024030247   0.21754   0.23285   0.34353  -0.21286
  41   36605.2    273.2   0.016022151   0.14410  -0.32194  -0.19986  -0.02261
  42   36676.6    272.7   0.068454885   0.61446  -0.50857   0.52256  -0.28765
  43   37369.7    267.6   0.008273446   0.07289   0.02496   0.25811  -0.07510
  44   37591.2    266.0   0.016899319   0.14800  -0.17239  -0.05882  -0.33885
  45   37693.7    265.3   0.036298010   0.31702   0.34446   0.44521  -0.01257
  46   37897.5    263.9   0.016778693   0.14575   0.08424   0.20920  -0.30805
  47   38111.7    262.4   0.007493122   0.06473  -0.18294   0.17622  -0.01432
  48   38446.5    260.1   0.121070113   1.03670  -0.97082  -0.24290  -0.18767
  49   38572.9    259.2   0.050206215   0.42850   0.28598   0.52411  -0.26838
  50   39142.2    255.5   0.053519364   0.45013  -0.08985   0.55082  -0.37237
  51   39317.4    254.3   0.083693784   0.70078  -0.35130   0.60352  -0.46167
  52   39439.4    253.6   0.137218233   1.14540  -0.26547   0.74580  -0.72021
  53   39772.7    251.4   0.065525829   0.54238  -0.13555   0.59899  -0.40647
  54   40110.4    249.3   0.022871636   0.18772   0.10884   0.38297   0.17090
  55   40223.4    248.6   0.017513698   0.14334   0.27245   0.00070   0.26289

FINAL SINGLE POINT ENERGY     -5355.476631774864

DIPOLE MOMENT
-------------
                                X             Y             Z
Electronic contribution:     10.38626       0.20366       3.46722
Nuclear contribution   :    -13.58921      -4.00887      -2.17979
                        -----------------------------------------
Total Dipole Moment    :     -3.20295      -3.80521       1.28743
                        -----------------------------------------
Magnitude (a.u.)       :      5.13770
Magnitude (Debye)      :     13.05900

Rotational constants in cm-1:     0.002176     0.000126     0.000123
Rotational constants in MHz :    65.227934     3.768071     3.674477

                             ****ORCA TERMINATED NORMALLY****
TOTAL RUN TIME: 0 days 0 hours 15 minutes 46 seconds 457 msec
