                         Program Version 4.2.0 -  RELEASE  -
|  1> # ORCA input file
|  2> # SCF done       -205.469494212185          0.000947342240
|  3> ! CAM-B3LYP def2-SVP def2/J RIJCOSX Grid4 TightSCF
|  4> %maxcore 5000
|  5> %tddft
|  6>     Mode sTDDFT
|  7>     Ethresh 5.0
|  8>     maxcore 5000
|  9> end
| 10>
| 11> %pal
| 12>   nprocs 6
| 13>   end
| 14> * xyz 0 1
| 15>    C      -12.20995        -1.82022        11.12810
| 16>    C      -12.50346        -1.55102        12.43957
| 17>    C      -12.94173        -2.52011        13.36700
| 18>    N      -13.29762        -3.25747        14.17164
| 19>    C      -12.43797        -0.28365        13.05603
| 20>    N      -12.42429         0.71137        13.62944
| 21>    C      -12.32994        -3.12575        10.48823
| 22>    C      -12.01599        -2.98967         9.11174
| 23>    C      -12.04433        -4.04752         8.23510
| 24>    C      -12.39562        -5.30299         8.73986
| 25>    C      -12.70368        -5.43159        10.11571
| 26>    C      -12.67767        -4.36048        11.00167
| 27>    S      -13.10470        -7.07050        10.51928
| 28>    C      -12.86291        -7.55958         8.87828
| 29>    C      -12.49842        -6.54871         8.05932
| 30>    C      -11.67272        -1.58888         8.83399
| 31>    O      -11.36293        -1.11895         7.75100
| 32>    C      -11.76590        -0.87841        10.11469
| 33>    C      -11.43795         0.43537        10.32158
| 34>    C      -11.00899         1.41895         9.41565
| 35>    C      -10.68869         2.71519         9.83562
| 36>    C      -10.31025         3.53263         8.78759
| 37>    C      -10.34703         2.86002         7.54523
| 38>    S      -10.82507         1.23284         7.67136
| 39>    C       -9.95827         3.78678         6.53906
| 40>    C       -9.68437         5.02368         7.13776
| 41>    C       -9.88463         4.90870         8.56996
| 42>    C       -9.70001         5.88239         9.50728
| 43>    C       -9.91221         5.65909        10.88412
| 44>    N      -10.07450         5.48201        12.00494
| 45>    C       -9.27265         7.17986         9.15521
| 46>    N       -8.92779         8.23365         8.86267
| 47>    C       -9.30858         6.00432         6.20630
| 48>    C       -9.29267         5.50705         4.93275
| 49>    S       -9.74703         3.83178         4.84536
| 50>    C       -8.99611         6.27700         3.68377
| 51>    C      -10.15908         7.16497         3.35065
| 52>    N      -11.40830         6.75407         3.41036
| 53>    S      -12.39467         7.98214         3.02713
| 54>    N      -11.23277         9.08229         2.77601
| 55>    C      -10.05801         8.52922         2.98443
| 56>    C       -8.76252         9.25548         2.78304
| 57>    C       -7.67878         8.49128         3.47178
| 58>    C       -7.77558         7.12912         3.85170
| 59>    N       -6.66585         6.68318         4.40143
| 60>    S       -5.57231         7.87778         4.44529
| 61>    N       -6.50116         9.00761         3.74958
| 62>    C       -8.50190         9.33111         1.30676
| 63>    C       -8.82795        10.34784         0.45612
| 64>    C       -8.50444        10.03314        -0.87533
| 65>    C       -7.93440         8.76178        -1.00731
| 66>    S       -7.79823         7.95468         0.49168
| 67>    C       -7.65158         8.52430        -2.38126
| 68>    C       -8.05238         9.65649        -3.11177
| 69>    C       -8.60693        10.63838        -2.19154
| 70>    C       -9.14199        11.84909        -2.51870
| 71>    C       -9.66460        12.73149        -1.54962
| 72>    N      -10.08258        13.45349        -0.76356
| 73>    C       -9.20197        12.28710        -3.85888
| 74>    N       -9.24013        12.63166        -4.95183
| 75>    C       -7.85823         9.51349        -4.48042
| 76>    C       -7.31427         8.28082        -4.80616
| 77>    S       -7.01079         7.30379        -3.37553
| 78>    C       -6.96307         7.77591        -6.07974
| 79>    C       -7.40206         8.18170        -7.30079
| 80>    C       -8.50094         9.02152        -7.73482
| 81>    C       -9.71383         9.17284        -7.11422
| 82>    C      -10.79594         9.88953        -7.66767
| 83>    N      -11.70991        10.45147        -8.07412
| 84>    C      -10.06317         8.55032        -5.90055
| 85>    N      -10.40531         8.03926        -4.93072
| 86>    C       -8.19978         9.45417        -9.09415
| 87>    C       -7.09035         8.71065        -9.57534
| 88>    C       -6.60213         7.82087        -8.50879
| 89>    O       -5.71347         7.00221        -8.56207
| 90>    C       -6.59661         8.86886       -10.84823
| 91>    C       -7.21564         9.80975       -11.67677
| 92>    C       -8.30958        10.55967       -11.17903
| 93>    C       -8.81629        10.39498        -9.89521
| 94>    S       -8.90391        11.67106       -12.37033
| 95>    C       -7.71427        11.13093       -13.50329
| 96>    C       -6.90310        10.16509       -13.01908
| 97>    H      -11.80174        -3.90937         7.19285
| 98>    H      -12.91912        -4.51263        12.04019
| 99>    H      -13.01095        -8.59117         8.62414
|100>    H      -12.30522        -6.66494         7.00827
|101>    H      -11.50294         0.80295        11.33869
|102>    H      -10.74431         3.01289        10.86793
|103>    H       -9.05935         7.02129         6.45005
|104>    H       -8.83579         5.56804         2.86024
|105>    H       -8.83171        10.27476         3.17461
|106>    H       -9.27976        11.26701         0.78094
|107>    H       -8.06046        10.27547        -5.21086
|108>    H       -6.19803         7.00566        -6.09956
|109>    H       -5.75787         8.28453       -11.19340
|110>    H       -9.64395        10.99424        -9.55317
|111>    H       -7.69487        11.57812       -14.47814
|112>    H       -6.10662         9.71030       -13.57965
|113> *
|114>
|115>                          ****END OF INPUT****

CARTESIAN COORDINATES (ANGSTROEM)
---------------------------------
  C    -12.209950   -1.820220   11.128100
  C    -12.503460   -1.551020   12.439570
  C    -12.941730   -2.520110   13.367000
  N    -13.297620   -3.257470   14.171640
  C    -12.437970   -0.283650   13.056030
  N    -12.424290    0.711370   13.629440
  C    -12.329940   -3.125750   10.488230
  C    -12.015990   -2.989670    9.111740
  C    -12.044330   -4.047520    8.235100
  C    -12.395620   -5.302990    8.739860
  C    -12.703680   -5.431590   10.115710
  C    -12.677670   -4.360480   11.001670
  S    -13.104700   -7.070500   10.519280
  C    -12.862910   -7.559580    8.878280
  C    -12.498420   -6.548710    8.059320
  C    -11.672720   -1.588880    8.833990
  O    -11.362930   -1.118950    7.751000
  C    -11.765900   -0.878410   10.114690
  C    -11.437950    0.435370   10.321580
  C    -11.008990    1.418950    9.415650
  C    -10.688690    2.715190    9.835620
  C    -10.310250    3.532630    8.787590
  C    -10.347030    2.860020    7.545230
  S    -10.825070    1.232840    7.671360
  C     -9.958270    3.786780    6.539060
  C     -9.684370    5.023680    7.137760
  C     -9.884630    4.908700    8.569960
  C     -9.700010    5.882390    9.507280
  C     -9.912210    5.659090   10.884120
  N    -10.074500    5.482010   12.004940
  C     -9.272650    7.179860    9.155210
  N     -8.927790    8.233650    8.862670
  C     -9.308580    6.004320    6.206300
  C     -9.292670    5.507050    4.932750
  S     -9.747030    3.831780    4.845360
  C     -8.996110    6.277000    3.683770
  C    -10.159080    7.164970    3.350650
  N    -11.408300    6.754070    3.410360
  S    -12.394670    7.982140    3.027130
  N    -11.232770    9.082290    2.776010
  C    -10.058010    8.529220    2.984430
  C     -8.762520    9.255480    2.783040
  C     -7.678780    8.491280    3.471780
  C     -7.775580    7.129120    3.851700
  N     -6.665850    6.683180    4.401430
  S     -5.572310    7.877780    4.445290
  N     -6.501160    9.007610    3.749580
  C     -8.501900    9.331110    1.306760
  C     -8.827950   10.347840    0.456120
  C     -8.504440   10.033140   -0.875330
  C     -7.934400    8.761780   -1.007310
  S     -7.798230    7.954680    0.491680
  C     -7.651580    8.524300   -2.381260
  C     -8.052380    9.656490   -3.111770
  C     -8.606930   10.638380   -2.191540
  C     -9.141990   11.849090   -2.518700
  C     -9.664600   12.731490   -1.549620
  N    -10.082580   13.453490   -0.763560
  C     -9.201970   12.287100   -3.858880
  N     -9.240130   12.631660   -4.951830
  C     -7.858230    9.513490   -4.480420
  C     -7.314270    8.280820   -4.806160
  S     -7.010790    7.303790   -3.375530
  C     -6.963070    7.775910   -6.079740
  C     -7.402060    8.181700   -7.300790
  C     -8.500940    9.021520   -7.734820
  C     -9.713830    9.172840   -7.114220
  C    -10.795940    9.889530   -7.667670
  N    -11.709910   10.451470   -8.074120
  C    -10.063170    8.550320   -5.900550
  N    -10.405310    8.039260   -4.930720
  C     -8.199780    9.454170   -9.094150
  C     -7.090350    8.710650   -9.575340
  C     -6.602130    7.820870   -8.508790
  O     -5.713470    7.002210   -8.562070
  C     -6.596610    8.868860  -10.848230
  C     -7.215640    9.809750  -11.676770
  C     -8.309580   10.559670  -11.179030
  C     -8.816290   10.394980   -9.895210
  S     -8.903910   11.671060  -12.370330
  C     -7.714270   11.130930  -13.503290
  C     -6.903100   10.165090  -13.019080
  H    -11.801740   -3.909370    7.192850
  H    -12.919120   -4.512630   12.040190
  H    -13.010950   -8.591170    8.624140
  H    -12.305220   -6.664940    7.008270
  H    -11.502940    0.802950   11.338690
  H    -10.744310    3.012890   10.867930
  H     -9.059350    7.021290    6.450050
  H     -8.835790    5.568040    2.860240
  H     -8.831710   10.274760    3.174610
  H     -9.279760   11.267010    0.780940
  H     -8.060460   10.275470   -5.210860
  H     -6.198030    7.005660   -6.099560
  H     -5.757870    8.284530  -11.193400
  H     -9.643950   10.994240   -9.553170
  H     -7.694870   11.578120  -14.478140
  H     -6.106620    9.710300  -13.579650

 Total Charge           Charge          ....    0
 Multiplicity           Mult            ....    1
 Number of Electrons    NEL             ....  604
 Basis Dimension        Dim             .... 1260

ORBITAL ENERGIES
----------------

  NO   OCC          E(Eh)            E(eV)
   0   2.0000     -89.029907     -2422.6269
   1   2.0000     -89.025778     -2422.5146
   2   2.0000     -88.999963     -2421.8121
   3   2.0000     -88.998897     -2421.7831
   4   2.0000     -88.995205     -2421.6826
   5   2.0000     -88.990380     -2421.5513
   6   2.0000     -88.969005     -2420.9697
   7   2.0000     -88.967684     -2420.9337
   8   2.0000     -19.225652      -523.1566
   9   2.0000     -19.217359      -522.9309
  10   2.0000     -14.455921      -393.3656
  11   2.0000     -14.455628      -393.3576
  12   2.0000     -14.452813      -393.2810
  13   2.0000     -14.451941      -393.2573
  14   2.0000     -14.435827      -392.8188
  15   2.0000     -14.434193      -392.7744
  16   2.0000     -14.432531      -392.7291
  17   2.0000     -14.430328      -392.6692
  18   2.0000     -14.419642      -392.3784
  19   2.0000     -14.416993      -392.3063
  20   2.0000     -14.415332      -392.2611
  21   2.0000     -14.414515      -392.2389
  22   2.0000     -10.373293      -282.2717
  23   2.0000     -10.370727      -282.2018
  24   2.0000     -10.368591      -282.1437
  25   2.0000     -10.366087      -282.0756
  26   2.0000     -10.357325      -281.8371
  27   2.0000     -10.354565      -281.7620
  28   2.0000     -10.348491      -281.5968
  29   2.0000     -10.347497      -281.5697
  30   2.0000     -10.345796      -281.5234
  31   2.0000     -10.345156      -281.5060
  32   2.0000     -10.345131      -281.5053
  33   2.0000     -10.344957      -281.5006
  34   2.0000     -10.344436      -281.4864
  35   2.0000     -10.342753      -281.4406
  36   2.0000     -10.342127      -281.4236
  37   2.0000     -10.339749      -281.3589
  38   2.0000     -10.337913      -281.3089
  39   2.0000     -10.335974      -281.2562
  40   2.0000     -10.335629      -281.2468
  41   2.0000     -10.335052      -281.2311
  42   2.0000     -10.334052      -281.2038
  43   2.0000     -10.333409      -281.1864
  44   2.0000     -10.333231      -281.1815
  45   2.0000     -10.333077      -281.1773
  46   2.0000     -10.332320      -281.1567
  47   2.0000     -10.330188      -281.0987
  48   2.0000     -10.329894      -281.0907
  49   2.0000     -10.327657      -281.0298
  50   2.0000     -10.326984      -281.0115
  51   2.0000     -10.326374      -280.9949
  52   2.0000     -10.322678      -280.8944
  53   2.0000     -10.322265      -280.8831
  54   2.0000     -10.321290      -280.8566
  55   2.0000     -10.319507      -280.8081
  56   2.0000     -10.317741      -280.7600
  57   2.0000     -10.317573      -280.7554
  58   2.0000     -10.316403      -280.7236
  59   2.0000     -10.315210      -280.6911
  60   2.0000     -10.314232      -280.6645
  61   2.0000     -10.313458      -280.6434
  62   2.0000     -10.312508      -280.6176
  63   2.0000     -10.309922      -280.5472
  64   2.0000     -10.309481      -280.5353
  65   2.0000     -10.308823      -280.5173
  66   2.0000     -10.308268      -280.5022
  67   2.0000     -10.306097      -280.4432
  68   2.0000     -10.304980      -280.4128
  69   2.0000     -10.304963      -280.4123
  70   2.0000     -10.304824      -280.4085
  71   2.0000     -10.304001      -280.3861
  72   2.0000     -10.303269      -280.3662
  73   2.0000     -10.302790      -280.3532
  74   2.0000     -10.302739      -280.3518
  75   2.0000     -10.302216      -280.3375
  76   2.0000     -10.301243      -280.3111
  77   2.0000     -10.299528      -280.2644
  78   2.0000     -10.293178      -280.0916
  79   2.0000     -10.293167      -280.0913
  80   2.0000     -10.291475      -280.0453
  81   2.0000     -10.290292      -280.0131
  82   2.0000      -8.122433      -221.0226
  83   2.0000      -8.118404      -220.9130
  84   2.0000      -8.094489      -220.2622
  85   2.0000      -8.093714      -220.2411
  86   2.0000      -8.089917      -220.1378
  87   2.0000      -8.082683      -219.9410
  88   2.0000      -8.065203      -219.4653
  89   2.0000      -8.064047      -219.4339
  90   2.0000      -6.093943      -165.8246
  91   2.0000      -6.089974      -165.7166
  92   2.0000      -6.086318      -165.6171
  93   2.0000      -6.083897      -165.5513
  94   2.0000      -6.082329      -165.5086
  95   2.0000      -6.079719      -165.4376
  96   2.0000      -6.063713      -165.0020
  97   2.0000      -6.062870      -164.9791
  98   2.0000      -6.059551      -164.8888
  99   2.0000      -6.059010      -164.8741
 100   2.0000      -6.058695      -164.8655
 101   2.0000      -6.056931      -164.8175
 102   2.0000      -6.056204      -164.7977
 103   2.0000      -6.054891      -164.7620
 104   2.0000      -6.052521      -164.6975
 105   2.0000      -6.052118      -164.6865
 106   2.0000      -6.047307      -164.5556
 107   2.0000      -6.045266      -164.5001
 108   2.0000      -6.034689      -164.2122
 109   2.0000      -6.033550      -164.1813
 110   2.0000      -6.030412      -164.0959
 111   2.0000      -6.029242      -164.0640
 112   2.0000      -6.026917      -164.0008
 113   2.0000      -6.025701      -163.9677
 114   2.0000      -1.142617       -31.0922
 115   2.0000      -1.140862       -31.0444
 116   2.0000      -1.136392       -30.9228
 117   2.0000      -1.132742       -30.8235
 118   2.0000      -1.053278       -28.6611
 119   2.0000      -1.048125       -28.5209
 120   2.0000      -1.027391       -27.9567
 121   2.0000      -1.023860       -27.8606
 122   2.0000      -1.023295       -27.8453
 123   2.0000      -1.021703       -27.8020
 124   2.0000      -1.013953       -27.5911
 125   2.0000      -1.012050       -27.5393
 126   2.0000      -1.010359       -27.4933
 127   2.0000      -1.009933       -27.4817
 128   2.0000      -1.009190       -27.4615
 129   2.0000      -1.007412       -27.4131
 130   2.0000      -0.996341       -27.1118
 131   2.0000      -0.994867       -27.0717
 132   2.0000      -0.994323       -27.0569
 133   2.0000      -0.989537       -26.9267
 134   2.0000      -0.987586       -26.8736
 135   2.0000      -0.986868       -26.8541
 136   2.0000      -0.977220       -26.5915
 137   2.0000      -0.963787       -26.2260
 138   2.0000      -0.956353       -26.0237
 139   2.0000      -0.934815       -25.4376
 140   2.0000      -0.933786       -25.4096
 141   2.0000      -0.923399       -25.1270
 142   2.0000      -0.918293       -24.9880
 143   2.0000      -0.904029       -24.5999
 144   2.0000      -0.899682       -24.4816
 145   2.0000      -0.886918       -24.1343
 146   2.0000      -0.883456       -24.0401
 147   2.0000      -0.883134       -24.0313
 148   2.0000      -0.881529       -23.9876
 149   2.0000      -0.879257       -23.9258
 150   2.0000      -0.877169       -23.8690
 151   2.0000      -0.865720       -23.5574
 152   2.0000      -0.863546       -23.4983
 153   2.0000      -0.859006       -23.3747
 154   2.0000      -0.855707       -23.2850
 155   2.0000      -0.825896       -22.4738
 156   2.0000      -0.825206       -22.4550
 157   2.0000      -0.824514       -22.4362
 158   2.0000      -0.807013       -21.9600
 159   2.0000      -0.802310       -21.8320
 160   2.0000      -0.783140       -21.3103
 161   2.0000      -0.780608       -21.2414
 162   2.0000      -0.773466       -21.0471
 163   2.0000      -0.769223       -20.9316
 164   2.0000      -0.760927       -20.7059
 165   2.0000      -0.757281       -20.6067
 166   2.0000      -0.742083       -20.1931
 167   2.0000      -0.725554       -19.7433
 168   2.0000      -0.717589       -19.5266
 169   2.0000      -0.710281       -19.3277
 170   2.0000      -0.708175       -19.2704
 171   2.0000      -0.702627       -19.1195
 172   2.0000      -0.697857       -18.9897
 173   2.0000      -0.693528       -18.8719
 174   2.0000      -0.691219       -18.8090
 175   2.0000      -0.690449       -18.7881
 176   2.0000      -0.685940       -18.6654
 177   2.0000      -0.684913       -18.6374
 178   2.0000      -0.683068       -18.5872
 179   2.0000      -0.670634       -18.2489
 180   2.0000      -0.665603       -18.1120
 181   2.0000      -0.663282       -18.0488
 182   2.0000      -0.661329       -17.9957
 183   2.0000      -0.649368       -17.6702
 184   2.0000      -0.645895       -17.5757
 185   2.0000      -0.641454       -17.4549
 186   2.0000      -0.638249       -17.3676
 187   2.0000      -0.631642       -17.1879
 188   2.0000      -0.625544       -17.0219
 189   2.0000      -0.624990       -17.0068
 190   2.0000      -0.623396       -16.9635
 191   2.0000      -0.621829       -16.9208
 192   2.0000      -0.618420       -16.8281
 193   2.0000      -0.609515       -16.5857
 194   2.0000      -0.606579       -16.5059
 195   2.0000      -0.600031       -16.3277
 196   2.0000      -0.599120       -16.3029
 197   2.0000      -0.594583       -16.1794
 198   2.0000      -0.585916       -15.9436
 199   2.0000      -0.574233       -15.6257
 200   2.0000      -0.566379       -15.4120
 201   2.0000      -0.563094       -15.3226
 202   2.0000      -0.561346       -15.2750
 203   2.0000      -0.558150       -15.1880
 204   2.0000      -0.553565       -15.0633
 205   2.0000      -0.551823       -15.0159
 206   2.0000      -0.548980       -14.9385
 207   2.0000      -0.548598       -14.9281
 208   2.0000      -0.542879       -14.7725
 209   2.0000      -0.542512       -14.7625
 210   2.0000      -0.540860       -14.7176
 211   2.0000      -0.539853       -14.6901
 212   2.0000      -0.535254       -14.5650
 213   2.0000      -0.534520       -14.5450
 214   2.0000      -0.532380       -14.4868
 215   2.0000      -0.528673       -14.3859
 216   2.0000      -0.524116       -14.2619
 217   2.0000      -0.521660       -14.1951
 218   2.0000      -0.517555       -14.0834
 219   2.0000      -0.516486       -14.0543
 220   2.0000      -0.512502       -13.9459
 221   2.0000      -0.510525       -13.8921
 222   2.0000      -0.509590       -13.8666
 223   2.0000      -0.506858       -13.7923
 224   2.0000      -0.504967       -13.7408
 225   2.0000      -0.502617       -13.6769
 226   2.0000      -0.500569       -13.6212
 227   2.0000      -0.498189       -13.5564
 228   2.0000      -0.497426       -13.5357
 229   2.0000      -0.496680       -13.5154
 230   2.0000      -0.494822       -13.4648
 231   2.0000      -0.494326       -13.4513
 232   2.0000      -0.492249       -13.3948
 233   2.0000      -0.489578       -13.3221
 234   2.0000      -0.488842       -13.3021
 235   2.0000      -0.485165       -13.2020
 236   2.0000      -0.479709       -13.0536
 237   2.0000      -0.478570       -13.0226
 238   2.0000      -0.477896       -13.0042
 239   2.0000      -0.473598       -12.8873
 240   2.0000      -0.470102       -12.7921
 241   2.0000      -0.467768       -12.7286
 242   2.0000      -0.465859       -12.6767
 243   2.0000      -0.462881       -12.5956
 244   2.0000      -0.462685       -12.5903
 245   2.0000      -0.459107       -12.4929
 246   2.0000      -0.458871       -12.4865
 247   2.0000      -0.457224       -12.4417
 248   2.0000      -0.455412       -12.3924
 249   2.0000      -0.452058       -12.3011
 250   2.0000      -0.451839       -12.2952
 251   2.0000      -0.450897       -12.2695
 252   2.0000      -0.448749       -12.2111
 253   2.0000      -0.444851       -12.1050
 254   2.0000      -0.444044       -12.0830
 255   2.0000      -0.443445       -12.0668
 256   2.0000      -0.443115       -12.0578
 257   2.0000      -0.441772       -12.0212
 258   2.0000      -0.440571       -11.9886
 259   2.0000      -0.439018       -11.9463
 260   2.0000      -0.437243       -11.8980
 261   2.0000      -0.436801       -11.8860
 262   2.0000      -0.435687       -11.8557
 263   2.0000      -0.432862       -11.7788
 264   2.0000      -0.432532       -11.7698
 265   2.0000      -0.431111       -11.7311
 266   2.0000      -0.428822       -11.6688
 267   2.0000      -0.428309       -11.6549
 268   2.0000      -0.427900       -11.6438
 269   2.0000      -0.426293       -11.6000
 270   2.0000      -0.423524       -11.5247
 271   2.0000      -0.421224       -11.4621
 272   2.0000      -0.417022       -11.3477
 273   2.0000      -0.412261       -11.2182
 274   2.0000      -0.409694       -11.1483
 275   2.0000      -0.407373       -11.0852
 276   2.0000      -0.406690       -11.0666
 277   2.0000      -0.405514       -11.0346
 278   2.0000      -0.405384       -11.0311
 279   2.0000      -0.393599       -10.7104
 280   2.0000      -0.386820       -10.5259
 281   2.0000      -0.384247       -10.4559
 282   2.0000      -0.383181       -10.4269
 283   2.0000      -0.379782       -10.3344
 284   2.0000      -0.373449       -10.1621
 285   2.0000      -0.371190       -10.1006
 286   2.0000      -0.360965        -9.8224
 287   2.0000      -0.354383        -9.6433
 288   2.0000      -0.352923        -9.6035
 289   2.0000      -0.349401        -9.5077
 290   2.0000      -0.343546        -9.3484
 291   2.0000      -0.342251        -9.3131
 292   2.0000      -0.335192        -9.1210
 293   2.0000      -0.334279        -9.0962
 294   2.0000      -0.326357        -8.8806
 295   2.0000      -0.323299        -8.7974
 296   2.0000      -0.316526        -8.6131
 297   2.0000      -0.315302        -8.5798
 298   2.0000      -0.297205        -8.0874
 299   2.0000      -0.297050        -8.0831
 300   2.0000      -0.274549        -7.4709
 301   2.0000      -0.270899        -7.3715
 302   0.0000      -0.112664        -3.0658
 303   0.0000      -0.108670        -2.9570
 304   0.0000      -0.089893        -2.4461
 305   0.0000      -0.087511        -2.3813
 306   0.0000      -0.063060        -1.7160

MULLIKEN ATOMIC CHARGES
-----------------------
   0 C :    0.325436
   1 C :   -0.354256
   2 C :   -0.183337
   3 N :    0.150308
   4 C :   -0.192017
   5 N :    0.151736
   6 C :    0.011593
   7 C :   -0.016375
   8 C :   -0.065875
   9 C :    0.114716
  10 C :   -0.098743
  11 C :   -0.019943
  12 S :    0.144298
  13 C :   -0.048770
  14 C :    0.023998
  15 C :    0.164554
  16 O :   -0.192825
  17 C :   -0.087804
  18 C :   -0.034080
  19 C :   -0.054789
  20 C :   -0.061540
  21 C :    0.045191
  22 C :   -0.068687
  23 S :    0.241563
  24 C :   -0.116247
  25 C :    0.003780
  26 C :    0.304015
  27 C :   -0.294682
  28 C :   -0.195692
  29 N :    0.183091
  30 C :   -0.185851
  31 N :    0.169199
  32 C :   -0.035408
  33 C :   -0.120327
  34 S :    0.222218
  35 C :    0.405857
  36 C :   -0.138389
  37 N :   -0.273914
  38 S :    0.483409
  39 N :   -0.263527
  40 C :   -0.037083
  41 C :    0.234225
  42 C :   -0.110100
  43 C :   -0.161800
  44 N :   -0.261578
  45 S :    0.484944
  46 N :   -0.250692
  47 C :   -0.114714
  48 C :    0.007755
  49 C :   -0.005626
  50 C :   -0.098702
  51 S :    0.174178
  52 C :   -0.072494
  53 C :   -0.005967
  54 C :    0.300967
  55 C :   -0.286452
  56 C :   -0.190766
  57 N :    0.182125
  58 C :   -0.182609
  59 N :    0.170179
  60 C :    0.000882
  61 C :   -0.116505
  62 S :    0.212697
  63 C :    0.077545
  64 C :   -0.129520
  65 C :    0.265431
  66 C :   -0.331964
  67 C :   -0.176516
  68 N :    0.163322
  69 C :   -0.201513
  70 N :    0.166593
  71 C :   -0.004585
  72 C :    0.007841
  73 C :    0.131199
  74 O :   -0.145253
  75 C :   -0.068559
  76 C :    0.108698
  77 C :   -0.089683
  78 C :   -0.019772
  79 S :    0.144497
  80 C :   -0.049902
  81 C :    0.025229
  82 H :   -0.013164
  83 H :   -0.005818
  84 H :    0.039762
  85 H :   -0.006711
  86 H :    0.017638
  87 H :    0.028013
  88 H :    0.005074
  89 H :    0.026794
  90 H :    0.036484
  91 H :    0.012145
  92 H :    0.025339
  93 H :    0.022067
  94 H :   -0.011022
  95 H :    0.002297
  96 H :    0.039395
  97 H :   -0.006125
Sum of atomic charges:    0.0000000

LOEWDIN ATOMIC CHARGES
----------------------
   0 C :    0.077222
   1 C :   -0.141786
   2 C :   -0.018002
   3 N :   -0.053323
   4 C :   -0.023389
   5 N :   -0.048560
   6 C :   -0.021230
   7 C :   -0.054409
   8 C :    0.023535
   9 C :   -0.035705
  10 C :   -0.145492
  11 C :   -0.007653
  12 S :    0.432761
  13 C :   -0.149161
  14 C :   -0.057890
  15 C :    0.086283
  16 O :   -0.177653
  17 C :   -0.112086
  18 C :    0.056827
  19 C :   -0.186338
  20 C :    0.013093
  21 C :   -0.081058
  22 C :   -0.163711
  23 S :    0.548395
  24 C :   -0.190962
  25 C :   -0.054145
  26 C :    0.079860
  27 C :   -0.102672
  28 C :   -0.020646
  29 N :   -0.024826
  30 C :   -0.014796
  31 N :   -0.036275
  32 C :   -0.031968
  33 C :   -0.145024
  34 S :    0.500318
  35 C :   -0.038086
  36 C :   -0.059934
  37 N :   -0.266579
  38 S :    0.612346
  39 N :   -0.263343
  40 C :   -0.057381
  41 C :   -0.030663
  42 C :   -0.070450
  43 C :   -0.063344
  44 N :   -0.260854
  45 S :    0.615399
  46 N :   -0.258999
  47 C :   -0.145520
  48 C :   -0.027847
  49 C :   -0.057903
  50 C :   -0.183072
  51 S :    0.471059
  52 C :   -0.161264
  53 C :   -0.066807
  54 C :    0.081771
  55 C :   -0.095015
  56 C :   -0.018085
  57 N :   -0.025298
  58 C :   -0.012819
  59 N :   -0.031125
  60 C :    0.006967
  61 C :   -0.182577
  62 S :    0.499479
  63 C :    0.040837
  64 C :   -0.088254
  65 C :    0.066567
  66 C :   -0.137531
  67 C :   -0.019872
  68 N :   -0.045659
  69 C :   -0.015643
  70 N :   -0.049370
  71 C :   -0.019548
  72 C :   -0.056278
  73 C :    0.083687
  74 O :   -0.144644
  75 C :    0.024495
  76 C :   -0.035356
  77 C :   -0.144145
  78 C :   -0.007631
  79 S :    0.433086
  80 C :   -0.149015
  81 C :   -0.057683
  82 H :    0.039919
  83 H :    0.041195
  84 H :    0.029764
  85 H :    0.035231
  86 H :    0.053780
  87 H :    0.048003
  88 H :    0.038719
  89 H :    0.055275
  90 H :    0.068092
  91 H :    0.045381
  92 H :    0.042521
  93 H :    0.045764
  94 H :    0.040813
  95 H :    0.042649
  96 H :    0.029780
  97 H :    0.035478

  Mayer bond orders larger than 0.100000
B(  0-C ,  1-C ) :   1.6273 B(  0-C ,  6-C ) :   1.0011 B(  0-C , 17-C ) :   1.0741
B(  1-C ,  2-C ) :   1.1447 B(  1-C ,  4-C ) :   1.1421 B(  2-C ,  3-N ) :   2.9675
B(  4-C ,  5-N ) :   2.9638 B(  6-C ,  7-C ) :   1.2672 B(  6-C , 11-C ) :   1.4172
B(  7-C ,  8-C ) :   1.4224 B(  7-C , 15-C ) :   0.9668 B(  8-C ,  9-C ) :   1.2446
B(  8-C , 82-H ) :   1.0168 B(  9-C , 10-C ) :   1.3016 B(  9-C , 14-C ) :   1.1728
B( 10-C , 11-C ) :   1.3196 B( 10-C , 12-S ) :   1.1020 B( 11-C , 83-H ) :   0.9814
B( 12-S , 13-C ) :   1.1273 B( 13-C , 14-C ) :   1.6285 B( 13-C , 84-H ) :   0.9682
B( 14-C , 85-H ) :   0.9991 B( 15-C , 16-O ) :   2.1090 B( 15-C , 17-C ) :   0.9826
B( 17-C , 18-C ) :   1.4943 B( 18-C , 19-C ) :   1.2650 B( 18-C , 86-H ) :   0.9407
B( 19-C , 20-C ) :   1.3326 B( 19-C , 23-S ) :   1.0687 B( 20-C , 21-C ) :   1.3276
B( 20-C , 87-H ) :   1.0094 B( 21-C , 22-C ) :   1.3680 B( 21-C , 26-C ) :   0.9824
B( 22-C , 23-S ) :   1.1334 B( 22-C , 24-C ) :   1.1905 B( 24-C , 25-C ) :   1.4521
B( 24-C , 34-S ) :   1.1246 B( 25-C , 26-C ) :   1.0068 B( 25-C , 32-C ) :   1.2686
B( 26-C , 27-C ) :   1.7150 B( 27-C , 28-C ) :   1.1329 B( 27-C , 30-C ) :   1.1330
B( 28-C , 29-N ) :   2.9964 B( 30-C , 31-N ) :   2.9905 B( 32-C , 33-C ) :   1.5380
B( 32-C , 88-H ) :   0.9934 B( 33-C , 34-S ) :   1.1382 B( 33-C , 35-C ) :   1.0296
B( 35-C , 36-C ) :   0.9664 B( 35-C , 43-C ) :   0.9626 B( 35-C , 89-H ) :   0.8069
B( 36-C , 37-N ) :   1.6636 B( 36-C , 40-C ) :   1.2475 B( 37-N , 38-S ) :   1.2179
B( 37-N , 39-N ) :   0.1260 B( 38-S , 39-N ) :   1.2233 B( 39-N , 40-C ) :   1.6832
B( 40-C , 41-C ) :   0.9901 B( 41-C , 42-C ) :   0.9762 B( 41-C , 47-C ) :   1.0389
B( 41-C , 90-H ) :   0.8524 B( 42-C , 43-C ) :   1.2229 B( 42-C , 46-N ) :   1.6890
B( 43-C , 44-N ) :   1.6670 B( 44-N , 45-S ) :   1.2249 B( 44-N , 46-N ) :   0.1247
B( 45-S , 46-N ) :   1.2278 B( 47-C , 48-C ) :   1.5686 B( 47-C , 51-S ) :   1.1195
B( 48-C , 49-C ) :   1.2359 B( 48-C , 91-H ) :   1.0079 B( 49-C , 50-C ) :   1.4736
B( 49-C , 54-C ) :   1.0030 B( 50-C , 51-S ) :   1.1149 B( 50-C , 52-C ) :   1.1798
B( 52-C , 53-C ) :   1.4292 B( 52-C , 62-S ) :   1.1557 B( 53-C , 54-C ) :   0.9960
B( 53-C , 60-C ) :   1.3484 B( 54-C , 55-C ) :   1.7192 B( 55-C , 56-C ) :   1.1309
B( 55-C , 58-C ) :   1.1342 B( 56-C , 57-N ) :   2.9981 B( 58-C , 59-N ) :   2.9816
B( 60-C , 61-C ) :   1.4115 B( 60-C , 92-H ) :   0.9814 B( 61-C , 62-S ) :   1.0921
B( 61-C , 63-C ) :   1.1188 B( 63-C , 64-C ) :   1.6887 B( 63-C , 93-H ) :   0.9308
B( 64-C , 65-C ) :   1.0307 B( 64-C , 73-C ) :   0.9387 B( 65-C , 66-C ) :   1.6514
B( 65-C , 71-C ) :   1.0135 B( 66-C , 67-C ) :   1.1261 B( 66-C , 69-C ) :   1.1734
B( 67-C , 68-N ) :   2.9967 B( 69-C , 70-N ) :   2.9989 B( 71-C , 72-C ) :   1.2680
B( 71-C , 78-C ) :   1.4158 B( 72-C , 73-C ) :   0.9258 B( 72-C , 75-C ) :   1.4205
B( 73-C , 74-O ) :   2.2649 B( 75-C , 76-C ) :   1.2521 B( 75-C , 94-H ) :   1.0180
B( 76-C , 77-C ) :   1.3014 B( 76-C , 81-C ) :   1.1715 B( 77-C , 78-C ) :   1.3179
B( 77-C , 79-S ) :   1.0993 B( 78-C , 95-H ) :   0.9877 B( 79-S , 80-C ) :   1.1283
B( 80-C , 81-C ) :   1.6283 B( 80-C , 96-H ) :   0.9683 B( 81-C , 97-H ) :   1.0003

-----------------------------------------------------------------------------
         ABSORPTION SPECTRUM VIA TRANSITION ELECTRIC DIPOLE MOMENTS
-----------------------------------------------------------------------------
State   Energy  Wavelength   fosc         T2         TX        TY        TZ
        (cm-1)    (nm)                  (au**2)     (au)      (au)      (au)
-----------------------------------------------------------------------------
   0   15393.3    649.6   0.113489214   2.42716   0.10768  -0.02473  -1.55401
   1   16190.0    617.7   0.144758924   2.94357   0.48588   1.34769  -0.94405
   2   21674.3    461.4   0.583681618   8.86558  -0.31069   0.14610  -2.95765
   3   22918.1    436.3   1.108146696  15.91824   1.27127   3.35754  -1.74042
   4   25798.2    387.6   0.006978161   0.08905   0.20606   0.06874  -0.20461
   5   25864.5    386.6   0.034522845   0.43942  -0.36749  -0.22640   0.50310
   6   26854.4    372.4   0.010678490   0.13091   0.09687  -0.07294  -0.34089
   7   27220.1    367.4   0.000691124   0.00836  -0.00598  -0.05558   0.07234
   8   27917.3    358.2   0.290875125   3.43012   0.25573   1.81840   0.24110
   9   28051.2    356.5   0.045464297   0.53357  -0.13003   0.40527  -0.59365
  10   28866.1    346.4   0.031836188   0.36309  -0.04161  -0.29742  -0.52240
  11   29273.7    341.6   0.002742804   0.03085   0.14186   0.08854  -0.05367
  12   29415.4    340.0   0.099687120   1.11568  -0.26771  -1.02175  -0.00629
  13   29682.4    336.9   0.045419650   0.50376   0.35731  -0.22417  -0.57082
  14   30339.0    329.6   0.267600132   2.90376  -0.71154   1.38479   0.69270
  15   30645.8    326.3   0.653029153   7.01516   0.71642   0.45854  -2.50832
  16   30901.0    323.6   0.481499706   5.12978   0.38737   1.90147   1.16797
  17   31318.2    319.3   0.220938854   2.32247   0.39678  -0.83983   1.20819
  18   31422.2    318.2   0.172726415   1.80966  -0.55071   1.09919  -0.54603
  19   32264.7    309.9   0.292250830   2.98198   0.02627   0.60157  -1.61846
  20   32351.4    309.1   0.003932102   0.04001   0.09760   0.15173  -0.08640
  21   32464.4    308.0   0.272390167   2.76223   0.18062  -0.83851  -1.42356
  22   32877.2    304.2   0.006853632   0.06863   0.20479  -0.16323   0.00666
  23   33054.9    302.5   0.262490074   2.61429  -0.09514  -1.40494  -0.79459
  24   33150.8    301.7   0.064911933   0.64462  -0.01331   0.45015   0.66469
  25   33212.2    301.1   0.014239860   0.14115  -0.20216  -0.30916  -0.06859
  26   33565.6    297.9   0.131434832   1.28912  -0.64935  -0.28530   0.88660
  27   33683.7    296.9   0.246917850   2.41329  -0.43292  -1.46375   0.28860
  28   33787.4    296.0   0.023149870   0.22556  -0.16748  -0.27598   0.34835
  29   33914.2    294.9   0.146626127   1.42333  -0.26292   0.58520   1.00586
  30   34419.3    290.5   0.390214521   3.73230   0.91947  -0.04256  -1.69855
  31   34561.1    289.3   0.047691986   0.45429   0.11764  -0.56768   0.34379
  32   34584.4    289.1   0.100279785   0.95457  -0.34772   0.83992  -0.35804
  33   34828.9    287.1   0.357050463   3.37493   0.19029   1.50743   1.03266
  34   35471.7    281.9   0.000059859   0.00056  -0.00893  -0.00216   0.02171
  35   35775.8    279.5   0.086544878   0.79639  -0.01745  -0.58368  -0.67484
  36   36058.4    277.3   0.041259635   0.37670   0.24838  -0.07026  -0.55684
  37   36460.5    274.3   0.014609054   0.13191  -0.03775   0.24325  -0.26704
  38   36739.5    272.2   0.009389801   0.08414  -0.05136   0.22988  -0.16928
  39   37087.7    269.6   0.017905227   0.15894  -0.04349   0.32024  -0.23344
  40   37400.6    267.4   0.229240976   2.01785   0.37436   0.74114  -1.15257
  41   37759.8    264.8   0.002720499   0.02372  -0.05946   0.05860  -0.12942
  42   38035.8    262.9   0.005091713   0.04407   0.03426  -0.16993  -0.11840
  43   38258.6    261.4   0.020789522   0.17889  -0.10235   0.35848  -0.19978
  44   38395.2    260.4   0.003326581   0.02852  -0.08661   0.03824   0.13986
  45   38781.1    257.9   0.031579606   0.26808  -0.25858   0.13211   0.42868
  46   38914.9    257.0   0.002085948   0.01765  -0.10710   0.05310   0.05794
  47   39012.6    256.3   0.134240237   1.13280  -0.78668   0.67247   0.24843
  48   39164.7    255.3   0.023504094   0.19757  -0.06983  -0.07326   0.43281
  49   39510.1    253.1   0.001031842   0.00860  -0.00814  -0.04107   0.08273
  50   39718.7    251.8   0.004180065   0.03465  -0.04721  -0.01085   0.17972
  51   39953.5    250.3   0.057675424   0.47524  -0.18630  -0.53366   0.39463
  52   39988.9    250.1   0.066569999   0.54804   0.18924   0.19465  -0.68873
  53   40092.4    249.4   0.000812301   0.00667   0.04106  -0.00088   0.07059
  54   40144.4    249.1   0.094215686   0.77263   0.77023  -0.35793   0.22641
  55   40208.3    248.7   0.016066455   0.13155   0.28108  -0.15068   0.17274

FINAL SINGLE POINT ENERGY     -6283.914223951817

DIPOLE MOMENT
-------------
                                X             Y             Z
Electronic contribution:     -0.07070      11.34226      16.58394
Nuclear contribution   :      2.35964     -13.76146     -20.64497
                        -----------------------------------------
Total Dipole Moment    :      2.28894      -2.41920      -4.06102
                        -----------------------------------------
Magnitude (a.u.)       :      5.25202
Magnitude (Debye)      :     13.34957

Rotational constants in cm-1:     0.001192     0.000172     0.000157
Rotational constants in MHz :    35.731583     5.169104     4.712249

                             ****ORCA TERMINATED NORMALLY****
TOTAL RUN TIME: 0 days 0 hours 11 minutes 41 seconds 782 msec
