                         Program Version 4.2.0 -  RELEASE  -
|  1> # ORCA input file
|  2> # SCF done       -216.689975545301          0.000780966275
|  3> ! CAM-B3LYP def2-SVP def2/J RIJCOSX Grid4 TightSCF
|  4> %maxcore 5000
|  5> %tddft
|  6>     Mode sTDDFT
|  7>     Ethresh 5.0
|  8>     maxcore 5000
|  9> end
| 10>
| 11> %pal
| 12>   nprocs 6
| 13>   end
| 14> * xyz 0 1
| 15>    C       -8.64563         3.19003        -0.28234
| 16>    C       -8.29833         3.80151         0.91315
| 17>    C       -7.41624         3.19774         1.79853
| 18>    C       -6.84496         1.96797         1.50817
| 19>    C       -7.17980         1.35127         0.31410
| 20>    C       -8.08975         1.95605        -0.58261
| 21>    C       -8.28177         1.07444        -1.72635
| 22>    C       -8.99180         1.37112        -2.85801
| 23>    C       -9.64356         2.60387        -3.08106
| 24>    N      -10.19529         3.57886        -3.32922
| 25>    C       -9.14955         0.52362        -3.97552
| 26>    N       -9.31777        -0.11010        -4.91808
| 27>    C       -7.58335        -0.17163        -1.41833
| 28>    C       -6.72851         0.09625        -0.26488
| 29>    C       -5.55866        -0.53991         0.05094
| 30>    C       -5.00474        -1.60800        -0.68400
| 31>    N       -4.48726        -2.45361        -1.26292
| 32>    C       -4.70475        -0.14035         1.10211
| 33>    N       -3.96794         0.13607         1.93657
| 34>    C       -7.80774        -1.35686        -2.06180
| 35>    C       -7.51260        -2.65683        -1.59626
| 36>    C       -7.32602        -3.09931        -0.29073
| 37>    C       -7.10190        -4.46452        -0.22930
| 38>    C       -7.12315        -5.08602        -1.50007
| 39>    S       -7.44135        -3.98054        -2.75328
| 40>    C       -6.87234        -6.46538        -1.33120
| 41>    C       -6.69160        -6.71860         0.04854
| 42>    C       -6.81953        -5.46978         0.78024
| 43>    C       -6.67724        -5.26570         2.12143
| 44>    C       -6.39882        -6.31759         3.01968
| 45>    N       -6.18088        -7.17238         3.75167
| 46>    C       -6.80323        -3.97641         2.68084
| 47>    N       -6.91162        -2.91969         3.11281
| 48>    C       -6.44494        -8.05396         0.32257
| 49>    C       -6.43483        -8.82803        -0.83456
| 50>    S       -6.72749        -7.87875        -2.28293
| 51>    C       -6.23320       -10.22827        -0.91534
| 52>    C       -6.23671       -10.89345        -2.16323
| 53>    C       -6.05478       -12.31577        -2.27895
| 54>    N       -6.07137       -12.88691        -3.48776
| 55>    C       -6.25087       -12.15215        -4.55888
| 56>    C       -6.43181       -10.73598        -4.44368
| 57>    N       -6.42045       -10.15985        -3.26583
| 58>    C       -6.62930        -9.94057        -5.60002
| 59>    N       -6.78853        -9.32148        -6.54983
| 60>    C       -6.26925       -12.77765        -5.83058
| 61>    N       -6.29187       -13.25834        -6.86945
| 62>    C       -5.86701       -13.14952        -1.15233
| 63>    C       -5.85074       -12.48681         0.09813
| 64>    C       -6.02719       -11.05613         0.21398
| 65>    N       -5.97497       -10.66169         1.48683
| 66>    S       -5.72961       -11.93014         2.43352
| 67>    N       -5.67934       -13.05354         1.29307
| 68>    C       -5.71887       -14.55118        -1.29858
| 69>    C       -5.57454       -15.48406        -0.27528
| 70>    C       -5.47219       -16.77600        -0.76473
| 71>    C       -5.52862       -16.83431        -2.17675
| 72>    S       -5.72016       -15.29220        -2.89081
| 73>    C       -5.41453       -18.18581        -2.56995
| 74>    C       -5.29626       -18.98519        -1.40873
| 75>    C       -5.31759       -18.12243        -0.24065
| 76>    C       -5.18830       -18.50561         1.06208
| 77>    C       -5.01972       -19.86280         1.40956
| 78>    N       -4.88722       -20.97240         1.66698
| 79>    C       -5.21679       -17.58075         2.12724
| 80>    N       -5.24903       -16.83151         2.99420
| 81>    C       -5.16405       -20.33451        -1.69096
| 82>    C       -5.16171       -20.58677        -3.05882
| 83>    S       -5.37306       -19.11174        -3.99633
| 84>    C       -5.08296       -21.81809        -3.74461
| 85>    C       -4.62832       -23.01735        -3.27185
| 86>    C       -4.96288       -24.30813        -3.87111
| 87>    C       -5.42729       -24.54047        -5.13692
| 88>    C       -5.63015       -23.55768        -6.12960
| 89>    N       -5.81663       -22.81292        -6.98326
| 90>    C       -5.72596       -25.82403        -5.64432
| 91>    N       -5.98564       -26.83498        -6.12083
| 92>    C       -4.70115       -25.32030        -2.85678
| 93>    C       -4.06353       -24.70788        -1.75399
| 94>    C       -3.72961       -25.44401        -0.62947
| 95>    C       -4.02809       -26.79826        -0.61523
| 96>    C       -4.64085       -27.40563        -1.70252
| 97>    C       -4.98455       -26.67698        -2.83155
| 98>    C       -3.85822       -23.30186        -2.06392
| 99>    C       -2.90803       -22.50069        -1.49152
|100>    C       -2.09678       -22.89651        -0.40558
|101>    N       -1.40702       -23.16106         0.47149
|102>    C       -2.54961       -21.22360        -1.96919
|103>    N       -2.19663       -20.19444        -2.33545
|104>    H       -9.33929         3.67074        -0.95210
|105>    H       -8.72817         4.76050         1.15853
|106>    H       -7.17135         3.68883         2.72764
|107>    H       -6.17051         1.50146         2.20760
|108>    H       -8.32654        -1.32245        -3.01043
|109>    H       -7.39596        -2.45218         0.56483
|110>    H       -6.27899        -8.48111         1.29454
|111>    H       -5.55249       -15.19508         0.75946
|112>    H       -5.11481       -21.11059        -0.94896
|113>    H       -5.49524       -21.80195        -4.74479
|114>    H       -3.26479       -24.97895         0.22463
|115>    H       -3.78155       -27.38527         0.25601
|116>    H       -4.86095       -28.46164        -1.67002
|117>    H       -5.46846       -27.16437        -3.66175
|118> *
|119>
|120>                          ****END OF INPUT****

CARTESIAN COORDINATES (ANGSTROEM)
---------------------------------
  C     -8.645630    3.190030   -0.282340
  C     -8.298330    3.801510    0.913150
  C     -7.416240    3.197740    1.798530
  C     -6.844960    1.967970    1.508170
  C     -7.179800    1.351270    0.314100
  C     -8.089750    1.956050   -0.582610
  C     -8.281770    1.074440   -1.726350
  C     -8.991800    1.371120   -2.858010
  C     -9.643560    2.603870   -3.081060
  N    -10.195290    3.578860   -3.329220
  C     -9.149550    0.523620   -3.975520
  N     -9.317770   -0.110100   -4.918080
  C     -7.583350   -0.171630   -1.418330
  C     -6.728510    0.096250   -0.264880
  C     -5.558660   -0.539910    0.050940
  C     -5.004740   -1.608000   -0.684000
  N     -4.487260   -2.453610   -1.262920
  C     -4.704750   -0.140350    1.102110
  N     -3.967940    0.136070    1.936570
  C     -7.807740   -1.356860   -2.061800
  C     -7.512600   -2.656830   -1.596260
  C     -7.326020   -3.099310   -0.290730
  C     -7.101900   -4.464520   -0.229300
  C     -7.123150   -5.086020   -1.500070
  S     -7.441350   -3.980540   -2.753280
  C     -6.872340   -6.465380   -1.331200
  C     -6.691600   -6.718600    0.048540
  C     -6.819530   -5.469780    0.780240
  C     -6.677240   -5.265700    2.121430
  C     -6.398820   -6.317590    3.019680
  N     -6.180880   -7.172380    3.751670
  C     -6.803230   -3.976410    2.680840
  N     -6.911620   -2.919690    3.112810
  C     -6.444940   -8.053960    0.322570
  C     -6.434830   -8.828030   -0.834560
  S     -6.727490   -7.878750   -2.282930
  C     -6.233200  -10.228270   -0.915340
  C     -6.236710  -10.893450   -2.163230
  C     -6.054780  -12.315770   -2.278950
  N     -6.071370  -12.886910   -3.487760
  C     -6.250870  -12.152150   -4.558880
  C     -6.431810  -10.735980   -4.443680
  N     -6.420450  -10.159850   -3.265830
  C     -6.629300   -9.940570   -5.600020
  N     -6.788530   -9.321480   -6.549830
  C     -6.269250  -12.777650   -5.830580
  N     -6.291870  -13.258340   -6.869450
  C     -5.867010  -13.149520   -1.152330
  C     -5.850740  -12.486810    0.098130
  C     -6.027190  -11.056130    0.213980
  N     -5.974970  -10.661690    1.486830
  S     -5.729610  -11.930140    2.433520
  N     -5.679340  -13.053540    1.293070
  C     -5.718870  -14.551180   -1.298580
  C     -5.574540  -15.484060   -0.275280
  C     -5.472190  -16.776000   -0.764730
  C     -5.528620  -16.834310   -2.176750
  S     -5.720160  -15.292200   -2.890810
  C     -5.414530  -18.185810   -2.569950
  C     -5.296260  -18.985190   -1.408730
  C     -5.317590  -18.122430   -0.240650
  C     -5.188300  -18.505610    1.062080
  C     -5.019720  -19.862800    1.409560
  N     -4.887220  -20.972400    1.666980
  C     -5.216790  -17.580750    2.127240
  N     -5.249030  -16.831510    2.994200
  C     -5.164050  -20.334510   -1.690960
  C     -5.161710  -20.586770   -3.058820
  S     -5.373060  -19.111740   -3.996330
  C     -5.082960  -21.818090   -3.744610
  C     -4.628320  -23.017350   -3.271850
  C     -4.962880  -24.308130   -3.871110
  C     -5.427290  -24.540470   -5.136920
  C     -5.630150  -23.557680   -6.129600
  N     -5.816630  -22.812920   -6.983260
  C     -5.725960  -25.824030   -5.644320
  N     -5.985640  -26.834980   -6.120830
  C     -4.701150  -25.320300   -2.856780
  C     -4.063530  -24.707880   -1.753990
  C     -3.729610  -25.444010   -0.629470
  C     -4.028090  -26.798260   -0.615230
  C     -4.640850  -27.405630   -1.702520
  C     -4.984550  -26.676980   -2.831550
  C     -3.858220  -23.301860   -2.063920
  C     -2.908030  -22.500690   -1.491520
  C     -2.096780  -22.896510   -0.405580
  N     -1.407020  -23.161060    0.471490
  C     -2.549610  -21.223600   -1.969190
  N     -2.196630  -20.194440   -2.335450
  H     -9.339290    3.670740   -0.952100
  H     -8.728170    4.760500    1.158530
  H     -7.171350    3.688830    2.727640
  H     -6.170510    1.501460    2.207600
  H     -8.326540   -1.322450   -3.010430
  H     -7.395960   -2.452180    0.564830
  H     -6.278990   -8.481110    1.294540
  H     -5.552490  -15.195080    0.759460
  H     -5.114810  -21.110590   -0.948960
  H     -5.495240  -21.801950   -4.744790
  H     -3.264790  -24.978950    0.224630
  H     -3.781550  -27.385270    0.256010
  H     -4.860950  -28.461640   -1.670020
  H     -5.468460  -27.164370   -3.661750

 Total Charge           Charge          ....    0
 Multiplicity           Mult            ....    1
 Number of Electrons    NEL             ....  616
 Basis Dimension        Dim             .... 1336

ORBITAL ENERGIES
----------------

  NO   OCC          E(Eh)            E(eV)
   0   2.0000     -89.068918     -2423.6885
   1   2.0000     -89.008863     -2422.0543
   2   2.0000     -89.008724     -2422.0505
   3   2.0000     -89.002502     -2421.8812
   4   2.0000     -89.002343     -2421.8769
   5   2.0000     -14.493141      -394.3784
   6   2.0000     -14.492997      -394.3745
   7   2.0000     -14.476472      -393.9248
   8   2.0000     -14.476393      -393.9227
   9   2.0000     -14.452124      -393.2623
  10   2.0000     -14.452017      -393.2594
  11   2.0000     -14.444030      -393.0421
  12   2.0000     -14.443909      -393.0387
  13   2.0000     -14.441906      -392.9842
  14   2.0000     -14.441791      -392.9811
  15   2.0000     -14.431185      -392.6925
  16   2.0000     -14.431183      -392.6925
  17   2.0000     -14.431009      -392.6877
  18   2.0000     -14.430852      -392.6835
  19   2.0000     -14.426421      -392.5629
  20   2.0000     -14.426357      -392.5611
  21   2.0000     -14.426238      -392.5579
  22   2.0000     -14.426065      -392.5532
  23   2.0000     -10.410789      -283.2920
  24   2.0000     -10.410556      -283.2856
  25   2.0000     -10.378403      -282.4107
  26   2.0000     -10.378276      -282.4072
  27   2.0000     -10.374465      -282.3035
  28   2.0000     -10.374213      -282.2967
  29   2.0000     -10.369316      -282.1634
  30   2.0000     -10.369074      -282.1569
  31   2.0000     -10.365666      -282.0641
  32   2.0000     -10.365623      -282.0630
  33   2.0000     -10.360476      -281.9229
  34   2.0000     -10.360330      -281.9189
  35   2.0000     -10.358663      -281.8735
  36   2.0000     -10.358462      -281.8681
  37   2.0000     -10.357009      -281.8285
  38   2.0000     -10.356934      -281.8265
  39   2.0000     -10.356432      -281.8129
  40   2.0000     -10.356360      -281.8109
  41   2.0000     -10.355280      -281.7815
  42   2.0000     -10.355162      -281.7783
  43   2.0000     -10.346944      -281.5547
  44   2.0000     -10.346784      -281.5503
  45   2.0000     -10.344896      -281.4989
  46   2.0000     -10.344792      -281.4961
  47   2.0000     -10.344308      -281.4829
  48   2.0000     -10.344219      -281.4805
  49   2.0000     -10.344175      -281.4793
  50   2.0000     -10.344134      -281.4782
  51   2.0000     -10.343669      -281.4655
  52   2.0000     -10.343534      -281.4619
  53   2.0000     -10.342895      -281.4445
  54   2.0000     -10.342847      -281.4432
  55   2.0000     -10.341893      -281.4172
  56   2.0000     -10.341778      -281.4141
  57   2.0000     -10.341691      -281.4117
  58   2.0000     -10.341469      -281.4057
  59   2.0000     -10.332984      -281.1748
  60   2.0000     -10.332740      -281.1681
  61   2.0000     -10.332304      -281.1563
  62   2.0000     -10.332209      -281.1537
  63   2.0000     -10.331460      -281.1333
  64   2.0000     -10.331376      -281.1310
  65   2.0000     -10.328824      -281.0616
  66   2.0000     -10.328619      -281.0560
  67   2.0000     -10.328149      -281.0432
  68   2.0000     -10.327785      -281.0333
  69   2.0000     -10.325776      -280.9786
  70   2.0000     -10.325676      -280.9759
  71   2.0000     -10.322513      -280.8899
  72   2.0000     -10.322378      -280.8862
  73   2.0000     -10.319912      -280.8191
  74   2.0000     -10.319844      -280.8172
  75   2.0000     -10.319481      -280.8074
  76   2.0000     -10.319385      -280.8047
  77   2.0000     -10.318972      -280.7935
  78   2.0000     -10.318905      -280.7917
  79   2.0000     -10.315240      -280.6919
  80   2.0000     -10.315170      -280.6900
  81   2.0000     -10.307109      -280.4707
  82   2.0000     -10.307030      -280.4685
  83   2.0000     -10.306835      -280.4632
  84   2.0000     -10.306716      -280.4600
  85   2.0000     -10.305653      -280.4311
  86   2.0000     -10.305561      -280.4286
  87   2.0000     -10.304996      -280.4132
  88   2.0000     -10.304967      -280.4124
  89   2.0000      -8.159723      -222.0373
  90   2.0000      -8.103385      -220.5043
  91   2.0000      -8.103264      -220.5010
  92   2.0000      -8.095021      -220.2767
  93   2.0000      -8.094936      -220.2744
  94   2.0000      -6.130774      -166.8268
  95   2.0000      -6.122818      -166.6104
  96   2.0000      -6.122762      -166.6088
  97   2.0000      -6.072496      -165.2410
  98   2.0000      -6.072384      -165.2380
  99   2.0000      -6.068321      -165.1274
 100   2.0000      -6.068190      -165.1238
 101   2.0000      -6.065972      -165.0635
 102   2.0000      -6.065841      -165.0599
 103   2.0000      -6.064558      -165.0250
 104   2.0000      -6.064497      -165.0234
 105   2.0000      -6.059762      -164.8945
 106   2.0000      -6.059663      -164.8918
 107   2.0000      -6.057476      -164.8323
 108   2.0000      -6.057365      -164.8293
 109   2.0000      -1.166537       -31.7431
 110   2.0000      -1.152145       -31.3515
 111   2.0000      -1.081054       -29.4170
 112   2.0000      -1.061387       -28.8818
 113   2.0000      -1.060857       -28.8674
 114   2.0000      -1.044873       -28.4324
 115   2.0000      -1.044816       -28.4309
 116   2.0000      -1.038145       -28.2494
 117   2.0000      -1.034939       -28.1621
 118   2.0000      -1.034616       -28.1533
 119   2.0000      -1.028158       -27.9776
 120   2.0000      -1.026470       -27.9317
 121   2.0000      -1.026187       -27.9240
 122   2.0000      -1.022706       -27.8293
 123   2.0000      -1.020843       -27.7785
 124   2.0000      -1.020204       -27.7612
 125   2.0000      -1.018707       -27.7204
 126   2.0000      -1.015819       -27.6418
 127   2.0000      -1.015701       -27.6386
 128   2.0000      -1.010846       -27.5065
 129   2.0000      -1.006813       -27.3968
 130   2.0000      -1.006614       -27.3914
 131   2.0000      -1.006337       -27.3838
 132   2.0000      -1.005171       -27.3521
 133   2.0000      -0.998920       -27.1820
 134   2.0000      -0.976713       -26.5777
 135   2.0000      -0.972241       -26.4560
 136   2.0000      -0.965130       -26.2625
 137   2.0000      -0.964879       -26.2557
 138   2.0000      -0.948671       -25.8147
 139   2.0000      -0.948614       -25.8131
 140   2.0000      -0.939264       -25.5587
 141   2.0000      -0.935886       -25.4668
 142   2.0000      -0.931064       -25.3355
 143   2.0000      -0.916449       -24.9379
 144   2.0000      -0.904909       -24.6238
 145   2.0000      -0.902546       -24.5595
 146   2.0000      -0.897560       -24.4238
 147   2.0000      -0.895064       -24.3559
 148   2.0000      -0.883423       -24.0392
 149   2.0000      -0.877844       -23.8874
 150   2.0000      -0.872915       -23.7532
 151   2.0000      -0.872771       -23.7493
 152   2.0000      -0.872014       -23.7287
 153   2.0000      -0.871329       -23.7101
 154   2.0000      -0.861252       -23.4359
 155   2.0000      -0.836772       -22.7697
 156   2.0000      -0.836692       -22.7676
 157   2.0000      -0.821010       -22.3408
 158   2.0000      -0.812522       -22.1098
 159   2.0000      -0.799757       -21.7625
 160   2.0000      -0.799454       -21.7542
 161   2.0000      -0.793488       -21.5919
 162   2.0000      -0.790997       -21.5241
 163   2.0000      -0.778350       -21.1800
 164   2.0000      -0.766574       -20.8595
 165   2.0000      -0.753376       -20.5004
 166   2.0000      -0.736442       -20.0396
 167   2.0000      -0.732092       -19.9212
 168   2.0000      -0.731452       -19.9038
 169   2.0000      -0.724203       -19.7066
 170   2.0000      -0.723760       -19.6945
 171   2.0000      -0.721675       -19.6378
 172   2.0000      -0.721593       -19.6355
 173   2.0000      -0.716079       -19.4855
 174   2.0000      -0.715099       -19.4588
 175   2.0000      -0.706355       -19.2209
 176   2.0000      -0.696278       -18.9467
 177   2.0000      -0.695668       -18.9301
 178   2.0000      -0.691091       -18.8055
 179   2.0000      -0.681210       -18.5367
 180   2.0000      -0.676494       -18.4083
 181   2.0000      -0.674449       -18.3527
 182   2.0000      -0.673866       -18.3368
 183   2.0000      -0.672978       -18.3127
 184   2.0000      -0.664592       -18.0845
 185   2.0000      -0.661021       -17.9873
 186   2.0000      -0.653935       -17.7945
 187   2.0000      -0.651569       -17.7301
 188   2.0000      -0.648223       -17.6391
 189   2.0000      -0.646549       -17.5935
 190   2.0000      -0.635152       -17.2834
 191   2.0000      -0.633195       -17.2301
 192   2.0000      -0.629823       -17.1384
 193   2.0000      -0.623833       -16.9754
 194   2.0000      -0.613063       -16.6823
 195   2.0000      -0.608638       -16.5619
 196   2.0000      -0.603423       -16.4200
 197   2.0000      -0.594895       -16.1879
 198   2.0000      -0.593968       -16.1627
 199   2.0000      -0.593032       -16.1372
 200   2.0000      -0.592698       -16.1281
 201   2.0000      -0.585524       -15.9329
 202   2.0000      -0.582141       -15.8409
 203   2.0000      -0.571921       -15.5628
 204   2.0000      -0.567052       -15.4303
 205   2.0000      -0.563754       -15.3405
 206   2.0000      -0.562800       -15.3146
 207   2.0000      -0.561144       -15.2695
 208   2.0000      -0.555965       -15.1286
 209   2.0000      -0.554226       -15.0812
 210   2.0000      -0.549820       -14.9614
 211   2.0000      -0.548133       -14.9155
 212   2.0000      -0.545430       -14.8419
 213   2.0000      -0.544719       -14.8226
 214   2.0000      -0.540251       -14.7010
 215   2.0000      -0.539907       -14.6916
 216   2.0000      -0.528599       -14.3839
 217   2.0000      -0.526947       -14.3390
 218   2.0000      -0.526290       -14.3211
 219   2.0000      -0.521694       -14.1960
 220   2.0000      -0.521434       -14.1889
 221   2.0000      -0.519709       -14.1420
 222   2.0000      -0.518522       -14.1097
 223   2.0000      -0.517697       -14.0873
 224   2.0000      -0.517020       -14.0688
 225   2.0000      -0.514853       -14.0099
 226   2.0000      -0.510100       -13.8805
 227   2.0000      -0.508528       -13.8377
 228   2.0000      -0.507747       -13.8165
 229   2.0000      -0.505140       -13.7456
 230   2.0000      -0.504670       -13.7328
 231   2.0000      -0.500314       -13.6142
 232   2.0000      -0.496425       -13.5084
 233   2.0000      -0.493648       -13.4328
 234   2.0000      -0.491925       -13.3860
 235   2.0000      -0.488940       -13.3047
 236   2.0000      -0.487205       -13.2575
 237   2.0000      -0.485645       -13.2151
 238   2.0000      -0.479809       -13.0563
 239   2.0000      -0.475267       -12.9327
 240   2.0000      -0.474174       -12.9029
 241   2.0000      -0.474074       -12.9002
 242   2.0000      -0.473721       -12.8906
 243   2.0000      -0.472788       -12.8652
 244   2.0000      -0.471762       -12.8373
 245   2.0000      -0.471178       -12.8214
 246   2.0000      -0.470804       -12.8112
 247   2.0000      -0.468019       -12.7355
 248   2.0000      -0.465680       -12.6718
 249   2.0000      -0.465496       -12.6668
 250   2.0000      -0.465391       -12.6639
 251   2.0000      -0.462959       -12.5978
 252   2.0000      -0.462587       -12.5876
 253   2.0000      -0.462227       -12.5778
 254   2.0000      -0.461424       -12.5560
 255   2.0000      -0.460906       -12.5419
 256   2.0000      -0.460637       -12.5346
 257   2.0000      -0.455555       -12.3963
 258   2.0000      -0.454714       -12.3734
 259   2.0000      -0.453565       -12.3421
 260   2.0000      -0.453379       -12.3371
 261   2.0000      -0.453265       -12.3340
 262   2.0000      -0.452842       -12.3225
 263   2.0000      -0.452755       -12.3201
 264   2.0000      -0.451510       -12.2862
 265   2.0000      -0.451375       -12.2825
 266   2.0000      -0.449495       -12.2314
 267   2.0000      -0.447495       -12.1769
 268   2.0000      -0.443924       -12.0798
 269   2.0000      -0.441802       -12.0220
 270   2.0000      -0.440831       -11.9956
 271   2.0000      -0.440358       -11.9828
 272   2.0000      -0.440189       -11.9781
 273   2.0000      -0.440111       -11.9760
 274   2.0000      -0.438528       -11.9330
 275   2.0000      -0.438290       -11.9265
 276   2.0000      -0.438053       -11.9200
 277   2.0000      -0.437102       -11.8941
 278   2.0000      -0.434156       -11.8140
 279   2.0000      -0.433119       -11.7858
 280   2.0000      -0.432348       -11.7648
 281   2.0000      -0.422827       -11.5057
 282   2.0000      -0.422706       -11.5024
 283   2.0000      -0.421431       -11.4677
 284   2.0000      -0.420932       -11.4542
 285   2.0000      -0.418644       -11.3919
 286   2.0000      -0.418601       -11.3907
 287   2.0000      -0.410705       -11.1758
 288   2.0000      -0.401664       -10.9298
 289   2.0000      -0.398703       -10.8493
 290   2.0000      -0.395144       -10.7524
 291   2.0000      -0.392602       -10.6832
 292   2.0000      -0.392235       -10.6733
 293   2.0000      -0.375899       -10.2287
 294   2.0000      -0.373919       -10.1749
 295   2.0000      -0.373599       -10.1661
 296   2.0000      -0.362776        -9.8716
 297   2.0000      -0.362159        -9.8549
 298   2.0000      -0.357610        -9.7311
 299   2.0000      -0.341333        -9.2881
 300   2.0000      -0.341089        -9.2815
 301   2.0000      -0.337045        -9.1715
 302   2.0000      -0.335580        -9.1316
 303   2.0000      -0.332051        -9.0356
 304   2.0000      -0.321971        -8.7613
 305   2.0000      -0.309477        -8.4213
 306   2.0000      -0.287380        -7.8200
 307   2.0000      -0.257140        -6.9971
 308   0.0000      -0.156595        -4.2612
 309   0.0000      -0.122497        -3.3333
 310   0.0000      -0.116341        -3.1658
 311   0.0000      -0.102567        -2.7910
 312   0.0000      -0.101833        -2.7710

MULLIKEN ATOMIC CHARGES
-----------------------
   0 C :   -0.038542
   1 C :    0.049501
   2 C :    0.050214
   3 C :   -0.028289
   4 C :    0.000292
   5 C :    0.017818
   6 C :    0.294121
   7 C :   -0.347737
   8 C :   -0.187338
   9 N :    0.165160
  10 C :   -0.173455
  11 N :    0.155294
  12 C :   -0.070897
  13 C :    0.230613
  14 C :   -0.338938
  15 C :   -0.192553
  16 N :    0.182859
  17 C :   -0.181901
  18 N :    0.176073
  19 C :    0.087261
  20 C :   -0.144878
  21 C :   -0.003135
  22 C :   -0.004013
  23 C :   -0.071292
  24 S :    0.245989
  25 C :   -0.064571
  26 C :    0.046443
  27 C :    0.309836
  28 C :   -0.289592
  29 C :   -0.184593
  30 N :    0.177518
  31 C :   -0.183269
  32 N :    0.167556
  33 C :   -0.064156
  34 C :   -0.171656
  35 S :    0.218575
  36 C :    0.189066
  37 C :   -0.056802
  38 C :   -0.058130
  39 N :   -0.002815
  40 C :   -0.092314
  41 C :   -0.093136
  42 N :   -0.004722
  43 C :   -0.244174
  44 N :    0.260471
  45 C :   -0.244245
  46 N :    0.258867
  47 C :    0.189095
  48 C :   -0.013140
  49 C :   -0.012196
  50 N :   -0.281164
  51 S :    0.596660
  52 N :   -0.279434
  53 C :   -0.171347
  54 C :   -0.061262
  55 C :    0.044562
  56 C :   -0.067524
  57 S :    0.217327
  58 C :   -0.070745
  59 C :   -0.001222
  60 C :    0.308249
  61 C :   -0.287832
  62 C :   -0.185128
  63 N :    0.168723
  64 C :   -0.187120
  65 N :    0.181177
  66 C :   -0.008485
  67 C :   -0.137922
  68 S :    0.242829
  69 C :    0.090569
  70 C :   -0.069040
  71 C :    0.290863
  72 C :   -0.342452
  73 C :   -0.180713
  74 N :    0.158677
  75 C :   -0.187613
  76 N :    0.164060
  77 C :    0.015972
  78 C :   -0.001192
  79 C :   -0.025700
  80 C :    0.048409
  81 C :    0.047504
  82 C :   -0.033313
  83 C :    0.225234
  84 C :   -0.332213
  85 C :   -0.179416
  86 N :    0.173033
  87 C :   -0.196326
  88 N :    0.184819
  89 H :    0.008301
  90 H :    0.006249
  91 H :    0.007771
  92 H :    0.015397
  93 H :    0.015870
  94 H :    0.031504
  95 H :    0.024257
  96 H :    0.024899
  97 H :    0.033466
  98 H :    0.012961
  99 H :    0.014272
 100 H :    0.008212
 101 H :    0.007294
 102 H :    0.007898
Sum of atomic charges:   -0.0000000

LOEWDIN ATOMIC CHARGES
----------------------
   0 C :    0.005570
   1 C :    0.004418
   2 C :    0.007732
   3 C :    0.006007
   4 C :   -0.010197
   5 C :   -0.013660
   6 C :    0.077740
   7 C :   -0.131135
   8 C :   -0.019327
   9 N :   -0.042056
  10 C :   -0.021459
  11 N :   -0.042633
  12 C :   -0.051074
  13 C :    0.065366
  14 C :   -0.125979
  15 C :   -0.017911
  16 N :   -0.040596
  17 C :   -0.020466
  18 N :   -0.035757
  19 C :    0.033937
  20 C :   -0.177635
  21 C :    0.004497
  22 C :   -0.058735
  23 C :   -0.157307
  24 S :    0.522393
  25 C :   -0.178092
  26 C :   -0.062897
  27 C :    0.080121
  28 C :   -0.096904
  29 C :   -0.016946
  30 N :   -0.026859
  31 C :   -0.012924
  32 N :   -0.032236
  33 C :   -0.005176
  34 C :   -0.160817
  35 S :    0.519644
  36 C :   -0.035902
  37 C :   -0.012925
  38 C :   -0.013014
  39 N :   -0.016340
  40 C :   -0.017015
  41 C :   -0.017081
  42 N :   -0.016342
  43 C :   -0.040792
  44 N :    0.009842
  45 C :   -0.040740
  46 N :    0.009729
  47 C :   -0.035928
  48 C :   -0.035968
  49 C :   -0.035865
  50 N :   -0.269913
  51 S :    0.714956
  52 N :   -0.269546
  53 C :   -0.160777
  54 C :   -0.005182
  55 C :   -0.062711
  56 C :   -0.178257
  57 S :    0.519277
  58 C :   -0.157729
  59 C :   -0.058824
  60 C :    0.080237
  61 C :   -0.096815
  62 C :   -0.012688
  63 N :   -0.032151
  64 C :   -0.017070
  65 N :   -0.026866
  66 C :    0.005235
  67 C :   -0.177087
  68 S :    0.520691
  69 C :    0.032847
  70 C :   -0.051198
  71 C :    0.078235
  72 C :   -0.131380
  73 C :   -0.022181
  74 N :   -0.042150
  75 C :   -0.019408
  76 N :   -0.042201
  77 C :   -0.013685
  78 C :   -0.010244
  79 C :    0.006003
  80 C :    0.007379
  81 C :    0.004093
  82 C :    0.005795
  83 C :    0.065532
  84 C :   -0.125914
  85 C :   -0.020339
  86 N :   -0.035006
  87 C :   -0.017965
  88 N :   -0.038961
  89 H :    0.042081
  90 H :    0.038689
  91 H :    0.039142
  92 H :    0.043927
  93 H :    0.046471
  94 H :    0.042995
  95 H :    0.039559
  96 H :    0.039674
  97 H :    0.042990
  98 H :    0.046195
  99 H :    0.043796
 100 H :    0.039219
 101 H :    0.038891
 102 H :    0.042031

  Mayer bond orders larger than 0.100000
B(  0-C ,  1-C ) :   1.3719 B(  0-C ,  5-C ) :   1.3804 B(  0-C , 89-H ) :   0.9842
B(  1-C ,  2-C ) :   1.3751 B(  1-C , 90-H ) :   0.9862 B(  2-C ,  3-C ) :   1.3656
B(  2-C , 91-H ) :   0.9870 B(  3-C ,  4-C ) :   1.3826 B(  3-C , 92-H ) :   0.9870
B(  4-C ,  5-C ) :   1.3092 B(  4-C , 13-C ) :   1.0092 B(  5-C ,  6-C ) :   0.9985
B(  6-C ,  7-C ) :   1.6417 B(  6-C , 12-C ) :   1.0598 B(  7-C ,  8-C ) :   1.1493
B(  7-C , 10-C ) :   1.1320 B(  8-C ,  9-N ) :   2.9780 B( 10-C , 11-N ) :   2.9652
B( 12-C , 13-C ) :   1.0121 B( 12-C , 19-C ) :   1.6356 B( 13-C , 14-C ) :   1.6596
B( 14-C , 15-C ) :   1.1606 B( 14-C , 17-C ) :   1.1401 B( 15-C , 16-N ) :   3.0053
B( 17-C , 18-N ) :   2.9998 B( 19-C , 20-C ) :   1.1705 B( 19-C , 93-H ) :   0.9110
B( 20-C , 21-C ) :   1.3757 B( 20-C , 24-S ) :   1.1064 B( 21-C , 22-C ) :   1.3703
B( 21-C , 94-H ) :   0.9829 B( 22-C , 23-C ) :   1.3881 B( 22-C , 27-C ) :   0.9938
B( 23-C , 24-S ) :   1.1551 B( 23-C , 25-C ) :   1.2166 B( 25-C , 26-C ) :   1.3907
B( 25-C , 35-S ) :   1.0870 B( 26-C , 27-C ) :   0.9903 B( 26-C , 33-C ) :   1.2877
B( 27-C , 28-C ) :   1.7178 B( 28-C , 29-C ) :   1.1372 B( 28-C , 31-C ) :   1.1327
B( 29-C , 30-N ) :   2.9858 B( 31-C , 32-N ) :   2.9775 B( 33-C , 34-C ) :   1.3997
B( 33-C , 95-H ) :   0.9825 B( 34-C , 35-S ) :   1.0924 B( 34-C , 36-C ) :   1.2153
B( 36-C , 37-C ) :   1.2515 B( 36-C , 47-C ) :   0.1217 B( 36-C , 49-C ) :   1.1985
B( 37-C , 38-C ) :   1.1123 B( 37-C , 42-N ) :   1.4033 B( 38-C , 39-N ) :   1.4041
B( 38-C , 47-C ) :   1.2495 B( 39-N , 40-C ) :   1.6926 B( 40-C , 41-C ) :   1.2214
B( 40-C , 45-C ) :   1.1654 B( 41-C , 42-N ) :   1.6928 B( 41-C , 43-C ) :   1.1665
B( 43-C , 44-N ) :   3.0395 B( 45-C , 46-N ) :   3.0392 B( 47-C , 48-C ) :   1.1996
B( 47-C , 53-C ) :   1.2148 B( 48-C , 49-C ) :   1.0989 B( 48-C , 52-N ) :   1.5165
B( 49-C , 50-N ) :   1.5158 B( 50-N , 51-S ) :   1.2885 B( 50-N , 52-N ) :   0.1459
B( 51-S , 52-N ) :   1.2896 B( 53-C , 54-C ) :   1.3994 B( 53-C , 57-S ) :   1.0924
B( 54-C , 55-C ) :   1.2892 B( 54-C , 96-H ) :   0.9825 B( 55-C , 56-C ) :   1.3929
B( 55-C , 60-C ) :   0.9895 B( 56-C , 57-S ) :   1.0855 B( 56-C , 58-C ) :   1.2181
B( 58-C , 59-C ) :   1.3851 B( 58-C , 68-S ) :   1.1552 B( 59-C , 60-C ) :   0.9951
B( 59-C , 66-C ) :   1.3731 B( 60-C , 61-C ) :   1.7174 B( 61-C , 62-C ) :   1.1353
B( 61-C , 64-C ) :   1.1370 B( 62-C , 63-N ) :   2.9769 B( 64-C , 65-N ) :   2.9885
B( 66-C , 67-C ) :   1.3739 B( 66-C , 97-H ) :   0.9803 B( 67-C , 68-S ) :   1.1034
B( 67-C , 69-C ) :   1.1785 B( 69-C , 70-C ) :   1.6339 B( 69-C , 98-H ) :   0.9103
B( 70-C , 71-C ) :   1.0569 B( 70-C , 83-C ) :   1.0106 B( 71-C , 72-C ) :   1.6428
B( 71-C , 77-C ) :   0.9995 B( 72-C , 73-C ) :   1.1348 B( 72-C , 75-C ) :   1.1462
B( 73-C , 74-N ) :   2.9707 B( 75-C , 76-N ) :   2.9799 B( 77-C , 78-C ) :   1.3106
B( 77-C , 82-C ) :   1.3816 B( 78-C , 79-C ) :   1.3840 B( 78-C , 83-C ) :   1.0086
B( 79-C , 80-C ) :   1.3664 B( 79-C , 99-H ) :   0.9870 B( 80-C , 81-C ) :   1.3767
B( 80-C ,100-H ) :   0.9862 B( 81-C , 82-C ) :   1.3714 B( 81-C ,101-H ) :   0.9862
B( 82-C ,102-H ) :   0.9836 B( 83-C , 84-C ) :   1.6651 B( 84-C , 85-C ) :   1.1350
B( 84-C , 87-C ) :   1.1605 B( 85-C , 86-N ) :   3.0003 B( 87-C , 88-N ) :   3.0060

-----------------------------------------------------------------------------
         ABSORPTION SPECTRUM VIA TRANSITION ELECTRIC DIPOLE MOMENTS
-----------------------------------------------------------------------------
State   Energy  Wavelength   fosc         T2         TX        TY        TZ
        (cm-1)    (nm)                  (au**2)     (au)      (au)      (au)
-----------------------------------------------------------------------------
   0    7240.4   1381.1   0.820277934  37.29706   0.76638  -6.03913  -0.48848
   1   13335.7    749.9   0.001858001   0.04587  -0.08663  -0.05634   0.18759
   2   14031.2    712.7   0.072546406   1.70214  -0.17398   1.28871   0.10541
   3   15669.7    638.2   0.000645223   0.01356   0.09764   0.02372  -0.05881
   4   18740.5    533.6   1.058851148  18.60074  -0.41324   4.28476   0.26607
   5   19154.3    522.1   0.081816022   1.40620   0.71187  -0.89748  -0.30655
   6   20756.7    481.8   0.045107350   0.71543  -0.11541   0.83637   0.05086
   7   22398.9    446.4   0.207316804   3.04707   0.88270  -1.47494   0.30410
   8   22486.3    444.7   0.171775707   2.51489  -0.48636  -1.37528  -0.62205
   9   23082.6    433.2   0.003511821   0.05009   0.06460  -0.09324   0.19292
  10   23227.8    430.5   0.140400550   1.98992   0.07145   0.00570   1.40882
  11   23456.4    426.3   0.002770873   0.03889   0.03123  -0.02820   0.19266
  12   23929.8    417.9   0.033419019   0.45976  -0.28476   0.03204  -0.61453
  13   24237.4    412.6   0.004545377   0.06174  -0.00007   0.23945   0.06636
  14   24688.3    405.1   0.076080646   1.01452  -0.09300   0.99873   0.09169
  15   25103.5    398.4   0.001764563   0.02314  -0.10445   0.07814  -0.07827
  16   25142.5    397.7   0.021875538   0.28644   0.15258   0.05894  -0.50959
  17   25833.3    387.1   0.079331728   1.01098  -0.10645   0.99599   0.08746
  18   27558.5    362.9   0.018681858   0.22317   0.29250  -0.29832  -0.22051
  19   27709.9    360.9   0.020970066   0.24914   0.29457   0.34086  -0.21490
  20   28623.1    349.4   0.007755345   0.08920  -0.01397  -0.00566  -0.29828
  21   28874.2    346.3   0.025053130   0.28565  -0.10025   0.43270   0.29726
  22   28933.1    345.6   0.046719556   0.53159   0.13927   0.19013  -0.68996
  23   29440.7    339.7   0.040228806   0.44985   0.16363  -0.53106   0.37556
  24   29517.7    338.8   0.143212580   1.59726   0.25402   0.06705   1.23622
  25   29661.9    337.1   0.007206246   0.07998   0.03850  -0.01566   0.27974
  26   29812.1    335.4   0.029849191   0.32962   0.03953   0.10151  -0.56370
  27   30394.1    329.0   0.201049762   2.17766   0.06888  -1.44938  -0.26871
  28   30539.9    327.4   0.003418839   0.03685   0.05244  -0.11144   0.14726
  29   30792.8    324.8   0.133209913   1.42417  -0.74425   0.31496  -0.87810
  30   30936.7    323.2   0.603515017   6.42228   0.66120  -2.44149   0.15565
  31   31012.0    322.5   0.449281134   4.76940   0.68321   0.71683   1.94648
  32   31141.4    321.1   0.134756627   1.42458  -0.79128  -0.63523   0.62843
  33   31283.7    319.7   0.095731794   1.00743  -0.18314   0.98633   0.03222
  34   31842.7    314.0   0.122875878   1.27038   0.24174  -0.83858   0.71325
  35   31929.5    313.2   0.569372911   5.87057   0.26444   0.45333   2.36540
  36   31988.1    312.6   0.178914947   1.84134  -0.23021   1.13748  -0.70319
  37   32578.1    307.0   0.070798165   0.71544   0.20236  -0.00868   0.82123
  38   32948.5    303.5   0.217668357   2.17488   0.96366  -0.91161   0.64437
  39   33025.6    302.8   0.499972207   4.98392  -1.36189  -0.47618  -1.70365
  40   33091.3    302.2   0.021503423   0.21393  -0.03121  -0.40786  -0.21588
  41   33459.7    298.9   0.007649645   0.07527  -0.02586   0.26698   0.05761
  42   33528.2    298.3   0.081436765   0.79962  -0.06976   0.86939   0.19728
  43   33917.9    294.8   0.056641089   0.54977   0.06104   0.38391   0.63139
  44   33965.4    294.4   0.127877584   1.23946   0.01892  -0.28996   1.07472
  45   34121.4    293.1   0.381782638   3.68354  -0.20482   0.25453  -1.89124
  46   34589.1    289.1   0.236537375   2.25132  -0.31766   1.45345   0.19465
  47   34903.7    286.5   0.231192042   2.18061  -0.65609   0.22514  -1.30363
  48   35065.1    285.2   0.089022606   0.83580  -0.62290   0.38641   0.54633
  49   35173.9    284.3   0.099829657   0.93436   0.59142   0.75321   0.13135
  50   35508.5    281.6   0.319545663   2.96263   0.08951  -1.46821  -0.89385
  51   35631.2    280.7   0.306677715   2.83352  -0.02869  -0.90736   1.41753
  52   36173.8    276.4   0.086167314   0.78419   0.17453  -0.86816  -0.00597
  53   36262.6    275.8   0.043094276   0.39123   0.20865   0.23498   0.54082
  54   36801.6    271.7   0.002400698   0.02148   0.01991   0.07915   0.12171
  55   36964.1    270.5   0.016775405   0.14941   0.02776  -0.38139  -0.05636
  56   37080.4    269.7   0.083141342   0.73816   0.00504   0.78943   0.33901
  57   37245.6    268.5   0.103258953   0.91270   0.07159  -0.31989   0.89736
  58   37469.8    266.9   0.000515911   0.00453   0.01858   0.01892  -0.06188
  59   37557.8    266.3   0.000916142   0.00803   0.02901   0.05484   0.06466
  60   37793.9    264.6   0.007168211   0.06244   0.07955   0.05498   0.23041
  61   37942.7    263.6   0.004435419   0.03848   0.04551  -0.05600   0.18242
  62   38018.8    263.0   0.030888580   0.26747  -0.04785   0.51444  -0.02298
  63   38070.0    262.7   0.003113743   0.02693   0.02534  -0.16019   0.02494
  64   38107.2    262.4   0.050382764   0.43526  -0.06210   0.65340   0.06689
  65   38466.9    260.0   0.007864703   0.06731  -0.05655   0.05136  -0.24794
  66   38626.5    258.9   0.008410010   0.07168  -0.26120   0.01947   0.05542
  67   38655.4    258.7   0.006644009   0.05658  -0.08034  -0.10690  -0.19673
  68   39013.9    256.3   0.058144061   0.49064   0.05338   0.65363   0.24608
  69   39027.6    256.2   0.112167938   0.94618   0.36147  -0.32643   0.84200
  70   39190.0    255.2   0.321208900   2.69828  -0.08931   0.04964  -1.63946
  71   39579.1    252.7   0.031359652   0.26084   0.11879  -0.46301   0.17989
  72   39626.1    252.4   0.012640896   0.10502  -0.12769  -0.08716  -0.28481
  73   40035.8    249.8   0.027152418   0.22327   0.17488   0.02498   0.43825

FINAL SINGLE POINT ENERGY     -5494.487009636930

DIPOLE MOMENT
-------------
                                X             Y             Z
Electronic contribution:      1.13240       1.08885     -11.09705
Nuclear contribution   :     -2.83009      -1.48475      13.58904
                        -----------------------------------------
Total Dipole Moment    :     -1.69769      -0.39590       2.49199
                        -----------------------------------------
Magnitude (a.u.)       :      3.04120
Magnitude (Debye)      :      7.73011

Rotational constants in cm-1:     0.001998     0.000161     0.000152
Rotational constants in MHz :    59.894516     4.827248     4.545319

                             ****ORCA TERMINATED NORMALLY****
TOTAL RUN TIME: 0 days 0 hours 13 minutes 17 seconds 884 msec
