                         Program Version 4.2.0 -  RELEASE  -
|  1> # ORCA input file
|  2> # SCF done       -182.647531152919          0.000957711591
|  3> ! CAM-B3LYP def2-SVP def2/J RIJCOSX Grid4 TightSCF
|  4> %maxcore 5000
|  5> %tddft
|  6>     Mode sTDDFT
|  7>     Ethresh 5.0
|  8>     maxcore 5000
|  9> end
| 10>
| 11> %pal
| 12>   nprocs 6
| 13>   end
| 14> * xyz 0 1
| 15>    C       -2.38318         2.16205        -2.82165
| 16>    C       -1.48413         1.89255        -1.82442
| 17>    C       -0.13399         1.55219        -2.05569
| 18>    N        0.97294         1.27737        -2.18304
| 19>    C       -1.77594         1.84758        -0.44328
| 20>    N       -1.93553         1.75158         0.68931
| 21>    C       -2.10999         2.06261        -4.24905
| 22>    C       -3.33497         2.17757        -4.94913
| 23>    C       -3.41594         2.10287        -6.31888
| 24>    C       -2.22791         1.91842        -7.03300
| 25>    C       -1.00570         1.81672        -6.32514
| 26>    C       -0.92581         1.88331        -4.93971
| 27>    S        0.34022         1.60117        -7.40118
| 28>    C       -0.74080         1.64683        -8.76892
| 29>    C       -2.04347         1.81578        -8.43878
| 30>   Br       -0.04804         1.46765       -10.50197
| 31>    C       -4.43659         2.38335        -3.99041
| 32>    O       -5.61568         2.43351        -4.27588
| 33>    C       -3.79220         2.49893        -2.65929
| 34>    C       -4.31632         2.97008        -1.48783
| 35>    C       -5.62407         3.38128        -1.15034
| 36>    C       -6.82938         3.27467        -1.81503
| 37>    C       -7.90564         3.83110        -1.12188
| 38>    S       -9.54143         3.70583        -1.72088
| 39>    C       -9.40125         2.25898        -2.82458
| 40>    C       -7.53217         4.39359         0.11389
| 41>    S       -5.84240         4.13837         0.41052
| 42>    C       -8.30605         5.08417         1.08605
| 43>    C       -7.84996         5.21934         2.42177
| 44>    C       -8.62321         5.87275         3.43389
| 45>    N       -8.13819         5.94504         4.68901
| 46>    C       -6.97969         5.44117         4.96546
| 47>    C       -6.20972         4.79844         3.96085
| 48>    N       -6.65161         4.70153         2.74781
| 49>    F       -5.02294         4.27488         4.23554
| 50>    F       -6.54344         5.53624         6.21568
| 51>    C       -9.87560         6.47142         3.17582
| 52>    C      -10.31461         6.39460         1.83502
| 53>    C       -9.53941         5.72017         0.81548
| 54>    N      -10.10820         5.83389        -0.38168
| 55>    S      -11.47399         6.65923        -0.25504
| 56>    N      -11.42230         6.93682         1.32665
| 57>    C      -10.58607         7.16034         4.19634
| 58>    C      -11.77890         7.84970         4.06530
| 59>    C      -12.20321         8.44987         5.24998
| 60>    S      -13.63400         9.41829         5.46206
| 61>    C      -14.36946         9.38519         3.80244
| 62>    C      -11.31211         8.24680         6.31248
| 63>    S       -9.97046         7.24958         5.81242
| 64>    C      -11.48482         8.69046         7.63556
| 65>    C      -10.54529         8.77142         8.62269
| 66>    C       -9.10016         8.74654         8.57401
| 67>    C       -8.31512         9.25057         7.56897
| 68>    C       -6.90783         9.28745         7.61236
| 69>    N       -5.76080         9.32960         7.59036
| 70>    C       -8.83666         9.87948         6.41965
| 71>    N       -9.22129        10.45247         5.50174
| 72>    C       -8.63037         8.37814         9.90452
| 73>    C       -9.72755         8.43344        10.80149
| 74>    C      -10.95690         8.76664        10.05014
| 75>    O      -12.06975         8.94512        10.48953
| 76>    C       -9.58989         8.18401        12.14514
| 77>    C       -8.31648         7.85117        12.62026
| 78>    C       -7.23328         7.78034        11.71167
| 79>    C       -7.36826         8.04375        10.35373
| 80>    S       -5.75600         7.33808        12.51120
| 81>    C       -6.60006         7.25928        14.03501
| 82>    C       -7.92029         7.54785        13.95192
| 83>   Br       -5.65857         6.80559        15.59204
| 84>    H       -4.36537         2.18737        -6.82400
| 85>    H        0.02876         1.80410        -4.44730
| 86>    H       -2.84204         1.86652        -9.15616
| 87>    H       -3.61609         3.10294        -0.67093
| 88>    H       -6.90365         2.82159        -2.78432
| 89>    H      -10.42400         1.98046        -3.05862
| 90>    H       -8.90134         1.44473        -2.31102
| 91>    H       -8.87787         2.52543        -3.73704
| 92>    H      -12.29017         7.89646         3.12319
| 93>    H      -15.27725         9.97640         3.87130
| 94>    H      -14.61121         8.36430         3.52350
| 95>    H      -13.68486         9.83768         3.09186
| 96>    H      -12.50409         8.92362         7.93187
| 97>    H      -10.43686         8.24184        12.81064
| 98>    H       -6.51992         7.97158         9.69314
| 99>    H       -8.58899         7.54745        14.79323
|100> *
|101>
|102>                          ****END OF INPUT****

CARTESIAN COORDINATES (ANGSTROEM)
---------------------------------
  C     -2.383180    2.162050   -2.821650
  C     -1.484130    1.892550   -1.824420
  C     -0.133990    1.552190   -2.055690
  N      0.972940    1.277370   -2.183040
  C     -1.775940    1.847580   -0.443280
  N     -1.935530    1.751580    0.689310
  C     -2.109990    2.062610   -4.249050
  C     -3.334970    2.177570   -4.949130
  C     -3.415940    2.102870   -6.318880
  C     -2.227910    1.918420   -7.033000
  C     -1.005700    1.816720   -6.325140
  C     -0.925810    1.883310   -4.939710
  S      0.340220    1.601170   -7.401180
  C     -0.740800    1.646830   -8.768920
  C     -2.043470    1.815780   -8.438780
  Br    -0.048040    1.467650  -10.501970
  C     -4.436590    2.383350   -3.990410
  O     -5.615680    2.433510   -4.275880
  C     -3.792200    2.498930   -2.659290
  C     -4.316320    2.970080   -1.487830
  C     -5.624070    3.381280   -1.150340
  C     -6.829380    3.274670   -1.815030
  C     -7.905640    3.831100   -1.121880
  S     -9.541430    3.705830   -1.720880
  C     -9.401250    2.258980   -2.824580
  C     -7.532170    4.393590    0.113890
  S     -5.842400    4.138370    0.410520
  C     -8.306050    5.084170    1.086050
  C     -7.849960    5.219340    2.421770
  C     -8.623210    5.872750    3.433890
  N     -8.138190    5.945040    4.689010
  C     -6.979690    5.441170    4.965460
  C     -6.209720    4.798440    3.960850
  N     -6.651610    4.701530    2.747810
  F     -5.022940    4.274880    4.235540
  F     -6.543440    5.536240    6.215680
  C     -9.875600    6.471420    3.175820
  C    -10.314610    6.394600    1.835020
  C     -9.539410    5.720170    0.815480
  N    -10.108200    5.833890   -0.381680
  S    -11.473990    6.659230   -0.255040
  N    -11.422300    6.936820    1.326650
  C    -10.586070    7.160340    4.196340
  C    -11.778900    7.849700    4.065300
  C    -12.203210    8.449870    5.249980
  S    -13.634000    9.418290    5.462060
  C    -14.369460    9.385190    3.802440
  C    -11.312110    8.246800    6.312480
  S     -9.970460    7.249580    5.812420
  C    -11.484820    8.690460    7.635560
  C    -10.545290    8.771420    8.622690
  C     -9.100160    8.746540    8.574010
  C     -8.315120    9.250570    7.568970
  C     -6.907830    9.287450    7.612360
  N     -5.760800    9.329600    7.590360
  C     -8.836660    9.879480    6.419650
  N     -9.221290   10.452470    5.501740
  C     -8.630370    8.378140    9.904520
  C     -9.727550    8.433440   10.801490
  C    -10.956900    8.766640   10.050140
  O    -12.069750    8.945120   10.489530
  C     -9.589890    8.184010   12.145140
  C     -8.316480    7.851170   12.620260
  C     -7.233280    7.780340   11.711670
  C     -7.368260    8.043750   10.353730
  S     -5.756000    7.338080   12.511200
  C     -6.600060    7.259280   14.035010
  C     -7.920290    7.547850   13.951920
  Br    -5.658570    6.805590   15.592040
  H     -4.365370    2.187370   -6.824000
  H      0.028760    1.804100   -4.447300
  H     -2.842040    1.866520   -9.156160
  H     -3.616090    3.102940   -0.670930
  H     -6.903650    2.821590   -2.784320
  H    -10.424000    1.980460   -3.058620
  H     -8.901340    1.444730   -2.311020
  H     -8.877870    2.525430   -3.737040
  H    -12.290170    7.896460    3.123190
  H    -15.277250    9.976400    3.871300
  H    -14.611210    8.364300    3.523500
  H    -13.684860    9.837680    3.091860
  H    -12.504090    8.923620    7.931870
  H    -10.436860    8.241840   12.810640
  H     -6.519920    7.971580    9.693140
  H     -8.588990    7.547450   14.793230

 Total Charge           Charge          ....    0
 Multiplicity           Mult            ....    1
 Number of Electrons    NEL             ....  576
 Basis Dimension        Dim             .... 1110

ORBITAL ENERGIES
----------------

  NO   OCC          E(Eh)            E(eV)
   0   2.0000    -482.888363    -13140.0604
   1   2.0000    -482.880128    -13139.8363
   2   2.0000     -89.050372     -2423.1838
   3   2.0000     -88.978952     -2421.2404
   4   2.0000     -88.969100     -2420.9723
   5   2.0000     -88.968155     -2420.9466
   6   2.0000     -88.959470     -2420.7103
   7   2.0000     -88.937193     -2420.1041
   8   2.0000     -88.932143     -2419.9666
   9   2.0000     -62.566100     -1702.5101
  10   2.0000     -62.557847     -1702.2856
  11   2.0000     -56.400053     -1534.7235
  12   2.0000     -56.397329     -1534.6493
  13   2.0000     -56.397297     -1534.6485
  14   2.0000     -56.391795     -1534.4988
  15   2.0000     -56.389088     -1534.4251
  16   2.0000     -56.389050     -1534.4241
  17   2.0000     -24.824571      -675.5109
  18   2.0000     -24.822558      -675.4561
  19   2.0000     -19.225484      -523.1520
  20   2.0000     -19.204243      -522.5740
  21   2.0000     -14.465746      -393.6330
  22   2.0000     -14.465199      -393.6181
  23   2.0000     -14.459650      -393.4671
  24   2.0000     -14.457569      -393.4104
  25   2.0000     -14.417265      -392.3137
  26   2.0000     -14.417152      -392.3106
  27   2.0000     -14.407154      -392.0386
  28   2.0000     -14.402632      -391.9155
  29   2.0000     -10.442902      -284.1658
  30   2.0000     -10.441416      -284.1254
  31   2.0000     -10.376425      -282.3569
  32   2.0000     -10.362211      -281.9701
  33   2.0000     -10.356129      -281.8046
  34   2.0000     -10.355629      -281.7910
  35   2.0000     -10.355051      -281.7753
  36   2.0000     -10.352250      -281.6990
  37   2.0000     -10.350387      -281.6484
  38   2.0000     -10.349708      -281.6299
  39   2.0000     -10.345508      -281.5156
  40   2.0000     -10.344399      -281.4854
  41   2.0000     -10.331957      -281.1468
  42   2.0000     -10.331253      -281.1277
  43   2.0000     -10.329721      -281.0860
  44   2.0000     -10.329386      -281.0769
  45   2.0000     -10.329240      -281.0729
  46   2.0000     -10.326339      -280.9940
  47   2.0000     -10.322676      -280.8943
  48   2.0000     -10.322255      -280.8828
  49   2.0000     -10.319914      -280.8191
  50   2.0000     -10.319786      -280.8157
  51   2.0000     -10.319215      -280.8001
  52   2.0000     -10.318848      -280.7901
  53   2.0000     -10.315083      -280.6877
  54   2.0000     -10.314168      -280.6628
  55   2.0000     -10.311771      -280.5975
  56   2.0000     -10.311297      -280.5847
  57   2.0000     -10.310291      -280.5573
  58   2.0000     -10.309444      -280.5342
  59   2.0000     -10.308931      -280.5203
  60   2.0000     -10.305960      -280.4394
  61   2.0000     -10.305580      -280.4291
  62   2.0000     -10.305159      -280.4176
  63   2.0000     -10.302093      -280.3342
  64   2.0000     -10.300599      -280.2935
  65   2.0000     -10.300470      -280.2900
  66   2.0000     -10.300078      -280.2794
  67   2.0000     -10.300000      -280.2772
  68   2.0000     -10.298092      -280.2253
  69   2.0000     -10.296537      -280.1830
  70   2.0000     -10.293778      -280.1079
  71   2.0000     -10.290483      -280.0183
  72   2.0000     -10.289784      -279.9992
  73   2.0000     -10.285242      -279.8757
  74   2.0000     -10.284903      -279.8664
  75   2.0000     -10.284722      -279.8615
  76   2.0000     -10.281722      -279.7799
  77   2.0000      -8.795545      -239.3389
  78   2.0000      -8.787270      -239.1138
  79   2.0000      -8.141607      -221.5444
  80   2.0000      -8.074881      -219.7287
  81   2.0000      -8.065149      -219.4639
  82   2.0000      -8.062394      -219.3889
  83   2.0000      -8.052882      -219.1301
  84   2.0000      -8.032814      -218.5840
  85   2.0000      -8.026685      -218.4172
  86   2.0000      -6.631876      -180.4625
  87   2.0000      -6.623553      -180.2360
  88   2.0000      -6.617262      -180.0648
  89   2.0000      -6.617069      -180.0596
  90   2.0000      -6.609013      -179.8404
  91   2.0000      -6.608819      -179.8351
  92   2.0000      -6.112724      -166.3357
  93   2.0000      -6.104912      -166.1231
  94   2.0000      -6.104347      -166.1077
  95   2.0000      -6.044560      -164.4808
  96   2.0000      -6.040293      -164.3647
  97   2.0000      -6.036130      -164.2515
  98   2.0000      -6.034816      -164.2157
  99   2.0000      -6.031790      -164.1333
 100   2.0000      -6.030583      -164.1005
 101   2.0000      -6.027355      -164.0127
 102   2.0000      -6.026367      -163.9858
 103   2.0000      -6.024497      -163.9349
 104   2.0000      -6.022482      -163.8801
 105   2.0000      -6.017926      -163.7561
 106   2.0000      -6.014769      -163.6702
 107   2.0000      -6.003184      -163.3549
 108   2.0000      -5.998884      -163.2379
 109   2.0000      -5.997163      -163.1911
 110   2.0000      -5.992768      -163.0715
 111   2.0000      -5.992755      -163.0711
 112   2.0000      -5.986435      -162.8992
 113   2.0000      -2.747724       -74.7694
 114   2.0000      -2.743647       -74.6584
 115   2.0000      -2.743499       -74.6544
 116   2.0000      -2.739420       -74.5434
 117   2.0000      -2.735341       -74.4324
 118   2.0000      -2.735216       -74.4290
 119   2.0000      -2.731890       -74.3385
 120   2.0000      -2.731874       -74.3381
 121   2.0000      -2.723658       -74.1145
 122   2.0000      -2.723635       -74.1139
 123   2.0000      -1.352676       -36.8082
 124   2.0000      -1.338693       -36.4277
 125   2.0000      -1.148423       -31.2502
 126   2.0000      -1.139812       -31.0159
 127   2.0000      -1.126158       -30.6443
 128   2.0000      -1.119509       -30.4634
 129   2.0000      -1.052715       -28.6458
 130   2.0000      -1.026566       -27.9343
 131   2.0000      -1.016222       -27.6528
 132   2.0000      -1.015618       -27.6364
 133   2.0000      -1.010339       -27.4927
 134   2.0000      -1.007493       -27.4153
 135   2.0000      -1.002900       -27.2903
 136   2.0000      -0.996029       -27.1033
 137   2.0000      -0.994444       -27.0602
 138   2.0000      -0.992008       -26.9939
 139   2.0000      -0.983457       -26.7612
 140   2.0000      -0.980404       -26.6781
 141   2.0000      -0.974871       -26.5276
 142   2.0000      -0.946662       -25.7600
 143   2.0000      -0.935162       -25.4471
 144   2.0000      -0.919790       -25.0288
 145   2.0000      -0.913255       -24.8509
 146   2.0000      -0.911756       -24.8102
 147   2.0000      -0.902432       -24.5564
 148   2.0000      -0.900294       -24.4983
 149   2.0000      -0.895824       -24.3766
 150   2.0000      -0.892561       -24.2878
 151   2.0000      -0.889430       -24.2026
 152   2.0000      -0.886727       -24.1291
 153   2.0000      -0.878511       -23.9055
 154   2.0000      -0.867142       -23.5961
 155   2.0000      -0.857531       -23.3346
 156   2.0000      -0.834353       -22.7039
 157   2.0000      -0.832615       -22.6566
 158   2.0000      -0.826351       -22.4862
 159   2.0000      -0.826194       -22.4819
 160   2.0000      -0.821950       -22.3664
 161   2.0000      -0.816624       -22.2215
 162   2.0000      -0.807887       -21.9837
 163   2.0000      -0.782875       -21.3031
 164   2.0000      -0.776356       -21.1257
 165   2.0000      -0.764921       -20.8146
 166   2.0000      -0.762716       -20.7546
 167   2.0000      -0.759999       -20.6806
 168   2.0000      -0.748520       -20.3683
 169   2.0000      -0.744037       -20.2463
 170   2.0000      -0.734139       -19.9769
 171   2.0000      -0.720394       -19.6029
 172   2.0000      -0.707407       -19.2495
 173   2.0000      -0.698307       -19.0019
 174   2.0000      -0.693704       -18.8766
 175   2.0000      -0.692044       -18.8315
 176   2.0000      -0.690424       -18.7874
 177   2.0000      -0.683787       -18.6068
 178   2.0000      -0.680767       -18.5246
 179   2.0000      -0.674848       -18.3635
 180   2.0000      -0.668503       -18.1909
 181   2.0000      -0.661856       -18.0100
 182   2.0000      -0.655235       -17.8299
 183   2.0000      -0.648338       -17.6422
 184   2.0000      -0.644264       -17.5313
 185   2.0000      -0.637610       -17.3503
 186   2.0000      -0.629841       -17.1388
 187   2.0000      -0.627861       -17.0850
 188   2.0000      -0.626607       -17.0508
 189   2.0000      -0.619874       -16.8676
 190   2.0000      -0.615766       -16.7558
 191   2.0000      -0.611259       -16.6332
 192   2.0000      -0.606196       -16.4954
 193   2.0000      -0.600646       -16.3444
 194   2.0000      -0.590133       -16.0583
 195   2.0000      -0.585315       -15.9272
 196   2.0000      -0.581869       -15.8335
 197   2.0000      -0.578957       -15.7542
 198   2.0000      -0.574800       -15.6411
 199   2.0000      -0.574146       -15.6233
 200   2.0000      -0.562834       -15.3155
 201   2.0000      -0.557707       -15.1760
 202   2.0000      -0.551962       -15.0197
 203   2.0000      -0.547807       -14.9066
 204   2.0000      -0.546144       -14.8613
 205   2.0000      -0.544438       -14.8149
 206   2.0000      -0.541990       -14.7483
 207   2.0000      -0.534008       -14.5311
 208   2.0000      -0.533023       -14.5043
 209   2.0000      -0.532197       -14.4818
 210   2.0000      -0.530079       -14.4242
 211   2.0000      -0.526780       -14.3344
 212   2.0000      -0.524187       -14.2639
 213   2.0000      -0.523457       -14.2440
 214   2.0000      -0.523015       -14.2319
 215   2.0000      -0.519707       -14.1419
 216   2.0000      -0.517358       -14.0780
 217   2.0000      -0.512638       -13.9496
 218   2.0000      -0.512465       -13.9449
 219   2.0000      -0.510370       -13.8879
 220   2.0000      -0.508246       -13.8301
 221   2.0000      -0.507745       -13.8164
 222   2.0000      -0.505137       -13.7455
 223   2.0000      -0.500241       -13.6122
 224   2.0000      -0.498823       -13.5737
 225   2.0000      -0.497826       -13.5465
 226   2.0000      -0.496697       -13.5158
 227   2.0000      -0.494980       -13.4691
 228   2.0000      -0.493851       -13.4384
 229   2.0000      -0.491260       -13.3679
 230   2.0000      -0.489578       -13.3221
 231   2.0000      -0.481924       -13.1138
 232   2.0000      -0.478856       -13.0303
 233   2.0000      -0.476144       -12.9565
 234   2.0000      -0.469953       -12.7881
 235   2.0000      -0.467940       -12.7333
 236   2.0000      -0.462573       -12.5872
 237   2.0000      -0.461367       -12.5544
 238   2.0000      -0.460641       -12.5347
 239   2.0000      -0.452833       -12.3222
 240   2.0000      -0.451087       -12.2747
 241   2.0000      -0.450666       -12.2632
 242   2.0000      -0.449564       -12.2333
 243   2.0000      -0.446782       -12.1576
 244   2.0000      -0.445320       -12.1178
 245   2.0000      -0.441995       -12.0273
 246   2.0000      -0.441036       -12.0012
 247   2.0000      -0.438956       -11.9446
 248   2.0000      -0.437713       -11.9108
 249   2.0000      -0.434588       -11.8257
 250   2.0000      -0.434361       -11.8196
 251   2.0000      -0.430727       -11.7207
 252   2.0000      -0.429171       -11.6783
 253   2.0000      -0.426251       -11.5989
 254   2.0000      -0.424933       -11.5630
 255   2.0000      -0.419756       -11.4221
 256   2.0000      -0.417533       -11.3617
 257   2.0000      -0.414497       -11.2790
 258   2.0000      -0.410505       -11.1704
 259   2.0000      -0.407839       -11.0979
 260   2.0000      -0.403078       -10.9683
 261   2.0000      -0.401386       -10.9223
 262   2.0000      -0.399732       -10.8773
 263   2.0000      -0.393871       -10.7178
 264   2.0000      -0.387811       -10.5529
 265   2.0000      -0.383664       -10.4400
 266   2.0000      -0.381745       -10.3878
 267   2.0000      -0.377760       -10.2794
 268   2.0000      -0.376848       -10.2546
 269   2.0000      -0.369671       -10.0592
 270   2.0000      -0.366432        -9.9711
 271   2.0000      -0.364857        -9.9283
 272   2.0000      -0.358878        -9.7656
 273   2.0000      -0.356466        -9.6999
 274   2.0000      -0.353258        -9.6126
 275   2.0000      -0.349152        -9.5009
 276   2.0000      -0.345585        -9.4038
 277   2.0000      -0.344135        -9.3644
 278   2.0000      -0.327843        -8.9211
 279   2.0000      -0.319881        -8.7044
 280   2.0000      -0.318942        -8.6788
 281   2.0000      -0.308078        -8.3832
 282   2.0000      -0.302075        -8.2199
 283   2.0000      -0.296131        -8.0581
 284   2.0000      -0.292648        -7.9634
 285   2.0000      -0.285458        -7.7677
 286   2.0000      -0.273327        -7.4376
 287   2.0000      -0.244804        -6.6614
 288   0.0000      -0.129307        -3.5186
 289   0.0000      -0.087318        -2.3760
 290   0.0000      -0.077621        -2.1122
 291   0.0000      -0.062852        -1.7103
 292   0.0000      -0.047592        -1.2950

MULLIKEN ATOMIC CHARGES
-----------------------
   0 C :    0.289327
   1 C :   -0.342987
   2 C :   -0.181275
   3 N :    0.151345
   4 C :   -0.201866
   5 N :    0.163196
   6 C :    0.016547
   7 C :   -0.009101
   8 C :   -0.070913
   9 C :    0.118438
  10 C :   -0.092858
  11 C :   -0.017050
  12 S :    0.189765
  13 C :   -0.123851
  14 C :    0.038465
  15 Br:    0.026331
  16 C :    0.158891
  17 O :   -0.158368
  18 C :   -0.076426
  19 C :    0.048580
  20 C :   -0.060568
  21 C :   -0.034180
  22 C :    0.034137
  23 S :    0.008477
  24 C :   -0.082210
  25 C :   -0.225436
  26 S :    0.187769
  27 C :    0.165674
  28 C :   -0.049909
  29 C :   -0.050761
  30 N :   -0.043866
  31 C :    0.161312
  32 C :    0.153011
  33 N :   -0.034775
  34 F :   -0.126034
  35 F :   -0.129522
  36 C :    0.191267
  37 C :   -0.007770
  38 C :   -0.001099
  39 N :   -0.291576
  40 S :    0.553932
  41 N :   -0.296925
  42 C :   -0.127537
  43 C :   -0.056277
  44 C :    0.085375
  45 S :   -0.001758
  46 C :   -0.082925
  47 C :   -0.127822
  48 S :    0.171090
  49 C :    0.031776
  50 C :   -0.136765
  51 C :    0.251349
  52 C :   -0.319782
  53 C :   -0.183889
  54 N :    0.147042
  55 C :   -0.202944
  56 N :    0.162553
  57 C :    0.004310
  58 C :    0.001259
  59 C :    0.135759
  60 O :   -0.146265
  61 C :   -0.074765
  62 C :    0.110925
  63 C :   -0.086122
  64 C :   -0.022897
  65 S :    0.181096
  66 C :   -0.126249
  67 C :    0.040822
  68 Br:    0.018693
  69 H :   -0.011248
  70 H :   -0.003802
  71 H :   -0.002214
  72 H :    0.013957
  73 H :    0.002957
  74 H :    0.052347
  75 H :    0.063092
  76 H :    0.077491
  77 H :   -0.010591
  78 H :    0.066604
  79 H :    0.069704
  80 H :    0.076520
  81 H :    0.028890
  82 H :   -0.010254
  83 H :   -0.002640
  84 H :   -0.004007
Sum of atomic charges:   -0.0000000

LOEWDIN ATOMIC CHARGES
----------------------
   0 C :    0.075306
   1 C :   -0.138265
   2 C :   -0.017913
   3 N :   -0.051329
   4 C :   -0.027484
   5 N :   -0.045367
   6 C :   -0.020457
   7 C :   -0.050811
   8 C :    0.022097
   9 C :   -0.032390
  10 C :   -0.143257
  11 C :   -0.009068
  12 S :    0.435356
  13 C :   -0.271012
  14 C :   -0.070581
  15 Br:    0.138784
  16 C :    0.090833
  17 O :   -0.143199
  18 C :   -0.089439
  19 C :    0.048786
  20 C :   -0.178614
  21 C :   -0.041980
  22 C :   -0.173462
  23 S :    0.328266
  24 C :   -0.164023
  25 C :   -0.175039
  26 S :    0.499990
  27 C :   -0.038985
  28 C :   -0.013206
  29 C :   -0.007044
  30 N :   -0.052341
  31 C :    0.071540
  32 C :    0.066188
  33 N :   -0.052090
  34 F :   -0.016066
  35 F :   -0.018413
  36 C :   -0.044610
  37 C :   -0.033341
  38 C :   -0.042075
  39 N :   -0.275211
  40 S :    0.678685
  41 N :   -0.285750
  42 C :   -0.136701
  43 C :   -0.069661
  44 C :   -0.152996
  45 S :    0.320844
  46 C :   -0.150143
  47 C :   -0.216112
  48 S :    0.507570
  49 C :    0.047358
  50 C :   -0.102011
  51 C :    0.060861
  52 C :   -0.147923
  53 C :   -0.020594
  54 N :   -0.060166
  55 C :   -0.035315
  56 N :   -0.055340
  57 C :   -0.015661
  58 C :   -0.051826
  59 C :    0.081640
  60 O :   -0.147345
  61 C :    0.020730
  62 C :   -0.035466
  63 C :   -0.143846
  64 C :   -0.014224
  65 S :    0.429537
  66 C :   -0.274042
  67 C :   -0.070279
  68 Br:    0.133160
  69 H :    0.040422
  70 H :    0.041528
  71 H :    0.039018
  72 H :    0.044036
  73 H :    0.028697
  74 H :    0.029861
  75 H :    0.027603
  76 H :    0.027669
  77 H :    0.025956
  78 H :    0.036184
  79 H :    0.028154
  80 H :    0.031425
  81 H :    0.044637
  82 H :    0.040665
  83 H :    0.040737
  84 H :    0.038349

  Mayer bond orders larger than 0.100000
B(  0-C ,  1-C ) :   1.6401 B(  0-C ,  6-C ) :   1.0029 B(  0-C , 18-C ) :   1.0653
B(  1-C ,  2-C ) :   1.1398 B(  1-C ,  4-C ) :   1.1350 B(  2-C ,  3-N ) :   2.9746
B(  4-C ,  5-N ) :   2.9963 B(  6-C ,  7-C ) :   1.2736 B(  6-C , 11-C ) :   1.4092
B(  7-C ,  8-C ) :   1.4199 B(  7-C , 16-C ) :   0.9568 B(  8-C ,  9-C ) :   1.2483
B(  8-C , 69-H ) :   1.0173 B(  9-C , 10-C ) :   1.3018 B(  9-C , 14-C ) :   1.1636
B( 10-C , 11-C ) :   1.3319 B( 10-C , 12-S ) :   1.0875 B( 11-C , 70-H ) :   0.9812
B( 12-S , 13-C ) :   1.0866 B( 13-C , 14-C ) :   1.6180 B( 13-C , 15-Br) :   1.0202
B( 14-C , 71-H ) :   1.0003 B( 16-C , 17-O ) :   2.1555 B( 16-C , 18-C ) :   0.9373
B( 17-O , 73-H ) :   0.1016 B( 18-C , 19-C ) :   1.5983 B( 19-C , 20-C ) :   1.2056
B( 19-C , 72-H ) :   0.9214 B( 20-C , 21-C ) :   1.4311 B( 20-C , 26-S ) :   1.0790
B( 21-C , 22-C ) :   1.2697 B( 21-C , 73-H ) :   0.9706 B( 22-C , 23-S ) :   1.0428
B( 22-C , 25-C ) :   1.4264 B( 23-S , 24-C ) :   0.9866 B( 24-C , 74-H ) :   0.9688
B( 24-C , 75-H ) :   0.9678 B( 24-C , 76-H ) :   0.9650 B( 25-C , 26-S ) :   1.1585
B( 25-C , 27-C ) :   1.1590 B( 27-C , 28-C ) :   1.2888 B( 27-C , 36-C ) :   0.1246
B( 27-C , 38-C ) :   1.2019 B( 28-C , 29-C ) :   1.1363 B( 28-C , 33-N ) :   1.3851
B( 29-C , 30-N ) :   1.3817 B( 29-C , 36-C ) :   1.2875 B( 30-N , 31-C ) :   1.6501
B( 31-C , 32-C ) :   1.1084 B( 31-C , 35-F ) :   1.1903 B( 32-C , 33-N ) :   1.6499
B( 32-C , 34-F ) :   1.1950 B( 36-C , 37-C ) :   1.1984 B( 36-C , 42-C ) :   1.1747
B( 37-C , 38-C ) :   1.0995 B( 37-C , 41-N ) :   1.5169 B( 38-C , 39-N ) :   1.4794
B( 39-N , 40-S ) :   1.2885 B( 39-N , 41-N ) :   0.1500 B( 40-S , 41-N ) :   1.2678
B( 42-C , 43-C ) :   1.4437 B( 42-C , 48-S ) :   1.1411 B( 43-C , 44-C ) :   1.2615
B( 43-C , 77-H ) :   0.9770 B( 44-C , 45-S ) :   1.0523 B( 44-C , 47-C ) :   1.4224
B( 45-S , 46-C ) :   1.0196 B( 46-C , 78-H ) :   0.9696 B( 46-C , 79-H ) :   0.9662
B( 46-C , 80-H ) :   0.9653 B( 47-C , 48-S ) :   1.0594 B( 47-C , 49-C ) :   1.1798
B( 49-C , 50-C ) :   1.6148 B( 49-C , 81-H ) :   0.9392 B( 50-C , 51-C ) :   1.0514
B( 50-C , 59-C ) :   0.9507 B( 51-C , 52-C ) :   1.6430 B( 51-C , 57-C ) :   1.0126
B( 52-C , 53-C ) :   1.1372 B( 52-C , 55-C ) :   1.1506 B( 53-C , 54-N ) :   2.9909
B( 55-C , 56-N ) :   3.0214 B( 57-C , 58-C ) :   1.2765 B( 57-C , 64-C ) :   1.4196
B( 58-C , 59-C ) :   0.9173 B( 58-C , 61-C ) :   1.4255 B( 59-C , 60-O ) :   2.2674
B( 61-C , 62-C ) :   1.2513 B( 61-C , 82-H ) :   1.0170 B( 62-C , 63-C ) :   1.3112
B( 62-C , 67-C ) :   1.1633 B( 63-C , 64-C ) :   1.3217 B( 63-C , 65-S ) :   1.0821
B( 64-C , 83-H ) :   0.9852 B( 65-S , 66-C ) :   1.0867 B( 66-C , 67-C ) :   1.6184
B( 66-C , 68-Br) :   1.0157 B( 67-C , 84-H ) :   1.0006

-----------------------------------------------------------------------------
         ABSORPTION SPECTRUM VIA TRANSITION ELECTRIC DIPOLE MOMENTS
-----------------------------------------------------------------------------
State   Energy  Wavelength   fosc         T2         TX        TY        TZ
        (cm-1)    (nm)                  (au**2)     (au)      (au)      (au)
-----------------------------------------------------------------------------
   0    9834.6   1016.8   0.709231248  23.74142  -1.76140   2.18537   3.98284
   1   15583.9    641.7   0.030262988   0.63931  -0.71139   0.32745   0.16128
   2   18774.2    532.6   0.143442149   2.51531   1.08695  -0.75113  -0.87729
   3   19847.9    503.8   0.277867434   4.60892  -1.17457  -0.48251  -1.73104
   4   20467.7    488.6   0.353825623   5.69109   2.05659  -0.74840  -0.94945
   5   20579.6    485.9   0.131879865   2.10969  -1.35568   0.04884   0.51907
   6   22706.5    440.4   0.047213282   0.68453  -0.70298   0.36379  -0.24083
   7   24721.9    404.5   0.020825507   0.27732  -0.00469   0.09090  -0.51869
   8   25750.0    388.3   0.035755139   0.45713  -0.03436   0.22803   0.63557
   9   26463.9    377.9   0.216106371   2.68837   0.65582  -0.46609  -1.42865
  10   26509.8    377.2   0.020187792   0.25070   0.13514  -0.23572   0.42057
  11   26684.3    374.8   0.081588048   1.00658   0.48657  -0.34875  -0.80511
  12   27201.0    367.6   0.110125270   1.33284   0.99772  -0.38243   0.43718
  13   27276.2    366.6   0.092172104   1.11248   0.20654   0.00514  -1.03431
  14   27589.1    362.5   0.001750797   0.02089   0.03421  -0.06418  -0.12491
  15   27734.5    360.6   0.029393169   0.34890  -0.33772   0.18386   0.44838
  16   27865.3    358.9   0.016738099   0.19775   0.43691  -0.00315  -0.08278
  17   28482.7    351.1   0.022829874   0.26387  -0.11741  -0.00934   0.50000
  18   28584.9    349.8   0.002462777   0.02836  -0.13233   0.04335   0.09473
  19   29002.9    344.8   0.221469897   2.51391  -0.45169   0.27146  -1.49539
  20   29176.5    342.7   0.089864876   1.01399   0.07248   0.44805  -0.89888
  21   29815.5    335.4   0.160638512   1.77371  -1.25001   0.39409   0.23640
  22   30353.7    329.4   0.047309642   0.51311  -0.69490   0.13310  -0.11186
  23   30672.9    326.0   0.167467944   1.79743  -0.75209   0.38878  -1.03954
  24   31164.5    320.9   0.394844272   4.17101  -0.24297   0.29077  -2.00685
  25   31342.4    319.1   0.277984581   2.91988   0.32337  -0.16800  -1.66946
  26   31791.2    314.6   0.019154116   0.19835   0.08526  -0.07840   0.43004
  27   32333.4    309.3   0.100749927   1.02581   0.37386  -0.08725  -0.93725
  28   32665.2    306.1   0.013155993   0.13259  -0.20951  -0.18062  -0.23680
  29   32862.1    304.3   0.068258166   0.68381  -0.27736  -0.08417   0.77447
  30   33083.8    302.3   0.001770059   0.01761  -0.12029   0.05483  -0.01169
  31   33687.7    296.8   0.006709500   0.06557  -0.10464   0.18435   0.14365
  32   33843.5    295.5   0.010838840   0.10543  -0.17759  -0.23986  -0.12792
  33   34221.6    292.2   0.055857082   0.53735   0.39942  -0.13711  -0.59917
  34   34308.9    291.5   0.023854537   0.22890   0.07321  -0.28646  -0.37613
  35   34689.7    288.3   0.169555625   1.60911   0.48288   0.13808  -1.16485
  36   34974.0    285.9   0.038959367   0.36673  -0.43056  -0.12522   0.40701
  37   35122.0    284.7   0.181603984   1.70224   0.25420  -0.57218   1.14466
  38   35159.1    284.4   0.095606422   0.89521  -0.73879   0.54525  -0.22826
  39   35320.3    283.1   0.052402384   0.48843   0.61954  -0.17675  -0.27085
  40   35534.7    281.4   0.241376674   2.23624  -0.70796   0.19819  -1.30221
  41   35574.4    281.1   0.008122876   0.07517  -0.17405  -0.09931  -0.18712
  42   35890.8    278.6   0.360557869   3.30725   1.35663  -0.57063   1.06827
  43   36219.8    276.1   0.198379393   1.80313   0.73489  -0.16867   1.11114
  44   36362.0    275.0   0.090953572   0.82347  -0.17352   0.12563   0.88180
  45   36794.8    271.8   0.031484757   0.28170   0.23823   0.02351   0.47370
  46   37374.0    267.6   0.002312853   0.02037   0.12203   0.07309   0.01179
  47   37718.7    265.1   0.073414881   0.64077  -0.41257   0.30976   0.61205
  48   38065.8    262.7   0.019122198   0.16538  -0.28500   0.13565  -0.25642
  49   38130.9    262.3   0.034962785   0.30186   0.46201  -0.13198   0.26643
  50   38620.4    258.9   0.152100378   1.29655  -0.30078   0.22896   1.07409
  51   38692.7    258.4   0.141304886   1.20228   0.78633  -0.11006   0.75620
  52   39232.1    254.9   0.102783543   0.86250   0.85100  -0.12838  -0.34902
  53   39792.3    251.3   0.202074400   1.67181  -1.26043   0.28545   0.04053
  54   39957.0    250.3   0.052141702   0.42960   0.37009  -0.24290   0.48336
  55   40188.6    248.8   0.050819495   0.41630  -0.50485   0.06923   0.39576
  56   40253.3    248.4   0.092938263   0.76010   0.69057  -0.33626  -0.41247

FINAL SINGLE POINT ENERGY    -10557.941916617703

DIPOLE MOMENT
-------------
                                X             Y             Z
Electronic contribution:    100.07953     -25.14524      15.80664
Nuclear contribution   :   -102.72706      24.06278     -18.68284
                        -----------------------------------------
Total Dipole Moment    :     -2.64753      -1.08246      -2.87620
                        -----------------------------------------
Magnitude (a.u.)       :      4.05631
Magnitude (Debye)      :     10.31032

Rotational constants in cm-1:     0.001237     0.000221     0.000192
Rotational constants in MHz :    37.069407     6.618521     5.763496

                             ****ORCA TERMINATED NORMALLY****
TOTAL RUN TIME: 0 days 0 hours 10 minutes 22 seconds 47 msec
