                         Program Version 4.2.0 -  RELEASE  -
|  1> # ORCA input file
|  2> # SCF done       -204.764075386444          0.000368654609
|  3> ! CAM-B3LYP def2-SVP def2/J RIJCOSX Grid4 TightSCF
|  4> %maxcore 5000
|  5> %tddft
|  6>     Mode sTDDFT
|  7>     Ethresh 5.0
|  8>     maxcore 5000
|  9> end
| 10>
| 11> %pal
| 12>   nprocs 6
| 13>   end
| 14> * xyz 0 1
| 15>    C       -0.48548         4.32888         4.96481
| 16>    C        0.46212         3.48772         4.44432
| 17>    C        1.75573         3.32463         4.98530
| 18>    N        2.81911         3.14683         5.37844
| 19>    C        0.30739         2.68790         3.29165
| 20>    N        0.26476         2.01930         2.35928
| 21>    C       -0.29989         5.19706         6.12260
| 22>    C       -1.46362         5.98893         6.29094
| 23>    C       -1.59544         6.91273         7.29950
| 24>    C       -0.52800         7.05964         8.19108
| 25>    C        0.62945         6.26198         8.01931
| 26>    C        0.76307         5.33110         6.99620
| 27>    S        1.82349         6.59875         9.23421
| 28>    C        0.76852         7.79003         9.94731
| 29>    C       -0.41827         7.93021         9.30908
| 30>   Br        1.33172         8.73387        11.46599
| 31>    C       -2.43865         5.63890         5.24747
| 32>    O       -3.53759         6.14067         5.08418
| 33>    C       -1.82853         4.56076         4.45887
| 34>    C       -2.45349         3.84559         3.47284
| 35>    C       -3.74461         3.97877         2.93266
| 36>    C       -4.23331         3.07894         1.97760
| 37>    C       -5.52138         3.37999         1.57916
| 38>    C       -6.02298         4.53834         2.21898
| 39>    S       -4.92398         5.22754         3.32314
| 40>    C       -7.34234         4.76115         1.75137
| 41>    C       -7.67581         3.74484         0.82880
| 42>    C       -6.54101         2.84895         0.68629
| 43>    C       -6.45043         1.74615        -0.10964
| 44>    C       -5.28821         0.94597        -0.15430
| 45>    N       -4.34918         0.28984        -0.19180
| 46>    C       -7.51032         1.32486        -0.94182
| 47>    N       -8.36343         0.97491        -1.62248
| 48>    C       -8.96825         3.87311         0.32907
| 49>    C       -9.60290         4.98322         0.86040
| 50>    S       -8.60778         5.88067         1.98543
| 51>    C      -10.92345         5.43851         0.59387
| 52>    N      -11.32190         6.57457         1.14076
| 53>    N      -12.50599         7.08245         0.96114
| 54>    C      -13.44750         6.50296         0.23593
| 55>    C      -13.15772         5.25705        -0.40118
| 56>    C      -11.83891         4.71189        -0.22913
| 57>    N      -11.79106         3.58312        -0.90488
| 58>    O      -12.98992         3.43538        -1.45745
| 59>    N      -13.82796         4.42551        -1.17082
| 60>    C      -14.70725         7.15211         0.11770
| 61>    C      -15.84758         6.68225        -0.51203
| 62>    C      -16.89026         7.59900        -0.41662
| 63>    C      -16.52288         8.77026         0.27984
| 64>    S      -14.90980         8.73538         0.83219
| 65>    C      -17.63848         9.64314         0.29953
| 66>    C      -18.71460         9.02157        -0.36297
| 67>    C      -18.27973         7.71480        -0.83129
| 68>    C      -19.02295         6.79107        -1.50331
| 69>    C      -18.49754         5.54258        -1.90259
| 70>    N      -18.08483         4.52335        -2.22527
| 71>    C      -20.37824         7.01342        -1.83081
| 72>    N      -21.48157         7.18728        -2.08807
| 73>    C      -19.86243         9.80782        -0.38199
| 74>    C      -19.66156        11.04230         0.21429
| 75>    S      -18.03262        11.19804         0.86709
| 76>    C      -20.64229        12.05170         0.38222
| 77>    C      -20.47618        13.38106         0.60421
| 78>    C      -19.33353        14.26147         0.46185
| 79>    C      -18.33982        14.14612        -0.47433
| 80>    C      -17.31418        15.09745        -0.64939
| 81>    N      -16.45371        15.83807        -0.81593
| 82>    C      -18.29261        13.10880        -1.42848
| 83>    N      -18.24527        12.29876        -2.24031
| 84>    C      -19.59658        15.44334         1.27302
| 85>    C      -20.95231        15.41533         1.69038
| 86>    C      -21.58719        14.17268         1.20902
| 87>    O      -22.73978        13.83030         1.32148
| 88>    C      -21.51229        16.42379         2.43706
| 89>    C      -20.69491        17.50049         2.79711
| 90>    C      -19.33917        17.51086         2.38630
| 91>    C      -18.77413        16.49661         1.62323
| 92>    S      -18.51079        18.92836         2.95127
| 93>    C      -19.97548        19.48469         3.71718
| 94>    C      -21.03184        18.65136         3.56041
| 95>   Br      -19.96960        21.10887         4.65308
| 96>    H       -2.49397         7.50122         7.39888
| 97>    H        1.66387         4.74698         6.91112
| 98>    H       -1.18548         8.61821         9.61388
| 99>    H       -1.89836         3.02481         3.03452
|100>    H       -3.64779         2.25160         1.61728
|101>    H       -9.44483         3.21614        -0.37647
|102>    H      -15.88467         5.72616        -1.00297
|103>    H      -20.79751         9.53026        -0.83394
|104>    H      -21.67050        11.70193         0.40678
|105>    H      -22.54854        16.38473         2.73389
|106>    H      -17.73620        16.54045         1.33683
|107>    H      -22.00901        18.83887         3.96642
|108> *
|109>
|110>                          ****END OF INPUT****

CARTESIAN COORDINATES (ANGSTROEM)
---------------------------------
  C     -0.485480    4.328880    4.964810
  C      0.462120    3.487720    4.444320
  C      1.755730    3.324630    4.985300
  N      2.819110    3.146830    5.378440
  C      0.307390    2.687900    3.291650
  N      0.264760    2.019300    2.359280
  C     -0.299890    5.197060    6.122600
  C     -1.463620    5.988930    6.290940
  C     -1.595440    6.912730    7.299500
  C     -0.528000    7.059640    8.191080
  C      0.629450    6.261980    8.019310
  C      0.763070    5.331100    6.996200
  S      1.823490    6.598750    9.234210
  C      0.768520    7.790030    9.947310
  C     -0.418270    7.930210    9.309080
  Br     1.331720    8.733870   11.465990
  C     -2.438650    5.638900    5.247470
  O     -3.537590    6.140670    5.084180
  C     -1.828530    4.560760    4.458870
  C     -2.453490    3.845590    3.472840
  C     -3.744610    3.978770    2.932660
  C     -4.233310    3.078940    1.977600
  C     -5.521380    3.379990    1.579160
  C     -6.022980    4.538340    2.218980
  S     -4.923980    5.227540    3.323140
  C     -7.342340    4.761150    1.751370
  C     -7.675810    3.744840    0.828800
  C     -6.541010    2.848950    0.686290
  C     -6.450430    1.746150   -0.109640
  C     -5.288210    0.945970   -0.154300
  N     -4.349180    0.289840   -0.191800
  C     -7.510320    1.324860   -0.941820
  N     -8.363430    0.974910   -1.622480
  C     -8.968250    3.873110    0.329070
  C     -9.602900    4.983220    0.860400
  S     -8.607780    5.880670    1.985430
  C    -10.923450    5.438510    0.593870
  N    -11.321900    6.574570    1.140760
  N    -12.505990    7.082450    0.961140
  C    -13.447500    6.502960    0.235930
  C    -13.157720    5.257050   -0.401180
  C    -11.838910    4.711890   -0.229130
  N    -11.791060    3.583120   -0.904880
  O    -12.989920    3.435380   -1.457450
  N    -13.827960    4.425510   -1.170820
  C    -14.707250    7.152110    0.117700
  C    -15.847580    6.682250   -0.512030
  C    -16.890260    7.599000   -0.416620
  C    -16.522880    8.770260    0.279840
  S    -14.909800    8.735380    0.832190
  C    -17.638480    9.643140    0.299530
  C    -18.714600    9.021570   -0.362970
  C    -18.279730    7.714800   -0.831290
  C    -19.022950    6.791070   -1.503310
  C    -18.497540    5.542580   -1.902590
  N    -18.084830    4.523350   -2.225270
  C    -20.378240    7.013420   -1.830810
  N    -21.481570    7.187280   -2.088070
  C    -19.862430    9.807820   -0.381990
  C    -19.661560   11.042300    0.214290
  S    -18.032620   11.198040    0.867090
  C    -20.642290   12.051700    0.382220
  C    -20.476180   13.381060    0.604210
  C    -19.333530   14.261470    0.461850
  C    -18.339820   14.146120   -0.474330
  C    -17.314180   15.097450   -0.649390
  N    -16.453710   15.838070   -0.815930
  C    -18.292610   13.108800   -1.428480
  N    -18.245270   12.298760   -2.240310
  C    -19.596580   15.443340    1.273020
  C    -20.952310   15.415330    1.690380
  C    -21.587190   14.172680    1.209020
  O    -22.739780   13.830300    1.321480
  C    -21.512290   16.423790    2.437060
  C    -20.694910   17.500490    2.797110
  C    -19.339170   17.510860    2.386300
  C    -18.774130   16.496610    1.623230
  S    -18.510790   18.928360    2.951270
  C    -19.975480   19.484690    3.717180
  C    -21.031840   18.651360    3.560410
  Br   -19.969600   21.108870    4.653080
  H     -2.493970    7.501220    7.398880
  H      1.663870    4.746980    6.911120
  H     -1.185480    8.618210    9.613880
  H     -1.898360    3.024810    3.034520
  H     -3.647790    2.251600    1.617280
  H     -9.444830    3.216140   -0.376470
  H    -15.884670    5.726160   -1.002970
  H    -20.797510    9.530260   -0.833940
  H    -21.670500   11.701930    0.406780
  H    -22.548540   16.384730    2.733890
  H    -17.736200   16.540450    1.336830
  H    -22.009010   18.838870    3.966420

 Total Charge           Charge          ....    0
 Multiplicity           Mult            ....    1
 Number of Electrons    NEL             ....  634
 Basis Dimension        Dim             .... 1254

ORBITAL ENERGIES
----------------

  NO   OCC          E(Eh)            E(eV)
   0   2.0000    -482.892028    -13140.1601
   1   2.0000    -482.891575    -13140.1478
   2   2.0000     -89.004436     -2421.9338
   3   2.0000     -89.003032     -2421.8956
   4   2.0000     -89.001861     -2421.8638
   5   2.0000     -88.998252     -2421.7656
   6   2.0000     -88.983620     -2421.3674
   7   2.0000     -88.982733     -2421.3433
   8   2.0000     -62.569760     -1702.6097
   9   2.0000     -62.569283     -1702.5968
  10   2.0000     -56.403719     -1534.8232
  11   2.0000     -56.403243     -1534.8103
  12   2.0000     -56.400985     -1534.7488
  13   2.0000     -56.400956     -1534.7480
  14   2.0000     -56.400511     -1534.7359
  15   2.0000     -56.400481     -1534.7351
  16   2.0000     -19.392296      -527.6912
  17   2.0000     -19.234269      -523.3911
  18   2.0000     -19.225064      -523.1406
  19   2.0000     -14.518998      -395.0820
  20   2.0000     -14.518905      -395.0795
  21   2.0000     -14.470161      -393.7531
  22   2.0000     -14.470041      -393.7498
  23   2.0000     -14.437907      -392.8754
  24   2.0000     -14.436664      -392.8416
  25   2.0000     -14.435167      -392.8009
  26   2.0000     -14.434883      -392.7931
  27   2.0000     -14.425882      -392.5482
  28   2.0000     -14.424593      -392.5131
  29   2.0000     -14.423725      -392.4895
  30   2.0000     -14.421609      -392.4319
  31   2.0000     -10.381852      -282.5046
  32   2.0000     -10.376675      -282.3637
  33   2.0000     -10.374869      -282.3145
  34   2.0000     -10.372222      -282.2425
  35   2.0000     -10.369150      -282.1589
  36   2.0000     -10.368854      -282.1509
  37   2.0000     -10.366407      -282.0843
  38   2.0000     -10.365907      -282.0707
  39   2.0000     -10.362346      -281.9738
  40   2.0000     -10.362089      -281.9668
  41   2.0000     -10.361613      -281.9538
  42   2.0000     -10.359765      -281.9035
  43   2.0000     -10.354825      -281.7691
  44   2.0000     -10.353660      -281.7374
  45   2.0000     -10.350873      -281.6616
  46   2.0000     -10.350859      -281.6612
  47   2.0000     -10.350126      -281.6412
  48   2.0000     -10.347690      -281.5750
  49   2.0000     -10.345948      -281.5276
  50   2.0000     -10.340954      -281.3917
  51   2.0000     -10.338488      -281.3246
  52   2.0000     -10.337835      -281.3068
  53   2.0000     -10.337702      -281.3032
  54   2.0000     -10.337572      -281.2996
  55   2.0000     -10.336162      -281.2613
  56   2.0000     -10.335968      -281.2560
  57   2.0000     -10.335403      -281.2406
  58   2.0000     -10.334856      -281.2257
  59   2.0000     -10.334747      -281.2228
  60   2.0000     -10.334360      -281.2122
  61   2.0000     -10.333687      -281.1939
  62   2.0000     -10.333448      -281.1874
  63   2.0000     -10.328027      -281.0399
  64   2.0000     -10.326408      -280.9958
  65   2.0000     -10.325941      -280.9831
  66   2.0000     -10.324314      -280.9389
  67   2.0000     -10.320679      -280.8399
  68   2.0000     -10.319907      -280.8190
  69   2.0000     -10.318880      -280.7910
  70   2.0000     -10.318549      -280.7820
  71   2.0000     -10.318076      -280.7691
  72   2.0000     -10.318051      -280.7684
  73   2.0000     -10.317995      -280.7669
  74   2.0000     -10.317397      -280.7506
  75   2.0000     -10.316827      -280.7351
  76   2.0000     -10.316330      -280.7216
  77   2.0000     -10.315592      -280.7015
  78   2.0000     -10.315456      -280.6978
  79   2.0000     -10.314447      -280.6704
  80   2.0000     -10.313451      -280.6433
  81   2.0000     -10.310464      -280.5620
  82   2.0000     -10.310441      -280.5614
  83   2.0000     -10.310342      -280.5587
  84   2.0000     -10.309213      -280.5280
  85   2.0000     -10.304036      -280.3871
  86   2.0000     -10.303606      -280.3754
  87   2.0000     -10.302913      -280.3565
  88   2.0000     -10.301911      -280.3293
  89   2.0000      -8.799205      -239.4386
  90   2.0000      -8.798713      -239.4251
  91   2.0000      -8.098577      -220.3735
  92   2.0000      -8.096946      -220.3291
  93   2.0000      -8.095730      -220.2960
  94   2.0000      -8.090572      -220.1556
  95   2.0000      -8.079607      -219.8573
  96   2.0000      -8.078743      -219.8338
  97   2.0000      -6.635561      -180.5628
  98   2.0000      -6.635059      -180.5491
  99   2.0000      -6.620913      -180.1642
 100   2.0000      -6.620704      -180.1585
 101   2.0000      -6.620425      -180.1509
 102   2.0000      -6.620214      -180.1452
 103   2.0000      -6.067847      -165.1145
 104   2.0000      -6.066237      -165.0707
 105   2.0000      -6.064985      -165.0366
 106   2.0000      -6.063599      -164.9989
 107   2.0000      -6.061848      -164.9513
 108   2.0000      -6.061009      -164.9284
 109   2.0000      -6.060623      -164.9179
 110   2.0000      -6.059965      -164.9000
 111   2.0000      -6.059441      -164.8858
 112   2.0000      -6.058297      -164.8546
 113   2.0000      -6.055221      -164.7709
 114   2.0000      -6.053163      -164.7149
 115   2.0000      -6.049300      -164.6098
 116   2.0000      -6.048419      -164.5858
 117   2.0000      -6.045010      -164.4931
 118   2.0000      -6.044137      -164.4693
 119   2.0000      -6.040835      -164.3795
 120   2.0000      -6.039982      -164.3563
 121   2.0000      -2.751389       -74.8691
 122   2.0000      -2.750907       -74.8560
 123   2.0000      -2.747334       -74.7588
 124   2.0000      -2.747167       -74.7542
 125   2.0000      -2.746817       -74.7447
 126   2.0000      -2.746675       -74.7408
 127   2.0000      -2.735526       -74.4374
 128   2.0000      -2.735511       -74.4370
 129   2.0000      -2.735040       -74.4242
 130   2.0000      -2.735020       -74.4237
 131   2.0000      -1.347071       -36.6557
 132   2.0000      -1.151811       -31.3424
 133   2.0000      -1.149854       -31.2891
 134   2.0000      -1.140965       -31.0472
 135   2.0000      -1.059096       -28.8195
 136   2.0000      -1.055691       -28.7268
 137   2.0000      -1.049872       -28.5685
 138   2.0000      -1.033474       -28.1223
 139   2.0000      -1.031284       -28.0627
 140   2.0000      -1.029894       -28.0248
 141   2.0000      -1.027665       -27.9642
 142   2.0000      -1.023171       -27.8419
 143   2.0000      -1.021037       -27.7838
 144   2.0000      -1.016373       -27.6569
 145   2.0000      -1.014334       -27.6014
 146   2.0000      -1.013761       -27.5858
 147   2.0000      -1.011824       -27.5331
 148   2.0000      -1.006181       -27.3796
 149   2.0000      -1.003005       -27.2932
 150   2.0000      -1.001470       -27.2514
 151   2.0000      -0.999624       -27.2012
 152   2.0000      -0.998480       -27.1700
 153   2.0000      -0.981979       -26.7210
 154   2.0000      -0.969891       -26.3921
 155   2.0000      -0.956601       -26.0304
 156   2.0000      -0.951871       -25.9017
 157   2.0000      -0.950689       -25.8696
 158   2.0000      -0.929963       -25.3056
 159   2.0000      -0.924227       -25.1495
 160   2.0000      -0.917727       -24.9726
 161   2.0000      -0.916658       -24.9435
 162   2.0000      -0.905364       -24.6362
 163   2.0000      -0.900212       -24.4960
 164   2.0000      -0.895052       -24.3556
 165   2.0000      -0.893970       -24.3262
 166   2.0000      -0.885246       -24.0888
 167   2.0000      -0.883029       -24.0284
 168   2.0000      -0.876892       -23.8615
 169   2.0000      -0.870157       -23.6782
 170   2.0000      -0.867948       -23.6181
 171   2.0000      -0.865699       -23.5569
 172   2.0000      -0.854768       -23.2594
 173   2.0000      -0.838091       -22.8056
 174   2.0000      -0.837400       -22.7868
 175   2.0000      -0.817908       -22.2564
 176   2.0000      -0.812359       -22.1054
 177   2.0000      -0.803194       -21.8560
 178   2.0000      -0.792438       -21.5633
 179   2.0000      -0.786853       -21.4114
 180   2.0000      -0.783114       -21.3096
 181   2.0000      -0.776550       -21.1310
 182   2.0000      -0.770379       -20.9631
 183   2.0000      -0.767415       -20.8824
 184   2.0000      -0.749753       -20.4018
 185   2.0000      -0.734943       -19.9988
 186   2.0000      -0.721423       -19.6309
 187   2.0000      -0.713051       -19.4031
 188   2.0000      -0.712231       -19.3808
 189   2.0000      -0.704586       -19.1728
 190   2.0000      -0.701983       -19.1019
 191   2.0000      -0.700796       -19.0696
 192   2.0000      -0.699490       -19.0341
 193   2.0000      -0.694160       -18.8891
 194   2.0000      -0.691281       -18.8107
 195   2.0000      -0.686478       -18.6800
 196   2.0000      -0.679607       -18.4930
 197   2.0000      -0.670338       -18.2408
 198   2.0000      -0.668389       -18.1878
 199   2.0000      -0.660852       -17.9827
 200   2.0000      -0.658744       -17.9253
 201   2.0000      -0.651599       -17.7309
 202   2.0000      -0.646589       -17.5946
 203   2.0000      -0.643315       -17.5055
 204   2.0000      -0.637508       -17.3475
 205   2.0000      -0.635562       -17.2945
 206   2.0000      -0.632557       -17.2127
 207   2.0000      -0.630692       -17.1620
 208   2.0000      -0.628095       -17.0913
 209   2.0000      -0.625693       -17.0260
 210   2.0000      -0.613768       -16.7015
 211   2.0000      -0.611637       -16.6435
 212   2.0000      -0.607268       -16.5246
 213   2.0000      -0.604445       -16.4478
 214   2.0000      -0.589188       -16.0326
 215   2.0000      -0.586801       -15.9677
 216   2.0000      -0.581749       -15.8302
 217   2.0000      -0.576304       -15.6820
 218   2.0000      -0.567602       -15.4452
 219   2.0000      -0.565616       -15.3912
 220   2.0000      -0.562257       -15.2998
 221   2.0000      -0.559589       -15.2272
 222   2.0000      -0.556461       -15.1421
 223   2.0000      -0.554190       -15.0803
 224   2.0000      -0.552037       -15.0217
 225   2.0000      -0.550193       -14.9715
 226   2.0000      -0.549376       -14.9493
 227   2.0000      -0.547930       -14.9099
 228   2.0000      -0.542334       -14.7577
 229   2.0000      -0.539340       -14.6762
 230   2.0000      -0.537813       -14.6346
 231   2.0000      -0.535004       -14.5582
 232   2.0000      -0.529657       -14.4127
 233   2.0000      -0.525597       -14.3022
 234   2.0000      -0.522216       -14.2102
 235   2.0000      -0.519261       -14.1298
 236   2.0000      -0.518000       -14.0955
 237   2.0000      -0.517526       -14.0826
 238   2.0000      -0.515357       -14.0236
 239   2.0000      -0.514561       -14.0019
 240   2.0000      -0.509905       -13.8752
 241   2.0000      -0.509303       -13.8588
 242   2.0000      -0.508355       -13.8330
 243   2.0000      -0.506811       -13.7910
 244   2.0000      -0.505555       -13.7569
 245   2.0000      -0.503593       -13.7035
 246   2.0000      -0.502339       -13.6693
 247   2.0000      -0.500669       -13.6239
 248   2.0000      -0.497985       -13.5509
 249   2.0000      -0.490594       -13.3497
 250   2.0000      -0.488286       -13.2869
 251   2.0000      -0.487189       -13.2571
 252   2.0000      -0.481390       -13.0993
 253   2.0000      -0.480082       -13.0637
 254   2.0000      -0.468684       -12.7535
 255   2.0000      -0.467954       -12.7337
 256   2.0000      -0.467602       -12.7241
 257   2.0000      -0.465537       -12.6679
 258   2.0000      -0.465027       -12.6540
 259   2.0000      -0.464521       -12.6403
 260   2.0000      -0.463619       -12.6157
 261   2.0000      -0.462284       -12.5794
 262   2.0000      -0.458825       -12.4853
 263   2.0000      -0.458608       -12.4794
 264   2.0000      -0.456765       -12.4292
 265   2.0000      -0.455758       -12.4018
 266   2.0000      -0.455295       -12.3892
 267   2.0000      -0.454307       -12.3623
 268   2.0000      -0.451980       -12.2990
 269   2.0000      -0.450237       -12.2516
 270   2.0000      -0.447796       -12.1851
 271   2.0000      -0.447532       -12.1780
 272   2.0000      -0.446966       -12.1626
 273   2.0000      -0.446673       -12.1546
 274   2.0000      -0.445388       -12.1196
 275   2.0000      -0.444633       -12.0991
 276   2.0000      -0.443652       -12.0724
 277   2.0000      -0.441258       -12.0072
 278   2.0000      -0.439196       -11.9511
 279   2.0000      -0.437457       -11.9038
 280   2.0000      -0.435310       -11.8454
 281   2.0000      -0.433878       -11.8064
 282   2.0000      -0.432770       -11.7763
 283   2.0000      -0.432284       -11.7630
 284   2.0000      -0.430467       -11.7136
 285   2.0000      -0.429407       -11.6847
 286   2.0000      -0.427699       -11.6383
 287   2.0000      -0.426325       -11.6009
 288   2.0000      -0.424450       -11.5499
 289   2.0000      -0.419728       -11.4214
 290   2.0000      -0.419116       -11.4047
 291   2.0000      -0.414512       -11.2794
 292   2.0000      -0.412755       -11.2316
 293   2.0000      -0.402631       -10.9561
 294   2.0000      -0.400871       -10.9083
 295   2.0000      -0.395974       -10.7750
 296   2.0000      -0.394882       -10.7453
 297   2.0000      -0.386889       -10.5278
 298   2.0000      -0.381401       -10.3785
 299   2.0000      -0.380831       -10.3629
 300   2.0000      -0.374017       -10.1775
 301   2.0000      -0.364467        -9.9177
 302   2.0000      -0.360507        -9.8099
 303   2.0000      -0.359333        -9.7780
 304   2.0000      -0.351896        -9.5756
 305   2.0000      -0.349958        -9.5228
 306   2.0000      -0.341623        -9.2960
 307   2.0000      -0.334443        -9.1007
 308   2.0000      -0.333952        -9.0873
 309   2.0000      -0.330236        -8.9862
 310   2.0000      -0.324786        -8.8379
 311   2.0000      -0.323952        -8.8152
 312   2.0000      -0.321154        -8.7390
 313   2.0000      -0.302667        -8.2360
 314   2.0000      -0.301418        -8.2020
 315   2.0000      -0.287982        -7.8364
 316   2.0000      -0.266892        -7.2625
 317   0.0000      -0.130786        -3.5589
 318   0.0000      -0.117750        -3.2041
 319   0.0000      -0.100798        -2.7429
 320   0.0000      -0.095421        -2.5965
 321   0.0000      -0.092060        -2.5051

MULLIKEN ATOMIC CHARGES
-----------------------
   0 C :    0.318640
   1 C :   -0.344210
   2 C :   -0.185592
   3 N :    0.155490
   4 C :   -0.197853
   5 N :    0.158855
   6 C :    0.010852
   7 C :   -0.012663
   8 C :   -0.066832
   9 C :    0.115104
  10 C :   -0.091845
  11 C :   -0.015422
  12 S :    0.192448
  13 C :   -0.122710
  14 C :    0.038572
  15 Br:    0.028771
  16 C :    0.166227
  17 O :   -0.187720
  18 C :   -0.086586
  19 C :   -0.032982
  20 C :   -0.049621
  21 C :   -0.060920
  22 C :    0.050379
  23 C :   -0.079211
  24 S :    0.251106
  25 C :   -0.088629
  26 C :    0.013863
  27 C :    0.308493
  28 C :   -0.292497
  29 C :   -0.194600
  30 N :    0.185197
  31 C :   -0.192608
  32 N :    0.185114
  33 C :   -0.059150
  34 C :   -0.120902
  35 S :    0.260388
  36 C :    0.012306
  37 N :   -0.053333
  38 N :   -0.056445
  39 C :    0.009002
  40 C :   -0.025886
  41 C :   -0.024996
  42 N :    0.081687
  43 O :   -0.066977
  44 N :    0.083728
  45 C :   -0.125094
  46 C :   -0.051152
  47 C :    0.012595
  48 C :   -0.082295
  49 S :    0.259451
  50 C :   -0.093470
  51 C :    0.031614
  52 C :    0.303619
  53 C :   -0.293569
  54 C :   -0.191998
  55 N :    0.191407
  56 C :   -0.189452
  57 N :    0.181050
  58 C :    0.010352
  59 C :   -0.098979
  60 S :    0.213303
  61 C :    0.049350
  62 C :   -0.133776
  63 C :    0.242202
  64 C :   -0.323854
  65 C :   -0.176330
  66 N :    0.159911
  67 C :   -0.204890
  68 N :    0.177220
  69 C :    0.003704
  70 C :    0.000576
  71 C :    0.139736
  72 O :   -0.136353
  73 C :   -0.067648
  74 C :    0.110621
  75 C :   -0.088140
  76 C :   -0.018504
  77 S :    0.189367
  78 C :   -0.125522
  79 C :    0.043158
  80 Br:    0.029173
  81 H :   -0.008996
  82 H :   -0.004188
  83 H :   -0.002250
  84 H :    0.021488
  85 H :    0.029545
  86 H :    0.026492
  87 H :    0.025551
  88 H :    0.019624
  89 H :    0.037376
  90 H :   -0.005655
  91 H :   -0.001677
  92 H :   -0.000727
Sum of atomic charges:   -0.0000000

LOEWDIN ATOMIC CHARGES
----------------------
   0 C :    0.075314
   1 C :   -0.136930
   2 C :   -0.018217
   3 N :   -0.048726
   4 C :   -0.024181
   5 N :   -0.043667
   6 C :   -0.019815
   7 C :   -0.052194
   8 C :    0.023717
   9 C :   -0.032239
  10 C :   -0.142851
  11 C :   -0.007813
  12 S :    0.437767
  13 C :   -0.270257
  14 C :   -0.070305
  15 Br:    0.140944
  16 C :    0.086841
  17 O :   -0.172152
  18 C :   -0.105272
  19 C :    0.055846
  20 C :   -0.179909
  21 C :    0.010052
  22 C :   -0.070817
  23 C :   -0.173486
  24 S :    0.552846
  25 C :   -0.171977
  26 C :   -0.061619
  27 C :    0.074240
  28 C :   -0.095707
  29 C :   -0.019635
  30 N :   -0.022246
  31 C :   -0.020466
  32 N :   -0.021153
  33 C :   -0.008347
  34 C :   -0.178760
  35 S :    0.527969
  36 C :   -0.022484
  37 N :   -0.060508
  38 N :   -0.061777
  39 C :   -0.021825
  40 C :   -0.059879
  41 C :   -0.059581
  42 N :    0.003476
  43 O :    0.101653
  44 N :    0.003452
  45 C :   -0.180006
  46 C :   -0.006211
  47 C :   -0.062241
  48 C :   -0.170961
  49 S :    0.528158
  50 C :   -0.160020
  51 C :   -0.062301
  52 C :    0.076592
  53 C :   -0.091747
  54 C :   -0.020276
  55 N :   -0.018828
  56 C :   -0.016743
  57 N :   -0.024700
  58 C :    0.011893
  59 C :   -0.173327
  60 S :    0.510535
  61 C :    0.049251
  62 C :   -0.093828
  63 C :    0.060035
  64 C :   -0.141827
  65 C :   -0.020888
  66 N :   -0.046147
  67 C :   -0.035476
  68 N :   -0.045629
  69 C :   -0.018978
  70 C :   -0.053088
  71 C :    0.084137
  72 O :   -0.136449
  73 C :    0.024885
  74 C :   -0.031854
  75 C :   -0.142503
  76 C :   -0.011223
  77 S :    0.435270
  78 C :   -0.270390
  79 C :   -0.069265
  80 Br:    0.141157
  81 H :    0.041546
  82 H :    0.041977
  83 H :    0.039343
  84 H :    0.054499
  85 H :    0.048528
  86 H :    0.044650
  87 H :    0.044815
  88 H :    0.047870
  89 H :    0.056262
  90 H :    0.042915
  91 H :    0.041336
  92 H :    0.039930

  Mayer bond orders larger than 0.100000
B(  0-C ,  1-C ) :   1.6347 B(  0-C ,  6-C ) :   1.0019 B(  0-C , 18-C ) :   1.0667
B(  1-C ,  2-C ) :   1.1434 B(  1-C ,  4-C ) :   1.1425 B(  2-C ,  3-N ) :   2.9691
B(  4-C ,  5-N ) :   2.9693 B(  6-C ,  7-C ) :   1.2723 B(  6-C , 11-C ) :   1.4155
B(  7-C ,  8-C ) :   1.4185 B(  7-C , 16-C ) :   0.9651 B(  8-C ,  9-C ) :   1.2485
B(  8-C , 81-H ) :   1.0164 B(  9-C , 10-C ) :   1.3036 B(  9-C , 14-C ) :   1.1629
B( 10-C , 11-C ) :   1.3282 B( 10-C , 12-S ) :   1.0898 B( 11-C , 82-H ) :   0.9786
B( 12-S , 13-C ) :   1.0878 B( 13-C , 14-C ) :   1.6164 B( 13-C , 15-Br) :   1.0215
B( 14-C , 83-H ) :   1.0006 B( 16-C , 17-O ) :   2.1142 B( 16-C , 18-C ) :   0.9793
B( 18-C , 19-C ) :   1.5120 B( 19-C , 20-C ) :   1.2513 B( 19-C , 84-H ) :   0.9424
B( 20-C , 21-C ) :   1.3325 B( 20-C , 24-S ) :   1.0812 B( 21-C , 22-C ) :   1.3263
B( 21-C , 85-H ) :   1.0087 B( 22-C , 23-C ) :   1.3661 B( 22-C , 27-C ) :   0.9849
B( 23-C , 24-S ) :   1.1228 B( 23-C , 25-C ) :   1.2027 B( 25-C , 26-C ) :   1.4195
B( 25-C , 35-S ) :   1.1283 B( 26-C , 27-C ) :   0.9966 B( 26-C , 33-C ) :   1.2793
B( 27-C , 28-C ) :   1.7182 B( 28-C , 29-C ) :   1.1348 B( 28-C , 31-C ) :   1.1348
B( 29-C , 30-N ) :   2.9926 B( 31-C , 32-N ) :   2.9920 B( 33-C , 34-C ) :   1.4736
B( 33-C , 86-H ) :   0.9823 B( 34-C , 35-S ) :   1.0898 B( 34-C , 36-C ) :   1.1761
B( 36-C , 37-N ) :   1.7414 B( 36-C , 39-C ) :   0.1116 B( 36-C , 41-C ) :   1.0767
B( 37-N , 38-N ) :   1.2059 B( 38-N , 39-C ) :   1.7403 B( 39-C , 40-C ) :   1.0777
B( 39-C , 45-C ) :   1.1764 B( 40-C , 41-C ) :   1.1687 B( 40-C , 44-N ) :   1.6204
B( 41-C , 42-N ) :   1.6189 B( 42-N , 43-O ) :   1.0766 B( 42-N , 44-N ) :   0.1795
B( 43-O , 44-N ) :   1.0764 B( 45-C , 46-C ) :   1.4758 B( 45-C , 49-S ) :   1.0894
B( 46-C , 47-C ) :   1.2840 B( 46-C , 87-H ) :   0.9808 B( 47-C , 48-C ) :   1.4229
B( 47-C , 52-C ) :   0.9969 B( 48-C , 49-S ) :   1.1279 B( 48-C , 50-C ) :   1.2075
B( 50-C , 51-C ) :   1.4125 B( 50-C , 60-S ) :   1.1490 B( 51-C , 52-C ) :   0.9895
B( 51-C , 58-C ) :   1.3008 B( 52-C , 53-C ) :   1.7207 B( 53-C , 54-C ) :   1.1364
B( 53-C , 56-C ) :   1.1349 B( 54-C , 55-N ) :   2.9940 B( 56-C , 57-N ) :   2.9924
B( 58-C , 59-C ) :   1.4103 B( 58-C , 88-H ) :   1.0000 B( 59-C , 60-S ) :   1.0979
B( 59-C , 61-C ) :   1.1170 B( 61-C , 62-C ) :   1.6678 B( 61-C , 89-H ) :   0.9468
B( 62-C , 63-C ) :   1.0293 B( 62-C , 71-C ) :   0.9328 B( 63-C , 64-C ) :   1.6590
B( 63-C , 69-C ) :   1.0193 B( 64-C , 65-C ) :   1.1313 B( 64-C , 67-C ) :   1.1555
B( 65-C , 66-N ) :   2.9946 B( 67-C , 68-N ) :   3.0201 B( 69-C , 70-C ) :   1.2737
B( 69-C , 76-C ) :   1.4123 B( 70-C , 71-C ) :   0.9214 B( 70-C , 73-C ) :   1.4257
B( 71-C , 72-O ) :   2.2758 B( 73-C , 74-C ) :   1.2530 B( 73-C , 90-H ) :   1.0159
B( 74-C , 75-C ) :   1.3038 B( 74-C , 79-C ) :   1.1659 B( 75-C , 76-C ) :   1.3297
B( 75-C , 77-S ) :   1.0861 B( 76-C , 91-H ) :   0.9838 B( 77-S , 78-C ) :   1.0875
B( 78-C , 79-C ) :   1.6177 B( 78-C , 80-Br) :   1.0217 B( 79-C , 92-H ) :   0.9998

-----------------------------------------------------------------------------
         ABSORPTION SPECTRUM VIA TRANSITION ELECTRIC DIPOLE MOMENTS
-----------------------------------------------------------------------------
State   Energy  Wavelength   fosc         T2         TX        TY        TZ
        (cm-1)    (nm)                  (au**2)     (au)      (au)      (au)
-----------------------------------------------------------------------------
   0   13833.5    722.9   1.123016156  26.72566  -4.48330   2.37895  -0.98299
   1   15644.3    639.2   0.178161716   3.74915  -1.61424  -0.53604  -0.92522
   2   18704.7    534.6   0.841785967  14.81587   3.38308  -1.69220   0.71209
   3   20894.9    478.6   0.000288105   0.00454  -0.02814  -0.04802  -0.03797
   4   21524.3    464.6   0.445720716   6.81724  -1.26310  -2.04060  -1.02848
   5   22398.4    446.5   0.104419664   1.53476  -0.51817  -1.10016  -0.23645
   6   23592.5    423.9   0.314076204   4.38265   1.50127   0.25491   1.43662
   7   24657.6    405.6   0.085523528   1.14185  -0.14226   0.67695   0.81446
   8   25350.9    394.5   0.091027850   1.18211   0.21927  -0.85440  -0.63563
   9   25791.9    387.7   0.043122684   0.55042   0.00463   0.36556   0.64558
  10   27331.1    365.9   0.047268676   0.56937   0.15414  -0.43923  -0.59387
  11   28063.1    356.3   0.085678106   1.00510   0.45602   0.71038   0.54084
  12   28215.7    354.4   0.025339976   0.29566  -0.51081   0.14286  -0.11969
  13   28306.6    353.3   0.162949128   1.89513   0.59303   0.63331   1.06881
  14   28678.5    348.7   0.008897703   0.10214  -0.21932   0.23174   0.01823
  15   28832.1    346.8   0.250688623   2.86242   0.39266   1.29439   1.01626
  16   29134.8    343.2   0.077631987   0.87721  -0.24476   0.88878   0.16547
  17   29249.5    341.9   0.008991614   0.10120  -0.27429   0.16102   0.00635
  18   29366.0    340.5   0.044723637   0.50138   0.54185  -0.44228  -0.11034
  19   29955.8    333.8   0.047195483   0.51867   0.54563  -0.34875   0.31517
  20   30181.1    331.3   0.010630042   0.11595  -0.26305   0.16982   0.13385
  21   30674.9    326.0   0.475423984   5.10238  -0.56048   1.65462   1.43195
  22   31114.3    321.4   0.121233462   1.28274   0.99858  -0.37972  -0.37602
  23   31419.1    318.3   0.367271276   3.84830  -0.35774   1.41360   1.31227
  24   31454.2    317.9   0.110441262   1.15592   0.27629   1.03832   0.03842
  25   31882.1    313.7   0.083616646   0.86342  -0.87793   0.29334  -0.08128
  26   32012.2    312.4   0.813046174   8.36134   0.58520   2.10357   1.89575
  27   32225.8    310.3   0.079926399   0.81651  -0.66925   0.37835  -0.47483
  28   32256.6    310.0   0.010448677   0.10664   0.19037  -0.25630   0.06864
  29   32446.4    308.2   0.044823820   0.45480  -0.59064  -0.13800  -0.29478
  30   32690.3    305.9   0.027763865   0.27960   0.37341  -0.35028  -0.13217
  31   32866.3    304.3   0.058785997   0.58884  -0.76556   0.05179  -0.00900
  32   32918.3    303.8   0.295579625   2.95605   0.23887   1.11147   1.28982
  33   33124.6    301.9   0.258017139   2.56433  -1.37658   0.79599   0.18909
  34   33373.2    299.6   0.048834674   0.48173   0.39046  -0.52328  -0.23549
  35   33582.2    297.8   0.018194235   0.17836  -0.40178   0.06023   0.11535
  36   33880.2    295.2   0.104883485   1.01915  -0.33944  -0.79759  -0.51748
  37   35123.7    284.7   0.056517026   0.52973   0.53751   0.42725   0.24141
  38   35179.2    284.3   0.349270828   3.26853  -0.69538  -1.26827  -1.08465
  39   35269.0    283.5   0.329412617   3.07484   0.98384  -1.00343  -1.04882
  40   35537.1    281.4   0.096000456   0.88934   0.30102  -0.67224  -0.58891
  41   35705.7    280.1   0.017598045   0.16226   0.09165  -0.08532  -0.38285
  42   35859.0    278.9   0.055751617   0.51184   0.67104  -0.24097  -0.05902
  43   36261.9    275.8   0.258488003   2.34674  -1.22655   0.91657   0.04712
  44   36382.8    274.9   0.070243816   0.63561   0.56707   0.24790   0.50257
  45   36644.5    272.9   0.018449354   0.16575   0.20652   0.00640   0.35080
  46   36881.4    271.1   0.073091599   0.65243   0.75965  -0.17441   0.21201
  47   37044.5    269.9   0.010527725   0.09356   0.09635   0.10018   0.27247
  48   37187.0    268.9   0.016566831   0.14666  -0.33651   0.14348  -0.11331
  49   37300.2    268.1   0.045169657   0.39867   0.08875   0.30338   0.54658
  50   37445.6    267.1   0.001595219   0.01402  -0.11342   0.00251   0.03396
  51   37747.0    264.9   0.181561477   1.58350   1.19466  -0.28870   0.27006
  52   37805.8    264.5   0.097099240   0.84554   0.69295  -0.57524  -0.18566
  53   37927.7    263.7   0.004181123   0.03629   0.03001   0.17430  -0.07080
  54   38133.2    262.2   0.030202957   0.26075  -0.10330   0.40650   0.29127
  55   38197.6    261.8   0.018169515   0.15660   0.33385   0.13639   0.16292
  56   38451.7    260.1   0.018543272   0.15876  -0.03333   0.06446   0.39179
  57   38693.0    258.4   0.032627068   0.27760  -0.48807  -0.13202  -0.14818
  58   39014.2    256.3   0.036702536   0.30971  -0.44863   0.27347  -0.18345
  59   39111.4    255.7   0.004058148   0.03416   0.00805  -0.00456   0.18459
  60   39280.5    254.6   0.045697171   0.38299   0.26913   0.51023   0.22412
  61   39597.6    252.5   0.036834669   0.30624  -0.49348   0.23637   0.08276
  62   39686.2    252.0   0.006040503   0.05011  -0.04711   0.17567  -0.13049
  63   39994.2    250.0   0.011371749   0.09361  -0.23943  -0.11398  -0.15261
  64   40125.5    249.2   0.088777490   0.72838   0.80577   0.27449   0.06142
  65   40295.9    248.2   0.106109769   0.86690   0.86533  -0.25192   0.23377

FINAL SINGLE POINT ENERGY    -10632.225274947012

DIPOLE MOMENT
-------------
                                X             Y             Z
Electronic contribution:     35.01286     115.05806     102.04572
Nuclear contribution   :    -36.10817    -111.37406     -97.78164
                        -----------------------------------------
Total Dipole Moment    :     -1.09531       3.68400       4.26408
                        -----------------------------------------
Magnitude (a.u.)       :      5.74056
Magnitude (Debye)      :     14.59133

Rotational constants in cm-1:     0.000552     0.000147     0.000118
Rotational constants in MHz :    16.538243     4.396109     3.534597

                             ****ORCA TERMINATED NORMALLY****
TOTAL RUN TIME: 0 days 0 hours 10 minutes 11 seconds 602 msec
