                         Program Version 4.2.0 -  RELEASE  -
|  1> # ORCA input file
|  2> # SCF done       -201.259866409687          0.000983367191
|  3> ! CAM-B3LYP def2-SVP def2/J RIJCOSX Grid4 TightSCF
|  4> %maxcore 5000
|  5> %tddft
|  6>     Mode sTDDFT
|  7>     Ethresh 5.0
|  8>     maxcore 5000
|  9> end
| 10>
| 11> %pal
| 12>   nprocs 6
| 13>   end
| 14> * xyz 0 1
| 15>    C       -2.08404         0.76856        -4.85002
| 16>    C       -0.78129         1.15251        -4.66731
| 17>    C        0.32352         0.51167        -5.26827
| 18>    N        1.26175         0.03635        -5.72824
| 19>    C       -0.34148         2.21644        -3.85108
| 20>    N        0.09939         3.05586        -3.20303
| 21>    C       -2.52303        -0.36122        -5.66350
| 22>    C       -3.93080        -0.48287        -5.55418
| 23>    C       -4.64582        -1.45847        -6.20533
| 24>    C       -3.93752        -2.35853        -7.00847
| 25>    C       -2.53210        -2.22866        -7.11549
| 26>    C       -1.80972        -1.24279        -6.45419
| 27>    S       -1.85599        -3.43923        -8.16168
| 28>    C       -3.44715        -4.09627        -8.43635
| 29>    C       -4.43601        -3.44343        -7.77975
| 30>   Br       -3.65327        -5.58056        -9.56359
| 31>    C       -4.43739         0.57807        -4.66928
| 32>    O       -5.59946         0.75778        -4.34610
| 33>    C       -3.27069         1.37216        -4.26885
| 34>    C       -3.30836         2.52300        -3.52552
| 35>    C       -4.39597         3.20315        -2.95526
| 36>    C       -4.22879         4.43000        -2.30141
| 37>    C       -5.42242         4.95045        -1.84134
| 38>    C       -6.52200         4.10498        -2.12288
| 39>    S       -6.08486         2.69426        -2.96852
| 40>    C       -7.69753         4.73879        -1.63704
| 41>    C       -7.34012         5.97703        -1.07066
| 42>    C       -5.90299         6.14828        -1.16865
| 43>    C       -5.17007         7.21341        -0.73373
| 44>    C       -3.76714         7.27279        -0.87278
| 45>    N       -2.62730         7.32858        -0.98160
| 46>    C       -5.77216         8.33336        -0.12204
| 47>    N       -6.25998         9.24993         0.36507
| 48>    C       -8.44185         6.68973        -0.59737
| 49>    C       -9.61430         5.99423        -0.79404
| 50>    S       -9.38019         4.44885        -1.56028
| 51>    C      -10.93787         6.46149        -0.45823
| 52>    N      -11.95516         5.60655        -0.56641
| 53>    C      -13.15206         6.07498        -0.25593
| 54>    C      -13.36200         7.38610         0.13800
| 55>    C      -12.23399         8.21767         0.19908
| 56>    N      -11.02589         7.73101        -0.08724
| 57>    C      -12.32222         9.62399         0.52492
| 58>    C      -11.21811        10.39747         0.53763
| 59>    C      -11.16402        11.80224         0.74860
| 60>    C      -12.18701        12.71211         0.95672
| 61>    C      -11.71233        14.01980         1.04637
| 62>    C      -10.31309        14.10323         0.91073
| 63>    S       -9.59125        12.57982         0.67780
| 64>    C       -9.93259        15.46799         0.97090
| 65>    C      -11.09416        16.24692         1.14191
| 66>    C      -12.24759        15.36388         1.19450
| 67>    C      -13.55494        15.73470         1.31270
| 68>    C      -14.60236        14.79071         1.34611
| 69>    N      -15.44847        14.01796         1.38380
| 70>    C      -13.92839        17.09217         1.40745
| 71>    N      -14.21538        18.19981         1.48288
| 72>    C      -10.83313        17.61131         1.14651
| 73>    C       -9.48365        17.88680         0.97837
| 74>    S       -8.52630        16.41450         0.85500
| 75>    C       -8.82380        19.13404         0.92342
| 76>    C       -9.33126        20.36666         0.64690
| 77>    C      -10.58251        20.83206         0.08484
| 78>    C      -11.38235        20.17109        -0.81163
| 79>    C      -12.51665        20.74492        -1.42500
| 80>    N      -13.44272        21.16443        -1.95680
| 81>    C      -11.11494        18.88330        -1.31423
| 82>    N      -10.92596        17.84993        -1.77801
| 83>    C      -10.70037        22.25038         0.41050
| 84>    C       -9.46233        22.70398         0.93231
| 85>    C       -8.53077        21.56526         1.03025
| 86>    O       -7.37505        21.57407         1.38496
| 87>    C       -9.24506        24.01515         1.28071
| 88>    C      -10.30230        24.91674         1.11906
| 89>    C      -11.54208        24.44832         0.61984
| 90>    C      -11.75996        23.12407         0.25936
| 91>    S      -12.71279        25.72661         0.51500
| 92>    C      -11.53652        26.85973         1.12592
| 93>    C      -10.32917        26.31013         1.39948
| 94>   Br      -12.01321        28.65952         1.34626
| 95>    H       -5.71726        -1.52470        -6.09977
| 96>    H       -0.74072        -1.18634        -6.57119
| 97>    H       -5.47422        -3.71465        -7.83636
| 98>    H       -2.36419         3.02597        -3.35422
| 99>    H       -3.26493         4.89576        -2.19445
|100>    H       -8.41998         7.65838        -0.13472
|101>    H      -13.96722         5.36742        -0.33634
|102>    H      -14.34573         7.75570         0.37598
|103>    H      -13.30638        10.02190         0.72191
|104>    H      -10.27287         9.90934         0.33962
|105>    H      -13.22139        12.43022         1.02649
|106>    H      -11.57200        18.37665         1.30068
|107>    H       -7.76961        19.12852         1.18578
|108>    H       -8.28927        24.33611         1.66410
|109>    H      -12.72271        22.81011        -0.10864
|110>    H       -9.49090        26.86301         1.78234
|111> *
|112>
|113>                          ****END OF INPUT****

CARTESIAN COORDINATES (ANGSTROEM)
---------------------------------
  C     -2.084040    0.768560   -4.850020
  C     -0.781290    1.152510   -4.667310
  C      0.323520    0.511670   -5.268270
  N      1.261750    0.036350   -5.728240
  C     -0.341480    2.216440   -3.851080
  N      0.099390    3.055860   -3.203030
  C     -2.523030   -0.361220   -5.663500
  C     -3.930800   -0.482870   -5.554180
  C     -4.645820   -1.458470   -6.205330
  C     -3.937520   -2.358530   -7.008470
  C     -2.532100   -2.228660   -7.115490
  C     -1.809720   -1.242790   -6.454190
  S     -1.855990   -3.439230   -8.161680
  C     -3.447150   -4.096270   -8.436350
  C     -4.436010   -3.443430   -7.779750
  Br    -3.653270   -5.580560   -9.563590
  C     -4.437390    0.578070   -4.669280
  O     -5.599460    0.757780   -4.346100
  C     -3.270690    1.372160   -4.268850
  C     -3.308360    2.523000   -3.525520
  C     -4.395970    3.203150   -2.955260
  C     -4.228790    4.430000   -2.301410
  C     -5.422420    4.950450   -1.841340
  C     -6.522000    4.104980   -2.122880
  S     -6.084860    2.694260   -2.968520
  C     -7.697530    4.738790   -1.637040
  C     -7.340120    5.977030   -1.070660
  C     -5.902990    6.148280   -1.168650
  C     -5.170070    7.213410   -0.733730
  C     -3.767140    7.272790   -0.872780
  N     -2.627300    7.328580   -0.981600
  C     -5.772160    8.333360   -0.122040
  N     -6.259980    9.249930    0.365070
  C     -8.441850    6.689730   -0.597370
  C     -9.614300    5.994230   -0.794040
  S     -9.380190    4.448850   -1.560280
  C    -10.937870    6.461490   -0.458230
  N    -11.955160    5.606550   -0.566410
  C    -13.152060    6.074980   -0.255930
  C    -13.362000    7.386100    0.138000
  C    -12.233990    8.217670    0.199080
  N    -11.025890    7.731010   -0.087240
  C    -12.322220    9.623990    0.524920
  C    -11.218110   10.397470    0.537630
  C    -11.164020   11.802240    0.748600
  C    -12.187010   12.712110    0.956720
  C    -11.712330   14.019800    1.046370
  C    -10.313090   14.103230    0.910730
  S     -9.591250   12.579820    0.677800
  C     -9.932590   15.467990    0.970900
  C    -11.094160   16.246920    1.141910
  C    -12.247590   15.363880    1.194500
  C    -13.554940   15.734700    1.312700
  C    -14.602360   14.790710    1.346110
  N    -15.448470   14.017960    1.383800
  C    -13.928390   17.092170    1.407450
  N    -14.215380   18.199810    1.482880
  C    -10.833130   17.611310    1.146510
  C     -9.483650   17.886800    0.978370
  S     -8.526300   16.414500    0.855000
  C     -8.823800   19.134040    0.923420
  C     -9.331260   20.366660    0.646900
  C    -10.582510   20.832060    0.084840
  C    -11.382350   20.171090   -0.811630
  C    -12.516650   20.744920   -1.425000
  N    -13.442720   21.164430   -1.956800
  C    -11.114940   18.883300   -1.314230
  N    -10.925960   17.849930   -1.778010
  C    -10.700370   22.250380    0.410500
  C     -9.462330   22.703980    0.932310
  C     -8.530770   21.565260    1.030250
  O     -7.375050   21.574070    1.384960
  C     -9.245060   24.015150    1.280710
  C    -10.302300   24.916740    1.119060
  C    -11.542080   24.448320    0.619840
  C    -11.759960   23.124070    0.259360
  S    -12.712790   25.726610    0.515000
  C    -11.536520   26.859730    1.125920
  C    -10.329170   26.310130    1.399480
  Br   -12.013210   28.659520    1.346260
  H     -5.717260   -1.524700   -6.099770
  H     -0.740720   -1.186340   -6.571190
  H     -5.474220   -3.714650   -7.836360
  H     -2.364190    3.025970   -3.354220
  H     -3.264930    4.895760   -2.194450
  H     -8.419980    7.658380   -0.134720
  H    -13.967220    5.367420   -0.336340
  H    -14.345730    7.755700    0.375980
  H    -13.306380   10.021900    0.721910
  H    -10.272870    9.909340    0.339620
  H    -13.221390   12.430220    1.026490
  H    -11.572000   18.376650    1.300680
  H     -7.769610   19.128520    1.185780
  H     -8.289270   24.336110    1.664100
  H    -12.722710   22.810110   -0.108640
  H     -9.490900   26.863010    1.782340

 Total Charge           Charge          ....    0
 Multiplicity           Mult            ....    1
 Number of Electrons    NEL             ....  628
 Basis Dimension        Dim             .... 1260

ORBITAL ENERGIES
----------------

  NO   OCC          E(Eh)            E(eV)
   0   2.0000    -482.888829    -13140.0731
   1   2.0000    -482.886448    -13140.0083
   2   2.0000     -88.998686     -2421.7774
   3   2.0000     -88.995956     -2421.7031
   4   2.0000     -88.993471     -2421.6355
   5   2.0000     -88.992709     -2421.6147
   6   2.0000     -88.979310     -2421.2501
   7   2.0000     -88.977026     -2421.1880
   8   2.0000     -62.566511     -1702.5213
   9   2.0000     -62.564190     -1702.4582
  10   2.0000     -56.400468     -1534.7347
  11   2.0000     -56.398141     -1534.6714
  12   2.0000     -56.397744     -1534.6606
  13   2.0000     -56.397712     -1534.6598
  14   2.0000     -56.395420     -1534.5974
  15   2.0000     -56.395388     -1534.5965
  16   2.0000     -19.228895      -523.2448
  17   2.0000     -19.218417      -522.9597
  18   2.0000     -14.435763      -392.8171
  19   2.0000     -14.435707      -392.8155
  20   2.0000     -14.434082      -392.7714
  21   2.0000     -14.431431      -392.6992
  22   2.0000     -14.422642      -392.4600
  23   2.0000     -14.421927      -392.4406
  24   2.0000     -14.420522      -392.4023
  25   2.0000     -14.419635      -392.3782
  26   2.0000     -14.417354      -392.3161
  27   2.0000     -14.416555      -392.2944
  28   2.0000     -10.376480      -282.3584
  29   2.0000     -10.370327      -282.1909
  30   2.0000     -10.369466      -282.1675
  31   2.0000     -10.367011      -282.1007
  32   2.0000     -10.363362      -282.0014
  33   2.0000     -10.362582      -281.9802
  34   2.0000     -10.360072      -281.9119
  35   2.0000     -10.358289      -281.8634
  36   2.0000     -10.355523      -281.7881
  37   2.0000     -10.347095      -281.5588
  38   2.0000     -10.346496      -281.5425
  39   2.0000     -10.345934      -281.5272
  40   2.0000     -10.345635      -281.5190
  41   2.0000     -10.345324      -281.5106
  42   2.0000     -10.342819      -281.4424
  43   2.0000     -10.339456      -281.3509
  44   2.0000     -10.337175      -281.2888
  45   2.0000     -10.336083      -281.2591
  46   2.0000     -10.336034      -281.2578
  47   2.0000     -10.335244      -281.2363
  48   2.0000     -10.334859      -281.2258
  49   2.0000     -10.334201      -281.2079
  50   2.0000     -10.331409      -281.1319
  51   2.0000     -10.330779      -281.1148
  52   2.0000     -10.330381      -281.1040
  53   2.0000     -10.330021      -281.0942
  54   2.0000     -10.329637      -281.0837
  55   2.0000     -10.329385      -281.0769
  56   2.0000     -10.327800      -281.0337
  57   2.0000     -10.327674      -281.0303
  58   2.0000     -10.322061      -280.8776
  59   2.0000     -10.321986      -280.8755
  60   2.0000     -10.320894      -280.8458
  61   2.0000     -10.320374      -280.8316
  62   2.0000     -10.318964      -280.7933
  63   2.0000     -10.315639      -280.7028
  64   2.0000     -10.315526      -280.6997
  65   2.0000     -10.313385      -280.6415
  66   2.0000     -10.312544      -280.6186
  67   2.0000     -10.311812      -280.5987
  68   2.0000     -10.311365      -280.5865
  69   2.0000     -10.310743      -280.5696
  70   2.0000     -10.309500      -280.5358
  71   2.0000     -10.309497      -280.5357
  72   2.0000     -10.309372      -280.5323
  73   2.0000     -10.309110      -280.5251
  74   2.0000     -10.307775      -280.4888
  75   2.0000     -10.307742      -280.4879
  76   2.0000     -10.306429      -280.4522
  77   2.0000     -10.305714      -280.4327
  78   2.0000     -10.303737      -280.3789
  79   2.0000     -10.303582      -280.3747
  80   2.0000     -10.302967      -280.3580
  81   2.0000     -10.302777      -280.3528
  82   2.0000     -10.300411      -280.2884
  83   2.0000     -10.297930      -280.2209
  84   2.0000     -10.297588      -280.2116
  85   2.0000     -10.296099      -280.1711
  86   2.0000     -10.295514      -280.1552
  87   2.0000     -10.292969      -280.0859
  88   2.0000      -8.795921      -239.3492
  89   2.0000      -8.793645      -239.2872
  90   2.0000      -8.093422      -220.2332
  91   2.0000      -8.090732      -220.1600
  92   2.0000      -8.087564      -220.0738
  93   2.0000      -8.085066      -220.0058
  94   2.0000      -8.075342      -219.7412
  95   2.0000      -8.073011      -219.6778
  96   2.0000      -6.632239      -180.4724
  97   2.0000      -6.629961      -180.4104
  98   2.0000      -6.617652      -180.0755
  99   2.0000      -6.617438      -180.0697
 100   2.0000      -6.615364      -180.0132
 101   2.0000      -6.615176      -180.0081
 102   2.0000      -6.062571      -164.9709
 103   2.0000      -6.059841      -164.8966
 104   2.0000      -6.058389      -164.8572
 105   2.0000      -6.056713      -164.8115
 106   2.0000      -6.055939      -164.7905
 107   2.0000      -6.055640      -164.7823
 108   2.0000      -6.054464      -164.7503
 109   2.0000      -6.053327      -164.7194
 110   2.0000      -6.052409      -164.6944
 111   2.0000      -6.050267      -164.6361
 112   2.0000      -6.049716      -164.6211
 113   2.0000      -6.047646      -164.5648
 114   2.0000      -6.045006      -164.4930
 115   2.0000      -6.042707      -164.4304
 116   2.0000      -6.040745      -164.3770
 117   2.0000      -6.038413      -164.3136
 118   2.0000      -6.036583      -164.2638
 119   2.0000      -6.034240      -164.2000
 120   2.0000      -2.748116       -74.7800
 121   2.0000      -2.745830       -74.7178
 122   2.0000      -2.744011       -74.6683
 123   2.0000      -2.743857       -74.6642
 124   2.0000      -2.741751       -74.6068
 125   2.0000      -2.741573       -74.6020
 126   2.0000      -2.732257       -74.3485
 127   2.0000      -2.732247       -74.3482
 128   2.0000      -2.729990       -74.2868
 129   2.0000      -2.729972       -74.2863
 130   2.0000      -1.144214       -31.1357
 131   2.0000      -1.134141       -30.8615
 132   2.0000      -1.098880       -29.9021
 133   2.0000      -1.052929       -28.6516
 134   2.0000      -1.048023       -28.5181
 135   2.0000      -1.027877       -27.9700
 136   2.0000      -1.027180       -27.9510
 137   2.0000      -1.025774       -27.9127
 138   2.0000      -1.024539       -27.8791
 139   2.0000      -1.017045       -27.6752
 140   2.0000      -1.016510       -27.6607
 141   2.0000      -1.013443       -27.5772
 142   2.0000      -1.010271       -27.4909
 143   2.0000      -1.006541       -27.3894
 144   2.0000      -1.001540       -27.2533
 145   2.0000      -0.997314       -27.1383
 146   2.0000      -0.997011       -27.1300
 147   2.0000      -0.996335       -27.1116
 148   2.0000      -0.993795       -27.0425
 149   2.0000      -0.992054       -26.9952
 150   2.0000      -0.967433       -26.3252
 151   2.0000      -0.963580       -26.2203
 152   2.0000      -0.946641       -25.7594
 153   2.0000      -0.945359       -25.7245
 154   2.0000      -0.931034       -25.3347
 155   2.0000      -0.925307       -25.1789
 156   2.0000      -0.914082       -24.8734
 157   2.0000      -0.912655       -24.8346
 158   2.0000      -0.910936       -24.7878
 159   2.0000      -0.901416       -24.5288
 160   2.0000      -0.895189       -24.3593
 161   2.0000      -0.890065       -24.2199
 162   2.0000      -0.888095       -24.1663
 163   2.0000      -0.884328       -24.0638
 164   2.0000      -0.875385       -23.8204
 165   2.0000      -0.874604       -23.7992
 166   2.0000      -0.864223       -23.5167
 167   2.0000      -0.861163       -23.4334
 168   2.0000      -0.857451       -23.3324
 169   2.0000      -0.854778       -23.2597
 170   2.0000      -0.833672       -22.6854
 171   2.0000      -0.831463       -22.6253
 172   2.0000      -0.814442       -22.1621
 173   2.0000      -0.809967       -22.0403
 174   2.0000      -0.793240       -21.5852
 175   2.0000      -0.788139       -21.4464
 176   2.0000      -0.780024       -21.2255
 177   2.0000      -0.776659       -21.1340
 178   2.0000      -0.766337       -20.8531
 179   2.0000      -0.765763       -20.8375
 180   2.0000      -0.753693       -20.5090
 181   2.0000      -0.746990       -20.3266
 182   2.0000      -0.726640       -19.7729
 183   2.0000      -0.718355       -19.5474
 184   2.0000      -0.712271       -19.3819
 185   2.0000      -0.704998       -19.1840
 186   2.0000      -0.702197       -19.1078
 187   2.0000      -0.697599       -18.9826
 188   2.0000      -0.693855       -18.8808
 189   2.0000      -0.693452       -18.8698
 190   2.0000      -0.687076       -18.6963
 191   2.0000      -0.684862       -18.6361
 192   2.0000      -0.684550       -18.6275
 193   2.0000      -0.667216       -18.1559
 194   2.0000      -0.665351       -18.1051
 195   2.0000      -0.658633       -17.9223
 196   2.0000      -0.652202       -17.7473
 197   2.0000      -0.646414       -17.5898
 198   2.0000      -0.641805       -17.4644
 199   2.0000      -0.637765       -17.3545
 200   2.0000      -0.632635       -17.2149
 201   2.0000      -0.626878       -17.0582
 202   2.0000      -0.626056       -17.0359
 203   2.0000      -0.623729       -16.9725
 204   2.0000      -0.620192       -16.8763
 205   2.0000      -0.617126       -16.7929
 206   2.0000      -0.609239       -16.5782
 207   2.0000      -0.604420       -16.4471
 208   2.0000      -0.601754       -16.3745
 209   2.0000      -0.596865       -16.2415
 210   2.0000      -0.587997       -16.0002
 211   2.0000      -0.586820       -15.9682
 212   2.0000      -0.579883       -15.7794
 213   2.0000      -0.567301       -15.4370
 214   2.0000      -0.561718       -15.2851
 215   2.0000      -0.559507       -15.2249
 216   2.0000      -0.555128       -15.1058
 217   2.0000      -0.554059       -15.0767
 218   2.0000      -0.552967       -15.0470
 219   2.0000      -0.550020       -14.9668
 220   2.0000      -0.547530       -14.8990
 221   2.0000      -0.547036       -14.8856
 222   2.0000      -0.543171       -14.7804
 223   2.0000      -0.540004       -14.6943
 224   2.0000      -0.539305       -14.6752
 225   2.0000      -0.537139       -14.6163
 226   2.0000      -0.533162       -14.5081
 227   2.0000      -0.528501       -14.3812
 228   2.0000      -0.526041       -14.3143
 229   2.0000      -0.525593       -14.3021
 230   2.0000      -0.517954       -14.0942
 231   2.0000      -0.515448       -14.0260
 232   2.0000      -0.514495       -14.0001
 233   2.0000      -0.514160       -13.9910
 234   2.0000      -0.512205       -13.9378
 235   2.0000      -0.509566       -13.8660
 236   2.0000      -0.507022       -13.7968
 237   2.0000      -0.506627       -13.7860
 238   2.0000      -0.504985       -13.7413
 239   2.0000      -0.502705       -13.6793
 240   2.0000      -0.500742       -13.6259
 241   2.0000      -0.500578       -13.6214
 242   2.0000      -0.500079       -13.6079
 243   2.0000      -0.496879       -13.5208
 244   2.0000      -0.491295       -13.3688
 245   2.0000      -0.489851       -13.3295
 246   2.0000      -0.487206       -13.2575
 247   2.0000      -0.484338       -13.1795
 248   2.0000      -0.479749       -13.0546
 249   2.0000      -0.477257       -12.9868
 250   2.0000      -0.476677       -12.9710
 251   2.0000      -0.472819       -12.8661
 252   2.0000      -0.466914       -12.7054
 253   2.0000      -0.465672       -12.6716
 254   2.0000      -0.465063       -12.6550
 255   2.0000      -0.463866       -12.6224
 256   2.0000      -0.462609       -12.5882
 257   2.0000      -0.460212       -12.5230
 258   2.0000      -0.459458       -12.5025
 259   2.0000      -0.455730       -12.4010
 260   2.0000      -0.453737       -12.3468
 261   2.0000      -0.453362       -12.3366
 262   2.0000      -0.452047       -12.3008
 263   2.0000      -0.450691       -12.2639
 264   2.0000      -0.449500       -12.2315
 265   2.0000      -0.448960       -12.2168
 266   2.0000      -0.448174       -12.1954
 267   2.0000      -0.446374       -12.1464
 268   2.0000      -0.445860       -12.1325
 269   2.0000      -0.444584       -12.0978
 270   2.0000      -0.443561       -12.0699
 271   2.0000      -0.443373       -12.0648
 272   2.0000      -0.443030       -12.0555
 273   2.0000      -0.441510       -12.0141
 274   2.0000      -0.440236       -11.9794
 275   2.0000      -0.437278       -11.8989
 276   2.0000      -0.434319       -11.8184
 277   2.0000      -0.431918       -11.7531
 278   2.0000      -0.430202       -11.7064
 279   2.0000      -0.429781       -11.6949
 280   2.0000      -0.429552       -11.6887
 281   2.0000      -0.427249       -11.6260
 282   2.0000      -0.423127       -11.5139
 283   2.0000      -0.420037       -11.4298
 284   2.0000      -0.415026       -11.2934
 285   2.0000      -0.412997       -11.2382
 286   2.0000      -0.412619       -11.2279
 287   2.0000      -0.409983       -11.1562
 288   2.0000      -0.399040       -10.8584
 289   2.0000      -0.395190       -10.7537
 290   2.0000      -0.394219       -10.7272
 291   2.0000      -0.392413       -10.6781
 292   2.0000      -0.389137       -10.5890
 293   2.0000      -0.385775       -10.4975
 294   2.0000      -0.378105       -10.2888
 295   2.0000      -0.375833       -10.2269
 296   2.0000      -0.375277       -10.2118
 297   2.0000      -0.361906        -9.8480
 298   2.0000      -0.355656        -9.6779
 299   2.0000      -0.353698        -9.6246
 300   2.0000      -0.351009        -9.5514
 301   2.0000      -0.345082        -9.3902
 302   2.0000      -0.340983        -9.2786
 303   2.0000      -0.339463        -9.2373
 304   2.0000      -0.330490        -8.9931
 305   2.0000      -0.328833        -8.9480
 306   2.0000      -0.324033        -8.8174
 307   2.0000      -0.319299        -8.6886
 308   2.0000      -0.317210        -8.6317
 309   2.0000      -0.314565        -8.5598
 310   2.0000      -0.297715        -8.1012
 311   2.0000      -0.296041        -8.0557
 312   2.0000      -0.270961        -7.3732
 313   2.0000      -0.265568        -7.2265
 314   0.0000      -0.114607        -3.1186
 315   0.0000      -0.112266        -3.0549
 316   0.0000      -0.091938        -2.5018
 317   0.0000      -0.090387        -2.4596
 318   0.0000      -0.067570        -1.8387

MULLIKEN ATOMIC CHARGES
-----------------------
   0 C :    0.323310
   1 C :   -0.349517
   2 C :   -0.187569
   3 N :    0.155840
   4 C :   -0.194888
   5 N :    0.153801
   6 C :    0.011613
   7 C :   -0.012290
   8 C :   -0.071575
   9 C :    0.118209
  10 C :   -0.092365
  11 C :   -0.019599
  12 S :    0.190092
  13 C :   -0.122025
  14 C :    0.037458
  15 Br:    0.026463
  16 C :    0.165741
  17 O :   -0.188509
  18 C :   -0.089852
  19 C :   -0.031385
  20 C :   -0.052984
  21 C :   -0.062032
  22 C :    0.048842
  23 C :   -0.073304
  24 S :    0.246624
  25 C :   -0.104893
  26 C :    0.013581
  27 C :    0.306303
  28 C :   -0.299575
  29 C :   -0.197462
  30 N :    0.183367
  31 C :   -0.186908
  32 N :    0.167841
  33 C :   -0.033670
  34 C :   -0.035118
  35 S :    0.253142
  36 C :   -0.080414
  37 N :   -0.081466
  38 C :    0.091037
  39 C :   -0.047691
  40 C :    0.065937
  41 N :   -0.064257
  42 C :   -0.024754
  43 C :    0.086260
  44 C :   -0.071552
  45 C :   -0.020990
  46 C :    0.006227
  47 C :   -0.108800
  48 S :    0.226823
  49 C :   -0.071008
  50 C :   -0.002206
  51 C :    0.302987
  52 C :   -0.284231
  53 C :   -0.187256
  54 N :    0.174625
  55 C :   -0.185927
  56 N :    0.169983
  57 C :   -0.002177
  58 C :   -0.113313
  59 S :    0.220762
  60 C :    0.081207
  61 C :   -0.133504
  62 C :    0.271655
  63 C :   -0.333015
  64 C :   -0.172575
  65 N :    0.159661
  66 C :   -0.200084
  67 N :    0.167588
  68 C :   -0.005447
  69 C :    0.005435
  70 C :    0.131969
  71 O :   -0.142185
  72 C :   -0.069583
  73 C :    0.112089
  74 C :   -0.090381
  75 C :   -0.015402
  76 S :    0.190055
  77 C :   -0.126241
  78 C :    0.042224
  79 Br:    0.025969
  80 H :   -0.009206
  81 H :   -0.004609
  82 H :   -0.002897
  83 H :    0.016650
  84 H :    0.028065
  85 H :    0.011774
  86 H :    0.012743
  87 H :    0.000289
  88 H :   -0.010502
  89 H :    0.014207
  90 H :    0.008309
  91 H :    0.024586
  92 H :    0.023430
  93 H :   -0.008110
  94 H :    0.002740
  95 H :   -0.002205
Sum of atomic charges:   -0.0000000

LOEWDIN ATOMIC CHARGES
----------------------
   0 C :    0.076378
   1 C :   -0.140438
   2 C :   -0.018257
   3 N :   -0.051925
   4 C :   -0.023686
   5 N :   -0.046613
   6 C :   -0.019719
   7 C :   -0.051599
   8 C :    0.022580
   9 C :   -0.032765
  10 C :   -0.143378
  11 C :   -0.008505
  12 S :    0.436123
  13 C :   -0.271065
  14 C :   -0.070363
  15 Br:    0.138987
  16 C :    0.086198
  17 O :   -0.174183
  18 C :   -0.111271
  19 C :    0.057077
  20 C :   -0.184633
  21 C :    0.012623
  22 C :   -0.078013
  23 C :   -0.164838
  24 S :    0.549941
  25 C :   -0.184719
  26 C :   -0.061939
  27 C :    0.079551
  28 C :   -0.103940
  29 C :   -0.020876
  30 N :   -0.025829
  31 C :   -0.013167
  32 N :   -0.040024
  33 C :   -0.008442
  34 C :   -0.178576
  35 S :    0.522579
  36 C :    0.011836
  37 N :   -0.108879
  38 C :    0.057972
  39 C :   -0.065321
  40 C :    0.043079
  41 N :   -0.086185
  42 C :   -0.040536
  43 C :    0.001463
  44 C :   -0.163854
  45 C :   -0.016904
  46 C :   -0.058892
  47 C :   -0.183978
  48 S :    0.508748
  49 C :   -0.158956
  50 C :   -0.065456
  51 C :    0.083263
  52 C :   -0.098712
  53 C :   -0.015767
  54 N :   -0.032356
  55 C :   -0.013486
  56 N :   -0.031748
  57 C :    0.008451
  58 C :   -0.180855
  59 S :    0.505477
  60 C :    0.042129
  61 C :   -0.090541
  62 C :    0.066436
  63 C :   -0.136883
  64 C :   -0.019272
  65 N :   -0.045632
  66 C :   -0.015336
  67 N :   -0.047182
  68 C :   -0.017888
  69 C :   -0.053675
  70 C :    0.083421
  71 O :   -0.142137
  72 C :    0.023731
  73 C :   -0.032929
  74 C :   -0.142301
  75 C :   -0.009366
  76 S :    0.435747
  77 C :   -0.271228
  78 C :   -0.070134
  79 Br:    0.138516
  80 H :    0.041224
  81 H :    0.041726
  82 H :    0.038970
  83 H :    0.053821
  84 H :    0.048175
  85 H :    0.042151
  86 H :    0.029763
  87 H :    0.036070
  88 H :    0.030365
  89 H :    0.036521
  90 H :    0.040941
  91 H :    0.042809
  92 H :    0.046495
  93 H :    0.041869
  94 H :    0.042692
  95 H :    0.039251

  Mayer bond orders larger than 0.100000
B(  0-C ,  1-C ) :   1.6272 B(  0-C ,  6-C ) :   0.9993 B(  0-C , 18-C ) :   1.0760
B(  1-C ,  2-C ) :   1.1441 B(  1-C ,  4-C ) :   1.1442 B(  2-C ,  3-N ) :   2.9696
B(  4-C ,  5-N ) :   2.9623 B(  6-C ,  7-C ) :   1.2736 B(  6-C , 11-C ) :   1.4159
B(  7-C ,  8-C ) :   1.4209 B(  7-C , 16-C ) :   0.9624 B(  8-C ,  9-C ) :   1.2456
B(  8-C , 80-H ) :   1.0166 B(  9-C , 10-C ) :   1.3046 B(  9-C , 14-C ) :   1.1641
B( 10-C , 11-C ) :   1.3284 B( 10-C , 12-S ) :   1.0888 B( 11-C , 81-H ) :   0.9785
B( 12-S , 13-C ) :   1.0874 B( 13-C , 14-C ) :   1.6159 B( 13-C , 15-Br) :   1.0203
B( 14-C , 82-H ) :   1.0008 B( 16-C , 17-O ) :   2.1154 B( 16-C , 18-C ) :   0.9828
B( 18-C , 19-C ) :   1.4971 B( 19-C , 20-C ) :   1.2646 B( 19-C , 83-H ) :   0.9400
B( 20-C , 21-C ) :   1.3297 B( 20-C , 24-S ) :   1.0709 B( 21-C , 22-C ) :   1.3275
B( 21-C , 84-H ) :   1.0093 B( 22-C , 23-C ) :   1.3641 B( 22-C , 27-C ) :   0.9855
B( 23-C , 24-S ) :   1.1330 B( 23-C , 25-C ) :   1.1977 B( 25-C , 26-C ) :   1.4266
B( 25-C , 35-S ) :   1.1255 B( 26-C , 27-C ) :   1.0034 B( 26-C , 33-C ) :   1.2567
B( 27-C , 28-C ) :   1.7128 B( 28-C , 29-C ) :   1.1336 B( 28-C , 31-C ) :   1.1358
B( 29-C , 30-N ) :   2.9961 B( 31-C , 32-N ) :   2.9981 B( 33-C , 34-C ) :   1.4938
B( 33-C , 85-H ) :   1.0069 B( 34-C , 35-S ) :   1.1241 B( 34-C , 36-C ) :   0.9981
B( 34-C , 41-N ) :  -0.1049 B( 36-C , 37-N ) :   1.5929 B( 36-C , 41-N ) :   1.6169
B( 37-N , 38-C ) :   1.5281 B( 38-C , 39-C ) :   1.3863 B( 38-C , 86-H ) :   0.9789
B( 39-C , 40-C ) :   1.3207 B( 39-C , 87-H ) :   0.9768 B( 40-C , 41-N ) :   1.5012
B( 40-C , 42-C ) :   1.0788 B( 42-C , 43-C ) :   1.7243 B( 42-C , 88-H ) :   0.9770
B( 43-C , 44-C ) :   1.0889 B( 43-C , 89-H ) :   0.9536 B( 44-C , 45-C ) :   1.4495
B( 44-C , 48-S ) :   1.1195 B( 45-C , 46-C ) :   1.3127 B( 45-C , 90-H ) :   0.9930
B( 46-C , 47-C ) :   1.4243 B( 46-C , 51-C ) :   0.9992 B( 47-C , 48-S ) :   1.1359
B( 47-C , 49-C ) :   1.1937 B( 49-C , 50-C ) :   1.4133 B( 49-C , 59-S ) :   1.1588
B( 50-C , 51-C ) :   1.0002 B( 50-C , 57-C ) :   1.3559 B( 51-C , 52-C ) :   1.7174
B( 52-C , 53-C ) :   1.1315 B( 52-C , 55-C ) :   1.1341 B( 53-C , 54-N ) :   2.9929
B( 55-C , 56-N ) :   2.9837 B( 57-C , 58-C ) :   1.4022 B( 57-C , 91-H ) :   0.9810
B( 58-C , 59-S ) :   1.0909 B( 58-C , 60-C ) :   1.1255 B( 60-C , 61-C ) :   1.6804
B( 60-C , 92-H ) :   0.9262 B( 61-C , 62-C ) :   1.0338 B( 61-C , 70-C ) :   0.9415
B( 62-C , 63-C ) :   1.6482 B( 62-C , 68-C ) :   1.0114 B( 63-C , 64-C ) :   1.1247
B( 63-C , 66-C ) :   1.1743 B( 64-C , 65-N ) :   2.9933 B( 66-C , 67-N ) :   2.9955
B( 68-C , 69-C ) :   1.2751 B( 68-C , 75-C ) :   1.4161 B( 69-C , 70-C ) :   0.9248
B( 69-C , 72-C ) :   1.4232 B( 70-C , 71-O ) :   2.2646 B( 72-C , 73-C ) :   1.2537
B( 72-C , 93-H ) :   1.0161 B( 73-C , 74-C ) :   1.3048 B( 73-C , 78-C ) :   1.1653
B( 74-C , 75-C ) :   1.3284 B( 74-C , 76-S ) :   1.0874 B( 75-C , 94-H ) :   0.9825
B( 76-S , 77-C ) :   1.0876 B( 77-C , 78-C ) :   1.6178 B( 77-C , 79-Br) :   1.0205
B( 78-C , 95-H ) :   0.9992

-----------------------------------------------------------------------------
         ABSORPTION SPECTRUM VIA TRANSITION ELECTRIC DIPOLE MOMENTS
-----------------------------------------------------------------------------
State   Energy  Wavelength   fosc         T2         TX        TY        TZ
        (cm-1)    (nm)                  (au**2)     (au)      (au)      (au)
-----------------------------------------------------------------------------
   0   14168.5    705.8   0.219653775   5.10375  -0.07664  -2.25629  -0.08384
   1   15802.9    632.8   0.250352984   5.21543  -1.55350   1.40430   0.91106
   2   20425.8    489.6   1.058778998  17.06480  -0.28902   4.11755  -0.16454
   3   22295.1    448.5   1.225464403  18.09534  -2.79640   2.43791   2.08137
   4   22792.7    438.7   0.017159011   0.24784   0.26182  -0.31466  -0.28333
   5   24671.2    405.3   0.004746047   0.06333  -0.19648  -0.10362  -0.11828
   6   25567.7    391.1   0.016478299   0.21218   0.01272   0.24342   0.39085
   7   26461.1    377.9   0.021160462   0.26327   0.49503  -0.03587   0.13008
   8   27031.2    369.9   0.030938934   0.37680  -0.30912   0.52924   0.03397
   9   27418.2    364.7   0.943585249  11.32970  -0.38027  -3.16215  -1.08900
  10   27814.4    359.5   0.174436529   2.06463  -0.37261  -1.35154   0.31484
  11   28830.8    346.9   0.078180118   0.89272   0.46266  -0.76024  -0.31733
  12   29126.3    343.3   0.001011016   0.01143   0.04247   0.09069  -0.03740
  13   29250.4    341.9   0.287611562   3.23706   0.13841  -1.48043  -1.01303
  14   29316.9    341.1   0.052768462   0.59256   0.11601  -0.68835  -0.32446
  15   29627.6    337.5   0.025574819   0.28418   0.05880   0.47423   0.23628
  16   30056.7    332.7   0.218356469   2.39167  -0.49464   1.35323   0.56193
  17   30107.4    332.1   0.068705679   0.75127  -0.37929  -0.64807  -0.43292
  18   30579.7    327.0   0.177146127   1.90710   1.33568   0.35078  -0.00430
  19   30848.8    324.2   0.064794532   0.69147   0.04750   0.81682   0.14843
  20   30911.5    323.5   0.066661969   0.70996  -0.80730   0.23521  -0.05386
  21   31390.2    318.6   0.178095563   1.86782  -1.27402  -0.49307  -0.03968
  22   31920.6    313.3   0.007734633   0.07977   0.01198   0.19460   0.20435
  23   32163.4    310.9   0.265899995   2.72165   1.23192   0.92749   0.58634
  24   32228.5    310.3   0.512134864   5.23143   0.14560  -2.27564  -0.17801
  25   32469.0    308.0   0.168905678   1.71258  -1.20444  -0.51051   0.03602
  26   32761.9    305.2   0.156856827   1.57619   0.24584   1.03588   0.66537
  27   32867.4    304.3   0.476713385   4.77493   0.55437   1.71486   1.23567
  28   33156.4    301.6   0.095401578   0.94725   0.68299  -0.60013  -0.34730
  29   33237.2    300.9   0.029430407   0.29151   0.11311   0.47488   0.23066
  30   33448.5    299.0   0.007189130   0.07076  -0.20825   0.06098   0.15385
  31   33823.7    295.7   0.142762657   1.38953   1.17134   0.11457  -0.06617
  32   33851.9    295.4   0.059648893   0.58009  -0.60033  -0.45283  -0.12097
  33   34307.0    291.5   0.408831648   3.92317  -1.33401  -1.34390  -0.58095
  34   34350.8    291.1   0.187528840   1.79724  -0.78711  -1.04773  -0.28276
  35   34500.0    289.9   0.044149570   0.42129   0.10705   0.55253   0.32333
  36   34542.4    289.5   0.077928065   0.74271   0.12780   0.78175   0.33947
  37   34821.8    287.2   0.028278443   0.26735  -0.41472   0.22609   0.21033
  38   35263.7    283.6   0.003783991   0.03533   0.18148  -0.03686   0.03216
  39   35482.2    281.8   0.076860673   0.71313  -0.48356   0.49092   0.48816
  40   35744.6    279.8   0.030636613   0.28217  -0.27002  -0.34579  -0.29948
  41   35912.6    278.5   0.194564212   1.78358   1.20520  -0.46376  -0.34060
  42   36032.2    277.5   0.291873078   2.66673  -1.59093  -0.33262  -0.15819
  43   36155.3    276.6   0.037207824   0.33880   0.03981  -0.53045  -0.23630
  44   36411.8    274.6   0.235989775   2.13367  -1.44949   0.14748   0.10437
  45   37393.3    267.4   0.003051177   0.02686  -0.15310  -0.04858  -0.03262
  46   37626.8    265.8   0.051175212   0.44775  -0.39204   0.40114   0.36489
  47   37804.1    264.5   0.000371716   0.00324   0.01537  -0.03561  -0.04162
  48   37918.8    263.7   0.003582892   0.03111  -0.16435  -0.04856   0.04168
  49   38171.9    262.0   0.009595805   0.08276  -0.27739   0.07473   0.01522
  50   39016.8    256.3   0.149092475   1.25800  -1.02192   0.43583   0.15403
  51   39080.7    255.9   0.037246578   0.31376   0.17116   0.24153   0.47553
  52   39172.3    255.3   0.056821460   0.47754   0.40750  -0.38811  -0.40107
  53   39198.9    255.1   0.024784776   0.20815   0.09377  -0.33688  -0.29305
  54   39275.4    254.6   0.095767359   0.80274  -0.55463   0.68144  -0.17539
  55   39478.7    253.3   0.000683047   0.00570   0.06335  -0.02868   0.02933
  56   39571.0    252.7   0.011546775   0.09606   0.01919  -0.28803  -0.11284
  57   39711.8    251.8   0.051782302   0.42928   0.65237  -0.02079  -0.05712
  58   39845.3    251.0   0.001984570   0.01640   0.04798   0.03802  -0.11247
  59   39883.9    250.7   0.039419634   0.32538  -0.56351  -0.07592  -0.04551
  60   40039.2    249.8   0.021342491   0.17548   0.37909  -0.15667  -0.08503
  61   40123.7    249.2   0.008049008   0.06604   0.22633  -0.12162  -0.00506

FINAL SINGLE POINT ENERGY    -10526.352153983506

DIPOLE MOMENT
-------------
                                X             Y             Z
Electronic contribution:     13.34943      19.55825     -52.48624
Nuclear contribution   :    -15.46959     -20.81199      53.03583
                        -----------------------------------------
Total Dipole Moment    :     -2.12017      -1.25374       0.54959
                        -----------------------------------------
Magnitude (a.u.)       :      2.52369
Magnitude (Debye)      :      6.41471

Rotational constants in cm-1:     0.001381     0.000106     0.000102
Rotational constants in MHz :    41.386621     3.164570     3.052367

                             ****ORCA TERMINATED NORMALLY****
TOTAL RUN TIME: 0 days 0 hours 10 minutes 31 seconds 694 msec
