                         Program Version 4.2.0 -  RELEASE  -
|  1> # ORCA input file
|  2> # SCF done       -196.250552806918          0.000845473490
|  3> ! CAM-B3LYP def2-SVP def2/J RIJCOSX Grid4 TightSCF
|  4> %maxcore 5000
|  5> %tddft
|  6>     Mode sTDDFT
|  7>     Ethresh 5.0
|  8>     maxcore 5000
|  9> end
| 10>
| 11> %pal
| 12>   nprocs 6
| 13>   end
| 14> * xyz 0 1
| 15>    C       -3.09009        -1.77344        -1.02178
| 16>    C       -1.76654        -1.72538        -0.67248
| 17>    C       -0.83111        -2.73679        -0.98064
| 18>    N       -0.02296        -3.52131        -1.20054
| 19>    C       -1.14378        -0.69020         0.05785
| 20>    N       -0.56434         0.10108         0.65509
| 21>    C       -3.73570        -2.87260        -1.73193
| 22>    C       -5.12296        -2.59936        -1.83162
| 23>    C       -6.00714        -3.45200        -2.44731
| 24>    C       -5.49738        -4.63266        -2.99680
| 25>    C       -4.10985        -4.89729        -2.89676
| 26>    C       -3.21733        -4.03540        -2.27082
| 27>    S       -3.69162        -6.40660        -3.64686
| 28>    C       -5.36191        -6.66007        -4.07856
| 29>    C       -6.19238        -5.66585        -3.68195
| 30>   Br       -5.85164        -8.21019        -5.01253
| 31>    C       -5.40549        -1.30510        -1.19367
| 32>    O       -6.49807        -0.77479        -1.08554
| 33>    C       -4.11383        -0.78259        -0.73100
| 34>    C       -3.90593         0.45480        -0.18308
| 35>    C       -4.81942         1.47824         0.12449
| 36>    C       -4.39401         2.71560         0.62203
| 37>    C       -5.44650         3.58021         0.85789
| 38>    C       -6.69684         2.99409         0.55545
| 39>    S       -6.57215         1.40393        -0.03849
| 40>    C       -7.70713         3.95506         0.82245
| 41>    C       -7.09854         5.14059         1.28201
| 42>    C       -5.65989         4.94246         1.32725
| 43>    C       -4.71229         5.83930         1.72234
| 44>    C       -3.33458         5.53194         1.71243
| 45>    N       -2.21396         5.29191         1.70106
| 46>    C       -5.04169         7.13900         2.16438
| 47>    N       -5.29881         8.19600         2.52518
| 48>    C       -8.02366         6.15033         1.54798
| 49>    C       -9.31169         5.72391         1.30154
| 50>    S       -9.40581         4.07521         0.73989
| 51>    C      -10.52518         6.47497         1.44551
| 52>    N      -11.67094         5.82878         1.24481
| 53>    C      -12.77322         6.56265         1.36957
| 54>    N      -12.78137         7.87021         1.64850
| 55>    C      -11.59064         8.40310         1.83842
| 56>    N      -10.43679         7.77039         1.76485
| 57>    C      -14.03170         5.89507         1.20004
| 58>    C      -15.29186         6.45449         1.22803
| 59>    C      -16.27881         5.48532         1.04890
| 60>    C      -15.74315         4.19153         0.89419
| 61>    S      -14.03973         4.16914         0.95251
| 62>    C      -16.81979         3.27795         0.74833
| 63>    C      -18.02990         3.99345         0.79342
| 64>    C      -17.72916         5.40507         0.98155
| 65>    C      -18.62056         6.43214         1.07006
| 66>    C      -18.21418         7.77198         1.25331
| 67>    N      -17.89729         8.86418         1.39545
| 68>    C      -20.01401         6.22713         0.97123
| 69>    N      -21.14516         6.06527         0.88171
| 70>    C      -19.14636         3.17409         0.65161
| 71>    C      -18.80391         1.83595         0.54732
| 72>    S      -17.05779         1.60397         0.56167
| 73>    C      -19.71064         0.76249         0.36006
| 74>    C      -19.54093        -0.56295         0.60151
| 75>    C      -18.55501        -1.30272         1.36439
| 76>    C      -17.92130        -0.86684         2.49826
| 77>    C      -17.04611        -1.66383         3.26373
| 78>    N      -16.31198        -2.26916         3.90515
| 79>    C      -18.15041         0.40021         3.07360
| 80>    N      -18.34438         1.40744         3.58874
| 81>    C      -18.59249        -2.68216         0.89509
| 82>    C      -19.72730        -2.84725         0.05978
| 83>    C      -20.42215        -1.55285        -0.08390
| 84>    O      -21.45064        -1.31871        -0.67198
| 85>    C      -20.05875        -4.05759        -0.49983
| 86>    C      -19.22786        -5.15047        -0.23105
| 87>    C      -18.09099        -4.97133         0.59486
| 88>    C      -17.75919        -3.75004         1.16790
| 89>    S      -17.20105        -6.45032         0.78665
| 90>    C      -18.35278        -7.28021        -0.22636
| 91>    C      -19.35250        -6.49090        -0.68739
| 92>   Br      -18.12302        -9.10640        -0.58246
| 93>    H       -7.05791        -3.21503        -2.50436
| 94>    H       -2.17019        -4.28269        -2.22393
| 95>    H       -7.25127        -5.66037        -3.86512
| 96>    H       -2.88174         0.72475         0.04517
| 97>    H       -3.35516         2.94013         0.78841
| 98>    H       -7.80487         7.14186         1.89975
| 99>    H      -11.55764         9.45835         2.07799
|100>    H      -15.44823         7.50745         1.37470
|101>    H      -20.16746         3.51012         0.65800
|102>    H      -20.65362         1.02934        -0.10903
|103>    H      -20.93265        -4.15947        -1.12380
|104>    H      -16.88150        -3.65613         1.78600
|105>    H      -20.14575        -6.83811        -1.32380
|106> *
|107>
|108>                          ****END OF INPUT****

CARTESIAN COORDINATES (ANGSTROEM)
---------------------------------
  C     -3.090090   -1.773440   -1.021780
  C     -1.766540   -1.725380   -0.672480
  C     -0.831110   -2.736790   -0.980640
  N     -0.022960   -3.521310   -1.200540
  C     -1.143780   -0.690200    0.057850
  N     -0.564340    0.101080    0.655090
  C     -3.735700   -2.872600   -1.731930
  C     -5.122960   -2.599360   -1.831620
  C     -6.007140   -3.452000   -2.447310
  C     -5.497380   -4.632660   -2.996800
  C     -4.109850   -4.897290   -2.896760
  C     -3.217330   -4.035400   -2.270820
  S     -3.691620   -6.406600   -3.646860
  C     -5.361910   -6.660070   -4.078560
  C     -6.192380   -5.665850   -3.681950
  Br    -5.851640   -8.210190   -5.012530
  C     -5.405490   -1.305100   -1.193670
  O     -6.498070   -0.774790   -1.085540
  C     -4.113830   -0.782590   -0.731000
  C     -3.905930    0.454800   -0.183080
  C     -4.819420    1.478240    0.124490
  C     -4.394010    2.715600    0.622030
  C     -5.446500    3.580210    0.857890
  C     -6.696840    2.994090    0.555450
  S     -6.572150    1.403930   -0.038490
  C     -7.707130    3.955060    0.822450
  C     -7.098540    5.140590    1.282010
  C     -5.659890    4.942460    1.327250
  C     -4.712290    5.839300    1.722340
  C     -3.334580    5.531940    1.712430
  N     -2.213960    5.291910    1.701060
  C     -5.041690    7.139000    2.164380
  N     -5.298810    8.196000    2.525180
  C     -8.023660    6.150330    1.547980
  C     -9.311690    5.723910    1.301540
  S     -9.405810    4.075210    0.739890
  C    -10.525180    6.474970    1.445510
  N    -11.670940    5.828780    1.244810
  C    -12.773220    6.562650    1.369570
  N    -12.781370    7.870210    1.648500
  C    -11.590640    8.403100    1.838420
  N    -10.436790    7.770390    1.764850
  C    -14.031700    5.895070    1.200040
  C    -15.291860    6.454490    1.228030
  C    -16.278810    5.485320    1.048900
  C    -15.743150    4.191530    0.894190
  S    -14.039730    4.169140    0.952510
  C    -16.819790    3.277950    0.748330
  C    -18.029900    3.993450    0.793420
  C    -17.729160    5.405070    0.981550
  C    -18.620560    6.432140    1.070060
  C    -18.214180    7.771980    1.253310
  N    -17.897290    8.864180    1.395450
  C    -20.014010    6.227130    0.971230
  N    -21.145160    6.065270    0.881710
  C    -19.146360    3.174090    0.651610
  C    -18.803910    1.835950    0.547320
  S    -17.057790    1.603970    0.561670
  C    -19.710640    0.762490    0.360060
  C    -19.540930   -0.562950    0.601510
  C    -18.555010   -1.302720    1.364390
  C    -17.921300   -0.866840    2.498260
  C    -17.046110   -1.663830    3.263730
  N    -16.311980   -2.269160    3.905150
  C    -18.150410    0.400210    3.073600
  N    -18.344380    1.407440    3.588740
  C    -18.592490   -2.682160    0.895090
  C    -19.727300   -2.847250    0.059780
  C    -20.422150   -1.552850   -0.083900
  O    -21.450640   -1.318710   -0.671980
  C    -20.058750   -4.057590   -0.499830
  C    -19.227860   -5.150470   -0.231050
  C    -18.090990   -4.971330    0.594860
  C    -17.759190   -3.750040    1.167900
  S    -17.201050   -6.450320    0.786650
  C    -18.352780   -7.280210   -0.226360
  C    -19.352500   -6.490900   -0.687390
  Br   -18.123020   -9.106400   -0.582460
  H     -7.057910   -3.215030   -2.504360
  H     -2.170190   -4.282690   -2.223930
  H     -7.251270   -5.660370   -3.865120
  H     -2.881740    0.724750    0.045170
  H     -3.355160    2.940130    0.788410
  H     -7.804870    7.141860    1.899750
  H    -11.557640    9.458350    2.077990
  H    -15.448230    7.507450    1.374700
  H    -20.167460    3.510120    0.658000
  H    -20.653620    1.029340   -0.109030
  H    -20.932650   -4.159470   -1.123800
  H    -16.881500   -3.656130    1.786000
  H    -20.145750   -6.838110   -1.323800

 Total Charge           Charge          ....    0
 Multiplicity           Mult            ....    1
 Number of Electrons    NEL             ....  614
 Basis Dimension        Dim             .... 1217

ORBITAL ENERGIES
----------------

  NO   OCC          E(Eh)            E(eV)
   0   2.0000    -482.893541    -13140.2013
   1   2.0000    -482.892607    -13140.1759
   2   2.0000     -89.004828     -2421.9445
   3   2.0000     -89.003369     -2421.9048
   4   2.0000     -89.001893     -2421.8646
   5   2.0000     -88.998433     -2421.7705
   6   2.0000     -88.984843     -2421.4007
   7   2.0000     -88.983767     -2421.3714
   8   2.0000     -62.571250     -1702.6503
   9   2.0000     -62.570324     -1702.6251
  10   2.0000     -56.405209     -1534.8638
  11   2.0000     -56.404282     -1534.8386
  12   2.0000     -56.402479     -1534.7895
  13   2.0000     -56.402448     -1534.7886
  14   2.0000     -56.401553     -1534.7643
  15   2.0000     -56.401521     -1534.7634
  16   2.0000     -19.234889      -523.4079
  17   2.0000     -19.225789      -523.1603
  18   2.0000     -14.441504      -392.9733
  19   2.0000     -14.437932      -392.8761
  20   2.0000     -14.436797      -392.8452
  21   2.0000     -14.435095      -392.7989
  22   2.0000     -14.434822      -392.7915
  23   2.0000     -14.432162      -392.7191
  24   2.0000     -14.432095      -392.7173
  25   2.0000     -14.427115      -392.5818
  26   2.0000     -14.425382      -392.5346
  27   2.0000     -14.424365      -392.5069
  28   2.0000     -14.422109      -392.4455
  29   2.0000     -10.385931      -282.6155
  30   2.0000     -10.385826      -282.6127
  31   2.0000     -10.382416      -282.5199
  32   2.0000     -10.377405      -282.3835
  33   2.0000     -10.374634      -282.3081
  34   2.0000     -10.371906      -282.2339
  35   2.0000     -10.367911      -282.1252
  36   2.0000     -10.367892      -282.1247
  37   2.0000     -10.366978      -282.0998
  38   2.0000     -10.361470      -281.9499
  39   2.0000     -10.359725      -281.9024
  40   2.0000     -10.355758      -281.7945
  41   2.0000     -10.354712      -281.7660
  42   2.0000     -10.351419      -281.6764
  43   2.0000     -10.351166      -281.6695
  44   2.0000     -10.350717      -281.6573
  45   2.0000     -10.347164      -281.5606
  46   2.0000     -10.345287      -281.5096
  47   2.0000     -10.340935      -281.3911
  48   2.0000     -10.338665      -281.3294
  49   2.0000     -10.337708      -281.3033
  50   2.0000     -10.336322      -281.2656
  51   2.0000     -10.336267      -281.2641
  52   2.0000     -10.335999      -281.2568
  53   2.0000     -10.335925      -281.2548
  54   2.0000     -10.334708      -281.2217
  55   2.0000     -10.334633      -281.2197
  56   2.0000     -10.334502      -281.2161
  57   2.0000     -10.334327      -281.2113
  58   2.0000     -10.329407      -281.0775
  59   2.0000     -10.329328      -281.0753
  60   2.0000     -10.329288      -281.0742
  61   2.0000     -10.327221      -281.0180
  62   2.0000     -10.326530      -280.9992
  63   2.0000     -10.324849      -280.9534
  64   2.0000     -10.321071      -280.8506
  65   2.0000     -10.320419      -280.8329
  66   2.0000     -10.320043      -280.8227
  67   2.0000     -10.317734      -280.7598
  68   2.0000     -10.317576      -280.7555
  69   2.0000     -10.317539      -280.7545
  70   2.0000     -10.317241      -280.7464
  71   2.0000     -10.316850      -280.7358
  72   2.0000     -10.316639      -280.7300
  73   2.0000     -10.316493      -280.7260
  74   2.0000     -10.315965      -280.7117
  75   2.0000     -10.315300      -280.6936
  76   2.0000     -10.314264      -280.6654
  77   2.0000     -10.314136      -280.6619
  78   2.0000     -10.311531      -280.5910
  79   2.0000     -10.311313      -280.5851
  80   2.0000     -10.310828      -280.5719
  81   2.0000     -10.309582      -280.5380
  82   2.0000     -10.305386      -280.4238
  83   2.0000     -10.304723      -280.4058
  84   2.0000     -10.303917      -280.3838
  85   2.0000     -10.302634      -280.3489
  86   2.0000      -8.800678      -239.4786
  87   2.0000      -8.799756      -239.4535
  88   2.0000      -8.099047      -220.3863
  89   2.0000      -8.097459      -220.3431
  90   2.0000      -8.096082      -220.3056
  91   2.0000      -8.090767      -220.1610
  92   2.0000      -8.080875      -219.8918
  93   2.0000      -8.079710      -219.8601
  94   2.0000      -6.637016      -180.6024
  95   2.0000      -6.636100      -180.5775
  96   2.0000      -6.622385      -180.2043
  97   2.0000      -6.622192      -180.1990
  98   2.0000      -6.621466      -180.1792
  99   2.0000      -6.621266      -180.1738
 100   2.0000      -6.068303      -165.1269
 101   2.0000      -6.066627      -165.0813
 102   2.0000      -6.065189      -165.0422
 103   2.0000      -6.064063      -165.0116
 104   2.0000      -6.062345      -164.9648
 105   2.0000      -6.061470      -164.9410
 106   2.0000      -6.060974      -164.9275
 107   2.0000      -6.060181      -164.9059
 108   2.0000      -6.060124      -164.9044
 109   2.0000      -6.058771      -164.8675
 110   2.0000      -6.055386      -164.7754
 111   2.0000      -6.053375      -164.7207
 112   2.0000      -6.050577      -164.6446
 113   2.0000      -6.049390      -164.6123
 114   2.0000      -6.046271      -164.5274
 115   2.0000      -6.045100      -164.4955
 116   2.0000      -6.042090      -164.4136
 117   2.0000      -6.040967      -164.3831
 118   2.0000      -2.752889       -74.9099
 119   2.0000      -2.751955       -74.8845
 120   2.0000      -2.748788       -74.7983
 121   2.0000      -2.748605       -74.7933
 122   2.0000      -2.747874       -74.7735
 123   2.0000      -2.747695       -74.7686
 124   2.0000      -2.736997       -74.4775
 125   2.0000      -2.736990       -74.4773
 126   2.0000      -2.736090       -74.4528
 127   2.0000      -2.736064       -74.4521
 128   2.0000      -1.150382       -31.3035
 129   2.0000      -1.142386       -31.0859
 130   2.0000      -1.141771       -31.0692
 131   2.0000      -1.058500       -28.8033
 132   2.0000      -1.055034       -28.7089
 133   2.0000      -1.034475       -28.1495
 134   2.0000      -1.032012       -28.0825
 135   2.0000      -1.030471       -28.0406
 136   2.0000      -1.028344       -27.9827
 137   2.0000      -1.025332       -27.9007
 138   2.0000      -1.022748       -27.8304
 139   2.0000      -1.021639       -27.8002
 140   2.0000      -1.019788       -27.7498
 141   2.0000      -1.014596       -27.6085
 142   2.0000      -1.012345       -27.5473
 143   2.0000      -1.006871       -27.3984
 144   2.0000      -1.002987       -27.2927
 145   2.0000      -1.001989       -27.2655
 146   2.0000      -1.001688       -27.2573
 147   2.0000      -0.999594       -27.2003
 148   2.0000      -0.998065       -27.1587
 149   2.0000      -0.968732       -26.3605
 150   2.0000      -0.966521       -26.3004
 151   2.0000      -0.952886       -25.9294
 152   2.0000      -0.951372       -25.8882
 153   2.0000      -0.928831       -25.2748
 154   2.0000      -0.927148       -25.2290
 155   2.0000      -0.918863       -25.0035
 156   2.0000      -0.917427       -24.9644
 157   2.0000      -0.904758       -24.6197
 158   2.0000      -0.902851       -24.5678
 159   2.0000      -0.896245       -24.3881
 160   2.0000      -0.894786       -24.3484
 161   2.0000      -0.884071       -24.0568
 162   2.0000      -0.881800       -23.9950
 163   2.0000      -0.872417       -23.7397
 164   2.0000      -0.870110       -23.6769
 165   2.0000      -0.868085       -23.6218
 166   2.0000      -0.866023       -23.5657
 167   2.0000      -0.841802       -22.9066
 168   2.0000      -0.839156       -22.8346
 169   2.0000      -0.837750       -22.7963
 170   2.0000      -0.828444       -22.5431
 171   2.0000      -0.802487       -21.8368
 172   2.0000      -0.796679       -21.6787
 173   2.0000      -0.789129       -21.4733
 174   2.0000      -0.785451       -21.3732
 175   2.0000      -0.773983       -21.0611
 176   2.0000      -0.771917       -21.0049
 177   2.0000      -0.761762       -20.7286
 178   2.0000      -0.758286       -20.6340
 179   2.0000      -0.734401       -19.9841
 180   2.0000      -0.723168       -19.6784
 181   2.0000      -0.715183       -19.4611
 182   2.0000      -0.712611       -19.3911
 183   2.0000      -0.705262       -19.1912
 184   2.0000      -0.702100       -19.1051
 185   2.0000      -0.700141       -19.0518
 186   2.0000      -0.698384       -19.0040
 187   2.0000      -0.694202       -18.8902
 188   2.0000      -0.691595       -18.8192
 189   2.0000      -0.682478       -18.5712
 190   2.0000      -0.674377       -18.3507
 191   2.0000      -0.667688       -18.1687
 192   2.0000      -0.667365       -18.1599
 193   2.0000      -0.657341       -17.8872
 194   2.0000      -0.650217       -17.6933
 195   2.0000      -0.645615       -17.5681
 196   2.0000      -0.639210       -17.3938
 197   2.0000      -0.635333       -17.2883
 198   2.0000      -0.633101       -17.2276
 199   2.0000      -0.628412       -17.1000
 200   2.0000      -0.627730       -17.0814
 201   2.0000      -0.625686       -17.0258
 202   2.0000      -0.621115       -16.9014
 203   2.0000      -0.610002       -16.5990
 204   2.0000      -0.607720       -16.5369
 205   2.0000      -0.605350       -16.4724
 206   2.0000      -0.594756       -16.1841
 207   2.0000      -0.589155       -16.0317
 208   2.0000      -0.585566       -15.9340
 209   2.0000      -0.575000       -15.6466
 210   2.0000      -0.567992       -15.4558
 211   2.0000      -0.563023       -15.3206
 212   2.0000      -0.561740       -15.2857
 213   2.0000      -0.559269       -15.2185
 214   2.0000      -0.556574       -15.1451
 215   2.0000      -0.555931       -15.1277
 216   2.0000      -0.552760       -15.0414
 217   2.0000      -0.551026       -14.9942
 218   2.0000      -0.548868       -14.9355
 219   2.0000      -0.548027       -14.9126
 220   2.0000      -0.542510       -14.7625
 221   2.0000      -0.540422       -14.7056
 222   2.0000      -0.532625       -14.4935
 223   2.0000      -0.530998       -14.4492
 224   2.0000      -0.528182       -14.3726
 225   2.0000      -0.525673       -14.3043
 226   2.0000      -0.522088       -14.2067
 227   2.0000      -0.519478       -14.1357
 228   2.0000      -0.518747       -14.1158
 229   2.0000      -0.517340       -14.0775
 230   2.0000      -0.515557       -14.0290
 231   2.0000      -0.512188       -13.9373
 232   2.0000      -0.509540       -13.8653
 233   2.0000      -0.508857       -13.8467
 234   2.0000      -0.507431       -13.8079
 235   2.0000      -0.506053       -13.7704
 236   2.0000      -0.504913       -13.7394
 237   2.0000      -0.502683       -13.6787
 238   2.0000      -0.500963       -13.6319
 239   2.0000      -0.498137       -13.5550
 240   2.0000      -0.496570       -13.5124
 241   2.0000      -0.490534       -13.3481
 242   2.0000      -0.487707       -13.2712
 243   2.0000      -0.485338       -13.2067
 244   2.0000      -0.481638       -13.1060
 245   2.0000      -0.479178       -13.0391
 246   2.0000      -0.476877       -12.9765
 247   2.0000      -0.468603       -12.7513
 248   2.0000      -0.468513       -12.7489
 249   2.0000      -0.467495       -12.7212
 250   2.0000      -0.464933       -12.6515
 251   2.0000      -0.464329       -12.6350
 252   2.0000      -0.461848       -12.5675
 253   2.0000      -0.460333       -12.5263
 254   2.0000      -0.459893       -12.5143
 255   2.0000      -0.458430       -12.4745
 256   2.0000      -0.456708       -12.4277
 257   2.0000      -0.456379       -12.4187
 258   2.0000      -0.454998       -12.3811
 259   2.0000      -0.454706       -12.3732
 260   2.0000      -0.452585       -12.3155
 261   2.0000      -0.451555       -12.2874
 262   2.0000      -0.450751       -12.2656
 263   2.0000      -0.448029       -12.1915
 264   2.0000      -0.447664       -12.1816
 265   2.0000      -0.446923       -12.1614
 266   2.0000      -0.446312       -12.1448
 267   2.0000      -0.444716       -12.1013
 268   2.0000      -0.444130       -12.0854
 269   2.0000      -0.443427       -12.0662
 270   2.0000      -0.441968       -12.0266
 271   2.0000      -0.438556       -11.9337
 272   2.0000      -0.434464       -11.8224
 273   2.0000      -0.433669       -11.8007
 274   2.0000      -0.432940       -11.7809
 275   2.0000      -0.432308       -11.7637
 276   2.0000      -0.426313       -11.6006
 277   2.0000      -0.424932       -11.5630
 278   2.0000      -0.423251       -11.5172
 279   2.0000      -0.420483       -11.4419
 280   2.0000      -0.414887       -11.2896
 281   2.0000      -0.413106       -11.2412
 282   2.0000      -0.410989       -11.1836
 283   2.0000      -0.400349       -10.8941
 284   2.0000      -0.399125       -10.8608
 285   2.0000      -0.395292       -10.7564
 286   2.0000      -0.393444       -10.7061
 287   2.0000      -0.382815       -10.4169
 288   2.0000      -0.381890       -10.3917
 289   2.0000      -0.371464       -10.1080
 290   2.0000      -0.369318       -10.0497
 291   2.0000      -0.363293        -9.8857
 292   2.0000      -0.363019        -9.8782
 293   2.0000      -0.359953        -9.7948
 294   2.0000      -0.358526        -9.7560
 295   2.0000      -0.351496        -9.5647
 296   2.0000      -0.350698        -9.5430
 297   2.0000      -0.339497        -9.2382
 298   2.0000      -0.337010        -9.1705
 299   2.0000      -0.330077        -8.9819
 300   2.0000      -0.329221        -8.9586
 301   2.0000      -0.325194        -8.8490
 302   2.0000      -0.323803        -8.8111
 303   2.0000      -0.303787        -8.2665
 304   2.0000      -0.302296        -8.2259
 305   2.0000      -0.282299        -7.6818
 306   2.0000      -0.279908        -7.6167
 307   0.0000      -0.121815        -3.3148
 308   0.0000      -0.118971        -3.2374
 309   0.0000      -0.096864        -2.6358
 310   0.0000      -0.095009        -2.5853
 311   0.0000      -0.074212        -2.0194

MULLIKEN ATOMIC CHARGES
-----------------------
   0 C :    0.324149
   1 C :   -0.348161
   2 C :   -0.185118
   3 N :    0.152773
   4 C :   -0.193847
   5 N :    0.159888
   6 C :    0.012204
   7 C :   -0.010011
   8 C :   -0.072097
   9 C :    0.117139
  10 C :   -0.091223
  11 C :   -0.019777
  12 S :    0.192407
  13 C :   -0.124152
  14 C :    0.040473
  15 Br:    0.028502
  16 C :    0.167098
  17 O :   -0.191791
  18 C :   -0.082887
  19 C :   -0.034971
  20 C :   -0.050522
  21 C :   -0.064015
  22 C :    0.051984
  23 C :   -0.073405
  24 S :    0.246376
  25 C :   -0.097259
  26 C :    0.011294
  27 C :    0.302052
  28 C :   -0.292778
  29 C :   -0.195163
  30 N :    0.183786
  31 C :   -0.191207
  32 N :    0.187182
  33 C :   -0.028618
  34 C :   -0.063109
  35 S :    0.246936
  36 C :   -0.023525
  37 N :   -0.084169
  38 C :   -0.025757
  39 N :   -0.086934
  40 C :    0.121841
  41 N :   -0.085875
  42 C :   -0.063596
  43 C :   -0.028213
  44 C :    0.011801
  45 C :   -0.092059
  46 S :    0.247491
  47 C :   -0.088253
  48 C :    0.031630
  49 C :    0.295750
  50 C :   -0.284181
  51 C :   -0.192060
  52 N :    0.186905
  53 C :   -0.191241
  54 N :    0.178025
  55 C :    0.010521
  56 C :   -0.099907
  57 S :    0.209976
  58 C :    0.044941
  59 C :   -0.129343
  60 C :    0.244725
  61 C :   -0.320311
  62 C :   -0.175021
  63 N :    0.157121
  64 C :   -0.208291
  65 N :    0.175672
  66 C :    0.004072
  67 C :    0.003521
  68 C :    0.136477
  69 O :   -0.136612
  70 C :   -0.069049
  71 C :    0.110752
  72 C :   -0.085789
  73 C :   -0.020049
  74 S :    0.187717
  75 C :   -0.125738
  76 C :    0.042645
  77 Br:    0.029025
  78 H :   -0.010042
  79 H :   -0.003668
  80 H :   -0.002445
  81 H :    0.020926
  82 H :    0.030146
  83 H :    0.027287
  84 H :    0.030079
  85 H :    0.028888
  86 H :    0.020346
  87 H :    0.037225
  88 H :   -0.005359
  89 H :   -0.001908
  90 H :   -0.000241
Sum of atomic charges:   -0.0000000

LOEWDIN ATOMIC CHARGES
----------------------
   0 C :    0.075547
   1 C :   -0.137007
   2 C :   -0.018021
   3 N :   -0.048959
   4 C :   -0.023995
   5 N :   -0.043426
   6 C :   -0.019760
   7 C :   -0.052084
   8 C :    0.023141
   9 C :   -0.032408
  10 C :   -0.142846
  11 C :   -0.007897
  12 S :    0.438030
  13 C :   -0.270418
  14 C :   -0.070630
  15 Br:    0.140629
  16 C :    0.087033
  17 O :   -0.173749
  18 C :   -0.106371
  19 C :    0.056949
  20 C :   -0.180989
  21 C :    0.010687
  22 C :   -0.071995
  23 C :   -0.172618
  24 S :    0.551330
  25 C :   -0.174417
  26 C :   -0.063149
  27 C :    0.075032
  28 C :   -0.096559
  29 C :   -0.019792
  30 N :   -0.022706
  31 C :   -0.019334
  32 N :   -0.023902
  33 C :    0.009530
  34 C :   -0.190674
  35 S :    0.520225
  36 C :    0.037899
  37 N :   -0.135703
  38 C :    0.037658
  39 N :   -0.106995
  40 C :    0.085294
  41 N :   -0.106924
  42 C :   -0.192128
  43 C :    0.010866
  44 C :   -0.063822
  45 C :   -0.173691
  46 S :    0.520934
  47 C :   -0.159202
  48 C :   -0.063925
  49 C :    0.077209
  50 C :   -0.092592
  51 C :   -0.019066
  52 N :   -0.021681
  53 C :   -0.016819
  54 N :   -0.025475
  55 C :    0.012453
  56 C :   -0.175015
  57 S :    0.509389
  58 C :    0.050526
  59 C :   -0.095075
  60 C :    0.060577
  61 C :   -0.142033
  62 C :   -0.020655
  63 N :   -0.047042
  64 C :   -0.036183
  65 N :   -0.045281
  66 C :   -0.018994
  67 C :   -0.052755
  68 C :    0.083930
  69 O :   -0.136656
  70 C :    0.024861
  71 C :   -0.031854
  72 C :   -0.142545
  73 C :   -0.011717
  74 S :    0.434116
  75 C :   -0.270494
  76 C :   -0.069358
  77 Br:    0.141014
  78 H :    0.041129
  79 H :    0.042083
  80 H :    0.039096
  81 H :    0.054459
  82 H :    0.048608
  83 H :    0.049912
  84 H :    0.028724
  85 H :    0.050252
  86 H :    0.047937
  87 H :    0.056200
  88 H :    0.042938
  89 H :    0.041134
  90 H :    0.040061

  Mayer bond orders larger than 0.100000
B(  0-C ,  1-C ) :   1.6336 B(  0-C ,  6-C ) :   1.0023 B(  0-C , 18-C ) :   1.0686
B(  1-C ,  2-C ) :   1.1438 B(  1-C ,  4-C ) :   1.1429 B(  2-C ,  3-N ) :   2.9683
B(  4-C ,  5-N ) :   2.9674 B(  6-C ,  7-C ) :   1.2735 B(  6-C , 11-C ) :   1.4122
B(  7-C ,  8-C ) :   1.4160 B(  7-C , 16-C ) :   0.9651 B(  8-C ,  9-C ) :   1.2445
B(  8-C , 78-H ) :   1.0180 B(  9-C , 10-C ) :   1.3046 B(  9-C , 14-C ) :   1.1648
B( 10-C , 11-C ) :   1.3277 B( 10-C , 12-S ) :   1.0894 B( 11-C , 79-H ) :   0.9801
B( 12-S , 13-C ) :   1.0885 B( 13-C , 14-C ) :   1.6159 B( 13-C , 15-Br) :   1.0214
B( 14-C , 80-H ) :   1.0000 B( 16-C , 17-O ) :   2.1090 B( 16-C , 18-C ) :   0.9782
B( 18-C , 19-C ) :   1.5116 B( 19-C , 20-C ) :   1.2520 B( 19-C , 81-H ) :   0.9414
B( 20-C , 21-C ) :   1.3356 B( 20-C , 24-S ) :   1.0794 B( 21-C , 22-C ) :   1.3243
B( 21-C , 82-H ) :   1.0088 B( 22-C , 23-C ) :   1.3700 B( 22-C , 27-C ) :   0.9847
B( 23-C , 24-S ) :   1.1250 B( 23-C , 25-C ) :   1.1967 B( 25-C , 26-C ) :   1.4223
B( 25-C , 35-S ) :   1.1390 B( 26-C , 27-C ) :   0.9957 B( 26-C , 33-C ) :   1.2667
B( 27-C , 28-C ) :   1.7236 B( 28-C , 29-C ) :   1.1341 B( 28-C , 31-C ) :   1.1319
B( 29-C , 30-N ) :   2.9934 B( 31-C , 32-N ) :   3.0004 B( 33-C , 34-C ) :   1.4780
B( 33-C , 83-H ) :   1.0059 B( 34-C , 35-S ) :   1.1133 B( 34-C , 36-C ) :   1.0273
B( 36-C , 37-N ) :   1.5628 B( 36-C , 41-N ) :   1.5956 B( 37-N , 38-C ) :   1.5655
B( 38-C , 39-N ) :   1.5955 B( 38-C , 42-C ) :   1.0285 B( 39-N , 40-C ) :   1.4996
B( 40-C , 41-N ) :   1.4988 B( 40-C , 84-H ) :   0.9764 B( 42-C , 43-C ) :   1.4778
B( 42-C , 46-S ) :   1.1125 B( 43-C , 44-C ) :   1.2680 B( 43-C , 85-H ) :   1.0061
B( 44-C , 45-C ) :   1.4232 B( 44-C , 49-C ) :   0.9976 B( 45-C , 46-S ) :   1.1384
B( 45-C , 47-C ) :   1.2011 B( 47-C , 48-C ) :   1.4181 B( 47-C , 57-S ) :   1.1507
B( 48-C , 49-C ) :   0.9923 B( 48-C , 55-C ) :   1.2957 B( 49-C , 50-C ) :   1.7229
B( 50-C , 51-C ) :   1.1328 B( 50-C , 53-C ) :   1.1328 B( 51-C , 52-N ) :   2.9996
B( 53-C , 54-N ) :   2.9919 B( 55-C , 56-C ) :   1.4119 B( 55-C , 86-H ) :   1.0014
B( 56-C , 57-S ) :   1.0963 B( 56-C , 58-C ) :   1.1202 B( 58-C , 59-C ) :   1.6667
B( 58-C , 87-H ) :   0.9453 B( 59-C , 60-C ) :   1.0276 B( 59-C , 68-C ) :   0.9337
B( 60-C , 61-C ) :   1.6582 B( 60-C , 66-C ) :   1.0196 B( 61-C , 62-C ) :   1.1306
B( 61-C , 64-C ) :   1.1538 B( 62-C , 63-N ) :   2.9918 B( 64-C , 65-N ) :   3.0201
B( 66-C , 67-C ) :   1.2741 B( 66-C , 73-C ) :   1.4117 B( 67-C , 68-C ) :   0.9226
B( 67-C , 70-C ) :   1.4231 B( 68-C , 69-O ) :   2.2752 B( 70-C , 71-C ) :   1.2537
B( 70-C , 88-H ) :   1.0166 B( 71-C , 72-C ) :   1.3053 B( 71-C , 76-C ) :   1.1635
B( 72-C , 73-C ) :   1.3290 B( 72-C , 74-S ) :   1.0845 B( 73-C , 89-H ) :   0.9838
B( 74-S , 75-C ) :   1.0874 B( 75-C , 76-C ) :   1.6185 B( 75-C , 77-Br) :   1.0224
B( 76-C , 90-H ) :   1.0002

-----------------------------------------------------------------------------
         ABSORPTION SPECTRUM VIA TRANSITION ELECTRIC DIPOLE MOMENTS
-----------------------------------------------------------------------------
State   Energy  Wavelength   fosc         T2         TX        TY        TZ
        (cm-1)    (nm)                  (au**2)     (au)      (au)      (au)
-----------------------------------------------------------------------------
   0   15762.9    634.4   0.207656396   4.33697  -1.76403  -1.07794   0.25139
   1   16678.5    599.6   0.292313280   5.76989   1.27011  -1.96816  -0.53204
   2   21805.5    458.6   0.395582992   5.97236  -1.66273  -1.64620   0.70549
   3   22878.0    437.1   1.432201602  20.60926  -2.08295   3.93749   0.87566
   4   24292.1    411.7   0.008637133   0.11705  -0.22217   0.24169   0.09633
   5   25123.7    398.0   0.001341752   0.01758  -0.11667   0.06301  -0.00064
   6   25339.6    394.6   0.165874330   2.15504   0.09428  -1.30217  -0.67120
   7   26219.4    381.4   0.080939535   1.01628  -0.61810  -0.61687  -0.50369
   8   27841.2    359.2   0.106167285   1.25539  -0.37907   0.90737   0.53701
   9   28306.6    353.3   0.061002168   0.70947  -0.09273   0.83608   0.04300
  10   28774.4    347.5   0.013866154   0.15864   0.31204  -0.16461  -0.18488
  11   29096.4    343.7   0.043992824   0.49776  -0.51817   0.42250   0.22528
  12   29225.3    342.2   0.608076366   6.84974  -1.65434  -1.89960  -0.71022
  13   29433.9    339.7   0.018663683   0.20875  -0.04803   0.44829   0.07399
  14   29692.0    336.8   0.507950722   5.63193   0.57197  -2.26076  -0.44019
  15   30105.8    332.2   0.465366868   5.08887  -1.96534  -0.93176  -0.59843
  16   30170.0    331.5   0.266965841   2.91310   0.23842   1.58850   0.57700
  17   30730.3    325.4   0.062376323   0.66823  -0.76285   0.22458   0.18936
  18   31302.7    319.5   0.078780090   0.82853  -0.61025  -0.52636  -0.42317
  19   31619.8    316.3   0.241765198   2.51715   0.14758   1.29824   0.89998
  20   31953.2    313.0   0.062735056   0.64636  -0.57918   0.51989  -0.20155
  21   32138.7    311.2   0.539921078   5.53067   1.97896   0.92373   0.87242
  22   32424.2    308.4   0.021426276   0.21755   0.34220   0.19335   0.25112
  23   32565.5    307.1   0.023344861   0.23600   0.41309   0.24325   0.07862
  24   32648.5    306.3   0.047213634   0.47608  -0.56222   0.16012  -0.36653
  25   32668.6    306.1   0.771753178   7.77720   2.01116   1.73722   0.84528
  26   32898.7    304.0   0.058907904   0.58948   0.27107   0.54849   0.46385
  27   32982.7    303.2   0.016254928   0.16225  -0.11979  -0.30845  -0.22968
  28   33315.1    300.2   0.152945886   1.51137  -0.94941   0.74528   0.23354
  29   33457.8    298.9   0.161243727   1.58658  -0.91095   0.86116   0.12312
  30   33606.2    297.6   0.514800234   5.04307   1.88482  -1.18706  -0.28534
  31   34011.7    294.0   0.001882719   0.01822   0.04329  -0.11577  -0.05428
  32   34283.5    291.7   0.008678075   0.08333  -0.27980  -0.03268   0.06304
  33   34453.9    290.2   0.060771212   0.58068  -0.01089  -0.74620  -0.15407
  34   34685.4    288.3   0.134770486   1.27916  -0.65152  -0.74904  -0.54186
  35   34813.6    287.2   0.156318442   1.47821   0.69500   0.93767   0.34053
  36   35152.7    284.5   0.154864365   1.45034  -0.02102  -1.19424  -0.15392
  37   35530.1    281.5   0.183741624   1.70250   0.25233  -1.21296  -0.40933
  38   35698.4    280.1   0.027140684   0.25029   0.00856   0.49480  -0.07346
  39   35741.1    279.8   0.124788396   1.14943   0.49066   0.57356   0.76138
  40   35919.8    278.4   0.015362486   0.14080  -0.36776  -0.07390   0.00939
  41   36253.7    275.8   0.091735562   0.83303   0.87720   0.11985   0.22179
  42   36341.9    275.2   0.024958839   0.22610   0.42567  -0.20662   0.04699
  43   36478.9    274.1   0.032008201   0.28887   0.28125  -0.45025  -0.08388
  44   36931.5    270.8   0.035613832   0.31747   0.24764  -0.50465   0.03840
  45   37229.3    268.6   0.066356466   0.58678  -0.02812   0.73112   0.22682
  46   37303.2    268.1   0.003641442   0.03214  -0.05361   0.15238   0.07773
  47   37734.5    265.0   0.016529058   0.14421   0.36140  -0.00012   0.11660
  48   37789.0    264.6   0.013156067   0.11461  -0.31720  -0.01725  -0.11706
  49   38028.9    263.0   0.050134493   0.43401   0.35939  -0.48732  -0.25955
  50   38064.1    262.7   0.060408469   0.52247   0.23398   0.44035   0.52327
  51   38200.5    261.8   0.025200915   0.21718  -0.28560   0.35408   0.10121
  52   38388.1    260.5   0.003356315   0.02878  -0.13157  -0.09966  -0.03924
  53   38686.2    258.5   0.001852622   0.01577  -0.03962   0.10199   0.06160
  54   38930.2    256.9   0.000264589   0.00224  -0.03690   0.00492   0.02918
  55   39274.5    254.6   0.102511899   0.85929  -0.83731  -0.37622  -0.12904
  56   39379.9    253.9   0.009887594   0.08266  -0.27085  -0.03776  -0.08873
  57   39495.0    253.2   0.096298397   0.80270  -0.63730   0.52967  -0.34059
  58   39700.6    251.9   0.100838591   0.83619  -0.52909   0.67850   0.30967
  59   39991.4    250.1   0.153857399   1.26656  -1.03321   0.44469  -0.03614

FINAL SINGLE POINT ENERGY    -10465.084521566612

DIPOLE MOMENT
-------------
                                X             Y             Z
Electronic contribution:     -4.47451    -167.38205     -52.19396
Nuclear contribution   :      2.49949     164.18640      49.37641
                        -----------------------------------------
Total Dipole Moment    :     -1.97503      -3.19565      -2.81755
                        -----------------------------------------
Magnitude (a.u.)       :      4.69591
Magnitude (Debye)      :     11.93604

Rotational constants in cm-1:     0.000428     0.000303     0.000184
Rotational constants in MHz :    12.817713     9.095201     5.521980

                             ****ORCA TERMINATED NORMALLY****
TOTAL RUN TIME: 0 days 0 hours 9 minutes 56 seconds 151 msec
