                         Program Version 4.2.0 -  RELEASE  -
|  1> # ORCA input file
|  2> # SCF done       -225.822041783619          0.000424228163
|  3> ! CAM-B3LYP def2-SVP def2/J RIJCOSX Grid4 TightSCF
|  4> %maxcore 5000
|  5> %tddft
|  6>     Mode sTDDFT
|  7>     Ethresh 5.0
|  8>     maxcore 5000
|  9> end
| 10>
| 11> %pal
| 12>   nprocs 6
| 13>   end
| 14> * xyz 0 1
| 15>    C       -7.37633         1.73060        -4.91567
| 16>    C       -8.02658         1.87972        -6.10869
| 17>    F       -8.28199         3.10348        -6.58775
| 18>    C       -8.43625         0.75203        -6.84846
| 19>    F       -9.07175         0.92799        -8.01418
| 20>    C       -8.19021        -0.50989        -6.38437
| 21>    C       -7.52317        -0.69596        -5.15811
| 22>    C       -7.10750         0.44315        -4.40944
| 23>    C       -6.43587         0.28159        -3.17549
| 24>    C       -6.18944        -0.98032        -2.70282
| 25>    C       -6.61322        -2.11085        -3.45620
| 26>    C       -7.26015        -1.98809        -4.65196
| 27>    C       -6.24626        -3.33663        -2.73009
| 28>    O       -6.44943        -4.48183        -3.09682
| 29>    C       -5.60288        -2.90250        -1.48584
| 30>    C       -5.53236        -1.45212        -1.48507
| 31>    C       -4.94403        -0.64720        -0.54537
| 32>    C       -4.27307        -1.08777         0.61540
| 33>    N       -3.70610        -1.36508         1.57464
| 34>    C       -4.91396         0.76195        -0.62190
| 35>    N       -4.85681         1.90826        -0.62445
| 36>    C       -5.18919        -3.73171        -0.47396
| 37>    C       -5.23308        -5.13016        -0.37014
| 38>    C       -4.81129        -5.79353         0.79035
| 39>    C       -4.94887        -7.16396         0.69624
| 40>    C       -5.46992        -7.56400        -0.55897
| 41>    S       -5.80047        -6.25939        -1.60084
| 42>    C       -5.58617        -8.97532        -0.55395
| 43>    C       -5.14687        -9.46592         0.69184
| 44>    C       -4.72905        -8.34567         1.51727
| 45>    C       -4.24672        -8.39638         2.79152
| 46>    C       -4.08652        -9.61539         3.48481
| 47>    N       -3.95662       -10.60278         4.05271
| 48>    C       -3.88126        -7.23435         3.50444
| 49>    N       -3.58682        -6.29368         4.08943
| 50>    C       -5.24592       -10.84939         0.79475
| 51>    C       -5.75468       -11.42079        -0.36090
| 52>    S       -6.10564       -10.21862        -1.59468
| 53>    C       -6.01468       -12.81144        -0.57672
| 54>    C       -6.48102       -13.32830        -1.77986
| 55>    F       -6.68368       -12.50462        -2.82374
| 56>    C       -6.76947       -14.68047        -1.98617
| 57>    F       -7.21817       -15.02022        -3.20819
| 58>    C       -6.63358       -15.65883        -1.00826
| 59>    C       -6.13950       -15.17630         0.23780
| 60>    C       -5.83228       -13.78538         0.44715
| 61>    N       -5.38693       -13.56485         1.68200
| 62>    S       -5.35038       -14.94556         2.49548
| 63>    N       -5.90075       -15.89887         1.32994
| 64>    C       -6.97497       -17.03338        -1.21218
| 65>    C       -6.95295       -18.03729        -0.25675
| 66>    C       -7.37690       -19.25736        -0.77228
| 67>    C       -7.71569       -19.18682        -2.13801
| 68>    S       -7.51940       -17.62133        -2.77635
| 69>    C       -8.14147       -20.46957        -2.56342
| 70>    C       -8.08212       -21.34719        -1.46036
| 71>    C       -7.58775       -20.61737        -0.30502
| 72>    C       -7.35273       -21.11989         0.94084
| 73>    C       -7.59694       -22.47723         1.23979
| 74>    N       -7.80890       -23.58158         1.46413
| 75>    C       -6.86211       -20.32161         1.99587
| 76>    N       -6.47178       -19.67197         2.85592
| 77>    C       -8.47262       -22.64055        -1.77587
| 78>    C       -8.82182       -22.77242        -3.11377
| 79>    S       -8.68946       -21.24176        -3.97525
| 80>    C       -9.29797       -23.90421        -3.80675
| 81>    C       -9.26309       -25.21893        -3.44799
| 82>    C      -10.20692       -26.15639        -4.12283
| 83>    O      -10.85358       -25.93260        -5.11916
| 84>    C      -10.21711       -27.36868        -3.28213
| 85>    C      -11.00794       -28.47673        -3.38351
| 86>    C      -10.86834       -29.50858        -2.42857
| 87>    C       -9.91409       -29.36661        -1.37920
| 88>    C       -9.78958       -30.39434        -0.42291
| 89>    C      -10.57193       -31.51182        -0.50698
| 90>    C      -11.51321       -31.65233        -1.54683
| 91>    C      -11.65942       -30.67243        -2.48823
| 92>    F      -12.26720       -32.75797        -1.60381
| 93>    F      -10.45179       -32.48797         0.40148
| 94>    C       -9.10254       -28.21113        -1.30518
| 95>    C       -9.24598       -27.23079        -2.24983
| 96>    C       -8.54022       -25.96471        -2.44055
| 97>    C       -7.29411       -25.68532        -1.94221
| 98>    C       -6.53012       -24.56569        -2.32309
| 99>    N       -5.87126       -23.67585        -2.62680
|100>    C       -6.59196       -26.53813        -1.06405
|101>    N       -5.97930       -27.19846        -0.35371
|102>    H       -7.06926         2.60447        -4.36255
|103>    H       -8.51038        -1.36277        -6.96214
|104>    H       -6.13717         1.16478        -2.63494
|105>    H       -7.56832        -2.86417        -5.20205
|106>    H       -4.77365        -3.25842         0.40757
|107>    H       -4.43192        -5.26357         1.64625
|108>    H       -4.97577       -11.43776         1.65164
|109>    H       -6.64252       -17.85612         0.75541
|110>    H       -8.55199       -23.44417        -1.06703
|111>    H       -9.83606       -23.70498        -4.72913
|112>    H      -11.73178       -28.56396        -4.17936
|113>    H       -9.07174       -30.30429         0.37730
|114>    H      -12.38471       -30.79459        -3.27736
|115>    H       -8.39631       -28.12382        -0.49503
|116> *
|117>
|118>                          ****END OF INPUT****

CARTESIAN COORDINATES (ANGSTROEM)
---------------------------------
  C     -7.376330    1.730600   -4.915670
  C     -8.026580    1.879720   -6.108690
  F     -8.281990    3.103480   -6.587750
  C     -8.436250    0.752030   -6.848460
  F     -9.071750    0.927990   -8.014180
  C     -8.190210   -0.509890   -6.384370
  C     -7.523170   -0.695960   -5.158110
  C     -7.107500    0.443150   -4.409440
  C     -6.435870    0.281590   -3.175490
  C     -6.189440   -0.980320   -2.702820
  C     -6.613220   -2.110850   -3.456200
  C     -7.260150   -1.988090   -4.651960
  C     -6.246260   -3.336630   -2.730090
  O     -6.449430   -4.481830   -3.096820
  C     -5.602880   -2.902500   -1.485840
  C     -5.532360   -1.452120   -1.485070
  C     -4.944030   -0.647200   -0.545370
  C     -4.273070   -1.087770    0.615400
  N     -3.706100   -1.365080    1.574640
  C     -4.913960    0.761950   -0.621900
  N     -4.856810    1.908260   -0.624450
  C     -5.189190   -3.731710   -0.473960
  C     -5.233080   -5.130160   -0.370140
  C     -4.811290   -5.793530    0.790350
  C     -4.948870   -7.163960    0.696240
  C     -5.469920   -7.564000   -0.558970
  S     -5.800470   -6.259390   -1.600840
  C     -5.586170   -8.975320   -0.553950
  C     -5.146870   -9.465920    0.691840
  C     -4.729050   -8.345670    1.517270
  C     -4.246720   -8.396380    2.791520
  C     -4.086520   -9.615390    3.484810
  N     -3.956620  -10.602780    4.052710
  C     -3.881260   -7.234350    3.504440
  N     -3.586820   -6.293680    4.089430
  C     -5.245920  -10.849390    0.794750
  C     -5.754680  -11.420790   -0.360900
  S     -6.105640  -10.218620   -1.594680
  C     -6.014680  -12.811440   -0.576720
  C     -6.481020  -13.328300   -1.779860
  F     -6.683680  -12.504620   -2.823740
  C     -6.769470  -14.680470   -1.986170
  F     -7.218170  -15.020220   -3.208190
  C     -6.633580  -15.658830   -1.008260
  C     -6.139500  -15.176300    0.237800
  C     -5.832280  -13.785380    0.447150
  N     -5.386930  -13.564850    1.682000
  S     -5.350380  -14.945560    2.495480
  N     -5.900750  -15.898870    1.329940
  C     -6.974970  -17.033380   -1.212180
  C     -6.952950  -18.037290   -0.256750
  C     -7.376900  -19.257360   -0.772280
  C     -7.715690  -19.186820   -2.138010
  S     -7.519400  -17.621330   -2.776350
  C     -8.141470  -20.469570   -2.563420
  C     -8.082120  -21.347190   -1.460360
  C     -7.587750  -20.617370   -0.305020
  C     -7.352730  -21.119890    0.940840
  C     -7.596940  -22.477230    1.239790
  N     -7.808900  -23.581580    1.464130
  C     -6.862110  -20.321610    1.995870
  N     -6.471780  -19.671970    2.855920
  C     -8.472620  -22.640550   -1.775870
  C     -8.821820  -22.772420   -3.113770
  S     -8.689460  -21.241760   -3.975250
  C     -9.297970  -23.904210   -3.806750
  C     -9.263090  -25.218930   -3.447990
  C    -10.206920  -26.156390   -4.122830
  O    -10.853580  -25.932600   -5.119160
  C    -10.217110  -27.368680   -3.282130
  C    -11.007940  -28.476730   -3.383510
  C    -10.868340  -29.508580   -2.428570
  C     -9.914090  -29.366610   -1.379200
  C     -9.789580  -30.394340   -0.422910
  C    -10.571930  -31.511820   -0.506980
  C    -11.513210  -31.652330   -1.546830
  C    -11.659420  -30.672430   -2.488230
  F    -12.267200  -32.757970   -1.603810
  F    -10.451790  -32.487970    0.401480
  C     -9.102540  -28.211130   -1.305180
  C     -9.245980  -27.230790   -2.249830
  C     -8.540220  -25.964710   -2.440550
  C     -7.294110  -25.685320   -1.942210
  C     -6.530120  -24.565690   -2.323090
  N     -5.871260  -23.675850   -2.626800
  C     -6.591960  -26.538130   -1.064050
  N     -5.979300  -27.198460   -0.353710
  H     -7.069260    2.604470   -4.362550
  H     -8.510380   -1.362770   -6.962140
  H     -6.137170    1.164780   -2.634940
  H     -7.568320   -2.864170   -5.202050
  H     -4.773650   -3.258420    0.407570
  H     -4.431920   -5.263570    1.646250
  H     -4.975770  -11.437760    1.651640
  H     -6.642520  -17.856120    0.755410
  H     -8.551990  -23.444170   -1.067030
  H     -9.836060  -23.704980   -4.729130
  H    -11.731780  -28.563960   -4.179360
  H     -9.071740  -30.304290    0.377300
  H    -12.384710  -30.794590   -3.277360
  H     -8.396310  -28.123820   -0.495030

 Total Charge           Charge          ....    0
 Multiplicity           Mult            ....    1
 Number of Electrons    NEL             ....  618
 Basis Dimension        Dim             .... 1308

ORBITAL ENERGIES
----------------

  NO   OCC          E(Eh)            E(eV)
   0   2.0000     -89.049130     -2423.1500
   1   2.0000     -89.002559     -2421.8828
   2   2.0000     -89.000778     -2421.8343
   3   2.0000     -88.999442     -2421.7979
   4   2.0000     -88.996403     -2421.7152
   5   2.0000     -24.830648      -675.6763
   6   2.0000     -24.830415      -675.6699
   7   2.0000     -24.803019      -674.9245
   8   2.0000     -24.801778      -674.8907
   9   2.0000     -24.799868      -674.8387
  10   2.0000     -24.798920      -674.8129
  11   2.0000     -19.232203      -523.3349
  12   2.0000     -19.220965      -523.0291
  13   2.0000     -14.463464      -393.5709
  14   2.0000     -14.463325      -393.5671
  15   2.0000     -14.437929      -392.8760
  16   2.0000     -14.436204      -392.8291
  17   2.0000     -14.435025      -392.7970
  18   2.0000     -14.434504      -392.7828
  19   2.0000     -14.423359      -392.4795
  20   2.0000     -14.422458      -392.4550
  21   2.0000     -14.419776      -392.3820
  22   2.0000     -14.418246      -392.3404
  23   2.0000     -10.406596      -283.1779
  24   2.0000     -10.405970      -283.1609
  25   2.0000     -10.386373      -282.6276
  26   2.0000     -10.385589      -282.6063
  27   2.0000     -10.383165      -282.5403
  28   2.0000     -10.382586      -282.5245
  29   2.0000     -10.379885      -282.4510
  30   2.0000     -10.372695      -282.2554
  31   2.0000     -10.372373      -282.2466
  32   2.0000     -10.370944      -282.2077
  33   2.0000     -10.359829      -281.9053
  34   2.0000     -10.358815      -281.8777
  35   2.0000     -10.357495      -281.8418
  36   2.0000     -10.357235      -281.8347
  37   2.0000     -10.349884      -281.6347
  38   2.0000     -10.349457      -281.6230
  39   2.0000     -10.348620      -281.6003
  40   2.0000     -10.348309      -281.5918
  41   2.0000     -10.348034      -281.5843
  42   2.0000     -10.342310      -281.4286
  43   2.0000     -10.341593      -281.4090
  44   2.0000     -10.341477      -281.4059
  45   2.0000     -10.340956      -281.3917
  46   2.0000     -10.340955      -281.3917
  47   2.0000     -10.340474      -281.3786
  48   2.0000     -10.339281      -281.3461
  49   2.0000     -10.338104      -281.3141
  50   2.0000     -10.336139      -281.2607
  51   2.0000     -10.335079      -281.2318
  52   2.0000     -10.334636      -281.2197
  53   2.0000     -10.334606      -281.2189
  54   2.0000     -10.334175      -281.2072
  55   2.0000     -10.333902      -281.1998
  56   2.0000     -10.331348      -281.1303
  57   2.0000     -10.324748      -280.9507
  58   2.0000     -10.324240      -280.9368
  59   2.0000     -10.322747      -280.8962
  60   2.0000     -10.320543      -280.8362
  61   2.0000     -10.319852      -280.8175
  62   2.0000     -10.319390      -280.8049
  63   2.0000     -10.315860      -280.7088
  64   2.0000     -10.315513      -280.6994
  65   2.0000     -10.314558      -280.6734
  66   2.0000     -10.314347      -280.6677
  67   2.0000     -10.313938      -280.6565
  68   2.0000     -10.313127      -280.6345
  69   2.0000     -10.312957      -280.6298
  70   2.0000     -10.312676      -280.6222
  71   2.0000     -10.312460      -280.6163
  72   2.0000     -10.311033      -280.5775
  73   2.0000     -10.309212      -280.5279
  74   2.0000     -10.307494      -280.4812
  75   2.0000     -10.306810      -280.4626
  76   2.0000     -10.306804      -280.4624
  77   2.0000     -10.306399      -280.4514
  78   2.0000     -10.306151      -280.4446
  79   2.0000     -10.306072      -280.4425
  80   2.0000     -10.305995      -280.4404
  81   2.0000     -10.305040      -280.4144
  82   2.0000     -10.304947      -280.4119
  83   2.0000     -10.303133      -280.3625
  84   2.0000     -10.301992      -280.3315
  85   2.0000     -10.299939      -280.2756
  86   2.0000     -10.297223      -280.2017
  87   2.0000      -8.140573      -221.5163
  88   2.0000      -8.097273      -220.3380
  89   2.0000      -8.094851      -220.2721
  90   2.0000      -8.093674      -220.2401
  91   2.0000      -8.088765      -220.1065
  92   2.0000      -6.111840      -166.3116
  93   2.0000      -6.103906      -166.0957
  94   2.0000      -6.102985      -166.0707
  95   2.0000      -6.066381      -165.0746
  96   2.0000      -6.064176      -165.0146
  97   2.0000      -6.062966      -164.9817
  98   2.0000      -6.062286      -164.9632
  99   2.0000      -6.059797      -164.8954
 100   2.0000      -6.059729      -164.8936
 101   2.0000      -6.058539      -164.8612
 102   2.0000      -6.058182      -164.8515
 103   2.0000      -6.057304      -164.8276
 104   2.0000      -6.056109      -164.7951
 105   2.0000      -6.053422      -164.7220
 106   2.0000      -6.051305      -164.6644
 107   2.0000      -1.353710       -36.8363
 108   2.0000      -1.335882       -36.3512
 109   2.0000      -1.325534       -36.0696
 110   2.0000      -1.322504       -35.9872
 111   2.0000      -1.310626       -35.6639
 112   2.0000      -1.307617       -35.5821
 113   2.0000      -1.152411       -31.3587
 114   2.0000      -1.147806       -31.2334
 115   2.0000      -1.136909       -30.9369
 116   2.0000      -1.056110       -28.7382
 117   2.0000      -1.053226       -28.6597
 118   2.0000      -1.029428       -28.0122
 119   2.0000      -1.027232       -27.9524
 120   2.0000      -1.025974       -27.9182
 121   2.0000      -1.025524       -27.9059
 122   2.0000      -1.016447       -27.6589
 123   2.0000      -1.015073       -27.6215
 124   2.0000      -1.014023       -27.5930
 125   2.0000      -1.011803       -27.5326
 126   2.0000      -1.010308       -27.4919
 127   2.0000      -1.008056       -27.4306
 128   2.0000      -1.001959       -27.2647
 129   2.0000      -0.999726       -27.2039
 130   2.0000      -0.998477       -27.1700
 131   2.0000      -0.995431       -27.0870
 132   2.0000      -0.987351       -26.8672
 133   2.0000      -0.984847       -26.7990
 134   2.0000      -0.968995       -26.3677
 135   2.0000      -0.965173       -26.2637
 136   2.0000      -0.939167       -25.5560
 137   2.0000      -0.937698       -25.5161
 138   2.0000      -0.930252       -25.3134
 139   2.0000      -0.924565       -25.1587
 140   2.0000      -0.912137       -24.8205
 141   2.0000      -0.906326       -24.6624
 142   2.0000      -0.899499       -24.4766
 143   2.0000      -0.896636       -24.3987
 144   2.0000      -0.894879       -24.3509
 145   2.0000      -0.889802       -24.2127
 146   2.0000      -0.884890       -24.0791
 147   2.0000      -0.884813       -24.0770
 148   2.0000      -0.874829       -23.8053
 149   2.0000      -0.867334       -23.6014
 150   2.0000      -0.865817       -23.5601
 151   2.0000      -0.864080       -23.5128
 152   2.0000      -0.846206       -23.0264
 153   2.0000      -0.843379       -22.9495
 154   2.0000      -0.837360       -22.7857
 155   2.0000      -0.823631       -22.4121
 156   2.0000      -0.813159       -22.1272
 157   2.0000      -0.787151       -21.4195
 158   2.0000      -0.785643       -21.3784
 159   2.0000      -0.783420       -21.3179
 160   2.0000      -0.775319       -21.0975
 161   2.0000      -0.774997       -21.0887
 162   2.0000      -0.769427       -20.9372
 163   2.0000      -0.753663       -20.5082
 164   2.0000      -0.750045       -20.4098
 165   2.0000      -0.741813       -20.1858
 166   2.0000      -0.735081       -20.0026
 167   2.0000      -0.726367       -19.7655
 168   2.0000      -0.722403       -19.6576
 169   2.0000      -0.720108       -19.5951
 170   2.0000      -0.716424       -19.4949
 171   2.0000      -0.711005       -19.3474
 172   2.0000      -0.702147       -19.1064
 173   2.0000      -0.698163       -18.9980
 174   2.0000      -0.696002       -18.9392
 175   2.0000      -0.691415       -18.8144
 176   2.0000      -0.687159       -18.6985
 177   2.0000      -0.684715       -18.6321
 178   2.0000      -0.679406       -18.4876
 179   2.0000      -0.670158       -18.2359
 180   2.0000      -0.667844       -18.1730
 181   2.0000      -0.665165       -18.1001
 182   2.0000      -0.660772       -17.9805
 183   2.0000      -0.657322       -17.8866
 184   2.0000      -0.653833       -17.7917
 185   2.0000      -0.647744       -17.6260
 186   2.0000      -0.645287       -17.5591
 187   2.0000      -0.644205       -17.5297
 188   2.0000      -0.642301       -17.4779
 189   2.0000      -0.638833       -17.3835
 190   2.0000      -0.632174       -17.2023
 191   2.0000      -0.626570       -17.0498
 192   2.0000      -0.623289       -16.9606
 193   2.0000      -0.620174       -16.8758
 194   2.0000      -0.619333       -16.8529
 195   2.0000      -0.618492       -16.8300
 196   2.0000      -0.617828       -16.8120
 197   2.0000      -0.600971       -16.3533
 198   2.0000      -0.598644       -16.2899
 199   2.0000      -0.595037       -16.1918
 200   2.0000      -0.590004       -16.0548
 201   2.0000      -0.588964       -16.0265
 202   2.0000      -0.586997       -15.9730
 203   2.0000      -0.585150       -15.9227
 204   2.0000      -0.581136       -15.8135
 205   2.0000      -0.578340       -15.7374
 206   2.0000      -0.575758       -15.6672
 207   2.0000      -0.574024       -15.6200
 208   2.0000      -0.571444       -15.5498
 209   2.0000      -0.567504       -15.4426
 210   2.0000      -0.560913       -15.2632
 211   2.0000      -0.557266       -15.1640
 212   2.0000      -0.556730       -15.1494
 213   2.0000      -0.556241       -15.1361
 214   2.0000      -0.555870       -15.1260
 215   2.0000      -0.551516       -15.0075
 216   2.0000      -0.548570       -14.9273
 217   2.0000      -0.547824       -14.9070
 218   2.0000      -0.546809       -14.8794
 219   2.0000      -0.542131       -14.7521
 220   2.0000      -0.541269       -14.7287
 221   2.0000      -0.540295       -14.7022
 222   2.0000      -0.536726       -14.6051
 223   2.0000      -0.534852       -14.5541
 224   2.0000      -0.534058       -14.5324
 225   2.0000      -0.531013       -14.4496
 226   2.0000      -0.524059       -14.2604
 227   2.0000      -0.523514       -14.2455
 228   2.0000      -0.522130       -14.2079
 229   2.0000      -0.518747       -14.1158
 230   2.0000      -0.516571       -14.0566
 231   2.0000      -0.514434       -13.9985
 232   2.0000      -0.512844       -13.9552
 233   2.0000      -0.511618       -13.9218
 234   2.0000      -0.511180       -13.9099
 235   2.0000      -0.509163       -13.8550
 236   2.0000      -0.506426       -13.7805
 237   2.0000      -0.505381       -13.7521
 238   2.0000      -0.504711       -13.7339
 239   2.0000      -0.500895       -13.6300
 240   2.0000      -0.499920       -13.6035
 241   2.0000      -0.497258       -13.5311
 242   2.0000      -0.495747       -13.4900
 243   2.0000      -0.493685       -13.4339
 244   2.0000      -0.490416       -13.3449
 245   2.0000      -0.489946       -13.3321
 246   2.0000      -0.486198       -13.2301
 247   2.0000      -0.484036       -13.1713
 248   2.0000      -0.482583       -13.1318
 249   2.0000      -0.475832       -12.9481
 250   2.0000      -0.470121       -12.7926
 251   2.0000      -0.469844       -12.7851
 252   2.0000      -0.467909       -12.7325
 253   2.0000      -0.466324       -12.6893
 254   2.0000      -0.465326       -12.6622
 255   2.0000      -0.464709       -12.6454
 256   2.0000      -0.463998       -12.6260
 257   2.0000      -0.460876       -12.5411
 258   2.0000      -0.459274       -12.4975
 259   2.0000      -0.456739       -12.4285
 260   2.0000      -0.455492       -12.3946
 261   2.0000      -0.455408       -12.3923
 262   2.0000      -0.452378       -12.3098
 263   2.0000      -0.449347       -12.2273
 264   2.0000      -0.449234       -12.2243
 265   2.0000      -0.448548       -12.2056
 266   2.0000      -0.446922       -12.1614
 267   2.0000      -0.446797       -12.1580
 268   2.0000      -0.446259       -12.1433
 269   2.0000      -0.445063       -12.1108
 270   2.0000      -0.444647       -12.0995
 271   2.0000      -0.443794       -12.0763
 272   2.0000      -0.439974       -11.9723
 273   2.0000      -0.438923       -11.9437
 274   2.0000      -0.434543       -11.8245
 275   2.0000      -0.433525       -11.7968
 276   2.0000      -0.433181       -11.7875
 277   2.0000      -0.431818       -11.7504
 278   2.0000      -0.431697       -11.7471
 279   2.0000      -0.430075       -11.7029
 280   2.0000      -0.424851       -11.5608
 281   2.0000      -0.423088       -11.5128
 282   2.0000      -0.422461       -11.4957
 283   2.0000      -0.421862       -11.4794
 284   2.0000      -0.415734       -11.3127
 285   2.0000      -0.412636       -11.2284
 286   2.0000      -0.408360       -11.1120
 287   2.0000      -0.405712       -11.0400
 288   2.0000      -0.395237       -10.7549
 289   2.0000      -0.390592       -10.6285
 290   2.0000      -0.388805       -10.5799
 291   2.0000      -0.385401       -10.4873
 292   2.0000      -0.377676       -10.2771
 293   2.0000      -0.364576        -9.9206
 294   2.0000      -0.357121        -9.7177
 295   2.0000      -0.356578        -9.7030
 296   2.0000      -0.354954        -9.6588
 297   2.0000      -0.348527        -9.4839
 298   2.0000      -0.347589        -9.4584
 299   2.0000      -0.340833        -9.2745
 300   2.0000      -0.331436        -9.0188
 301   2.0000      -0.329248        -8.9593
 302   2.0000      -0.323333        -8.7983
 303   2.0000      -0.320870        -8.7313
 304   2.0000      -0.318296        -8.6613
 305   2.0000      -0.305970        -8.3259
 306   2.0000      -0.303469        -8.2578
 307   2.0000      -0.282438        -7.6855
 308   2.0000      -0.259635        -7.0650
 309   0.0000      -0.125065        -3.4032
 310   0.0000      -0.114666        -3.1202
 311   0.0000      -0.097386        -2.6500
 312   0.0000      -0.094972        -2.5843
 313   0.0000      -0.087728        -2.3872

MULLIKEN ATOMIC CHARGES
-----------------------
   0 C :   -0.109370
   1 C :    0.243824
   2 F :   -0.169644
   3 C :    0.239714
   4 F :   -0.170039
   5 C :   -0.104789
   6 C :    0.116050
   7 C :    0.114155
   8 C :   -0.082688
   9 C :    0.044766
  10 C :    0.001510
  11 C :   -0.081712
  12 C :    0.172927
  13 O :   -0.191992
  14 C :   -0.097010
  15 C :    0.331493
  16 C :   -0.350968
  17 C :   -0.192120
  18 N :    0.154741
  19 C :   -0.181711
  20 N :    0.147609
  21 C :   -0.028793
  22 C :   -0.050799
  23 C :   -0.062530
  24 C :    0.046355
  25 C :   -0.071611
  26 S :    0.246077
  27 C :   -0.093556
  28 C :    0.033069
  29 C :    0.312214
  30 C :   -0.297770
  31 C :   -0.185056
  32 N :    0.173417
  33 C :   -0.195434
  34 N :    0.186290
  35 C :   -0.058015
  36 C :   -0.135633
  37 S :    0.213363
  38 C :    0.114989
  39 C :    0.119836
  40 F :   -0.172089
  41 C :    0.118758
  42 F :   -0.173068
  43 C :    0.119164
  44 C :    0.002713
  45 C :    0.003875
  46 N :   -0.285278
  47 S :    0.569721
  48 N :   -0.288094
  49 C :   -0.138669
  50 C :   -0.057320
  51 C :    0.036420
  52 C :   -0.092157
  53 S :    0.212337
  54 C :   -0.075509
  55 C :   -0.004524
  56 C :    0.309657
  57 C :   -0.291434
  58 C :   -0.183370
  59 N :    0.171315
  60 C :   -0.185795
  61 N :    0.177098
  62 C :   -0.000608
  63 C :   -0.109268
  64 S :    0.216245
  65 C :    0.086293
  66 C :   -0.145859
  67 C :    0.137754
  68 O :   -0.141764
  69 C :    0.018672
  70 C :   -0.084397
  71 C :    0.114519
  72 C :    0.111371
  73 C :   -0.107686
  74 C :    0.242627
  75 C :    0.238955
  76 C :   -0.105305
  77 F :   -0.171341
  78 F :   -0.170472
  79 C :   -0.079792
  80 C :    0.029651
  81 C :    0.270538
  82 C :   -0.326135
  83 C :   -0.202450
  84 N :    0.166575
  85 C :   -0.168447
  86 N :    0.161177
  87 H :    0.009041
  88 H :   -0.001105
  89 H :   -0.006018
  90 H :   -0.011510
  91 H :    0.018593
  92 H :    0.029775
  93 H :    0.025576
  94 H :    0.026499
  95 H :    0.025813
  96 H :    0.021020
  97 H :   -0.007474
  98 H :    0.009226
  99 H :    0.000616
 100 H :    0.004193
Sum of atomic charges:   -0.0000000

LOEWDIN ATOMIC CHARGES
----------------------
   0 C :   -0.028488
   1 C :    0.067472
   2 F :   -0.047390
   3 C :    0.067880
   4 F :   -0.048201
   5 C :   -0.033163
   6 C :   -0.009249
   7 C :   -0.006001
   8 C :    0.018884
   9 C :   -0.021873
  10 C :   -0.052836
  11 C :    0.030495
  12 C :    0.085992
  13 O :   -0.175415
  14 C :   -0.111372
  15 C :    0.075551
  16 C :   -0.139172
  17 C :   -0.023703
  18 N :   -0.045652
  19 C :   -0.017139
  20 N :   -0.052049
  21 C :    0.058489
  22 C :   -0.182722
  23 C :    0.013511
  24 C :   -0.075295
  25 C :   -0.166121
  26 S :    0.549687
  27 C :   -0.187695
  28 C :   -0.058227
  29 C :    0.076955
  30 C :   -0.098357
  31 C :   -0.016601
  32 N :   -0.029267
  33 C :   -0.020350
  34 N :   -0.023244
  35 C :   -0.016236
  36 C :   -0.159967
  37 S :    0.497501
  38 C :   -0.065496
  39 C :    0.062763
  40 F :   -0.046634
  41 C :    0.060933
  42 F :   -0.047429
  43 C :   -0.063078
  44 C :   -0.038404
  45 C :   -0.038083
  46 N :   -0.270551
  47 S :    0.683882
  48 N :   -0.270836
  49 C :   -0.163456
  50 C :   -0.012996
  51 C :   -0.060902
  52 C :   -0.184811
  53 S :    0.497601
  54 C :   -0.159559
  55 C :   -0.063630
  56 C :    0.081396
  57 C :   -0.095666
  58 C :   -0.012696
  59 N :   -0.031606
  60 C :   -0.017019
  61 N :   -0.026758
  62 C :    0.011617
  63 C :   -0.179824
  64 S :    0.502003
  65 C :    0.043311
  66 C :   -0.091975
  67 C :    0.083211
  68 O :   -0.142710
  69 C :   -0.054964
  70 C :    0.031012
  71 C :   -0.009355
  72 C :   -0.005143
  73 C :   -0.029101
  74 C :    0.067664
  75 C :    0.067468
  76 C :   -0.033087
  77 F :   -0.048950
  78 F :   -0.047869
  79 C :    0.017026
  80 C :   -0.020174
  81 C :    0.064880
  82 C :   -0.135249
  83 C :   -0.015546
  84 N :   -0.044949
  85 C :   -0.018521
  86 N :   -0.044411
  87 H :    0.048397
  88 H :    0.044676
  89 H :    0.040460
  90 H :    0.039975
  91 H :    0.054205
  92 H :    0.048742
  93 H :    0.039081
  94 H :    0.039500
  95 H :    0.042981
  96 H :    0.045967
  97 H :    0.040954
  98 H :    0.048355
  99 H :    0.044995
 100 H :    0.041752

  Mayer bond orders larger than 0.100000
B(  0-C ,  1-C ) :   1.4384 B(  0-C ,  5-C ) :   0.1086 B(  0-C ,  7-C ) :   1.1886
B(  0-C , 87-H ) :   1.0073 B(  1-C ,  2-F ) :   1.1357 B(  1-C ,  3-C ) :   1.1923
B(  3-C ,  4-F ) :   1.1357 B(  3-C ,  5-C ) :   1.4413 B(  5-C ,  6-C ) :   1.1916
B(  5-C , 88-H ) :   1.0073 B(  6-C ,  7-C ) :   1.2589 B(  6-C , 11-C ) :   1.1855
B(  7-C ,  8-C ) :   1.2128 B(  8-C ,  9-C ) :   1.4539 B(  8-C , 89-H ) :   0.9896
B(  9-C , 10-C ) :   1.2227 B(  9-C , 15-C ) :   0.9794 B( 10-C , 11-C ) :   1.4658
B( 10-C , 12-C ) :   0.9600 B( 11-C , 90-H ) :   1.0173 B( 12-C , 13-O ) :   2.1099
B( 12-C , 14-C ) :   0.9851 B( 14-C , 15-C ) :   1.0784 B( 14-C , 21-C ) :   1.4831
B( 15-C , 16-C ) :   1.6294 B( 16-C , 17-C ) :   1.1413 B( 16-C , 19-C ) :   1.1474
B( 17-C , 18-N ) :   2.9629 B( 19-C , 20-N ) :   2.9595 B( 21-C , 22-C ) :   1.2742
B( 21-C , 91-H ) :   0.9399 B( 22-C , 23-C ) :   1.3215 B( 22-C , 26-S ) :   1.0692
B( 23-C , 24-C ) :   1.3354 B( 23-C , 92-H ) :   1.0084 B( 24-C , 25-C ) :   1.3550
B( 24-C , 29-C ) :   0.9824 B( 25-C , 26-S ) :   1.1285 B( 25-C , 27-C ) :   1.2027
B( 27-C , 28-C ) :   1.4153 B( 27-C , 37-S ) :   1.1073 B( 28-C , 29-C ) :   1.0004
B( 28-C , 35-C ) :   1.2625 B( 29-C , 30-C ) :   1.7159 B( 30-C , 31-C ) :   1.1379
B( 30-C , 33-C ) :   1.1339 B( 31-C , 32-N ) :   2.9833 B( 33-C , 34-N ) :   2.9950
B( 35-C , 36-C ) :   1.4613 B( 35-C , 93-H ) :   0.9789 B( 36-C , 37-S ) :   1.1017
B( 36-C , 38-C ) :   1.1492 B( 38-C , 39-C ) :   1.3709 B( 38-C , 43-C ) :   0.1275
B( 38-C , 45-C ) :   1.1733 B( 39-C , 40-F ) :   1.1349 B( 39-C , 41-C ) :   1.1843
B( 41-C , 42-F ) :   1.1323 B( 41-C , 43-C ) :   1.3738 B( 43-C , 44-C ) :   1.1714
B( 43-C , 49-C ) :   1.1499 B( 44-C , 45-C ) :   1.1383 B( 44-C , 48-N ) :   1.5393
B( 45-C , 46-N ) :   1.5407 B( 46-N , 47-S ) :   1.2664 B( 46-N , 48-N ) :   0.1403
B( 47-S , 48-N ) :   1.2666 B( 49-C , 50-C ) :   1.4610 B( 49-C , 53-S ) :   1.0997
B( 50-C , 51-C ) :   1.2656 B( 50-C , 94-H ) :   0.9798 B( 51-C , 52-C ) :   1.4215
B( 51-C , 56-C ) :   0.9971 B( 52-C , 53-S ) :   1.1100 B( 52-C , 54-C ) :   1.1950
B( 54-C , 55-C ) :   1.4094 B( 54-C , 64-S ) :   1.1565 B( 55-C , 56-C ) :   0.9954
B( 55-C , 62-C ) :   1.3631 B( 56-C , 57-C ) :   1.7180 B( 57-C , 58-C ) :   1.1341
B( 57-C , 60-C ) :   1.1370 B( 58-C , 59-N ) :   2.9825 B( 60-C , 61-N ) :   2.9860
B( 62-C , 63-C ) :   1.3865 B( 62-C , 95-H ) :   0.9786 B( 63-C , 64-S ) :   1.0901
B( 63-C , 65-C ) :   1.1461 B( 65-C , 66-C ) :   1.6622 B( 65-C , 96-H ) :   0.9253
B( 66-C , 67-C ) :   0.9447 B( 66-C , 81-C ) :   1.0400 B( 67-C , 68-O ) :   2.2671
B( 67-C , 69-C ) :   0.9187 B( 69-C , 70-C ) :   1.4737 B( 69-C , 80-C ) :   1.2212
B( 70-C , 71-C ) :   1.1946 B( 70-C , 97-H ) :   1.0166 B( 71-C , 72-C ) :   1.2558
B( 71-C , 76-C ) :   1.1926 B( 72-C , 73-C ) :   1.1906 B( 72-C , 79-C ) :   1.2149
B( 73-C , 74-C ) :   1.4421 B( 73-C , 76-C ) :   0.1083 B( 73-C , 98-H ) :   1.0071
B( 74-C , 75-C ) :   1.1912 B( 74-C , 78-F ) :   1.1344 B( 75-C , 76-C ) :   1.4443
B( 75-C , 77-F ) :   1.1338 B( 76-C , 99-H ) :   1.0071 B( 79-C , 80-C ) :   1.4611
B( 79-C ,100-H ) :   0.9940 B( 80-C , 81-C ) :   0.9927 B( 81-C , 82-C ) :   1.6512
B( 82-C , 83-C ) :   1.1714 B( 82-C , 85-C ) :   1.1270 B( 83-C , 84-N ) :   2.9921
B( 85-C , 86-N ) :   2.9913

-----------------------------------------------------------------------------
         ABSORPTION SPECTRUM VIA TRANSITION ELECTRIC DIPOLE MOMENTS
-----------------------------------------------------------------------------
State   Energy  Wavelength   fosc         T2         TX        TY        TZ
        (cm-1)    (nm)                  (au**2)     (au)      (au)      (au)
-----------------------------------------------------------------------------
   0   13531.6    739.0   1.094880634  26.63758   0.72849   5.10059   0.30149
   1   14915.1    670.5   0.150470692   3.32124  -0.02902   1.77226  -0.42366
   2   18627.6    536.8   1.519121143  26.84800  -0.59478  -5.14459  -0.16564
   3   21009.2    476.0   0.070836793   1.11001   0.15490  -0.47901   0.92550
   4   22109.0    452.3   0.005947946   0.08857   0.12388  -0.24479   0.11531
   5   22816.6    438.3   0.252516767   3.64347   0.50968  -1.63962   0.83386
   6   24228.7    412.7   0.024548848   0.33356   0.27461  -0.45628   0.22352
   7   25941.6    385.5   0.029129120   0.36966  -0.45371  -0.39224   0.09979
   8   26600.9    375.9   0.017972061   0.22242  -0.19048   0.32112  -0.28813
   9   27402.8    364.9   0.057509258   0.69091   0.49421  -0.04278   0.66696
  10   27898.6    358.4   0.074136835   0.87484   0.29153  -0.48690   0.74349
  11   28065.8    356.3   0.031975117   0.37507  -0.21989   0.42433  -0.38296
  12   28291.7    353.5   0.006117203   0.07118  -0.18140   0.08186  -0.17769
  13   28738.1    348.0   0.019595053   0.22447   0.14475  -0.14873   0.42591
  14   29122.4    343.4   0.027680472   0.31291  -0.25302  -0.42931  -0.25415
  15   29314.8    341.1   0.052740426   0.59229  -0.54027  -0.38980  -0.38529
  16   29433.9    339.7   0.182428910   2.04043   0.66054   0.66772   1.07623
  17   29753.4    336.1   0.141527196   1.56595  -0.42638  -0.35209  -1.12258
  18   30008.4    333.2   0.238150085   2.61267   0.23988  -1.19698   1.05942
  19   30088.9    332.3   0.173943125   1.90317   0.88508   1.01868  -0.28651
  20   30550.5    327.3   0.334547690   3.60508  -0.08293   1.28947  -1.39121
  21   30913.1    323.5   0.100598483   1.07133   0.55462   0.59431   0.64072
  22   31248.4    320.0   0.159255267   1.67781   0.56335   1.01073   0.58213
  23   32173.4    310.8   0.320757395   3.28213  -0.23325  -1.79493  -0.07709
  24   32371.8    308.9   0.208472430   2.12011   0.77106   1.23414   0.04955
  25   32722.1    305.6   0.290933481   2.92703   0.69383  -0.60980   1.44006
  26   32811.5    304.8   0.012590523   0.12633   0.16490   0.20905  -0.23543
  27   33234.9    300.9   0.546201760   5.41046  -0.94781   0.96815  -1.89071
  28   33554.5    298.0   0.383696549   3.76455   0.70371   1.76255   0.40343
  29   33696.2    296.8   0.024940292   0.24367   0.20905   0.24088   0.37675
  30   34058.8    293.6   0.209636725   2.02635  -0.45632  -0.04839  -1.34751
  31   34194.4    292.4   0.067349931   0.64842   0.11281   0.57583  -0.55147
  32   34356.2    291.1   0.254483192   2.43854  -0.22736  -1.50759   0.33765
  33   34487.1    290.0   0.103481800   0.98783  -0.85714  -0.42801   0.26449
  34   34677.2    288.4   0.038655627   0.36698  -0.18008  -0.29892  -0.49517
  35   34799.4    287.4   0.220408920   2.08513  -0.31274   0.33435  -1.36950
  36   35049.1    285.3   0.029881732   0.28068  -0.11253  -0.17927  -0.48567
  37   35142.8    284.6   0.256948726   2.40705   0.51115  -0.45470   1.39249
  38   35320.3    283.1   0.282617471   2.63421   1.15371   0.85613   0.75512
  39   35778.6    279.5   0.001934383   0.01780  -0.10867  -0.06893   0.03518
  40   36038.8    277.5   0.056932078   0.52007  -0.04250  -0.33852   0.63535
  41   36107.2    277.0   0.066786293   0.60893   0.60488   0.35218   0.34500
  42   36463.2    274.2   0.184524923   1.66600  -0.59860   0.22661  -1.12086
  43   36636.3    273.0   0.063494800   0.57056  -0.27606  -0.62691  -0.31833
  44   36806.3    271.7   0.076354076   0.68294  -0.24594  -0.66378   0.42645
  45   37098.8    269.6   0.191781421   1.70186   0.62500   0.97603   0.59882
  46   37443.7    267.1   0.006051188   0.05320  -0.10846  -0.07896  -0.18763
  47   37538.0    266.4   0.007879474   0.06910   0.08571  -0.24771  -0.01990
  48   37606.3    265.9   0.021344004   0.18685  -0.04123   0.31604   0.29201
  49   37708.5    265.2   0.082314980   0.71865   0.50007   0.55626   0.39894
  50   37924.0    263.7   0.052259656   0.45366   0.38803   0.43878   0.33251
  51   38036.8    262.9   0.009992063   0.08648   0.01374  -0.24135   0.16746
  52   38213.8    261.7   0.055800399   0.48072  -0.03970   0.66107   0.20526
  53   38568.4    259.3   0.034954459   0.29836  -0.16581  -0.50511   0.12545
  54   38633.0    258.8   0.058371580   0.49742   0.03928   0.70417   0.00447
  55   38958.5    256.7   0.015542578   0.13134   0.08077   0.33336   0.11699
  56   39029.5    256.2   0.009813715   0.08278   0.04552  -0.19919   0.20256
  57   39174.5    255.3   0.009484850   0.07971  -0.05927  -0.21843  -0.16876
  58   39304.2    254.4   0.104026998   0.87133   0.31299  -0.82059   0.31624
  59   39501.9    253.2   0.028746319   0.23957  -0.20607  -0.40613  -0.17935
  60   39687.4    252.0   0.030492341   0.25294   0.21824   0.09864   0.44225
  61   39811.4    251.2   0.062873567   0.51992   0.20703   0.66047   0.20207
  62   39940.2    250.4   0.131017505   1.07993   0.39990  -0.27050   0.92024
  63   40303.6    248.1   0.024155190   0.19731   0.30018   0.04061   0.32489

FINAL SINGLE POINT ENERGY     -5729.815644075750

DIPOLE MOMENT
-------------
                                X             Y             Z
Electronic contribution:     -3.32241      -0.56651      -7.88590
Nuclear contribution   :      0.74675       0.00282       4.81442
                        -----------------------------------------
Total Dipole Moment    :     -2.57566      -0.56369      -3.07148
                        -----------------------------------------
Magnitude (a.u.)       :      4.04793
Magnitude (Debye)      :     10.28902

Rotational constants in cm-1:     0.001573     0.000124     0.000116
Rotational constants in MHz :    47.156861     3.710258     3.473411

                             ****ORCA TERMINATED NORMALLY****
TOTAL RUN TIME: 0 days 0 hours 11 minutes 49 seconds 512 msec
