                         Program Version 4.2.0 -  RELEASE  -
|  1> # ORCA input file
|  2> # SCF done       -203.547676323034          0.000789038381
|  3> ! CAM-B3LYP def2-SVP def2/J RIJCOSX Grid4 TightSCF
|  4> %maxcore 5000
|  5> %tddft
|  6>     Mode sTDDFT
|  7>     Ethresh 5.0
|  8>     maxcore 5000
|  9> end
| 10>
| 11> %pal
| 12>   nprocs 6
| 13>   end
| 14> * xyz 0 1
| 15>    C        5.18623        -2.37230         4.95188
| 16>    C        4.24662        -3.20651         5.54397
| 17>    C        4.09239        -3.26791         7.01611
| 18>    O        4.76049        -2.71350         7.83323
| 19>    S        2.70591        -4.32637         7.40237
| 20>    C        2.35484        -4.67518         5.66871
| 21>    O        1.39603        -5.30758         5.34275
| 22>    C        3.37112        -4.01922         4.81846
| 23>    C        3.41635        -4.07366         3.40398
| 24>    C        4.32930        -3.17004         2.82500
| 25>    C        5.18089        -2.35989         3.56849
| 26>    C        5.99844        -1.56941         2.61059
| 27>    O        6.84584        -0.76250         2.81649
| 28>    O        5.59824        -1.94043         1.34946
| 29>    C        4.60853        -2.89416         1.39592
| 30>    O        4.11878        -3.35596         0.41153
| 31>    C        2.65227        -4.92535         2.53684
| 32>    C        2.23083        -6.17946         2.80903
| 33>    C        1.53871        -7.00131         1.87601
| 34>    S        1.04049        -8.60095         2.34404
| 35>    C        0.34479        -8.91415         0.78845
| 36>    C        0.50489        -7.79696        -0.04767
| 37>    C        1.17395        -6.73347         0.57037
| 38>    C        0.06210        -7.71087        -1.37877
| 39>    N       -0.28168        -7.60349        -2.46853
| 40>    C       -0.24730       -10.17356         0.54010
| 41>    C       -0.80401       -10.55434        -0.64356
| 42>    C       -1.35240       -11.83912        -0.85008
| 43>    N       -1.88326       -12.25252        -2.04733
| 44>    C       -1.93832       -11.49440        -3.27571
| 45>    C       -0.59136       -11.47266        -3.99288
| 46>    C       -2.33987       -13.57961        -1.99043
| 47>    O       -2.84157       -14.15861        -2.93258
| 48>    C       -2.07105       -13.99410        -0.62791
| 49>    C       -1.47019       -12.90976         0.04418
| 50>    C       -1.21009       -13.31822         1.41010
| 51>    O       -0.71009       -12.73147         2.34915
| 52>    N       -1.68602       -14.63530         1.47512
| 53>    C       -1.56777       -15.41561         2.68500
| 54>    C       -0.37699       -16.36904         2.63429
| 55>    C       -2.19253       -15.06417         0.26962
| 56>    C       -2.71348       -16.35421         0.04927
| 57>    C       -3.17121       -16.76584        -1.17032
| 58>    C       -3.66585       -18.06254        -1.43411
| 59>    C       -3.80500       -19.13926        -0.58067
| 60>    C       -4.31538       -20.25199        -1.30565
| 61>    C       -4.50425       -19.78386        -2.69641
| 62>    C       -4.11747       -18.48642        -2.75725
| 63>    C       -5.01663       -20.52546        -3.76806
| 64>    N       -5.45155       -21.09927        -4.66280
| 65>    C       -4.56342       -21.51475        -0.82605
| 66>    C       -5.01211       -22.65303        -1.57700
| 67>    C       -5.12960       -23.71869        -0.73260
| 68>    C       -4.75602       -23.29567         0.60324
| 69>    C       -4.39992       -21.98180         0.55547
| 70>    C       -3.94897       -21.22875         1.64380
| 71>    N       -3.56974       -20.62338         2.54420
| 72>    C       -5.54059       -25.05989        -1.09645
| 73>    C       -6.58186       -25.75089        -0.45870
| 74>    C       -7.42895       -25.13415         0.58278
| 75>    O       -7.37925       -24.01801         1.00425
| 76>    S       -8.63707       -26.33669         1.13802
| 77>    C       -8.06158       -27.59719        -0.00708
| 78>    O       -8.54364       -28.68776        -0.05566
| 79>    C       -6.94957       -27.04923        -0.81294
| 80>    C       -6.30997       -27.77208        -1.83659
| 81>    C       -5.29283       -27.06424        -2.49182
| 82>    C       -4.92856       -25.76833        -2.13531
| 83>    C       -3.79562       -25.36497        -3.00758
| 84>    O       -3.12284       -24.38374        -2.99488
| 85>    O       -3.59125       -26.39415        -3.89255
| 86>    C       -4.45350       -27.44018        -3.66295
| 87>    O       -4.46051       -28.41518        -4.34392
| 88>    C       -6.70163       -29.13063        -2.18015
| 89>    C       -5.84924       -30.11744        -2.42404
| 90>    H        5.85221        -1.76339         5.54111
| 91>    H        2.50861        -4.52987         1.54162
| 92>    H        2.43253        -6.63573         3.76656
| 93>    H        1.38743        -5.80885         0.06477
| 94>    H       -0.23450       -10.87395         1.36611
| 95>    H       -0.82806        -9.86463        -1.47260
| 96>    H       -2.27969       -10.47792        -3.06418
| 97>    H       -2.68063       -11.99340        -3.90465
| 98>    H        0.17311       -11.00557        -3.37629
| 99>    H       -0.68107       -10.90959        -4.91705
|100>    H       -0.27793       -12.48644        -4.23029
|101>    H       -2.49770       -15.96337         2.85793
|102>    H       -1.42696       -14.69591         3.49608
|103>    H       -0.46875       -17.06748         1.80560
|104>    H       -0.32204       -16.93380         3.56041
|105>    H        0.54581       -15.80674         2.51362
|106>    H       -2.73616       -17.03912         0.88407
|107>    H       -3.14931       -16.07408        -2.00231
|108>    H       -3.56405       -19.16533         0.46299
|109>    H       -4.12939       -17.84903        -3.62210
|110>    H       -5.23493       -22.64353        -2.62499
|111>    H       -4.73604       -23.93091         1.46874
|112>    H       -7.76579       -29.32185        -2.16596
|113>    H       -4.78205       -29.98615        -2.37916
|114>    H       -6.20173       -31.10661        -2.65634
|115> *
|116>
|117>                          ****END OF INPUT****

CARTESIAN COORDINATES (ANGSTROEM)
---------------------------------
  C      5.186230   -2.372300    4.951880
  C      4.246620   -3.206510    5.543970
  C      4.092390   -3.267910    7.016110
  O      4.760490   -2.713500    7.833230
  S      2.705910   -4.326370    7.402370
  C      2.354840   -4.675180    5.668710
  O      1.396030   -5.307580    5.342750
  C      3.371120   -4.019220    4.818460
  C      3.416350   -4.073660    3.403980
  C      4.329300   -3.170040    2.825000
  C      5.180890   -2.359890    3.568490
  C      5.998440   -1.569410    2.610590
  O      6.845840   -0.762500    2.816490
  O      5.598240   -1.940430    1.349460
  C      4.608530   -2.894160    1.395920
  O      4.118780   -3.355960    0.411530
  C      2.652270   -4.925350    2.536840
  C      2.230830   -6.179460    2.809030
  C      1.538710   -7.001310    1.876010
  S      1.040490   -8.600950    2.344040
  C      0.344790   -8.914150    0.788450
  C      0.504890   -7.796960   -0.047670
  C      1.173950   -6.733470    0.570370
  C      0.062100   -7.710870   -1.378770
  N     -0.281680   -7.603490   -2.468530
  C     -0.247300  -10.173560    0.540100
  C     -0.804010  -10.554340   -0.643560
  C     -1.352400  -11.839120   -0.850080
  N     -1.883260  -12.252520   -2.047330
  C     -1.938320  -11.494400   -3.275710
  C     -0.591360  -11.472660   -3.992880
  C     -2.339870  -13.579610   -1.990430
  O     -2.841570  -14.158610   -2.932580
  C     -2.071050  -13.994100   -0.627910
  C     -1.470190  -12.909760    0.044180
  C     -1.210090  -13.318220    1.410100
  O     -0.710090  -12.731470    2.349150
  N     -1.686020  -14.635300    1.475120
  C     -1.567770  -15.415610    2.685000
  C     -0.376990  -16.369040    2.634290
  C     -2.192530  -15.064170    0.269620
  C     -2.713480  -16.354210    0.049270
  C     -3.171210  -16.765840   -1.170320
  C     -3.665850  -18.062540   -1.434110
  C     -3.805000  -19.139260   -0.580670
  C     -4.315380  -20.251990   -1.305650
  C     -4.504250  -19.783860   -2.696410
  C     -4.117470  -18.486420   -2.757250
  C     -5.016630  -20.525460   -3.768060
  N     -5.451550  -21.099270   -4.662800
  C     -4.563420  -21.514750   -0.826050
  C     -5.012110  -22.653030   -1.577000
  C     -5.129600  -23.718690   -0.732600
  C     -4.756020  -23.295670    0.603240
  C     -4.399920  -21.981800    0.555470
  C     -3.948970  -21.228750    1.643800
  N     -3.569740  -20.623380    2.544200
  C     -5.540590  -25.059890   -1.096450
  C     -6.581860  -25.750890   -0.458700
  C     -7.428950  -25.134150    0.582780
  O     -7.379250  -24.018010    1.004250
  S     -8.637070  -26.336690    1.138020
  C     -8.061580  -27.597190   -0.007080
  O     -8.543640  -28.687760   -0.055660
  C     -6.949570  -27.049230   -0.812940
  C     -6.309970  -27.772080   -1.836590
  C     -5.292830  -27.064240   -2.491820
  C     -4.928560  -25.768330   -2.135310
  C     -3.795620  -25.364970   -3.007580
  O     -3.122840  -24.383740   -2.994880
  O     -3.591250  -26.394150   -3.892550
  C     -4.453500  -27.440180   -3.662950
  O     -4.460510  -28.415180   -4.343920
  C     -6.701630  -29.130630   -2.180150
  C     -5.849240  -30.117440   -2.424040
  H      5.852210   -1.763390    5.541110
  H      2.508610   -4.529870    1.541620
  H      2.432530   -6.635730    3.766560
  H      1.387430   -5.808850    0.064770
  H     -0.234500  -10.873950    1.366110
  H     -0.828060   -9.864630   -1.472600
  H     -2.279690  -10.477920   -3.064180
  H     -2.680630  -11.993400   -3.904650
  H      0.173110  -11.005570   -3.376290
  H     -0.681070  -10.909590   -4.917050
  H     -0.277930  -12.486440   -4.230290
  H     -2.497700  -15.963370    2.857930
  H     -1.426960  -14.695910    3.496080
  H     -0.468750  -17.067480    1.805600
  H     -0.322040  -16.933800    3.560410
  H      0.545810  -15.806740    2.513620
  H     -2.736160  -17.039120    0.884070
  H     -3.149310  -16.074080   -2.002310
  H     -3.564050  -19.165330    0.462990
  H     -4.129390  -17.849030   -3.622100
  H     -5.234930  -22.643530   -2.624990
  H     -4.736040  -23.930910    1.468740
  H     -7.765790  -29.321850   -2.165960
  H     -4.782050  -29.986150   -2.379160
  H     -6.201730  -31.106610   -2.656340

 Total Charge           Charge          ....    0
 Multiplicity           Mult            ....    1
 Number of Electrons    NEL             ....  534
 Basis Dimension        Dim             .... 1187

ORBITAL ENERGIES
----------------

  NO   OCC          E(Eh)            E(eV)
   0   2.0000     -88.989395     -2421.5245
   1   2.0000     -88.964579     -2420.8493
   2   2.0000     -88.964194     -2420.8388
   3   2.0000     -19.304356      -525.2982
   4   2.0000     -19.300157      -525.1840
   5   2.0000     -19.258356      -524.0465
   6   2.0000     -19.256900      -524.0069
   7   2.0000     -19.256865      -524.0059
   8   2.0000     -19.255964      -523.9814
   9   2.0000     -19.253290      -523.9087
  10   2.0000     -19.251369      -523.8564
  11   2.0000     -19.246890      -523.7345
  12   2.0000     -19.246615      -523.7270
  13   2.0000     -19.201894      -522.5101
  14   2.0000     -19.200219      -522.4645
  15   2.0000     -14.461698      -393.5228
  16   2.0000     -14.461514      -393.5178
  17   2.0000     -14.423388      -392.4803
  18   2.0000     -14.410441      -392.1280
  19   2.0000     -14.409636      -392.1061
  20   2.0000     -10.446913      -284.2750
  21   2.0000     -10.444339      -284.2049
  22   2.0000     -10.442232      -284.1476
  23   2.0000     -10.441686      -284.1327
  24   2.0000     -10.421564      -283.5852
  25   2.0000     -10.419862      -283.5389
  26   2.0000     -10.419042      -283.5166
  27   2.0000     -10.417184      -283.4660
  28   2.0000     -10.383552      -282.5508
  29   2.0000     -10.382716      -282.5281
  30   2.0000     -10.354197      -281.7520
  31   2.0000     -10.349210      -281.6163
  32   2.0000     -10.348510      -281.5973
  33   2.0000     -10.348073      -281.5854
  34   2.0000     -10.347092      -281.5587
  35   2.0000     -10.343170      -281.4520
  36   2.0000     -10.342940      -281.4457
  37   2.0000     -10.342595      -281.4363
  38   2.0000     -10.342354      -281.4298
  39   2.0000     -10.341213      -281.3987
  40   2.0000     -10.340850      -281.3888
  41   2.0000     -10.340688      -281.3844
  42   2.0000     -10.340076      -281.3678
  43   2.0000     -10.338258      -281.3183
  44   2.0000     -10.335819      -281.2519
  45   2.0000     -10.332140      -281.1518
  46   2.0000     -10.331798      -281.1425
  47   2.0000     -10.328707      -281.0584
  48   2.0000     -10.325202      -280.9630
  49   2.0000     -10.324323      -280.9391
  50   2.0000     -10.319832      -280.8169
  51   2.0000     -10.319057      -280.7958
  52   2.0000     -10.314856      -280.6815
  53   2.0000     -10.313443      -280.6431
  54   2.0000     -10.313097      -280.6336
  55   2.0000     -10.312814      -280.6259
  56   2.0000     -10.312593      -280.6199
  57   2.0000     -10.312521      -280.6180
  58   2.0000     -10.311255      -280.5835
  59   2.0000     -10.310741      -280.5695
  60   2.0000     -10.310432      -280.5611
  61   2.0000     -10.309287      -280.5300
  62   2.0000     -10.306218      -280.4464
  63   2.0000     -10.304106      -280.3890
  64   2.0000     -10.303898      -280.3833
  65   2.0000     -10.303684      -280.3775
  66   2.0000     -10.298732      -280.2427
  67   2.0000     -10.296523      -280.1826
  68   2.0000     -10.293990      -280.1137
  69   2.0000     -10.290119      -280.0084
  70   2.0000     -10.288092      -279.9532
  71   2.0000     -10.273451      -279.5548
  72   2.0000     -10.271962      -279.5143
  73   2.0000     -10.266740      -279.3722
  74   2.0000     -10.263535      -279.2850
  75   2.0000      -8.084932      -220.0022
  76   2.0000      -8.063769      -219.4263
  77   2.0000      -8.063428      -219.4170
  78   2.0000      -6.053967      -164.7368
  79   2.0000      -6.049889      -164.6258
  80   2.0000      -6.047436      -164.5591
  81   2.0000      -6.032611      -164.1557
  82   2.0000      -6.032293      -164.1470
  83   2.0000      -6.029340      -164.0667
  84   2.0000      -6.029020      -164.0580
  85   2.0000      -6.024866      -163.9449
  86   2.0000      -6.024463      -163.9340
  87   2.0000      -1.253508       -34.1097
  88   2.0000      -1.250147       -34.0182
  89   2.0000      -1.183384       -32.2015
  90   2.0000      -1.182660       -32.1818
  91   2.0000      -1.180224       -32.1155
  92   2.0000      -1.179167       -32.0868
  93   2.0000      -1.177970       -32.0542
  94   2.0000      -1.175772       -31.9944
  95   2.0000      -1.143296       -31.1107
  96   2.0000      -1.142512       -31.0893
  97   2.0000      -1.137648       -30.9570
  98   2.0000      -1.136689       -30.9309
  99   2.0000      -1.073249       -29.2046
 100   2.0000      -1.064615       -28.9696
 101   2.0000      -1.032581       -28.0979
 102   2.0000      -1.029281       -28.0082
 103   2.0000      -1.026259       -27.9259
 104   2.0000      -1.018292       -27.7091
 105   2.0000      -1.002459       -27.2783
 106   2.0000      -1.002119       -27.2690
 107   2.0000      -0.987932       -26.8830
 108   2.0000      -0.984865       -26.7995
 109   2.0000      -0.965834       -26.2817
 110   2.0000      -0.964762       -26.2525
 111   2.0000      -0.945135       -25.7184
 112   2.0000      -0.938673       -25.5426
 113   2.0000      -0.936239       -25.4763
 114   2.0000      -0.925065       -25.1723
 115   2.0000      -0.917812       -24.9749
 116   2.0000      -0.898317       -24.4445
 117   2.0000      -0.897424       -24.4202
 118   2.0000      -0.891242       -24.2519
 119   2.0000      -0.880855       -23.9693
 120   2.0000      -0.876119       -23.8404
 121   2.0000      -0.873647       -23.7731
 122   2.0000      -0.864370       -23.5207
 123   2.0000      -0.853327       -23.2202
 124   2.0000      -0.845790       -23.0151
 125   2.0000      -0.842738       -22.9321
 126   2.0000      -0.825341       -22.4587
 127   2.0000      -0.811953       -22.0944
 128   2.0000      -0.810934       -22.0666
 129   2.0000      -0.810370       -22.0513
 130   2.0000      -0.801647       -21.8139
 131   2.0000      -0.789309       -21.4782
 132   2.0000      -0.783209       -21.3122
 133   2.0000      -0.775529       -21.1032
 134   2.0000      -0.772378       -21.0175
 135   2.0000      -0.770047       -20.9540
 136   2.0000      -0.764947       -20.8153
 137   2.0000      -0.749744       -20.4016
 138   2.0000      -0.734573       -19.9888
 139   2.0000      -0.732271       -19.9261
 140   2.0000      -0.722405       -19.6576
 141   2.0000      -0.716427       -19.4950
 142   2.0000      -0.713920       -19.4268
 143   2.0000      -0.710874       -19.3439
 144   2.0000      -0.706265       -19.2184
 145   2.0000      -0.699247       -19.0275
 146   2.0000      -0.684508       -18.6264
 147   2.0000      -0.680517       -18.5178
 148   2.0000      -0.678335       -18.4584
 149   2.0000      -0.672024       -18.2867
 150   2.0000      -0.658347       -17.9145
 151   2.0000      -0.655748       -17.8438
 152   2.0000      -0.649150       -17.6643
 153   2.0000      -0.647570       -17.6213
 154   2.0000      -0.646793       -17.6001
 155   2.0000      -0.639329       -17.3970
 156   2.0000      -0.637678       -17.3521
 157   2.0000      -0.634143       -17.2559
 158   2.0000      -0.628605       -17.1052
 159   2.0000      -0.625672       -17.0254
 160   2.0000      -0.619117       -16.8470
 161   2.0000      -0.614490       -16.7211
 162   2.0000      -0.613108       -16.6835
 163   2.0000      -0.611218       -16.6321
 164   2.0000      -0.610595       -16.6151
 165   2.0000      -0.599019       -16.3001
 166   2.0000      -0.595748       -16.2111
 167   2.0000      -0.585280       -15.9263
 168   2.0000      -0.582382       -15.8474
 169   2.0000      -0.579679       -15.7739
 170   2.0000      -0.577409       -15.7121
 171   2.0000      -0.573847       -15.6152
 172   2.0000      -0.572833       -15.5876
 173   2.0000      -0.572014       -15.5653
 174   2.0000      -0.567415       -15.4402
 175   2.0000      -0.563510       -15.3339
 176   2.0000      -0.561771       -15.2866
 177   2.0000      -0.561184       -15.2706
 178   2.0000      -0.557128       -15.1602
 179   2.0000      -0.555809       -15.1243
 180   2.0000      -0.554098       -15.0778
 181   2.0000      -0.551371       -15.0036
 182   2.0000      -0.550981       -14.9930
 183   2.0000      -0.549316       -14.9476
 184   2.0000      -0.542162       -14.7530
 185   2.0000      -0.541244       -14.7280
 186   2.0000      -0.539158       -14.6712
 187   2.0000      -0.536912       -14.6101
 188   2.0000      -0.536125       -14.5887
 189   2.0000      -0.533031       -14.5045
 190   2.0000      -0.529252       -14.4017
 191   2.0000      -0.528251       -14.3744
 192   2.0000      -0.525656       -14.3038
 193   2.0000      -0.523269       -14.2389
 194   2.0000      -0.522254       -14.2113
 195   2.0000      -0.520753       -14.1704
 196   2.0000      -0.520030       -14.1507
 197   2.0000      -0.519793       -14.1443
 198   2.0000      -0.518786       -14.1169
 199   2.0000      -0.515500       -14.0275
 200   2.0000      -0.514241       -13.9932
 201   2.0000      -0.513622       -13.9764
 202   2.0000      -0.512272       -13.9396
 203   2.0000      -0.509662       -13.8686
 204   2.0000      -0.507507       -13.8100
 205   2.0000      -0.504386       -13.7250
 206   2.0000      -0.499366       -13.5884
 207   2.0000      -0.497991       -13.5510
 208   2.0000      -0.494285       -13.4502
 209   2.0000      -0.491620       -13.3777
 210   2.0000      -0.487386       -13.2624
 211   2.0000      -0.486127       -13.2282
 212   2.0000      -0.484284       -13.1780
 213   2.0000      -0.483936       -13.1686
 214   2.0000      -0.481347       -13.0981
 215   2.0000      -0.479727       -13.0540
 216   2.0000      -0.479292       -13.0422
 217   2.0000      -0.473884       -12.8950
 218   2.0000      -0.470649       -12.8070
 219   2.0000      -0.466662       -12.6985
 220   2.0000      -0.461800       -12.5662
 221   2.0000      -0.459189       -12.4952
 222   2.0000      -0.458182       -12.4678
 223   2.0000      -0.456691       -12.4272
 224   2.0000      -0.453703       -12.3459
 225   2.0000      -0.451013       -12.2727
 226   2.0000      -0.448919       -12.2157
 227   2.0000      -0.448414       -12.2020
 228   2.0000      -0.446227       -12.1425
 229   2.0000      -0.441849       -12.0233
 230   2.0000      -0.439896       -11.9702
 231   2.0000      -0.435585       -11.8529
 232   2.0000      -0.433960       -11.8087
 233   2.0000      -0.431474       -11.7410
 234   2.0000      -0.427023       -11.6199
 235   2.0000      -0.425806       -11.5868
 236   2.0000      -0.422214       -11.4890
 237   2.0000      -0.421786       -11.4774
 238   2.0000      -0.418457       -11.3868
 239   2.0000      -0.417148       -11.3512
 240   2.0000      -0.408707       -11.1215
 241   2.0000      -0.408413       -11.1135
 242   2.0000      -0.402640       -10.9564
 243   2.0000      -0.399036       -10.8583
 244   2.0000      -0.395555       -10.7636
 245   2.0000      -0.388436       -10.5699
 246   2.0000      -0.388151       -10.5621
 247   2.0000      -0.386047       -10.5049
 248   2.0000      -0.383768       -10.4429
 249   2.0000      -0.382272       -10.4022
 250   2.0000      -0.380710       -10.3597
 251   2.0000      -0.375837       -10.2270
 252   2.0000      -0.363013        -9.8781
 253   2.0000      -0.361520        -9.8374
 254   2.0000      -0.360294        -9.8041
 255   2.0000      -0.359027        -9.7696
 256   2.0000      -0.357598        -9.7307
 257   2.0000      -0.349247        -9.5035
 258   2.0000      -0.347744        -9.4626
 259   2.0000      -0.341812        -9.3012
 260   2.0000      -0.336890        -9.1672
 261   2.0000      -0.327843        -8.9211
 262   2.0000      -0.324487        -8.8297
 263   2.0000      -0.307918        -8.3789
 264   2.0000      -0.302164        -8.2223
 265   2.0000      -0.293434        -7.9847
 266   2.0000      -0.240099        -6.5334
 267   0.0000      -0.133100        -3.6218
 268   0.0000      -0.107268        -2.9189
 269   0.0000      -0.106310        -2.8928
 270   0.0000      -0.099114        -2.6970
 271   0.0000      -0.074066        -2.0154

MULLIKEN ATOMIC CHARGES
-----------------------
   0 C :   -0.061412
   1 C :    0.042253
   2 C :    0.052613
   3 O :   -0.113341
   4 S :    0.022878
   5 C :    0.029485
   6 O :   -0.122067
   7 C :    0.023111
   8 C :    0.082691
   9 C :   -0.083289
  10 C :   -0.021927
  11 C :    0.236587
  12 O :   -0.087822
  13 O :   -0.228999
  14 C :    0.243943
  15 O :   -0.106610
  16 C :   -0.073012
  17 C :    0.143407
  18 C :   -0.109364
  19 S :    0.200127
  20 C :   -0.062192
  21 C :   -0.082784
  22 C :    0.026532
  23 C :   -0.157839
  24 N :    0.118196
  25 C :    0.057308
  26 C :   -0.037237
  27 C :    0.140427
  28 N :   -0.253631
  29 C :    0.092790
  30 C :    0.010966
  31 C :    0.164491
  32 O :   -0.203850
  33 C :   -0.059335
  34 C :   -0.064688
  35 C :    0.164223
  36 O :   -0.210093
  37 N :   -0.254572
  38 C :    0.094086
  39 C :    0.005237
  40 C :    0.143568
  41 C :   -0.011051
  42 C :    0.000041
  43 C :    0.115556
  44 C :   -0.119959
  45 C :    0.117353
  46 C :   -0.083711
  47 C :   -0.000067
  48 C :   -0.171569
  49 N :    0.132850
  50 C :    0.087214
  51 C :   -0.030828
  52 C :   -0.010963
  53 C :    0.055532
  54 C :   -0.113516
  55 C :   -0.172713
  56 N :    0.122869
  57 C :    0.047776
  58 C :    0.034385
  59 C :    0.035561
  60 O :   -0.112554
  61 S :    0.031278
  62 C :    0.035138
  63 O :   -0.118753
  64 C :    0.036618
  65 C :    0.007142
  66 C :   -0.078545
  67 C :   -0.063111
  68 C :    0.233068
  69 O :   -0.085142
  70 O :   -0.226612
  71 C :    0.226560
  72 O :   -0.086920
  73 C :   -0.048012
  74 C :    0.036398
  75 H :    0.025921
  76 H :    0.024682
  77 H :   -0.003323
  78 H :    0.012500
  79 H :    0.006185
  80 H :   -0.013862
  81 H :    0.037820
  82 H :    0.043071
  83 H :    0.017379
  84 H :    0.031021
  85 H :    0.024534
  86 H :    0.033261
  87 H :    0.043745
  88 H :    0.019030
  89 H :    0.031084
  90 H :    0.026764
  91 H :   -0.011517
  92 H :    0.006324
  93 H :    0.000035
  94 H :    0.014696
  95 H :    0.003202
  96 H :   -0.004889
  97 H :    0.035346
  98 H :    0.032934
  99 H :    0.041886
Sum of atomic charges:   -0.0000000

LOEWDIN ATOMIC CHARGES
----------------------
   0 C :    0.036962
   1 C :   -0.045019
   2 C :   -0.050046
   3 O :   -0.105733
   4 S :    0.309951
   5 C :   -0.043300
   6 O :   -0.108618
   7 C :   -0.062739
   8 C :    0.039836
   9 C :   -0.052312
  10 C :   -0.039757
  11 C :    0.104062
  12 O :   -0.087140
  13 O :   -0.054870
  14 C :    0.109272
  15 O :   -0.100016
  16 C :   -0.038231
  17 C :    0.014926
  18 C :   -0.172133
  19 S :    0.500121
  20 C :   -0.139896
  21 C :   -0.100519
  22 C :   -0.005121
  23 C :   -0.024643
  24 N :   -0.055860
  25 C :   -0.001074
  26 C :   -0.029728
  27 C :    0.076310
  28 N :    0.004978
  29 C :    0.037294
  30 C :   -0.058310
  31 C :    0.081500
  32 O :   -0.193526
  33 C :   -0.109652
  34 C :   -0.115836
  35 C :    0.079470
  36 O :   -0.200486
  37 N :    0.002837
  38 C :    0.037263
  39 C :   -0.059620
  40 C :    0.071302
  41 C :   -0.016882
  42 C :    0.020556
  43 C :   -0.013769
  44 C :   -0.021075
  45 C :    0.047495
  46 C :   -0.079381
  47 C :    0.064583
  48 C :   -0.028633
  49 N :   -0.061153
  50 C :    0.035845
  51 C :    0.019526
  52 C :   -0.035435
  53 C :    0.067029
  54 C :   -0.093097
  55 C :   -0.025710
  56 N :   -0.075563
  57 C :    0.028260
  58 C :   -0.049959
  59 C :   -0.045951
  60 O :   -0.097933
  61 S :    0.312924
  62 C :   -0.042424
  63 O :   -0.101454
  64 C :   -0.051901
  65 C :    0.037291
  66 C :   -0.043008
  67 C :   -0.036851
  68 C :    0.105522
  69 O :   -0.085791
  70 O :   -0.052574
  71 C :    0.105956
  72 O :   -0.085768
  73 C :   -0.039337
  74 C :    0.018870
  75 H :    0.053762
  76 H :    0.036131
  77 H :    0.030693
  78 H :    0.045056
  79 H :    0.037524
  80 H :    0.036327
  81 H :    0.028625
  82 H :    0.038043
  83 H :    0.023283
  84 H :    0.034872
  85 H :    0.029881
  86 H :    0.026760
  87 H :    0.038287
  88 H :    0.023351
  89 H :    0.034325
  90 H :    0.031057
  91 H :    0.035425
  92 H :    0.037819
  93 H :    0.031719
  94 H :    0.043609
  95 H :    0.035173
  96 H :    0.034939
  97 H :    0.040034
  98 H :    0.025770
  99 H :    0.035429

  Mayer bond orders larger than 0.100000
B(  0-C ,  1-C ) :   1.3589 B(  0-C , 10-C ) :   1.3195 B(  0-C , 75-H ) :   1.0246
B(  1-C ,  2-C ) :   0.8382 B(  1-C ,  7-C ) :   1.3451 B(  2-C ,  3-O ) :   2.2231
B(  2-C ,  4-S ) :   1.0291 B(  3-O ,  4-S ) :   0.1093 B(  4-S ,  5-C ) :   1.0247
B(  4-S ,  6-O ) :   0.1047 B(  5-C ,  6-O ) :   2.1848 B(  5-C ,  7-C ) :   0.8523
B(  7-C ,  8-C ) :   1.3296 B(  8-C ,  9-C ) :   1.3293 B(  8-C , 16-C ) :   1.1299
B(  9-C , 10-C ) :   1.3726 B(  9-C , 14-C ) :   0.9231 B( 10-C , 11-C ) :   0.8832
B( 11-C , 12-O ) :   2.3146 B( 11-C , 13-O ) :   1.0422 B( 13-O , 14-C ) :   1.0624
B( 14-C , 15-O ) :   2.2223 B( 16-C , 17-C ) :   1.7033 B( 16-C , 76-H ) :   0.9428
B( 17-C , 18-C ) :   1.1368 B( 17-C , 77-H ) :   0.9478 B( 18-C , 19-S ) :   1.1243
B( 18-C , 22-C ) :   1.4600 B( 19-S , 20-C ) :   1.1637 B( 20-C , 21-C ) :   1.4007
B( 20-C , 25-C ) :   1.1677 B( 21-C , 22-C ) :   1.3269 B( 21-C , 23-C ) :   1.1205
B( 22-C , 78-H ) :   0.9980 B( 23-C , 24-N ) :   2.9648 B( 25-C , 26-C ) :   1.5974
B( 25-C , 79-H ) :   0.9219 B( 26-C , 27-C ) :   1.1862 B( 26-C , 80-H ) :   0.9447
B( 27-C , 28-N ) :   1.1700 B( 27-C , 34-C ) :   1.3062 B( 28-N , 29-C ) :   0.9371
B( 28-N , 31-C ) :   1.0636 B( 29-C , 30-C ) :   1.1239 B( 29-C , 81-H ) :   0.9477
B( 29-C , 82-H ) :   0.9276 B( 30-C , 83-H ) :   0.9675 B( 30-C , 84-H ) :   0.9672
B( 30-C , 85-H ) :   0.9631 B( 31-C , 32-O ) :   2.0283 B( 31-C , 33-C ) :   0.9810
B( 32-O , 92-H ) :   0.1133 B( 33-C , 34-C ) :   1.2799 B( 33-C , 40-C ) :   1.3116
B( 34-C , 35-C ) :   0.9836 B( 35-C , 36-O ) :   2.0237 B( 35-C , 37-N ) :   1.0689
B( 36-O , 79-H ) :   0.1161 B( 37-N , 38-C ) :   0.9404 B( 37-N , 40-C ) :   1.1583
B( 38-C , 39-C ) :   1.1205 B( 38-C , 86-H ) :   0.9502 B( 38-C , 87-H ) :   0.9284
B( 39-C , 88-H ) :   0.9686 B( 39-C , 89-H ) :   0.9680 B( 39-C , 90-H ) :   0.9637
B( 40-C , 41-C ) :   1.1755 B( 41-C , 42-C ) :   1.5575 B( 41-C , 91-H ) :   0.9669
B( 42-C , 43-C ) :   1.1209 B( 42-C , 92-H ) :   0.9560 B( 43-C , 44-C ) :   1.5225
B( 43-C , 47-C ) :   1.0256 B( 44-C , 45-C ) :   1.1367 B( 44-C , 93-H ) :   0.9955
B( 45-C , 46-C ) :   1.0939 B( 45-C , 50-C ) :   1.4161 B( 46-C , 47-C ) :   1.6739
B( 46-C , 48-C ) :   1.0884 B( 47-C , 94-H ) :   1.0280 B( 48-C , 49-N ) :   2.9626
B( 50-C , 51-C ) :   1.0990 B( 50-C , 54-C ) :   1.1311 B( 51-C , 52-C ) :   1.6326
B( 51-C , 95-H ) :   0.9964 B( 52-C , 53-C ) :   1.0746 B( 52-C , 57-C ) :   0.9343
B( 53-C , 54-C ) :   1.6493 B( 53-C , 96-H ) :   1.0146 B( 54-C , 55-C ) :   1.0918
B( 55-C , 56-N ) :   2.9584 B( 57-C , 58-C ) :   1.4167 B( 57-C , 67-C ) :   1.4011
B( 58-C , 59-C ) :   0.8409 B( 58-C , 64-C ) :   1.2958 B( 59-C , 60-O ) :   2.1782
B( 59-C , 61-S ) :   1.0326 B( 60-O , 61-S ) :   0.1082 B( 61-S , 62-C ) :   1.0300
B( 61-S , 63-O ) :   0.1061 B( 62-C , 63-O ) :   2.1758 B( 62-C , 64-C ) :   0.8434
B( 64-C , 65-C ) :   1.3782 B( 65-C , 66-C ) :   1.3449 B( 65-C , 73-C ) :   1.0779
B( 66-C , 67-C ) :   1.3475 B( 66-C , 71-C ) :   0.8925 B( 67-C , 68-C ) :   0.8903
B( 68-C , 69-O ) :   2.2721 B( 68-C , 70-O ) :   1.0549 B( 70-O , 71-C ) :   1.0503
B( 71-C , 72-O ) :   2.2741 B( 73-C , 74-C ) :   1.9569 B( 73-C , 97-H ) :   0.9385
B( 74-C , 98-H ) :   0.9635 B( 74-C , 99-H ) :   0.9499

-----------------------------------------------------------------------------
         ABSORPTION SPECTRUM VIA TRANSITION ELECTRIC DIPOLE MOMENTS
-----------------------------------------------------------------------------
State   Energy  Wavelength   fosc         T2         TX        TY        TZ
        (cm-1)    (nm)                  (au**2)     (au)      (au)      (au)
-----------------------------------------------------------------------------
   0    9651.2   1036.1   0.895368624  30.54187  -1.86868  -5.19957  -0.11985
   1   16390.3    610.1   0.329263159   6.61350   1.13246   2.22375   0.62125
   2   18172.4    550.3   0.015543610   0.28159   0.10301   0.51625  -0.06681
   3   18459.6    541.7   0.037924200   0.67635  -0.23046  -0.49167   0.61765
   4   19082.9    524.0   0.005169680   0.08919   0.13072   0.26256  -0.05623
   5   19439.2    514.4   0.004376912   0.07413   0.20885   0.07861  -0.15597
   6   23351.4    428.2   0.056631610   0.79840   0.05053   0.78936  -0.41564
   7   23421.5    427.0   0.708790576   9.96276   1.50838   2.11509   1.79276
   8   23699.5    421.9   0.018995111   0.26386   0.39006   0.10329  -0.31788
   9   24493.0    408.3   0.002517182   0.03383  -0.03845  -0.14951  -0.10000
  10   24946.3    400.9   0.052431840   0.69193   0.41092   0.62850  -0.35786
  11   26185.8    381.9   0.640582172   8.05350  -0.68479  -2.75393  -0.02126
  12   26697.3    374.6   0.141762124   1.74811   0.63372   1.13108  -0.25914
  13   26807.7    373.0   0.005377827   0.06604   0.14634   0.19282  -0.08629
  14   27608.9    362.2   0.007659154   0.09133   0.10164   0.25243  -0.13145
  15   28391.5    352.2   0.047471862   0.55046  -0.39422  -0.60835  -0.15799
  16   28914.6    345.8   0.020151160   0.22943   0.30915   0.07591  -0.35791
  17   28923.6    345.7   0.028605820   0.32559  -0.18772   0.40594   0.35436
  18   29090.4    343.8   0.118204276   1.33770   0.57483   0.82084   0.57748
  19   30169.6    331.5   0.002283636   0.02492  -0.09382  -0.04396  -0.11910
  20   30416.6    328.8   0.006928075   0.07499   0.25155   0.03420  -0.10265
  21   30737.6    325.3   0.162006190   1.73515  -0.55325  -0.70027  -0.96886
  22   30839.9    324.3   0.002248161   0.02400  -0.12553   0.00784   0.09045
  23   31864.5    313.8   0.111928819   1.15640  -0.27347  -0.96351  -0.39148
  24   31976.5    312.7   0.009755993   0.10044   0.02881  -0.26920   0.16475
  25   32499.2    307.7   0.005161668   0.05229  -0.04988   0.21606   0.05583
  26   32563.2    307.1   0.012680897   0.12820   0.01441   0.15473   0.32257
  27   33110.0    302.0   0.031748122   0.31567   0.30980   0.39751   0.24835
  28   33178.9    301.4   0.013870338   0.13763  -0.08339  -0.35486  -0.06889
  29   33359.8    299.8   0.001902267   0.01877   0.01900   0.13545   0.00812
  30   33513.4    298.4   0.010724058   0.10535  -0.15800  -0.28086   0.03874
  31   34320.8    291.4   0.011542278   0.11072   0.23760   0.09444  -0.21293
  32   34346.4    291.2   0.015870959   0.15212   0.15493   0.29062  -0.20895
  33   34650.0    288.6   0.010169240   0.09662   0.13958   0.13249  -0.24410
  34   34891.9    286.6   0.006591445   0.06219   0.12677   0.14546   0.15800
  35   35074.6    285.1   0.000729586   0.00685  -0.03690   0.06259  -0.03961
  36   35092.3    285.0   0.001371034   0.01286  -0.10677   0.00870  -0.03725
  37   35229.6    283.9   0.033213382   0.31037  -0.09138   0.27035  -0.47847
  38   35445.2    282.1   0.000810721   0.00753  -0.01702  -0.03158   0.07901
  39   35569.2    281.1   0.020212753   0.18708   0.14983   0.10034  -0.39314
  40   35800.8    279.3   0.016509147   0.15181   0.23998   0.28912  -0.10311
  41   36020.2    277.6   0.036797161   0.33631   0.36322   0.22688   0.39104
  42   36193.7    276.3   0.015969090   0.14525   0.22692   0.28873  -0.10196
  43   36572.3    273.4   0.010343455   0.09311   0.00452   0.25877   0.16164
  44   36648.2    272.9   0.048453016   0.43526   0.01958   0.16658   0.63806
  45   37259.0    268.4   0.239701593   2.11795   0.58401   1.03119   0.84471
  46   37477.4    266.8   0.011445766   0.10054  -0.09481  -0.26561  -0.14493
  47   37632.7    265.7   0.106448830   0.93122  -0.06249  -0.87730  -0.39706
  48   37788.0    264.6   0.030704342   0.26750  -0.23433  -0.28410  -0.36315
  49   38000.2    263.2   0.071686115   0.62105   0.30508   0.72585  -0.03346
  50   38167.3    262.0   0.034092038   0.29406   0.28798  -0.25929   0.37933
  51   38195.3    261.8   0.006590881   0.05681   0.01961   0.23542  -0.03165
  52   38295.5    261.1   0.035087670   0.30164   0.09044   0.44932   0.30260
  53   38637.1    258.8   0.000275484   0.00235   0.00929   0.01451  -0.04528
  54   38790.7    257.8   0.003704283   0.03144   0.01369   0.16751   0.05649
  55   38904.7    257.0   0.006456625   0.05464  -0.06473  -0.18231  -0.13119
  56   38924.5    256.9   0.004315193   0.03650  -0.09892  -0.08601  -0.13897
  57   39158.0    255.4   0.017975989   0.15113   0.17218  -0.34852  -0.00384
  58   39322.8    254.3   0.009801647   0.08206   0.08949  -0.08045   0.25996
  59   39566.6    252.7   0.055680069   0.46328   0.32719   0.00758   0.59680
  60   39704.9    251.9   0.000382373   0.00317   0.02576   0.01222   0.04856
  61   39919.1    250.5   0.041000435   0.33813  -0.10678   0.57155   0.00795
  62   40262.0    248.4   0.042430937   0.34695   0.06106   0.04293  -0.58427

FINAL SINGLE POINT ENERGY     -4477.519651878366

DIPOLE MOMENT
-------------
                                X             Y             Z
Electronic contribution:      1.32320       8.93847      20.21489
Nuclear contribution   :     -1.18873      -9.41861     -18.61864
                        -----------------------------------------
Total Dipole Moment    :      0.13446      -0.48014       1.59625
                        -----------------------------------------
Magnitude (a.u.)       :      1.67231
Magnitude (Debye)      :      4.25068

Rotational constants in cm-1:     0.002481     0.000159     0.000153
Rotational constants in MHz :    74.381157     4.763897     4.592351

                             ****ORCA TERMINATED NORMALLY****
TOTAL RUN TIME: 0 days 0 hours 11 minutes 26 seconds 726 msec
