                         Program Version 4.2.0 -  RELEASE  -
|  1> # ORCA input file
|  2> # SCF done       -181.845051023651          0.000722819169
|  3> ! CAM-B3LYP def2-SVP def2/J RIJCOSX Grid4 TightSCF
|  4> %maxcore 5000
|  5> %tddft
|  6>     Mode sTDDFT
|  7>     Ethresh 5.0
|  8>     maxcore 5000
|  9> end
| 10>
| 11> %pal
| 12>   nprocs 6
| 13>   end
| 14> * xyz 0 1
| 15>    N        4.90377         0.53076        -4.58886
| 16>    C        3.55421         0.70235        -4.28415
| 17>    O        2.88352         1.63629        -4.63689
| 18>    C        3.18394        -0.47463        -3.47959
| 19>    C        4.26250        -1.27864        -3.34015
| 20>    C        5.41387        -0.63196        -4.06425
| 21>    O        6.54277        -1.03073        -4.17143
| 22>    C        4.44770        -2.51895        -2.66526
| 23>    C        3.45872        -3.19087        -2.03207
| 24>    C        3.63995        -4.42330        -1.34836
| 25>    S        5.16823        -5.24514        -1.33691
| 26>    C        4.54326        -6.53476        -0.35793
| 27>    C        3.18936        -6.34573        -0.09909
| 28>    C        2.68908        -5.15019        -0.63666
| 29>    C        1.28156        -4.67719        -0.40925
| 30>    N        1.35329        -3.35257         0.28911
| 31>    O        0.98444        -2.38716        -0.33013
| 32>    O        1.78338        -3.34915         1.41290
| 33>    C        0.49157        -5.63566         0.48329
| 34>    C        0.82876        -7.08073         0.14867
| 35>    C        2.28749        -7.36402         0.52729
| 36>    N        2.58762        -8.72283        -0.00631
| 37>    O        2.80774        -8.81949        -1.18451
| 38>    O        2.53216        -9.63690         0.77977
| 39>    C        5.46065        -7.54479         0.04235
| 40>    C        5.36330        -8.35384         1.12920
| 41>    C        6.37515        -9.29287         1.45443
| 42>    N        6.36707       -10.06804         2.58755
| 43>    C        5.35582       -10.11449         3.61695
| 44>    C        4.20312       -11.04146         3.24190
| 45>    C        7.49402       -10.90716         2.66041
| 46>    O        7.70136       -11.66985         3.58163
| 47>    C        8.24683       -10.60087         1.46381
| 48>    C        7.54119        -9.60528         0.75022
| 49>    C        8.30277        -9.28685        -0.43866
| 50>    O        8.11268        -8.49087        -1.33776
| 51>    N        9.41903       -10.13291        -0.37424
| 52>    C       10.44916       -10.08308        -1.38373
| 53>    C       11.65895        -9.27299        -0.92425
| 54>    C        9.41112       -10.91859         0.75748
| 55>    C       10.42207       -11.85076         1.07402
| 56>    C       10.41054       -12.59212         2.21915
| 57>    C       11.41106       -13.52142         2.58583
| 58>    C       11.42935       -14.25788         3.75392
| 59>    C       12.59465       -15.07688         3.78113
| 60>    C       13.31624       -14.79344         2.52446
| 61>    C       12.60588       -13.87088         1.82689
| 62>    C       14.53297       -15.33750         2.09504
| 63>    N       15.53254       -15.73670         1.69380
| 64>    C       12.98987       -15.94955         4.76523
| 65>    C       14.16234       -16.77062         4.77963
| 66>    C       14.18853       -17.46233         5.95714
| 67>    C       13.02022       -17.11225         6.74493
| 68>    C       12.29078       -16.20776         6.03824
| 69>    C       11.08972       -15.64030         6.47511
| 70>    N       10.10530       -15.19526         6.86611
| 71>    N       15.15111       -18.37320         6.37009
| 72>    C       15.34779       -18.80499         7.69681
| 73>    O       14.71276       -18.44328         8.65104
| 74>    C       16.47395       -19.74792         7.64405
| 75>    C       16.91798       -19.86907         6.37852
| 76>    C       16.06539       -18.98805         5.51000
| 77>    O       16.10972       -18.83274         4.32100
| 78>    C       18.00480       -20.68329         5.90345
| 79>    C       18.40365       -20.74210         4.63302
| 80>    H        5.43845         1.18603        -5.13866
| 81>    H        2.19436        -0.60474        -3.08420
| 82>    H        5.45573        -2.91376        -2.68290
| 83>    H        2.46338        -2.77023        -2.04199
| 84>    H        0.77240        -4.49661        -1.36168
| 85>    H       -0.57746        -5.46217         0.35563
| 86>    H        0.75252        -5.43676         1.52615
| 87>    H        0.69819        -7.25447        -0.92247
| 88>    H        0.16874        -7.75582         0.69507
| 89>    H        2.39056        -7.41140         1.61669
| 90>    H        6.35384        -7.61235        -0.56668
| 91>    H        4.53001        -8.28111         1.81135
| 92>    H        4.99849        -9.10240         3.82403
| 93>    H        5.85509       -10.49969         4.51089
| 94>    H        3.70274       -10.70803         2.33624
| 95>    H        3.47873       -11.06925         4.05100
| 96>    H        4.57970       -12.04816         3.08052
| 97>    H        9.99562        -9.60038        -2.25385
| 98>    H       10.74063       -11.10046        -1.65932
| 99>    H       11.35833        -8.25192        -0.70311
|100>    H       12.40734        -9.25132        -1.71156
|101>    H       12.10300        -9.70349        -0.02931
|102>    H       11.23315       -11.96228         0.36934
|103>    H        9.59361       -12.47077         2.91850
|104>    H       10.68253       -14.22226         4.52261
|105>    H       12.88151       -13.46507         0.87123
|106>    H       14.88293       -16.82489         3.98959
|107>    H       12.79109       -17.50657         7.71579
|108>    H       16.84768       -20.23217         8.52699
|109>    H       18.50322       -21.26629         6.66827
|110>    H       17.91998       -20.16746         3.86206
|111>    H       19.22725       -21.36876         4.33652
|112> *
|113>
|114>                          ****END OF INPUT****

CARTESIAN COORDINATES (ANGSTROEM)
---------------------------------
  N      4.903770    0.530760   -4.588860
  C      3.554210    0.702350   -4.284150
  O      2.883520    1.636290   -4.636890
  C      3.183940   -0.474630   -3.479590
  C      4.262500   -1.278640   -3.340150
  C      5.413870   -0.631960   -4.064250
  O      6.542770   -1.030730   -4.171430
  C      4.447700   -2.518950   -2.665260
  C      3.458720   -3.190870   -2.032070
  C      3.639950   -4.423300   -1.348360
  S      5.168230   -5.245140   -1.336910
  C      4.543260   -6.534760   -0.357930
  C      3.189360   -6.345730   -0.099090
  C      2.689080   -5.150190   -0.636660
  C      1.281560   -4.677190   -0.409250
  N      1.353290   -3.352570    0.289110
  O      0.984440   -2.387160   -0.330130
  O      1.783380   -3.349150    1.412900
  C      0.491570   -5.635660    0.483290
  C      0.828760   -7.080730    0.148670
  C      2.287490   -7.364020    0.527290
  N      2.587620   -8.722830   -0.006310
  O      2.807740   -8.819490   -1.184510
  O      2.532160   -9.636900    0.779770
  C      5.460650   -7.544790    0.042350
  C      5.363300   -8.353840    1.129200
  C      6.375150   -9.292870    1.454430
  N      6.367070  -10.068040    2.587550
  C      5.355820  -10.114490    3.616950
  C      4.203120  -11.041460    3.241900
  C      7.494020  -10.907160    2.660410
  O      7.701360  -11.669850    3.581630
  C      8.246830  -10.600870    1.463810
  C      7.541190   -9.605280    0.750220
  C      8.302770   -9.286850   -0.438660
  O      8.112680   -8.490870   -1.337760
  N      9.419030  -10.132910   -0.374240
  C     10.449160  -10.083080   -1.383730
  C     11.658950   -9.272990   -0.924250
  C      9.411120  -10.918590    0.757480
  C     10.422070  -11.850760    1.074020
  C     10.410540  -12.592120    2.219150
  C     11.411060  -13.521420    2.585830
  C     11.429350  -14.257880    3.753920
  C     12.594650  -15.076880    3.781130
  C     13.316240  -14.793440    2.524460
  C     12.605880  -13.870880    1.826890
  C     14.532970  -15.337500    2.095040
  N     15.532540  -15.736700    1.693800
  C     12.989870  -15.949550    4.765230
  C     14.162340  -16.770620    4.779630
  C     14.188530  -17.462330    5.957140
  C     13.020220  -17.112250    6.744930
  C     12.290780  -16.207760    6.038240
  C     11.089720  -15.640300    6.475110
  N     10.105300  -15.195260    6.866110
  N     15.151110  -18.373200    6.370090
  C     15.347790  -18.804990    7.696810
  O     14.712760  -18.443280    8.651040
  C     16.473950  -19.747920    7.644050
  C     16.917980  -19.869070    6.378520
  C     16.065390  -18.988050    5.510000
  O     16.109720  -18.832740    4.321000
  C     18.004800  -20.683290    5.903450
  C     18.403650  -20.742100    4.633020
  H      5.438450    1.186030   -5.138660
  H      2.194360   -0.604740   -3.084200
  H      5.455730   -2.913760   -2.682900
  H      2.463380   -2.770230   -2.041990
  H      0.772400   -4.496610   -1.361680
  H     -0.577460   -5.462170    0.355630
  H      0.752520   -5.436760    1.526150
  H      0.698190   -7.254470   -0.922470
  H      0.168740   -7.755820    0.695070
  H      2.390560   -7.411400    1.616690
  H      6.353840   -7.612350   -0.566680
  H      4.530010   -8.281110    1.811350
  H      4.998490   -9.102400    3.824030
  H      5.855090  -10.499690    4.510890
  H      3.702740  -10.708030    2.336240
  H      3.478730  -11.069250    4.051000
  H      4.579700  -12.048160    3.080520
  H      9.995620   -9.600380   -2.253850
  H     10.740630  -11.100460   -1.659320
  H     11.358330   -8.251920   -0.703110
  H     12.407340   -9.251320   -1.711560
  H     12.103000   -9.703490   -0.029310
  H     11.233150  -11.962280    0.369340
  H      9.593610  -12.470770    2.918500
  H     10.682530  -14.222260    4.522610
  H     12.881510  -13.465070    0.871230
  H     14.882930  -16.824890    3.989590
  H     12.791090  -17.506570    7.715790
  H     16.847680  -20.232170    8.526990
  H     18.503220  -21.266290    6.668270
  H     17.919980  -20.167460    3.862060
  H     19.227250  -21.368760    4.336520

 Total Charge           Charge          ....    0
 Multiplicity           Mult            ....    1
 Number of Electrons    NEL             ....  460
 Basis Dimension        Dim             .... 1074

ORBITAL ENERGIES
----------------

  NO   OCC          E(Eh)            E(eV)
   0   2.0000     -88.977763     -2421.2080
   1   2.0000     -19.265142      -524.2312
   2   2.0000     -19.264513      -524.2141
   3   2.0000     -19.262206      -524.1513
   4   2.0000     -19.262131      -524.1492
   5   2.0000     -19.239244      -523.5265
   6   2.0000     -19.234844      -523.4067
   7   2.0000     -19.214402      -522.8505
   8   2.0000     -19.208269      -522.6836
   9   2.0000     -19.192828      -522.2634
  10   2.0000     -19.192250      -522.2477
  11   2.0000     -14.661089      -398.9485
  12   2.0000     -14.659489      -398.9050
  13   2.0000     -14.485485      -394.1701
  14   2.0000     -14.454980      -393.3400
  15   2.0000     -14.454436      -393.3252
  16   2.0000     -14.448205      -393.1556
  17   2.0000     -14.404631      -391.9699
  18   2.0000     -14.402200      -391.9038
  19   2.0000     -10.416072      -283.4357
  20   2.0000     -10.413731      -283.3720
  21   2.0000     -10.393274      -282.8154
  22   2.0000     -10.390201      -282.7317
  23   2.0000     -10.375392      -282.3288
  24   2.0000     -10.374000      -282.2909
  25   2.0000     -10.356655      -281.8189
  26   2.0000     -10.356128      -281.8046
  27   2.0000     -10.341887      -281.4170
  28   2.0000     -10.340615      -281.3824
  29   2.0000     -10.339665      -281.3566
  30   2.0000     -10.328110      -281.0422
  31   2.0000     -10.327303      -281.0202
  32   2.0000     -10.326689      -281.0035
  33   2.0000     -10.320377      -280.8317
  34   2.0000     -10.318288      -280.7749
  35   2.0000     -10.314764      -280.6790
  36   2.0000     -10.313418      -280.6424
  37   2.0000     -10.313377      -280.6413
  38   2.0000     -10.311759      -280.5972
  39   2.0000     -10.311349      -280.5861
  40   2.0000     -10.311063      -280.5783
  41   2.0000     -10.311034      -280.5775
  42   2.0000     -10.310421      -280.5608
  43   2.0000     -10.309484      -280.5353
  44   2.0000     -10.307085      -280.4700
  45   2.0000     -10.306437      -280.4524
  46   2.0000     -10.306305      -280.4488
  47   2.0000     -10.305475      -280.4262
  48   2.0000     -10.304787      -280.4075
  49   2.0000     -10.304260      -280.3932
  50   2.0000     -10.302400      -280.3426
  51   2.0000     -10.300938      -280.3028
  52   2.0000     -10.299517      -280.2641
  53   2.0000     -10.297008      -280.1958
  54   2.0000     -10.296445      -280.1805
  55   2.0000     -10.296005      -280.1685
  56   2.0000     -10.295105      -280.1440
  57   2.0000     -10.292776      -280.0807
  58   2.0000     -10.291383      -280.0428
  59   2.0000     -10.282573      -279.8030
  60   2.0000     -10.276758      -279.6448
  61   2.0000     -10.265777      -279.3460
  62   2.0000     -10.263813      -279.2926
  63   2.0000     -10.263187      -279.2755
  64   2.0000     -10.251998      -278.9710
  65   2.0000      -8.073290      -219.6854
  66   2.0000      -6.042313      -164.4197
  67   2.0000      -6.038345      -164.3117
  68   2.0000      -6.035632      -164.2379
  69   2.0000      -1.346206       -36.6321
  70   2.0000      -1.343621       -36.5618
  71   2.0000      -1.183745       -32.2113
  72   2.0000      -1.167846       -31.7787
  73   2.0000      -1.164637       -31.6914
  74   2.0000      -1.160347       -31.5746
  75   2.0000      -1.155680       -31.4477
  76   2.0000      -1.135432       -30.8967
  77   2.0000      -1.133935       -30.8559
  78   2.0000      -1.128833       -30.7171
  79   2.0000      -1.077288       -29.3145
  80   2.0000      -1.065312       -28.9886
  81   2.0000      -1.057029       -28.7632
  82   2.0000      -1.041476       -28.3400
  83   2.0000      -1.025814       -27.9138
  84   2.0000      -1.011911       -27.5355
  85   2.0000      -0.996348       -27.1120
  86   2.0000      -0.981052       -26.6958
  87   2.0000      -0.978786       -26.6341
  88   2.0000      -0.974144       -26.5078
  89   2.0000      -0.952977       -25.9318
  90   2.0000      -0.947458       -25.7816
  91   2.0000      -0.932595       -25.3772
  92   2.0000      -0.929689       -25.2981
  93   2.0000      -0.915215       -24.9043
  94   2.0000      -0.909443       -24.7472
  95   2.0000      -0.884122       -24.0582
  96   2.0000      -0.882575       -24.0161
  97   2.0000      -0.871758       -23.7218
  98   2.0000      -0.866107       -23.5680
  99   2.0000      -0.859136       -23.3783
 100   2.0000      -0.849556       -23.1176
 101   2.0000      -0.842925       -22.9372
 102   2.0000      -0.837216       -22.7818
 103   2.0000      -0.830496       -22.5990
 104   2.0000      -0.819199       -22.2915
 105   2.0000      -0.803656       -21.8686
 106   2.0000      -0.791888       -21.5484
 107   2.0000      -0.778797       -21.1921
 108   2.0000      -0.769022       -20.9262
 109   2.0000      -0.762904       -20.7597
 110   2.0000      -0.759193       -20.6587
 111   2.0000      -0.747244       -20.3335
 112   2.0000      -0.742405       -20.2019
 113   2.0000      -0.732177       -19.9236
 114   2.0000      -0.727936       -19.8081
 115   2.0000      -0.727699       -19.8017
 116   2.0000      -0.715457       -19.4686
 117   2.0000      -0.708488       -19.2789
 118   2.0000      -0.705938       -19.2096
 119   2.0000      -0.699137       -19.0245
 120   2.0000      -0.695657       -18.9298
 121   2.0000      -0.687573       -18.7098
 122   2.0000      -0.677364       -18.4320
 123   2.0000      -0.670541       -18.2464
 124   2.0000      -0.668136       -18.1809
 125   2.0000      -0.663116       -18.0443
 126   2.0000      -0.658403       -17.9161
 127   2.0000      -0.653602       -17.7854
 128   2.0000      -0.649949       -17.6860
 129   2.0000      -0.644548       -17.5390
 130   2.0000      -0.641190       -17.4477
 131   2.0000      -0.638791       -17.3824
 132   2.0000      -0.629254       -17.1229
 133   2.0000      -0.626512       -17.0483
 134   2.0000      -0.624375       -16.9901
 135   2.0000      -0.622537       -16.9401
 136   2.0000      -0.611780       -16.6474
 137   2.0000      -0.607360       -16.5271
 138   2.0000      -0.601733       -16.3740
 139   2.0000      -0.596360       -16.2278
 140   2.0000      -0.590898       -16.0791
 141   2.0000      -0.589905       -16.0521
 142   2.0000      -0.585250       -15.9255
 143   2.0000      -0.584267       -15.8987
 144   2.0000      -0.577524       -15.7152
 145   2.0000      -0.573532       -15.6066
 146   2.0000      -0.568384       -15.4665
 147   2.0000      -0.565718       -15.3940
 148   2.0000      -0.561530       -15.2800
 149   2.0000      -0.556989       -15.1564
 150   2.0000      -0.556609       -15.1461
 151   2.0000      -0.552842       -15.0436
 152   2.0000      -0.548097       -14.9145
 153   2.0000      -0.542987       -14.7754
 154   2.0000      -0.542357       -14.7583
 155   2.0000      -0.538186       -14.6448
 156   2.0000      -0.536037       -14.5863
 157   2.0000      -0.532116       -14.4796
 158   2.0000      -0.531690       -14.4680
 159   2.0000      -0.528578       -14.3833
 160   2.0000      -0.525981       -14.3127
 161   2.0000      -0.524339       -14.2680
 162   2.0000      -0.523056       -14.2331
 163   2.0000      -0.519829       -14.1453
 164   2.0000      -0.518346       -14.1049
 165   2.0000      -0.516479       -14.0541
 166   2.0000      -0.514206       -13.9923
 167   2.0000      -0.513761       -13.9801
 168   2.0000      -0.509679       -13.8691
 169   2.0000      -0.505846       -13.7648
 170   2.0000      -0.502900       -13.6846
 171   2.0000      -0.499061       -13.5801
 172   2.0000      -0.498137       -13.5550
 173   2.0000      -0.496279       -13.5044
 174   2.0000      -0.495242       -13.4762
 175   2.0000      -0.493171       -13.4199
 176   2.0000      -0.489689       -13.3251
 177   2.0000      -0.487324       -13.2608
 178   2.0000      -0.484920       -13.1953
 179   2.0000      -0.477703       -12.9990
 180   2.0000      -0.476955       -12.9786
 181   2.0000      -0.473442       -12.8830
 182   2.0000      -0.470162       -12.7938
 183   2.0000      -0.467675       -12.7261
 184   2.0000      -0.466416       -12.6918
 185   2.0000      -0.465226       -12.6595
 186   2.0000      -0.459910       -12.5148
 187   2.0000      -0.458771       -12.4838
 188   2.0000      -0.453824       -12.3492
 189   2.0000      -0.450163       -12.2496
 190   2.0000      -0.447137       -12.1672
 191   2.0000      -0.444755       -12.1024
 192   2.0000      -0.443641       -12.0721
 193   2.0000      -0.441560       -12.0155
 194   2.0000      -0.435703       -11.8561
 195   2.0000      -0.433484       -11.7957
 196   2.0000      -0.431705       -11.7473
 197   2.0000      -0.431458       -11.7406
 198   2.0000      -0.430625       -11.7179
 199   2.0000      -0.427643       -11.6368
 200   2.0000      -0.424682       -11.5562
 201   2.0000      -0.421259       -11.4630
 202   2.0000      -0.418265       -11.3816
 203   2.0000      -0.411227       -11.1901
 204   2.0000      -0.402312       -10.9475
 205   2.0000      -0.400712       -10.9039
 206   2.0000      -0.398132       -10.8337
 207   2.0000      -0.397889       -10.8271
 208   2.0000      -0.396555       -10.7908
 209   2.0000      -0.392377       -10.6771
 210   2.0000      -0.388256       -10.5650
 211   2.0000      -0.387122       -10.5341
 212   2.0000      -0.383372       -10.4321
 213   2.0000      -0.381967       -10.3938
 214   2.0000      -0.371487       -10.1087
 215   2.0000      -0.365003        -9.9322
 216   2.0000      -0.360381        -9.8065
 217   2.0000      -0.359832        -9.7915
 218   2.0000      -0.349495        -9.5102
 219   2.0000      -0.346514        -9.4291
 220   2.0000      -0.339107        -9.2276
 221   2.0000      -0.338473        -9.2103
 222   2.0000      -0.337493        -9.1837
 223   2.0000      -0.333116        -9.0646
 224   2.0000      -0.322743        -8.7823
 225   2.0000      -0.316810        -8.6208
 226   2.0000      -0.301615        -8.2074
 227   2.0000      -0.289379        -7.8744
 228   2.0000      -0.282020        -7.6741
 229   2.0000      -0.233769        -6.3612
 230   0.0000      -0.120211        -3.2711
 231   0.0000      -0.091474        -2.4891
 232   0.0000      -0.079085        -2.1520
 233   0.0000      -0.065561        -1.7840
 234   0.0000      -0.035013        -0.9528

MULLIKEN ATOMIC CHARGES
-----------------------
   0 N :   -0.145048
   1 C :    0.169482
   2 O :   -0.149592
   3 C :   -0.108848
   4 C :   -0.011539
   5 C :    0.159356
   6 O :   -0.147091
   7 C :   -0.000735
   8 C :    0.009580
   9 C :   -0.090426
  10 S :    0.186479
  11 C :   -0.121882
  12 C :    0.010577
  13 C :   -0.039038
  14 C :    0.128475
  15 N :    0.194948
  16 O :   -0.221256
  17 O :   -0.210527
  18 C :    0.060608
  19 C :    0.063299
  20 C :    0.094447
  21 N :    0.200746
  22 O :   -0.197046
  23 O :   -0.224225
  24 C :    0.036061
  25 C :   -0.016020
  26 C :    0.128438
  27 N :   -0.255878
  28 C :    0.099108
  29 C :    0.001137
  30 C :    0.164958
  31 O :   -0.200841
  32 C :   -0.061393
  33 C :   -0.071884
  34 C :    0.169928
  35 O :   -0.213665
  36 N :   -0.255851
  37 C :    0.098895
  38 C :    0.001811
  39 C :    0.145164
  40 C :   -0.027710
  41 C :    0.008493
  42 C :    0.107631
  43 C :   -0.101917
  44 C :    0.112585
  45 C :   -0.096808
  46 C :   -0.012510
  47 C :   -0.174079
  48 N :    0.139968
  49 C :    0.125569
  50 C :   -0.146182
  51 C :    0.177151
  52 C :   -0.018592
  53 C :   -0.090272
  54 C :   -0.181175
  55 N :    0.141918
  56 N :   -0.223132
  57 C :    0.225743
  58 O :   -0.153524
  59 C :   -0.091012
  60 C :    0.033175
  61 C :    0.213199
  62 O :   -0.135523
  63 C :   -0.028931
  64 C :    0.022148
  65 H :    0.137604
  66 H :    0.013489
  67 H :    0.017132
  68 H :    0.007906
  69 H :    0.033131
  70 H :    0.033469
  71 H :    0.039978
  72 H :    0.036188
  73 H :    0.033639
  74 H :    0.046772
  75 H :    0.019316
  76 H :   -0.032958
  77 H :    0.016753
  78 H :    0.042449
  79 H :    0.022899
  80 H :    0.016872
  81 H :    0.026808
  82 H :    0.044797
  83 H :    0.023393
  84 H :    0.031443
  85 H :    0.026212
  86 H :    0.014686
  87 H :   -0.032242
  88 H :    0.017941
  89 H :    0.018499
  90 H :   -0.004114
  91 H :    0.013932
  92 H :    0.014663
  93 H :    0.012459
  94 H :   -0.001758
  95 H :    0.064069
  96 H :    0.037649
Sum of atomic charges:   -0.0000000

LOEWDIN ATOMIC CHARGES
----------------------
   0 N :   -0.011746
   1 C :    0.077495
   2 O :   -0.148531
   3 C :   -0.029581
   4 C :   -0.032892
   5 C :    0.083766
   6 O :   -0.150094
   7 C :   -0.022783
   8 C :   -0.012894
   9 C :   -0.166157
  10 S :    0.501785
  11 C :   -0.152976
  12 C :   -0.068521
  13 C :   -0.064197
  14 C :    0.021427
  15 N :    0.273643
  16 O :   -0.192380
  17 O :   -0.184519
  18 C :   -0.023779
  19 C :   -0.015418
  20 C :    0.015791
  21 N :    0.277344
  22 O :   -0.176693
  23 O :   -0.190236
  24 C :   -0.003439
  25 C :   -0.042892
  26 C :    0.077732
  27 N :    0.004408
  28 C :    0.036325
  29 C :   -0.066010
  30 C :    0.080913
  31 O :   -0.190256
  32 C :   -0.113397
  33 C :   -0.119608
  34 C :    0.079838
  35 O :   -0.201961
  36 N :    0.000825
  37 C :    0.036495
  38 C :   -0.061228
  39 C :    0.072813
  40 C :   -0.043181
  41 C :    0.034447
  42 C :   -0.023845
  43 C :   -0.005251
  44 C :    0.030340
  45 C :   -0.075951
  46 C :    0.049960
  47 C :   -0.032941
  48 N :   -0.058821
  49 C :    0.044449
  50 C :   -0.050494
  51 C :    0.036082
  52 C :    0.045352
  53 C :   -0.080484
  54 C :   -0.031728
  55 N :   -0.058723
  56 N :   -0.024561
  57 C :    0.096274
  58 O :   -0.131056
  59 C :   -0.027751
  60 C :   -0.014289
  61 C :    0.111713
  62 O :   -0.111083
  63 C :   -0.038416
  64 C :    0.020103
  65 H :    0.094663
  66 H :    0.038700
  67 H :    0.032088
  68 H :    0.030329
  69 H :    0.042130
  70 H :    0.039460
  71 H :    0.034778
  72 H :    0.034708
  73 H :    0.039219
  74 H :    0.040682
  75 H :    0.038956
  76 H :    0.024267
  77 H :    0.020470
  78 H :    0.037536
  79 H :    0.019534
  80 H :    0.028543
  81 H :    0.031404
  82 H :    0.038568
  83 H :    0.022716
  84 H :    0.033020
  85 H :    0.031528
  86 H :    0.021456
  87 H :    0.026565
  88 H :    0.042993
  89 H :    0.040830
  90 H :    0.033495
  91 H :    0.036043
  92 H :    0.040615
  93 H :    0.042252
  94 H :    0.035708
  95 H :    0.035880
  96 H :    0.032307

  Mayer bond orders larger than 0.100000
B(  0-N ,  1-C ) :   1.0475 B(  0-N ,  5-C ) :   1.1091 B(  0-N , 65-H ) :   0.9203
B(  1-C ,  2-O ) :   2.2154 B(  1-C ,  3-C ) :   0.9474 B(  3-C ,  4-C ) :   1.6605
B(  3-C , 66-H ) :   1.0157 B(  4-C ,  5-C ) :   0.8804 B(  4-C ,  7-C ) :   1.1213
B(  5-C ,  6-O ) :   2.2319 B(  7-C ,  8-C ) :   1.6575 B(  7-C , 67-H ) :   0.9749
B(  8-C ,  9-C ) :   1.1537 B(  8-C , 68-H ) :   0.9554 B(  9-C , 10-S ) :   1.1326
B(  9-C , 13-C ) :   1.4647 B( 10-S , 11-C ) :   1.1605 B( 11-C , 12-C ) :   1.4804
B( 11-C , 24-C ) :   1.1257 B( 12-C , 13-C ) :   1.3532 B( 12-C , 20-C ) :   0.9690
B( 13-C , 14-C ) :   1.0051 B( 14-C , 15-N ) :   0.8354 B( 14-C , 18-C ) :   1.0509
B( 14-C , 69-H ) :   0.8882 B( 15-N , 16-O ) :   1.5453 B( 15-N , 17-O ) :   1.5891
B( 16-O , 17-O ) :   0.2678 B( 18-C , 19-C ) :   1.1045 B( 18-C , 70-H ) :   0.9270
B( 18-C , 71-H ) :   0.9150 B( 19-C , 20-C ) :   1.0690 B( 19-C , 72-H ) :   0.9275
B( 19-C , 73-H ) :   0.9262 B( 20-C , 21-N ) :   0.8368 B( 20-C , 74-H ) :   0.8933
B( 21-N , 22-O ) :   1.6009 B( 21-N , 23-O ) :   1.4977 B( 22-O , 23-O ) :   0.2696
B( 24-C , 25-C ) :   1.6143 B( 24-C , 75-H ) :   0.9175 B( 25-C , 26-C ) :   1.1848
B( 25-C , 76-H ) :   0.9514 B( 26-C , 27-N ) :   1.1686 B( 26-C , 33-C ) :   1.3254
B( 27-N , 28-C ) :   0.9423 B( 27-N , 30-C ) :   1.0569 B( 28-C , 29-C ) :   1.1195
B( 28-C , 77-H ) :   0.9488 B( 28-C , 78-H ) :   0.9277 B( 29-C , 79-H ) :   0.9590
B( 29-C , 80-H ) :   0.9653 B( 29-C , 81-H ) :   0.9599 B( 30-C , 31-O ) :   2.0324
B( 30-C , 32-C ) :   0.9836 B( 31-O , 88-H ) :   0.1096 B( 32-C , 33-C ) :   1.2681
B( 32-C , 39-C ) :   1.3326 B( 33-C , 34-C ) :   0.9874 B( 34-C , 35-O ) :   2.0126
B( 34-C , 36-N ) :   1.0685 B( 35-O , 75-H ) :   0.1217 B( 36-N , 37-C ) :   0.9469
B( 36-N , 39-C ) :   1.1518 B( 37-C , 38-C ) :   1.1194 B( 37-C , 82-H ) :   0.9279
B( 37-C , 83-H ) :   0.9500 B( 38-C , 84-H ) :   0.9636 B( 38-C , 85-H ) :   0.9681
B( 38-C , 86-H ) :   0.9686 B( 39-C , 40-C ) :   1.1669 B( 40-C , 41-C ) :   1.5483
B( 40-C , 87-H ) :   0.9622 B( 41-C , 42-C ) :   1.1273 B( 41-C , 88-H ) :   0.9594
B( 42-C , 43-C ) :   1.5053 B( 42-C , 46-C ) :   1.0358 B( 43-C , 44-C ) :   1.1049
B( 43-C , 89-H ) :   1.0119 B( 44-C , 45-C ) :   1.0973 B( 44-C , 49-C ) :   1.4385
B( 45-C , 46-C ) :   1.6939 B( 45-C , 47-C ) :   1.0870 B( 46-C , 90-H ) :   1.0146
B( 47-C , 48-N ) :   2.9730 B( 49-C , 50-C ) :   1.0690 B( 49-C , 53-C ) :   1.1054
B( 50-C , 51-C ) :   1.5912 B( 50-C , 91-H ) :   1.0122 B( 51-C , 52-C ) :   1.0756
B( 51-C , 56-N ) :   1.0011 B( 52-C , 53-C ) :   1.6304 B( 52-C , 92-H ) :   1.0251
B( 53-C , 54-C ) :   1.1026 B( 54-C , 55-N ) :   2.9695 B( 56-N , 57-C ) :   0.9847
B( 56-N , 61-C ) :   1.0282 B( 57-C , 58-O ) :   2.1511 B( 57-C , 59-C ) :   0.9681
B( 59-C , 60-C ) :   1.6632 B( 59-C , 93-H ) :   1.0251 B( 60-C , 61-C ) :   0.8993
B( 60-C , 63-C ) :   1.1216 B( 61-C , 62-O ) :   2.1484 B( 63-C , 64-C ) :   1.9077
B( 63-C , 94-H ) :   0.9719 B( 64-C , 95-H ) :   0.9408 B( 64-C , 96-H ) :   0.9493

-----------------------------------------------------------------------------
         ABSORPTION SPECTRUM VIA TRANSITION ELECTRIC DIPOLE MOMENTS
-----------------------------------------------------------------------------
State   Energy  Wavelength   fosc         T2         TX        TY        TZ
        (cm-1)    (nm)                  (au**2)     (au)      (au)      (au)
-----------------------------------------------------------------------------
   0   10974.7    911.2   0.769304864  23.07719   2.88651  -3.40774   1.76989
   1   17007.1    588.0   0.311481731   6.02947  -1.60464   1.85046  -0.17433
   2   17780.3    562.4   0.053719111   0.99464   0.06345  -0.58229   0.80719
   3   20484.7    488.2   0.026020696   0.41818   0.32951   0.21129  -0.51475
   4   22960.8    435.5   0.114552036   1.64245  -1.13865  -0.04042   0.58676
   5   23263.6    429.9   0.002984943   0.04224   0.11877  -0.09951   0.13503
   6   24070.4    415.4   0.563231780   7.70334  -0.38838   2.27285  -1.54487
   7   25599.3    390.6   0.003669704   0.04719  -0.16121   0.11015  -0.09524
   8   25773.2    388.0   0.001717728   0.02194   0.09118  -0.11670   0.00322
   9   26810.0    373.0   0.001216657   0.01494   0.05507  -0.07154   0.08240
  10   27413.6    364.8   0.055277413   0.66383   0.41631  -0.44303   0.54244
  11   27684.8    361.2   0.766328638   9.11276  -1.10369   2.03769  -1.93454
  12   28232.9    354.2   0.120877926   1.40951  -0.11297  -1.00609   0.62010
  13   28813.2    347.1   0.052841384   0.60375   0.00026  -0.67684   0.38163
  14   29114.7    343.5   0.002313647   0.02616   0.02304  -0.06047   0.14823
  15   29981.5    333.5   0.015601391   0.17131   0.36841  -0.17159  -0.07838
  16   30936.3    323.2   0.061694873   0.65653   0.50436  -0.58020   0.25595
  17   31173.7    320.8   0.027283196   0.28813  -0.17051   0.45321  -0.23163
  18   31587.6    316.6   0.001042526   0.01087  -0.07960  -0.06707  -0.00557
  19   32300.4    309.6   0.015346953   0.15642  -0.39424  -0.00787  -0.03049
  20   32813.4    304.8   0.002150459   0.02158  -0.00664   0.04746   0.13885
  21   32998.9    303.0   0.011405593   0.11379  -0.27435   0.17448   0.08986
  22   33750.6    296.3   0.001158615   0.01130   0.07744  -0.07149   0.01393
  23   34167.9    292.7   0.025174277   0.24256   0.12169  -0.29482   0.37527
  24   34598.8    289.0   0.003091313   0.02941   0.09230  -0.13844   0.04160
  25   34996.3    285.7   0.009196359   0.08651   0.20355  -0.18766  -0.09931
  26   35405.6    282.4   0.064407804   0.59888   0.03936  -0.46798   0.61509
  27   35892.9    278.6   0.021775095   0.19972  -0.23854   0.33824  -0.16858
  28   35925.3    278.4   0.024992375   0.22902   0.30593  -0.31719   0.18661
  29   36093.8    277.1   0.095352301   0.86971  -0.26030   0.53504  -0.71811
  30   36123.7    276.8   0.091769757   0.83634   0.56883  -0.68601   0.20534
  31   36586.5    273.3   0.121627406   1.09442   0.16338   0.68906  -0.77002
  32   36922.8    270.8   0.000385646   0.00344  -0.00828  -0.04123   0.04086
  33   37259.0    268.4   0.080436992   0.71072   0.32792   0.52108  -0.57590
  34   37518.1    266.5   0.042027365   0.36878   0.57493  -0.19286   0.03223
  35   38116.6    262.4   0.018632284   0.16093  -0.30801  -0.18262   0.18085
  36   38419.4    260.3   0.008501684   0.07285  -0.13720   0.09695   0.21125
  37   39011.4    256.3   0.010144439   0.08561   0.16785  -0.11844  -0.20834
  38   39119.4    255.6   0.001140821   0.00960  -0.06744  -0.06422   0.03047
  39   39296.6    254.5   0.005462099   0.04576   0.15818   0.11803  -0.08250
  40   39437.5    253.6   0.031075701   0.25941  -0.01140  -0.33034   0.38750
  41   39595.7    252.6   0.015553139   0.12931   0.02759   0.27532  -0.22968
  42   40031.4    249.8   0.260338068   2.14098  -0.74220   0.38709   1.20012

FINAL SINGLE POINT ENERGY     -3356.625465261905

DIPOLE MOMENT
-------------
                                X             Y             Z
Electronic contribution:      7.36374       5.22052       1.52810
Nuclear contribution   :     -7.20782      -6.87453      -1.15224
                        -----------------------------------------
Total Dipole Moment    :      0.15592      -1.65401       0.37586
                        -----------------------------------------
Magnitude (a.u.)       :      1.70333
Magnitude (Debye)      :      4.32952

Rotational constants in cm-1:     0.002913     0.000277     0.000260
Rotational constants in MHz :    87.330103     8.308016     7.786647

                             ****ORCA TERMINATED NORMALLY****
TOTAL RUN TIME: 0 days 0 hours 9 minutes 11 seconds 670 msec
