                         Program Version 4.2.0 -  RELEASE  -
|  1> # ORCA input file
|  2> # SCF done       -173.722937727233          0.000860827859
|  3> ! CAM-B3LYP def2-SVP def2/J RIJCOSX Grid4 TightSCF
|  4> %maxcore 5000
|  5> %tddft
|  6>     Mode sTDDFT
|  7>     Ethresh 5.0
|  8>     maxcore 5000
|  9> end
| 10>
| 11> %pal
| 12>   nprocs 6
| 13>   end
| 14> * xyz 0 1
| 15>    C       -5.14693         0.62682        -7.77550
| 16>    C       -4.18913        -0.30052        -7.44237
| 17>    C       -4.65429        -1.22435        -6.51480
| 18>    C       -5.98408        -1.01504        -6.14816
| 19>    S       -6.64633         0.35096        -7.01949
| 20>    C       -6.71984        -1.80950        -5.24399
| 21>    C       -8.08176        -2.09748        -5.19964
| 22>    N       -9.12120        -1.49799        -5.90475
| 23>    O      -10.19979        -2.06497        -5.93162
| 24>    O       -8.90842        -0.41757        -6.45211
| 25>    C       -8.29925        -3.21374        -4.32295
| 26>    C       -7.10713        -3.61247        -3.80391
| 27>    C       -6.08520        -2.73218        -4.27247
| 28>    C       -4.82533        -2.58946        -3.72129
| 29>    C       -4.08260        -1.37361        -3.60037
| 30>    C       -3.03523        -1.58802        -2.75687
| 31>    C       -3.03451        -2.95523        -2.33594
| 32>    N       -2.01193        -3.42958        -1.49878
| 33>    O       -1.02885        -2.72026        -1.36856
| 34>    O       -2.14651        -4.50315        -0.92773
| 35>    C       -4.11652        -3.61899        -2.93798
| 36>    C       -4.45358        -4.97422        -3.09782
| 37>    C       -4.06488        -6.04964        -2.33847
| 38>    C       -4.48178        -7.35162        -2.64935
| 39>    N       -4.19339        -8.45058        -1.87783
| 40>    C       -3.46198        -8.45235        -0.63101
| 41>    C       -4.33853        -8.01337         0.53820
| 42>    C       -4.74464        -9.62554        -2.40157
| 43>    O       -4.62764       -10.71878        -1.88386
| 44>    C       -5.41490        -9.19870        -3.61894
| 45>    C       -5.23977        -7.81464        -3.74686
| 46>    C       -5.88197        -7.39268        -4.98119
| 47>    O       -5.99082        -6.30066        -5.50279
| 48>    N       -6.39959        -8.57386        -5.52528
| 49>    C       -7.14646        -8.57089        -6.76287
| 50>    C       -8.65215        -8.60081        -6.51776
| 51>    C       -6.14807        -9.66604        -4.73188
| 52>    C       -6.57412       -10.96639        -5.03646
| 53>    C       -6.37397       -12.00373        -4.15984
| 54>    C       -6.72733       -13.35659        -4.29993
| 55>    C       -6.95417       -14.19236        -5.40745
| 56>    N       -7.09008       -13.89445        -6.77264
| 57>    O       -6.98495       -14.82309        -7.55588
| 58>    O       -7.32039       -12.74462        -7.12110
| 59>    C       -6.97560       -15.55154        -4.96670
| 60>    C       -6.76849       -15.59437        -3.61982
| 61>    C       -6.64576       -14.25630        -3.13600
| 62>    C       -6.66409       -13.85098        -1.81146
| 63>    C       -7.26620       -12.66095        -1.31242
| 64>    C       -7.37148       -12.75270         0.04579
| 65>    C       -6.77585       -13.97820         0.47816
| 66>    N       -6.68177       -14.33460         1.83049
| 67>    O       -7.13087       -13.54971         2.64908
| 68>    O       -6.17207       -15.40679         2.12673
| 69>    C       -6.28959       -14.66702        -0.63512
| 70>    C       -5.46428       -15.80528        -0.61230
| 71>    C       -4.60842       -16.18292        -1.60887
| 72>    C       -3.79678       -17.33720        -1.55508
| 73>    C       -3.71632       -18.32632        -0.58724
| 74>    C       -2.78959       -19.32289        -0.89983
| 75>    C       -2.16195       -19.10734        -2.09736
| 76>    S       -2.69279       -17.68011        -2.86745
| 77>    H       -5.03984         1.44306        -8.46341
| 78>    H       -3.19461        -0.30863        -7.85078
| 79>    H       -4.07534        -2.05364        -6.15268
| 80>    H       -9.27225        -3.62180        -4.12405
| 81>    H       -6.97085        -4.36877        -3.05676
| 82>    H       -4.37575        -0.43093        -4.01845
| 83>    H       -2.30939        -0.87048        -2.42350
| 84>    H       -5.11136        -5.17208        -3.93469
| 85>    H       -3.44601        -5.90181        -1.46776
| 86>    H       -2.58853        -7.80271        -0.72225
| 87>    H       -3.12794        -9.48158        -0.47528
| 88>    H       -4.69833        -6.99757         0.39342
| 89>    H       -3.76133        -8.04845         1.45721
| 90>    H       -5.19266        -8.67905         0.63857
| 91>    H       -6.83940        -9.42394        -7.37244
| 92>    H       -6.87555        -7.64607        -7.27914
| 93>    H       -8.94183        -9.50511        -5.98808
| 94>    H       -9.17455        -8.57494        -7.46935
| 95>    H       -8.95506        -7.73660        -5.93122
| 96>    H       -7.08942       -11.13538        -5.96845
| 97>    H       -5.88799       -11.76911        -3.22118
| 98>    H       -7.14517       -16.38127        -5.62670
| 99>    H       -6.80625       -16.46906        -3.00012
|100>    H       -7.69262       -11.88737        -1.92037
|101>    H       -7.82826       -12.04712         0.71415
|102>    H       -5.45936       -16.35514         0.31925
|103>    H       -4.49785       -15.55973        -2.48589
|104>    H       -4.30341       -18.31883         0.31257
|105>    H       -2.58577       -20.17140        -0.27194
|106>    H       -1.41548       -19.71749        -2.56689
|107> *
|108>
|109>                          ****END OF INPUT****

CARTESIAN COORDINATES (ANGSTROEM)
---------------------------------
  C     -5.146930    0.626820   -7.775500
  C     -4.189130   -0.300520   -7.442370
  C     -4.654290   -1.224350   -6.514800
  C     -5.984080   -1.015040   -6.148160
  S     -6.646330    0.350960   -7.019490
  C     -6.719840   -1.809500   -5.243990
  C     -8.081760   -2.097480   -5.199640
  N     -9.121200   -1.497990   -5.904750
  O    -10.199790   -2.064970   -5.931620
  O     -8.908420   -0.417570   -6.452110
  C     -8.299250   -3.213740   -4.322950
  C     -7.107130   -3.612470   -3.803910
  C     -6.085200   -2.732180   -4.272470
  C     -4.825330   -2.589460   -3.721290
  C     -4.082600   -1.373610   -3.600370
  C     -3.035230   -1.588020   -2.756870
  C     -3.034510   -2.955230   -2.335940
  N     -2.011930   -3.429580   -1.498780
  O     -1.028850   -2.720260   -1.368560
  O     -2.146510   -4.503150   -0.927730
  C     -4.116520   -3.618990   -2.937980
  C     -4.453580   -4.974220   -3.097820
  C     -4.064880   -6.049640   -2.338470
  C     -4.481780   -7.351620   -2.649350
  N     -4.193390   -8.450580   -1.877830
  C     -3.461980   -8.452350   -0.631010
  C     -4.338530   -8.013370    0.538200
  C     -4.744640   -9.625540   -2.401570
  O     -4.627640  -10.718780   -1.883860
  C     -5.414900   -9.198700   -3.618940
  C     -5.239770   -7.814640   -3.746860
  C     -5.881970   -7.392680   -4.981190
  O     -5.990820   -6.300660   -5.502790
  N     -6.399590   -8.573860   -5.525280
  C     -7.146460   -8.570890   -6.762870
  C     -8.652150   -8.600810   -6.517760
  C     -6.148070   -9.666040   -4.731880
  C     -6.574120  -10.966390   -5.036460
  C     -6.373970  -12.003730   -4.159840
  C     -6.727330  -13.356590   -4.299930
  C     -6.954170  -14.192360   -5.407450
  N     -7.090080  -13.894450   -6.772640
  O     -6.984950  -14.823090   -7.555880
  O     -7.320390  -12.744620   -7.121100
  C     -6.975600  -15.551540   -4.966700
  C     -6.768490  -15.594370   -3.619820
  C     -6.645760  -14.256300   -3.136000
  C     -6.664090  -13.850980   -1.811460
  C     -7.266200  -12.660950   -1.312420
  C     -7.371480  -12.752700    0.045790
  C     -6.775850  -13.978200    0.478160
  N     -6.681770  -14.334600    1.830490
  O     -7.130870  -13.549710    2.649080
  O     -6.172070  -15.406790    2.126730
  C     -6.289590  -14.667020   -0.635120
  C     -5.464280  -15.805280   -0.612300
  C     -4.608420  -16.182920   -1.608870
  C     -3.796780  -17.337200   -1.555080
  C     -3.716320  -18.326320   -0.587240
  C     -2.789590  -19.322890   -0.899830
  C     -2.161950  -19.107340   -2.097360
  S     -2.692790  -17.680110   -2.867450
  H     -5.039840    1.443060   -8.463410
  H     -3.194610   -0.308630   -7.850780
  H     -4.075340   -2.053640   -6.152680
  H     -9.272250   -3.621800   -4.124050
  H     -6.970850   -4.368770   -3.056760
  H     -4.375750   -0.430930   -4.018450
  H     -2.309390   -0.870480   -2.423500
  H     -5.111360   -5.172080   -3.934690
  H     -3.446010   -5.901810   -1.467760
  H     -2.588530   -7.802710   -0.722250
  H     -3.127940   -9.481580   -0.475280
  H     -4.698330   -6.997570    0.393420
  H     -3.761330   -8.048450    1.457210
  H     -5.192660   -8.679050    0.638570
  H     -6.839400   -9.423940   -7.372440
  H     -6.875550   -7.646070   -7.279140
  H     -8.941830   -9.505110   -5.988080
  H     -9.174550   -8.574940   -7.469350
  H     -8.955060   -7.736600   -5.931220
  H     -7.089420  -11.135380   -5.968450
  H     -5.887990  -11.769110   -3.221180
  H     -7.145170  -16.381270   -5.626700
  H     -6.806250  -16.469060   -3.000120
  H     -7.692620  -11.887370   -1.920370
  H     -7.828260  -12.047120    0.714150
  H     -5.459360  -16.355140    0.319250
  H     -4.497850  -15.559730   -2.485890
  H     -4.303410  -18.318830    0.312570
  H     -2.585770  -20.171400   -0.271940
  H     -1.415480  -19.717490   -2.566890

 Total Charge           Charge          ....    0
 Multiplicity           Mult            ....    1
 Number of Electrons    NEL             ....  448
 Basis Dimension        Dim             .... 1026

ORBITAL ENERGIES
----------------

  NO   OCC          E(Eh)            E(eV)
   0   2.0000     -88.972433     -2421.0630
   1   2.0000     -88.967448     -2420.9273
   2   2.0000     -19.240514      -523.5610
   3   2.0000     -19.240027      -523.5478
   4   2.0000     -19.238269      -523.4999
   5   2.0000     -19.237632      -523.4826
   6   2.0000     -19.234864      -523.4073
   7   2.0000     -19.232663      -523.3474
   8   2.0000     -19.227884      -523.2173
   9   2.0000     -19.227478      -523.2063
  10   2.0000     -19.205254      -522.6015
  11   2.0000     -19.203902      -522.5647
  12   2.0000     -14.648091      -398.5948
  13   2.0000     -14.647606      -398.5816
  14   2.0000     -14.641328      -398.4108
  15   2.0000     -14.637616      -398.3098
  16   2.0000     -14.464490      -393.5988
  17   2.0000     -14.463999      -393.5854
  18   2.0000     -10.387215      -282.6505
  19   2.0000     -10.386297      -282.6255
  20   2.0000     -10.349315      -281.6192
  21   2.0000     -10.348682      -281.6020
  22   2.0000     -10.332072      -281.1500
  23   2.0000     -10.331125      -281.1242
  24   2.0000     -10.330625      -281.1106
  25   2.0000     -10.330407      -281.1047
  26   2.0000     -10.328137      -281.0429
  27   2.0000     -10.324276      -280.9378
  28   2.0000     -10.323180      -280.9080
  29   2.0000     -10.322518      -280.8900
  30   2.0000     -10.320483      -280.8346
  31   2.0000     -10.319941      -280.8199
  32   2.0000     -10.319510      -280.8081
  33   2.0000     -10.318201      -280.7725
  34   2.0000     -10.317379      -280.7501
  35   2.0000     -10.315676      -280.7038
  36   2.0000     -10.312859      -280.6272
  37   2.0000     -10.312726      -280.6236
  38   2.0000     -10.312278      -280.6114
  39   2.0000     -10.311924      -280.6017
  40   2.0000     -10.304069      -280.3880
  41   2.0000     -10.301425      -280.3160
  42   2.0000     -10.301230      -280.3107
  43   2.0000     -10.298476      -280.2358
  44   2.0000     -10.297493      -280.2090
  45   2.0000     -10.297032      -280.1965
  46   2.0000     -10.296075      -280.1704
  47   2.0000     -10.293760      -280.1075
  48   2.0000     -10.293392      -280.0974
  49   2.0000     -10.293336      -280.0959
  50   2.0000     -10.292242      -280.0661
  51   2.0000     -10.292190      -280.0647
  52   2.0000     -10.288375      -279.9609
  53   2.0000     -10.286493      -279.9097
  54   2.0000     -10.286346      -279.9057
  55   2.0000     -10.282907      -279.8121
  56   2.0000     -10.282438      -279.7993
  57   2.0000     -10.280277      -279.7406
  58   2.0000     -10.278875      -279.7024
  59   2.0000     -10.278257      -279.6856
  60   2.0000     -10.265660      -279.3428
  61   2.0000     -10.265429      -279.3365
  62   2.0000      -8.068497      -219.5550
  63   2.0000      -8.061568      -219.3664
  64   2.0000      -6.037600      -164.2914
  65   2.0000      -6.033364      -164.1762
  66   2.0000      -6.031039      -164.1129
  67   2.0000      -6.030929      -164.1099
  68   2.0000      -6.026173      -163.9805
  69   2.0000      -6.024070      -163.9233
  70   2.0000      -1.317945       -35.8631
  71   2.0000      -1.317380       -35.8477
  72   2.0000      -1.311161       -35.6785
  73   2.0000      -1.306475       -35.5510
  74   2.0000      -1.146614       -31.2009
  75   2.0000      -1.140043       -31.0221
  76   2.0000      -1.134284       -30.8654
  77   2.0000      -1.133630       -30.8476
  78   2.0000      -1.128607       -30.7109
  79   2.0000      -1.123283       -30.5661
  80   2.0000      -1.076252       -29.2863
  81   2.0000      -1.067511       -29.0484
  82   2.0000      -1.020121       -27.7589
  83   2.0000      -1.015549       -27.6345
  84   2.0000      -0.999921       -27.2092
  85   2.0000      -0.997967       -27.1561
  86   2.0000      -0.993449       -27.0331
  87   2.0000      -0.984055       -26.7775
  88   2.0000      -0.938581       -25.5401
  89   2.0000      -0.919370       -25.0173
  90   2.0000      -0.915414       -24.9097
  91   2.0000      -0.913834       -24.8667
  92   2.0000      -0.911657       -24.8074
  93   2.0000      -0.907280       -24.6883
  94   2.0000      -0.882853       -24.0237
  95   2.0000      -0.878896       -23.9160
  96   2.0000      -0.877529       -23.8788
  97   2.0000      -0.868592       -23.6356
  98   2.0000      -0.851382       -23.1673
  99   2.0000      -0.849368       -23.1125
 100   2.0000      -0.845060       -22.9953
 101   2.0000      -0.843779       -22.9604
 102   2.0000      -0.841851       -22.9079
 103   2.0000      -0.827042       -22.5050
 104   2.0000      -0.813793       -22.1444
 105   2.0000      -0.809410       -22.0252
 106   2.0000      -0.781707       -21.2713
 107   2.0000      -0.779208       -21.2033
 108   2.0000      -0.771784       -21.0013
 109   2.0000      -0.766010       -20.8442
 110   2.0000      -0.760353       -20.6903
 111   2.0000      -0.730144       -19.8682
 112   2.0000      -0.728958       -19.8360
 113   2.0000      -0.723786       -19.6952
 114   2.0000      -0.717006       -19.5107
 115   2.0000      -0.715325       -19.4650
 116   2.0000      -0.697619       -18.9832
 117   2.0000      -0.688272       -18.7288
 118   2.0000      -0.682674       -18.5765
 119   2.0000      -0.672219       -18.2920
 120   2.0000      -0.671035       -18.2598
 121   2.0000      -0.667110       -18.1530
 122   2.0000      -0.666384       -18.1332
 123   2.0000      -0.658182       -17.9100
 124   2.0000      -0.654779       -17.8174
 125   2.0000      -0.648767       -17.6538
 126   2.0000      -0.641508       -17.4563
 127   2.0000      -0.633564       -17.2401
 128   2.0000      -0.631667       -17.1885
 129   2.0000      -0.629159       -17.1203
 130   2.0000      -0.627813       -17.0836
 131   2.0000      -0.624818       -17.0022
 132   2.0000      -0.619385       -16.8543
 133   2.0000      -0.619285       -16.8516
 134   2.0000      -0.617773       -16.8105
 135   2.0000      -0.616325       -16.7711
 136   2.0000      -0.613771       -16.7016
 137   2.0000      -0.609408       -16.5828
 138   2.0000      -0.602719       -16.4008
 139   2.0000      -0.601873       -16.3778
 140   2.0000      -0.595062       -16.1925
 141   2.0000      -0.593349       -16.1459
 142   2.0000      -0.592069       -16.1110
 143   2.0000      -0.589042       -16.0287
 144   2.0000      -0.584676       -15.9099
 145   2.0000      -0.579240       -15.7619
 146   2.0000      -0.575097       -15.6492
 147   2.0000      -0.569168       -15.4878
 148   2.0000      -0.559371       -15.2212
 149   2.0000      -0.557765       -15.1776
 150   2.0000      -0.557372       -15.1669
 151   2.0000      -0.552133       -15.0243
 152   2.0000      -0.549418       -14.9504
 153   2.0000      -0.538284       -14.6475
 154   2.0000      -0.537403       -14.6235
 155   2.0000      -0.534603       -14.5473
 156   2.0000      -0.528709       -14.3869
 157   2.0000      -0.527211       -14.3461
 158   2.0000      -0.523363       -14.2414
 159   2.0000      -0.522611       -14.2210
 160   2.0000      -0.518871       -14.1192
 161   2.0000      -0.514626       -14.0037
 162   2.0000      -0.508992       -13.8504
 163   2.0000      -0.507681       -13.8147
 164   2.0000      -0.503186       -13.6924
 165   2.0000      -0.501125       -13.6363
 166   2.0000      -0.498232       -13.5576
 167   2.0000      -0.496972       -13.5233
 168   2.0000      -0.494285       -13.4502
 169   2.0000      -0.491844       -13.3838
 170   2.0000      -0.488182       -13.2841
 171   2.0000      -0.487538       -13.2666
 172   2.0000      -0.486236       -13.2311
 173   2.0000      -0.483292       -13.1510
 174   2.0000      -0.481006       -13.0888
 175   2.0000      -0.480421       -13.0729
 176   2.0000      -0.477954       -13.0058
 177   2.0000      -0.476181       -12.9575
 178   2.0000      -0.473925       -12.8962
 179   2.0000      -0.470809       -12.8114
 180   2.0000      -0.467813       -12.7299
 181   2.0000      -0.466105       -12.6834
 182   2.0000      -0.461052       -12.5459
 183   2.0000      -0.458532       -12.4773
 184   2.0000      -0.455680       -12.3997
 185   2.0000      -0.453734       -12.3467
 186   2.0000      -0.450480       -12.2582
 187   2.0000      -0.447284       -12.1712
 188   2.0000      -0.445486       -12.1223
 189   2.0000      -0.440501       -11.9867
 190   2.0000      -0.439012       -11.9461
 191   2.0000      -0.433815       -11.8047
 192   2.0000      -0.430310       -11.7093
 193   2.0000      -0.426977       -11.6186
 194   2.0000      -0.425936       -11.5903
 195   2.0000      -0.403190       -10.9714
 196   2.0000      -0.388672       -10.5763
 197   2.0000      -0.388227       -10.5642
 198   2.0000      -0.386719       -10.5232
 199   2.0000      -0.382590       -10.4108
 200   2.0000      -0.382032       -10.3956
 201   2.0000      -0.377013       -10.2590
 202   2.0000      -0.375879       -10.2282
 203   2.0000      -0.375342       -10.2136
 204   2.0000      -0.369962       -10.0672
 205   2.0000      -0.368512       -10.0277
 206   2.0000      -0.365916        -9.9571
 207   2.0000      -0.364030        -9.9058
 208   2.0000      -0.360151        -9.8002
 209   2.0000      -0.356784        -9.7086
 210   2.0000      -0.355029        -9.6608
 211   2.0000      -0.353112        -9.6087
 212   2.0000      -0.344541        -9.3754
 213   2.0000      -0.338930        -9.2227
 214   2.0000      -0.338873        -9.2212
 215   2.0000      -0.335471        -9.1286
 216   2.0000      -0.329125        -8.9560
 217   2.0000      -0.328751        -8.9458
 218   2.0000      -0.328316        -8.9339
 219   2.0000      -0.306541        -8.3414
 220   2.0000      -0.300665        -8.1815
 221   2.0000      -0.277223        -7.5436
 222   2.0000      -0.266154        -7.2424
 223   2.0000      -0.236132        -6.4255
 224   0.0000      -0.144578        -3.9342
 225   0.0000      -0.127161        -3.4602
 226   0.0000      -0.086468        -2.3529
 227   0.0000      -0.059544        -1.6203
 228   0.0000      -0.042315        -1.1515

MULLIKEN ATOMIC CHARGES
-----------------------
   0 C :   -0.046722
   1 C :    0.032574
   2 C :    0.029100
   3 C :   -0.202194
   4 S :    0.216851
   5 C :    0.117999
   6 C :    0.028668
   7 N :    0.294348
   8 O :   -0.252417
   9 O :   -0.280465
  10 C :    0.024461
  11 C :    0.013164
  12 C :    0.031102
  13 C :   -0.002798
  14 C :    0.013682
  15 C :    0.008435
  16 C :    0.074718
  17 N :    0.277004
  18 O :   -0.246477
  19 O :   -0.260143
  20 C :    0.083340
  21 C :   -0.092790
  22 C :   -0.019289
  23 C :    0.144184
  24 N :   -0.248009
  25 C :    0.097545
  26 C :    0.005457
  27 C :    0.164097
  28 O :   -0.205272
  29 C :   -0.066491
  30 C :   -0.067131
  31 C :    0.166454
  32 O :   -0.205187
  33 N :   -0.249770
  34 C :    0.097007
  35 C :    0.007907
  36 C :    0.145729
  37 C :   -0.017888
  38 C :   -0.097673
  39 C :    0.087144
  40 C :    0.075824
  41 N :    0.277516
  42 O :   -0.247265
  43 O :   -0.260373
  44 C :    0.009893
  45 C :   -0.003721
  46 C :   -0.002417
  47 C :    0.053696
  48 C :    0.004283
  49 C :    0.025731
  50 C :    0.070667
  51 N :    0.277788
  52 O :   -0.257458
  53 O :   -0.265180
  54 C :    0.049623
  55 C :   -0.060865
  56 C :    0.091172
  57 C :   -0.152063
  58 C :    0.033485
  59 C :    0.046129
  60 C :   -0.063167
  61 S :    0.146910
  62 H :    0.037162
  63 H :   -0.004244
  64 H :    0.016669
  65 H :    0.003071
  66 H :   -0.004032
  67 H :    0.007969
  68 H :    0.002520
  69 H :    0.035531
  70 H :    0.003909
  71 H :    0.041680
  72 H :    0.041185
  73 H :    0.018861
  74 H :    0.030132
  75 H :    0.025689
  76 H :    0.041423
  77 H :    0.041727
  78 H :    0.019408
  79 H :    0.029686
  80 H :    0.024280
  81 H :    0.003350
  82 H :    0.037176
  83 H :    0.002200
  84 H :    0.003900
  85 H :   -0.007010
  86 H :    0.004117
  87 H :    0.022742
  88 H :    0.018166
  89 H :    0.009310
  90 H :    0.002088
  91 H :    0.040872
Sum of atomic charges:   -0.0000000

LOEWDIN ATOMIC CHARGES
----------------------
   0 C :   -0.168408
   1 C :   -0.069453
   2 C :   -0.023639
   3 C :   -0.184398
   4 S :    0.519630
   5 C :    0.016314
   6 C :   -0.072172
   7 N :    0.286635
   8 O :   -0.216031
   9 O :   -0.243462
  10 C :    0.030087
  11 C :   -0.042422
  12 C :    0.054964
  13 C :    0.030190
  14 C :   -0.032809
  15 C :    0.001470
  16 C :   -0.041893
  17 N :    0.287070
  18 O :   -0.210610
  19 O :   -0.220804
  20 C :   -0.002876
  21 C :    0.011773
  22 C :   -0.019842
  23 C :    0.071062
  24 N :    0.007841
  25 C :    0.039287
  26 C :   -0.058758
  27 C :    0.078440
  28 O :   -0.193053
  29 C :   -0.108968
  30 C :   -0.107224
  31 C :    0.079379
  32 O :   -0.192177
  33 N :    0.007411
  34 C :    0.039277
  35 C :   -0.058479
  36 C :    0.073856
  37 C :   -0.022841
  38 C :    0.015775
  39 C :   -0.005026
  40 C :   -0.042729
  41 N :    0.287270
  42 O :   -0.211367
  43 O :   -0.221043
  44 C :   -0.000207
  45 C :   -0.038849
  46 C :    0.026299
  47 C :    0.056410
  48 C :   -0.047232
  49 C :    0.036585
  50 C :   -0.069432
  51 N :    0.287168
  52 O :   -0.221193
  53 O :   -0.229910
  54 C :    0.025041
  55 C :   -0.024829
  56 C :    0.011743
  57 C :   -0.183868
  58 C :   -0.028116
  59 C :   -0.058186
  60 C :   -0.167134
  61 S :    0.457675
  62 H :    0.027695
  63 H :    0.032723
  64 H :    0.036215
  65 H :    0.038500
  66 H :    0.031430
  67 H :    0.033802
  68 H :    0.037392
  69 H :    0.039676
  70 H :    0.029095
  71 H :    0.031114
  72 H :    0.037358
  73 H :    0.023911
  74 H :    0.034273
  75 H :    0.029971
  76 H :    0.031156
  77 H :    0.037446
  78 H :    0.024006
  79 H :    0.034287
  80 H :    0.029813
  81 H :    0.029026
  82 H :    0.040287
  83 H :    0.037033
  84 H :    0.031944
  85 H :    0.029999
  86 H :    0.038509
  87 H :    0.037203
  88 H :    0.035324
  89 H :    0.037757
  90 H :    0.035360
  91 H :    0.028480

  Mayer bond orders larger than 0.100000
B(  0-C ,  1-C ) :   1.4792 B(  0-C ,  4-S ) :   1.2024 B(  0-C , 62-H ) :   0.9720
B(  1-C ,  2-C ) :   1.3349 B(  1-C , 63-H ) :   0.9957 B(  2-C ,  3-C ) :   1.4027
B(  2-C , 64-H ) :   0.9844 B(  3-C ,  4-S ) :   1.1374 B(  3-C ,  5-C ) :   1.2056
B(  5-C ,  6-C ) :   1.4910 B(  5-C , 12-C ) :   1.0248 B(  6-C ,  7-N ) :   0.9884
B(  6-C , 10-C ) :   1.1336 B(  7-N ,  8-O ) :   1.5338 B(  7-N ,  9-O ) :   1.4313
B(  8-O ,  9-O ) :   0.2441 B( 10-C , 11-C ) :   1.5555 B( 10-C , 65-H ) :   1.0106
B( 11-C , 12-C ) :   1.1626 B( 11-C , 66-H ) :   1.0021 B( 12-C , 13-C ) :   1.4792
B( 13-C , 14-C ) :   1.1460 B( 13-C , 20-C ) :   1.0313 B( 14-C , 15-C ) :   1.5523
B( 14-C , 67-H ) :   1.0000 B( 15-C , 16-C ) :   1.1645 B( 15-C , 68-H ) :   1.0080
B( 16-C , 17-N ) :   0.9620 B( 16-C , 20-C ) :   1.4308 B( 17-N , 18-O ) :   1.5360
B( 17-N , 19-O ) :   1.4620 B( 18-O , 19-O ) :   0.2513 B( 19-O , 70-H ) :   0.1004
B( 20-C , 21-C ) :   1.1864 B( 21-C , 22-C ) :   1.5242 B( 21-C , 69-H ) :   0.9346
B( 22-C , 23-C ) :   1.1855 B( 22-C , 70-H ) :   0.9479 B( 23-C , 24-N ) :   1.1633
B( 23-C , 30-C ) :   1.2656 B( 24-N , 25-C ) :   0.9361 B( 24-N , 27-C ) :   1.0781
B( 25-C , 26-C ) :   1.1232 B( 25-C , 71-H ) :   0.9483 B( 25-C , 72-H ) :   0.9290
B( 26-C , 73-H ) :   0.9679 B( 26-C , 74-H ) :   0.9681 B( 26-C , 75-H ) :   0.9639
B( 27-C , 28-O ) :   2.0166 B( 27-C , 29-C ) :   0.9782 B( 28-O , 82-H ) :   0.1144
B( 29-C , 30-C ) :   1.3183 B( 29-C , 36-C ) :   1.2618 B( 30-C , 31-C ) :   0.9763
B( 31-C , 32-O ) :   2.0171 B( 31-C , 33-N ) :   1.0773 B( 32-O , 69-H ) :   0.1144
B( 33-N , 34-C ) :   0.9344 B( 33-N , 36-C ) :   1.1643 B( 34-C , 35-C ) :   1.1237
B( 34-C , 76-H ) :   0.9483 B( 34-C , 77-H ) :   0.9292 B( 35-C , 78-H ) :   0.9679
B( 35-C , 79-H ) :   0.9676 B( 35-C , 80-H ) :   0.9637 B( 36-C , 37-C ) :   1.1859
B( 37-C , 38-C ) :   1.5247 B( 37-C , 81-H ) :   0.9479 B( 38-C , 39-C ) :   1.1818
B( 38-C , 82-H ) :   0.9349 B( 39-C , 40-C ) :   1.4211 B( 39-C , 46-C ) :   1.0417
B( 40-C , 41-N ) :   0.9624 B( 40-C , 44-C ) :   1.1734 B( 41-N , 42-O ) :   1.5368
B( 41-N , 43-O ) :   1.4631 B( 42-O , 43-O ) :   0.2515 B( 44-C , 45-C ) :   1.5351
B( 44-C , 83-H ) :   1.0079 B( 45-C , 46-C ) :   1.1510 B( 45-C , 84-H ) :   1.0012
B( 46-C , 47-C ) :   1.4537 B( 47-C , 48-C ) :   1.1861 B( 47-C , 54-C ) :   0.9962
B( 48-C , 49-C ) :   1.5252 B( 48-C , 85-H ) :   1.0023 B( 49-C , 50-C ) :   1.1488
B( 49-C , 86-H ) :   1.0092 B( 50-C , 51-N ) :   0.9667 B( 50-C , 54-C ) :   1.4616
B( 51-N , 52-O ) :   1.5290 B( 51-N , 53-O ) :   1.4855 B( 52-O , 53-O ) :   0.2498
B( 54-C , 55-C ) :   1.2424 B( 55-C , 56-C ) :   1.5510 B( 55-C , 87-H ) :   0.9480
B( 56-C , 57-C ) :   1.1684 B( 56-C , 88-H ) :   0.9555 B( 57-C , 58-C ) :   1.4660
B( 57-C , 61-S ) :   1.1300 B( 58-C , 59-C ) :   1.3064 B( 58-C , 89-H ) :   0.9920
B( 59-C , 60-C ) :   1.5182 B( 59-C , 90-H ) :   0.9941 B( 60-C , 61-S ) :   1.1997
B( 60-C , 91-H ) :   0.9734

-----------------------------------------------------------------------------
         ABSORPTION SPECTRUM VIA TRANSITION ELECTRIC DIPOLE MOMENTS
-----------------------------------------------------------------------------
State   Energy  Wavelength   fosc         T2         TX        TY        TZ
        (cm-1)    (nm)                  (au**2)     (au)      (au)      (au)
-----------------------------------------------------------------------------
   0    4805.3   2081.0   0.283249072  19.40538   0.36698   4.37766  -0.32683
   1    8336.5   1199.6   0.004533609   0.17904   0.21959   0.30673   0.19165
   2   10236.4    976.9   0.049316856   1.58607  -1.08141   0.38919  -0.51493
   3   11995.6    833.6   0.056362315   1.54683  -0.41757   0.30679  -1.13064
   4   16599.4    602.4   0.210568521   4.17614   1.22833   1.10861   1.19931
   5   16875.2    592.6   0.009434497   0.18405   0.31984  -0.01711  -0.28542
   6   17827.0    560.9   0.026931513   0.49734   0.21832   0.66129   0.11127
   7   19047.8    525.0   0.022782468   0.39376  -0.12830   0.11504   0.60338
   8   20705.2    483.0   0.029827737   0.47426  -0.53737   0.42321   0.07992
   9   22400.6    446.4   0.002819013   0.04143   0.12816  -0.09411  -0.12707
  10   23043.9    434.0   0.015548233   0.22213   0.16588   0.38576  -0.21402
  11   23273.2    429.7   0.136409286   1.92958  -0.61164   1.24556   0.06366
  12   23773.2    420.6   0.003571938   0.04946   0.00256  -0.17243   0.14045
  13   24061.1    415.6   0.144794515   1.98112  -0.93612   0.94870   0.45251
  14   24193.8    413.3   0.280661788   3.81904  -0.21909   1.86579  -0.53840
  15   24697.3    404.9   0.012398410   0.16527   0.26725  -0.23242  -0.19956
  16   25002.4    400.0   0.093883148   1.23618   0.87807   0.48872   0.47574
  17   25282.7    395.5   0.148409461   1.93247  -0.31016   0.21887   1.33730
  18   25363.6    394.3   0.039713047   0.51546   0.69075  -0.00055   0.19579
  19   26075.2    383.5   0.070862924   0.89468   0.76476  -0.04268   0.55497
  20   26585.5    376.1   0.007695743   0.09530  -0.19299   0.19852  -0.13654
  21   26641.9    375.3   0.011473310   0.14177   0.02135   0.19875   0.31909
  22   26798.9    373.1   0.010394762   0.12769  -0.25184   0.00028  -0.25352
  23   27173.6    368.0   0.045809072   0.55498   0.67462  -0.24093   0.20452
  24   27452.5    364.3   0.003246108   0.03893  -0.14576   0.11020   0.07441
  25   27702.2    361.0   0.038929513   0.46264  -0.57643  -0.36008  -0.02654
  26   27789.4    359.8   0.006715640   0.07956   0.17449   0.05067  -0.21574
  27   28451.7    351.5   0.173826553   2.01133  -0.63607   0.06734  -1.26578
  28   29138.2    343.2   0.170977327   1.93175  -0.21552  -0.62440   1.22288
  29   30005.9    333.3   0.033573631   0.36836   0.23518  -0.43579  -0.35090
  30   30350.8    329.5   0.401250948   4.35232   0.87388  -0.99357  -1.61291
  31   30880.1    323.8   0.085007574   0.90626  -0.31842  -0.77103  -0.45868
  32   30995.2    322.6   0.317390154   3.37112   1.42479  -0.35037   1.10378
  33   31173.3    320.8   0.259148939   2.73680  -0.02391   1.37695   0.91664
  34   31265.1    319.8   0.147181602   1.54978   0.47314   0.94400  -0.65938
  35   31374.8    318.7   0.053124285   0.55743   0.38328   0.64068  -0.00785
  36   31639.1    316.1   0.037700208   0.39228  -0.06398   0.26036   0.56604
  37   31870.0    313.8   0.008883143   0.09176   0.09546  -0.27334  -0.08906
  38   32002.9    312.5   0.018931685   0.19475  -0.30444   0.12685   0.29321
  39   32282.0    309.8   0.252703038   2.57707   0.34079  -0.86576  -1.30820
  40   32305.8    309.5   0.060987683   0.62149  -0.57995  -0.26292   0.46478
  41   32507.6    307.6   0.084766571   0.85845  -0.74784  -0.34009  -0.42840
  42   32691.4    305.9   0.022272661   0.22429   0.34646   0.30253   0.11285
  43   32863.3    304.3   0.019309617   0.19344  -0.41474   0.03934   0.14101
  44   32947.7    303.5   0.021691133   0.21674   0.44279   0.05616  -0.13238
  45   33249.1    300.8   0.022734922   0.22511  -0.46859  -0.02282  -0.07078
  46   33315.5    300.2   0.040962702   0.40478   0.47340   0.06787   0.41960
  47   33554.8    298.0   0.310779520   3.04911   1.67854   0.15559   0.45542
  48   34050.4    293.7   0.003498912   0.03383  -0.15761  -0.04808  -0.08172
  49   34137.7    292.9   0.007000753   0.06751  -0.12430   0.07898  -0.21407
  50   34511.5    289.8   0.065600324   0.62577  -0.01316  -0.10565  -0.78386
  51   34758.3    287.7   0.003768236   0.03569  -0.00738   0.00961   0.18853
  52   35161.2    284.4   0.059757104   0.55950  -0.05356   0.12490   0.73555
  53   35333.7    283.0   0.022965971   0.21398  -0.25604   0.06833  -0.37915
  54   35965.0    278.0   0.010223936   0.09359  -0.02158   0.30288  -0.03718
  55   36012.3    277.7   0.081379966   0.74395   0.44326  -0.73807   0.05224
  56   36041.5    277.5   0.058057129   0.53031   0.40053  -0.60463  -0.06569
  57   36681.4    272.6   0.003126700   0.02806   0.00076  -0.09755   0.13618
  58   36718.2    272.3   0.061722018   0.55339   0.65611  -0.05861   0.34566
  59   36788.1    271.8   0.002093154   0.01873   0.00747  -0.04896  -0.12759
  60   37529.7    266.5   0.031039714   0.27228   0.50421  -0.07142  -0.11380
  61   37692.0    265.3   0.041004820   0.35815   0.53296   0.22620   0.15144
  62   37741.4    265.0   0.015883420   0.13855  -0.32476   0.10759   0.14664
  63   37907.4    263.8   0.013504718   0.11728  -0.12647  -0.31824   0.00369
  64   37976.7    263.3   0.005713719   0.04953  -0.00502   0.08976   0.20359
  65   38377.1    260.6   0.012453645   0.10683   0.24240   0.21879   0.01432
  66   38437.8    260.2   0.007716996   0.06609  -0.11582  -0.07955   0.21530
  67   38811.4    257.7   0.009589259   0.08134  -0.22348  -0.03125  -0.17441
  68   38961.7    256.7   0.053642041   0.45326  -0.33118   0.53781  -0.23309
  69   39105.7    255.7   0.001201963   0.01012   0.05206   0.06449  -0.05700
  70   39206.5    255.1   0.059897904   0.50296  -0.45380   0.33770  -0.42776
  71   39305.4    254.4   0.023695047   0.19846  -0.02012  -0.44057   0.06290
  72   39416.7    253.7   0.023139003   0.19326  -0.40206   0.12529  -0.12613
  73   39673.7    252.1   0.023642567   0.19619  -0.27576   0.34493   0.03410
  74   39713.4    251.8   0.015098373   0.12516   0.34404   0.02335  -0.07905
  75   40011.6    249.9   0.194923712   1.60382   0.62168  -0.91464   0.61706
  76   40118.1    249.3   0.008634492   0.07086   0.21789   0.15255   0.01038

FINAL SINGLE POINT ENERGY     -3567.666542966968

DIPOLE MOMENT
-------------
                                X             Y             Z
Electronic contribution:     -1.65455      10.52403      -5.76492
Nuclear contribution   :      2.95679     -11.51138       5.11990
                        -----------------------------------------
Total Dipole Moment    :      1.30223      -0.98735      -0.64502
                        -----------------------------------------
Magnitude (a.u.)       :      1.75691
Magnitude (Debye)      :      4.46570

Rotational constants in cm-1:     0.002150     0.000487     0.000445
Rotational constants in MHz :    64.466403    14.587131    13.339599

                             ****ORCA TERMINATED NORMALLY****
TOTAL RUN TIME: 0 days 0 hours 10 minutes 49 seconds 758 msec
