                         Program Version 4.2.0 -  RELEASE  -
|  1> # ORCA input file
|  2> # SCF done       -188.445938798801          0.000798373443
|  3> ! CAM-B3LYP def2-SVP def2/J RIJCOSX Grid4 TightSCF
|  4> %maxcore 5000
|  5> %tddft
|  6>     Mode sTDDFT
|  7>     Ethresh 5.0
|  8>     maxcore 5000
|  9> end
| 10>
| 11> %pal
| 12>   nprocs 6
| 13>   end
| 14> * xyz 0 1
| 15>    C        3.44674         2.71907         1.68094
| 16>    C        3.10373         3.80285         2.42839
| 17>    S        3.40107         3.52332         4.10536
| 18>    C        4.00044         1.91033         3.79685
| 19>   Cl        4.53301         0.91068         5.05616
| 20>    C        3.95904         1.63352         2.46292
| 21>    C        4.30090         0.50392         1.59218
| 22>    O        4.76401        -0.56584         1.91398
| 23>    C        4.00119         0.99146         0.20796
| 24>    C        3.44218         2.33500         0.28454
| 25>    C        2.95040         3.10302        -0.73616
| 26>    C        2.42182         4.38940        -0.49746
| 27>    N        1.99171         5.43846        -0.32227
| 28>    C        2.89037         2.72254        -2.09158
| 29>    N        2.80572         2.46452        -3.20719
| 30>    C        4.36040         0.33981        -0.92685
| 31>    C        4.88955        -0.99325        -0.98691
| 32>    C        4.35483        -2.08754        -0.28650
| 33>    N        4.89946        -3.27720        -0.31743
| 34>    C        5.99112        -3.45537        -1.06670
| 35>    N        6.50945        -2.50878        -1.85444
| 36>    C        5.98265        -1.31530        -1.81437
| 37>    C        6.67908        -4.71987        -1.06867
| 38>    N        6.27257        -5.85954        -0.42135
| 39>    C        5.04484        -6.06897         0.30875
| 40>    C        3.86467        -6.28903        -0.63245
| 41>    C        7.19123        -6.90700        -0.59407
| 42>    O        7.04396        -8.01787        -0.11744
| 43>    C        8.24348        -6.33488        -1.39963
| 44>    C        7.89380        -4.98622        -1.68230
| 45>    C        8.96632        -4.40322        -2.46996
| 46>    O        9.15066        -3.31042        -2.94583
| 47>    N        9.89315        -5.46950        -2.61779
| 48>    C       11.15309        -5.26803        -3.29165
| 49>    C       12.29961        -5.06440        -2.30381
| 50>    C        9.47889        -6.60369        -1.97756
| 51>    C       10.24375        -7.81221        -1.93579
| 52>    C        9.86470        -8.87673        -1.21469
| 53>    C       10.68267       -10.12444        -1.12948
| 54>    C       12.16030        -9.79547        -0.91308
| 55>    O       12.61794        -9.09011        -0.06524
| 56>    O       12.91562       -10.41890        -1.82212
| 57>    C       12.16549       -11.21240        -2.73346
| 58>    C       10.67035       -10.96936        -2.41728
| 59>    C        9.85477       -12.24989        -2.27365
| 60>    C       10.58501       -13.26750        -1.41230
| 61>    C       11.83223       -13.79093        -2.11665
| 62>    C       12.72772       -12.65532        -2.67251
| 63>    O       13.11154       -13.03641        -3.98919
| 64>    C       12.47426       -14.11094        -4.43613
| 65>    O       12.64054       -14.57131        -5.52969
| 66>    C       11.59227       -14.70412        -3.34288
| 67>    C       10.18552       -15.05111        -3.70286
| 68>    C        9.54287       -15.18706        -4.87228
| 69>    C        8.33388       -16.10120        -4.85585
| 70>    O        7.67535       -16.38642        -3.88884
| 71>    C        8.23950       -16.58609        -6.23133
| 72>    C        7.51482       -17.51802        -6.91736
| 73>    S        7.99529       -17.54948        -8.59534
| 74>    C        9.15472       -16.29300        -8.35827
| 75>    C        9.17654       -15.88547        -7.06221
| 76>    C        9.83984       -14.86936        -6.26853
| 77>    C       10.37055       -13.72408        -6.78301
| 78>    C       10.52604       -13.54200        -8.17461
| 79>    N       10.65243       -13.38937        -9.30342
| 80>    C       10.68193       -12.59630        -6.00353
| 81>    N       10.85179       -11.64396        -5.38681
| 82>   Cl        6.30756       -18.54490        -6.32263
| 83>    H        2.70242         4.74627         2.11555
| 84>    H        4.29792         0.86062        -1.87488
| 85>    H        3.43373        -2.00057         0.27308
| 86>    H        6.45533        -0.56578        -2.43556
| 87>    H        4.85931        -5.20834         0.95221
| 88>    H        5.20735        -6.96387         0.91601
| 89>    H        3.69338        -5.40181        -1.23643
| 90>    H        2.96880        -6.49525        -0.05411
| 91>    H        4.05927        -7.13367        -1.28934
| 92>    H       11.02755        -4.36718        -3.89904
| 93>    H       11.35440        -6.11390        -3.95491
| 94>    H       12.10381        -4.19210        -1.68530
| 95>    H       13.22706        -4.90396        -2.84650
| 96>    H       12.41914        -5.92847        -1.65371
| 97>    H       11.17046        -7.83287        -2.49276
| 98>    H        8.94006        -8.84893        -0.65577
| 99>    H       10.34453       -10.70631        -0.26788
|100>    H       12.40309       -10.85540        -3.74227
|101>    H       10.24241       -10.37875        -3.23013
|102>    H        9.67076       -12.67136        -3.26328
|103>    H        8.88755       -12.00236        -1.83521
|104>    H        9.92754       -14.09911        -1.15995
|105>    H       10.89535       -12.80714        -0.47187
|106>    H       12.41813       -14.35182        -1.38280
|107>    H       13.65654       -12.57822        -2.09382
|108>    H       12.03975       -15.68860        -3.13223
|109>    H        9.62818       -15.45351        -2.86011
|110>    H        9.74721       -15.95592        -9.18542
|111> *
|112>
|113>                          ****END OF INPUT****

CARTESIAN COORDINATES (ANGSTROEM)
---------------------------------
  C      3.446740    2.719070    1.680940
  C      3.103730    3.802850    2.428390
  S      3.401070    3.523320    4.105360
  C      4.000440    1.910330    3.796850
  Cl     4.533010    0.910680    5.056160
  C      3.959040    1.633520    2.462920
  C      4.300900    0.503920    1.592180
  O      4.764010   -0.565840    1.913980
  C      4.001190    0.991460    0.207960
  C      3.442180    2.335000    0.284540
  C      2.950400    3.103020   -0.736160
  C      2.421820    4.389400   -0.497460
  N      1.991710    5.438460   -0.322270
  C      2.890370    2.722540   -2.091580
  N      2.805720    2.464520   -3.207190
  C      4.360400    0.339810   -0.926850
  C      4.889550   -0.993250   -0.986910
  C      4.354830   -2.087540   -0.286500
  N      4.899460   -3.277200   -0.317430
  C      5.991120   -3.455370   -1.066700
  N      6.509450   -2.508780   -1.854440
  C      5.982650   -1.315300   -1.814370
  C      6.679080   -4.719870   -1.068670
  N      6.272570   -5.859540   -0.421350
  C      5.044840   -6.068970    0.308750
  C      3.864670   -6.289030   -0.632450
  C      7.191230   -6.907000   -0.594070
  O      7.043960   -8.017870   -0.117440
  C      8.243480   -6.334880   -1.399630
  C      7.893800   -4.986220   -1.682300
  C      8.966320   -4.403220   -2.469960
  O      9.150660   -3.310420   -2.945830
  N      9.893150   -5.469500   -2.617790
  C     11.153090   -5.268030   -3.291650
  C     12.299610   -5.064400   -2.303810
  C      9.478890   -6.603690   -1.977560
  C     10.243750   -7.812210   -1.935790
  C      9.864700   -8.876730   -1.214690
  C     10.682670  -10.124440   -1.129480
  C     12.160300   -9.795470   -0.913080
  O     12.617940   -9.090110   -0.065240
  O     12.915620  -10.418900   -1.822120
  C     12.165490  -11.212400   -2.733460
  C     10.670350  -10.969360   -2.417280
  C      9.854770  -12.249890   -2.273650
  C     10.585010  -13.267500   -1.412300
  C     11.832230  -13.790930   -2.116650
  C     12.727720  -12.655320   -2.672510
  O     13.111540  -13.036410   -3.989190
  C     12.474260  -14.110940   -4.436130
  O     12.640540  -14.571310   -5.529690
  C     11.592270  -14.704120   -3.342880
  C     10.185520  -15.051110   -3.702860
  C      9.542870  -15.187060   -4.872280
  C      8.333880  -16.101200   -4.855850
  O      7.675350  -16.386420   -3.888840
  C      8.239500  -16.586090   -6.231330
  C      7.514820  -17.518020   -6.917360
  S      7.995290  -17.549480   -8.595340
  C      9.154720  -16.293000   -8.358270
  C      9.176540  -15.885470   -7.062210
  C      9.839840  -14.869360   -6.268530
  C     10.370550  -13.724080   -6.783010
  C     10.526040  -13.542000   -8.174610
  N     10.652430  -13.389370   -9.303420
  C     10.681930  -12.596300   -6.003530
  N     10.851790  -11.643960   -5.386810
  Cl     6.307560  -18.544900   -6.322630
  H      2.702420    4.746270    2.115550
  H      4.297920    0.860620   -1.874880
  H      3.433730   -2.000570    0.273080
  H      6.455330   -0.565780   -2.435560
  H      4.859310   -5.208340    0.952210
  H      5.207350   -6.963870    0.916010
  H      3.693380   -5.401810   -1.236430
  H      2.968800   -6.495250   -0.054110
  H      4.059270   -7.133670   -1.289340
  H     11.027550   -4.367180   -3.899040
  H     11.354400   -6.113900   -3.954910
  H     12.103810   -4.192100   -1.685300
  H     13.227060   -4.903960   -2.846500
  H     12.419140   -5.928470   -1.653710
  H     11.170460   -7.832870   -2.492760
  H      8.940060   -8.848930   -0.655770
  H     10.344530  -10.706310   -0.267880
  H     12.403090  -10.855400   -3.742270
  H     10.242410  -10.378750   -3.230130
  H      9.670760  -12.671360   -3.263280
  H      8.887550  -12.002360   -1.835210
  H      9.927540  -14.099110   -1.159950
  H     10.895350  -12.807140   -0.471870
  H     12.418130  -14.351820   -1.382800
  H     13.656540  -12.578220   -2.093820
  H     12.039750  -15.688600   -3.132230
  H      9.628180  -15.453510   -2.860110
  H      9.747210  -15.955920   -9.185420

 Total Charge           Charge          ....    0
 Multiplicity           Mult            ....    1
 Number of Electrons    NEL             ....  502
 Basis Dimension        Dim             .... 1108

ORBITAL ENERGIES
----------------

  NO   OCC          E(Eh)            E(eV)
   0   2.0000    -101.624676     -2765.3480
   1   2.0000    -101.621829     -2765.2705
   2   2.0000     -89.000501     -2421.8268
   3   2.0000     -88.999155     -2421.7901
   4   2.0000     -19.278863      -524.6045
   5   2.0000     -19.266209      -524.2602
   6   2.0000     -19.231622      -523.3190
   7   2.0000     -19.228399      -523.2313
   8   2.0000     -19.218559      -522.9636
   9   2.0000     -19.200366      -522.4685
  10   2.0000     -19.188415      -522.1433
  11   2.0000     -19.178618      -521.8767
  12   2.0000     -14.449848      -393.2003
  13   2.0000     -14.443597      -393.0302
  14   2.0000     -14.435300      -392.8045
  15   2.0000     -14.426596      -392.5676
  16   2.0000     -14.426343      -392.5608
  17   2.0000     -14.425309      -392.5326
  18   2.0000     -14.419649      -392.3786
  19   2.0000     -14.413620      -392.2145
  20   2.0000     -10.417363      -283.4708
  21   2.0000     -10.399303      -282.9794
  22   2.0000     -10.387684      -282.6632
  23   2.0000     -10.385607      -282.6067
  24   2.0000     -10.384245      -282.5697
  25   2.0000     -10.381627      -282.4984
  26   2.0000     -10.371705      -282.2284
  27   2.0000     -10.362827      -281.9869
  28   2.0000     -10.358413      -281.8667
  29   2.0000     -10.358111      -281.8585
  30   2.0000     -10.357138      -281.8320
  31   2.0000     -10.354974      -281.7732
  32   2.0000     -10.354374      -281.7568
  33   2.0000     -10.352104      -281.6951
  34   2.0000     -10.343065      -281.4491
  35   2.0000     -10.340249      -281.3725
  36   2.0000     -10.339058      -281.3401
  37   2.0000     -10.336115      -281.2600
  38   2.0000     -10.335099      -281.2323
  39   2.0000     -10.335087      -281.2320
  40   2.0000     -10.335045      -281.2309
  41   2.0000     -10.331989      -281.1477
  42   2.0000     -10.330739      -281.1137
  43   2.0000     -10.328103      -281.0420
  44   2.0000     -10.327753      -281.0324
  45   2.0000     -10.327046      -281.0132
  46   2.0000     -10.325625      -280.9745
  47   2.0000     -10.325007      -280.9577
  48   2.0000     -10.320706      -280.8407
  49   2.0000     -10.319822      -280.8166
  50   2.0000     -10.318407      -280.7781
  51   2.0000     -10.315821      -280.7078
  52   2.0000     -10.313039      -280.6321
  53   2.0000     -10.309156      -280.5264
  54   2.0000     -10.305592      -280.4294
  55   2.0000     -10.304073      -280.3881
  56   2.0000     -10.303563      -280.3742
  57   2.0000     -10.297863      -280.2191
  58   2.0000     -10.294326      -280.1229
  59   2.0000     -10.293014      -280.0872
  60   2.0000     -10.292150      -280.0636
  61   2.0000     -10.288531      -279.9652
  62   2.0000     -10.284461      -279.8544
  63   2.0000     -10.282202      -279.7929
  64   2.0000     -10.263801      -279.2922
  65   2.0000     -10.256586      -279.0959
  66   2.0000     -10.253295      -279.0063
  67   2.0000     -10.245769      -278.8015
  68   2.0000      -9.579451      -260.6701
  69   2.0000      -9.576564      -260.5916
  70   2.0000      -8.096164      -220.3078
  71   2.0000      -8.094809      -220.2710
  72   2.0000      -7.350111      -200.0067
  73   2.0000      -7.347231      -199.9283
  74   2.0000      -7.339485      -199.7175
  75   2.0000      -7.338921      -199.7022
  76   2.0000      -7.336596      -199.6389
  77   2.0000      -7.336040      -199.6238
  78   2.0000      -6.065539      -165.0517
  79   2.0000      -6.064157      -165.0141
  80   2.0000      -6.060901      -164.9255
  81   2.0000      -6.059568      -164.8892
  82   2.0000      -6.058460      -164.8591
  83   2.0000      -6.057118      -164.8226
  84   2.0000      -1.218092       -33.1460
  85   2.0000      -1.200935       -32.6791
  86   2.0000      -1.149765       -31.2867
  87   2.0000      -1.145685       -31.1757
  88   2.0000      -1.129352       -30.7312
  89   2.0000      -1.127611       -30.6838
  90   2.0000      -1.118333       -30.4314
  91   2.0000      -1.109031       -30.1783
  92   2.0000      -1.095029       -29.7973
  93   2.0000      -1.059390       -28.8275
  94   2.0000      -1.046290       -28.4710
  95   2.0000      -1.045032       -28.4368
  96   2.0000      -1.043731       -28.4014
  97   2.0000      -1.028627       -27.9904
  98   2.0000      -1.022865       -27.8336
  99   2.0000      -1.009682       -27.4749
 100   2.0000      -1.004075       -27.3223
 101   2.0000      -0.996861       -27.1260
 102   2.0000      -0.994011       -27.0484
 103   2.0000      -0.988145       -26.8888
 104   2.0000      -0.967949       -26.3392
 105   2.0000      -0.961515       -26.1641
 106   2.0000      -0.958416       -26.0798
 107   2.0000      -0.937422       -25.5086
 108   2.0000      -0.933045       -25.3895
 109   2.0000      -0.921139       -25.0655
 110   2.0000      -0.917572       -24.9684
 111   2.0000      -0.910345       -24.7718
 112   2.0000      -0.906549       -24.6684
 113   2.0000      -0.880960       -23.9722
 114   2.0000      -0.872934       -23.7537
 115   2.0000      -0.865806       -23.5598
 116   2.0000      -0.860244       -23.4084
 117   2.0000      -0.846910       -23.0456
 118   2.0000      -0.840509       -22.8714
 119   2.0000      -0.838348       -22.8126
 120   2.0000      -0.823664       -22.4130
 121   2.0000      -0.817286       -22.2395
 122   2.0000      -0.810210       -22.0469
 123   2.0000      -0.789775       -21.4909
 124   2.0000      -0.780736       -21.2449
 125   2.0000      -0.766547       -20.8588
 126   2.0000      -0.760813       -20.7028
 127   2.0000      -0.758745       -20.6465
 128   2.0000      -0.756420       -20.5832
 129   2.0000      -0.749937       -20.4068
 130   2.0000      -0.748098       -20.3568
 131   2.0000      -0.731791       -19.9130
 132   2.0000      -0.721810       -19.6415
 133   2.0000      -0.709047       -19.2941
 134   2.0000      -0.698923       -19.0187
 135   2.0000      -0.698165       -18.9980
 136   2.0000      -0.694010       -18.8850
 137   2.0000      -0.686908       -18.6917
 138   2.0000      -0.684046       -18.6138
 139   2.0000      -0.682321       -18.5669
 140   2.0000      -0.674490       -18.3538
 141   2.0000      -0.666292       -18.1307
 142   2.0000      -0.654340       -17.8055
 143   2.0000      -0.649466       -17.6729
 144   2.0000      -0.644426       -17.5357
 145   2.0000      -0.641140       -17.4463
 146   2.0000      -0.632856       -17.2209
 147   2.0000      -0.629174       -17.1207
 148   2.0000      -0.624437       -16.9918
 149   2.0000      -0.622970       -16.9519
 150   2.0000      -0.621207       -16.9039
 151   2.0000      -0.613684       -16.6992
 152   2.0000      -0.610798       -16.6207
 153   2.0000      -0.608644       -16.5620
 154   2.0000      -0.593898       -16.1608
 155   2.0000      -0.584516       -15.9055
 156   2.0000      -0.583167       -15.8688
 157   2.0000      -0.580130       -15.7861
 158   2.0000      -0.578224       -15.7343
 159   2.0000      -0.570354       -15.5201
 160   2.0000      -0.563914       -15.3449
 161   2.0000      -0.560982       -15.2651
 162   2.0000      -0.558581       -15.1998
 163   2.0000      -0.556976       -15.1561
 164   2.0000      -0.553227       -15.0541
 165   2.0000      -0.550154       -14.9705
 166   2.0000      -0.548742       -14.9320
 167   2.0000      -0.544868       -14.8266
 168   2.0000      -0.541975       -14.7479
 169   2.0000      -0.541203       -14.7269
 170   2.0000      -0.538525       -14.6540
 171   2.0000      -0.535154       -14.5623
 172   2.0000      -0.531011       -14.4495
 173   2.0000      -0.530152       -14.4262
 174   2.0000      -0.527371       -14.3505
 175   2.0000      -0.524806       -14.2807
 176   2.0000      -0.523116       -14.2347
 177   2.0000      -0.520896       -14.1743
 178   2.0000      -0.517497       -14.0818
 179   2.0000      -0.516037       -14.0421
 180   2.0000      -0.513511       -13.9733
 181   2.0000      -0.511392       -13.9157
 182   2.0000      -0.510254       -13.8847
 183   2.0000      -0.509860       -13.8740
 184   2.0000      -0.507810       -13.8182
 185   2.0000      -0.502395       -13.6709
 186   2.0000      -0.501168       -13.6375
 187   2.0000      -0.500557       -13.6208
 188   2.0000      -0.496503       -13.5105
 189   2.0000      -0.495406       -13.4807
 190   2.0000      -0.493616       -13.4320
 191   2.0000      -0.491840       -13.3837
 192   2.0000      -0.489412       -13.3176
 193   2.0000      -0.487228       -13.2581
 194   2.0000      -0.485111       -13.2005
 195   2.0000      -0.476353       -12.9622
 196   2.0000      -0.471775       -12.8376
 197   2.0000      -0.464957       -12.6521
 198   2.0000      -0.464231       -12.6324
 199   2.0000      -0.463138       -12.6026
 200   2.0000      -0.461221       -12.5505
 201   2.0000      -0.457936       -12.4611
 202   2.0000      -0.456770       -12.4293
 203   2.0000      -0.454853       -12.3772
 204   2.0000      -0.454550       -12.3689
 205   2.0000      -0.452458       -12.3120
 206   2.0000      -0.451684       -12.2909
 207   2.0000      -0.451299       -12.2805
 208   2.0000      -0.450083       -12.2474
 209   2.0000      -0.449866       -12.2415
 210   2.0000      -0.447313       -12.1720
 211   2.0000      -0.445548       -12.1240
 212   2.0000      -0.441997       -12.0274
 213   2.0000      -0.439429       -11.9575
 214   2.0000      -0.439117       -11.9490
 215   2.0000      -0.437515       -11.9054
 216   2.0000      -0.437177       -11.8962
 217   2.0000      -0.432803       -11.7772
 218   2.0000      -0.428750       -11.6669
 219   2.0000      -0.426438       -11.6040
 220   2.0000      -0.426075       -11.5941
 221   2.0000      -0.423127       -11.5139
 222   2.0000      -0.417355       -11.3568
 223   2.0000      -0.416357       -11.3297
 224   2.0000      -0.415511       -11.3066
 225   2.0000      -0.411611       -11.2005
 226   2.0000      -0.409160       -11.1338
 227   2.0000      -0.408017       -11.1027
 228   2.0000      -0.407073       -11.0770
 229   2.0000      -0.406152       -11.0520
 230   2.0000      -0.397921       -10.8280
 231   2.0000      -0.385466       -10.4891
 232   2.0000      -0.383973       -10.4484
 233   2.0000      -0.379396       -10.3239
 234   2.0000      -0.370609       -10.0848
 235   2.0000      -0.363606        -9.8942
 236   2.0000      -0.358926        -9.7669
 237   2.0000      -0.354233        -9.6392
 238   2.0000      -0.353191        -9.6108
 239   2.0000      -0.350275        -9.5315
 240   2.0000      -0.342834        -9.3290
 241   2.0000      -0.341496        -9.2926
 242   2.0000      -0.338382        -9.2078
 243   2.0000      -0.333673        -9.0797
 244   2.0000      -0.328036        -8.9263
 245   2.0000      -0.326332        -8.8800
 246   2.0000      -0.317605        -8.6425
 247   2.0000      -0.315344        -8.5810
 248   2.0000      -0.309904        -8.4329
 249   2.0000      -0.307200        -8.3593
 250   2.0000      -0.241664        -6.5760
 251   0.0000      -0.103751        -2.8232
 252   0.0000      -0.090369        -2.4591
 253   0.0000      -0.068617        -1.8672
 254   0.0000      -0.054253        -1.4763
 255   0.0000      -0.053838        -1.4650

MULLIKEN ATOMIC CHARGES
-----------------------
   0 C :    0.031596
   1 C :   -0.127981
   2 S :    0.191722
   3 C :   -0.168778
   4 Cl:    0.003912
   5 C :    0.073676
   6 C :    0.143750
   7 O :   -0.123251
   8 C :   -0.100517
   9 C :    0.289748
  10 C :   -0.323216
  11 C :   -0.190862
  12 N :    0.161509
  13 C :   -0.196081
  14 N :    0.168560
  15 C :   -0.016085
  16 C :   -0.025374
  17 C :    0.121412
  18 N :   -0.065145
  19 C :   -0.176630
  20 N :   -0.002035
  21 C :    0.057799
  22 C :    0.186519
  23 N :   -0.254658
  24 C :    0.137573
  25 C :    0.003635
  26 C :    0.161214
  27 O :   -0.225866
  28 C :   -0.075074
  29 C :   -0.044399
  30 C :    0.148526
  31 O :   -0.146111
  32 N :   -0.263287
  33 C :    0.095071
  34 C :   -0.002994
  35 C :    0.130508
  36 C :    0.007769
  37 C :   -0.000287
  38 C :   -0.063224
  39 C :    0.174704
  40 O :   -0.154180
  41 O :   -0.260521
  42 C :    0.167200
  43 C :   -0.043939
  44 C :    0.069955
  45 C :    0.092100
  46 C :   -0.086572
  47 C :    0.160844
  48 O :   -0.242137
  49 C :    0.174674
  50 O :   -0.172834
  51 C :    0.007619
  52 C :   -0.069825
  53 C :   -0.096431
  54 C :    0.130340
  55 O :   -0.126921
  56 C :    0.086575
  57 C :   -0.165682
  58 S :    0.191338
  59 C :   -0.122772
  60 C :    0.019048
  61 C :    0.271771
  62 C :   -0.253887
  63 C :   -0.187016
  64 N :    0.164316
  65 C :   -0.158424
  66 N :    0.132776
  67 Cl:    0.004182
  68 H :    0.055064
  69 H :    0.041971
  70 H :    0.005390
  71 H :    0.015756
  72 H :    0.031212
  73 H :    0.029314
  74 H :    0.011208
  75 H :    0.013203
  76 H :    0.016858
  77 H :    0.044012
  78 H :    0.024430
  79 H :    0.028276
  80 H :    0.023226
  81 H :    0.030349
  82 H :   -0.013322
  83 H :    0.031604
  84 H :    0.035138
  85 H :    0.049956
  86 H :    0.031389
  87 H :    0.014303
  88 H :    0.021028
  89 H :    0.014727
  90 H :    0.008729
  91 H :    0.012165
  92 H :    0.033175
  93 H :    0.069195
  94 H :    0.034950
  95 H :    0.057750
Sum of atomic charges:   -0.0000000

LOEWDIN ATOMIC CHARGES
----------------------
   0 C :   -0.059543
   1 C :   -0.147575
   2 S :    0.480657
   3 C :   -0.270518
   4 Cl:    0.195341
   5 C :   -0.117770
   6 C :    0.081506
   7 O :   -0.122471
   8 C :   -0.081169
   9 C :    0.073213
  10 C :   -0.131145
  11 C :   -0.015498
  12 N :   -0.046712
  13 C :   -0.024722
  14 N :   -0.040111
  15 C :    0.076052
  16 C :   -0.089040
  17 C :    0.086587
  18 N :   -0.071337
  19 C :    0.032712
  20 N :   -0.049057
  21 C :    0.070324
  22 C :    0.040222
  23 N :    0.011922
  24 C :    0.035012
  25 C :   -0.061141
  26 C :    0.075955
  27 O :   -0.215755
  28 C :   -0.135324
  29 C :   -0.084720
  30 C :    0.088154
  31 O :   -0.154895
  32 N :   -0.003877
  33 C :    0.034864
  34 C :   -0.061375
  35 C :    0.101332
  36 C :   -0.049332
  37 C :    0.062356
  38 C :   -0.062109
  39 C :    0.073327
  40 O :   -0.151052
  41 O :   -0.068122
  42 C :    0.069163
  43 C :   -0.023260
  44 C :   -0.026420
  45 C :   -0.028089
  46 C :   -0.028018
  47 C :    0.076929
  48 O :   -0.047593
  49 C :    0.074931
  50 O :   -0.153673
  51 C :   -0.062684
  52 C :    0.064226
  53 C :   -0.073723
  54 C :    0.086462
  55 O :   -0.127701
  56 C :   -0.121043
  57 C :   -0.271209
  58 S :    0.482255
  59 C :   -0.149956
  60 C :   -0.052452
  61 C :    0.075598
  62 C :   -0.113692
  63 C :   -0.012695
  64 N :   -0.039031
  65 C :    0.002226
  66 N :   -0.050713
  67 Cl:    0.195863
  68 H :    0.038414
  69 H :    0.049615
  70 H :    0.027019
  71 H :    0.031711
  72 H :    0.024165
  73 H :    0.029292
  74 H :    0.018386
  75 H :    0.027456
  76 H :    0.025306
  77 H :    0.037450
  78 H :    0.023037
  79 H :    0.031902
  80 H :    0.031016
  81 H :    0.026829
  82 H :    0.028856
  83 H :    0.035780
  84 H :    0.047087
  85 H :    0.033587
  86 H :    0.036548
  87 H :    0.022583
  88 H :    0.035134
  89 H :    0.030400
  90 H :    0.026330
  91 H :    0.036329
  92 H :    0.034748
  93 H :    0.076545
  94 H :    0.043796
  95 H :    0.039811

  Mayer bond orders larger than 0.100000
B(  0-C ,  1-C ) :   1.5422 B(  0-C ,  5-C ) :   1.2204 B(  0-C ,  9-C ) :   1.0053
B(  1-C ,  2-S ) :   1.1643 B(  1-C , 68-H ) :   0.9541 B(  2-S ,  3-C ) :   1.1537
B(  3-C ,  4-Cl) :   1.1314 B(  3-C ,  5-C ) :   1.4761 B(  5-C ,  6-C ) :   0.9508
B(  6-C ,  7-O ) :   2.2424 B(  6-C ,  8-C ) :   0.9233 B(  8-C ,  9-C ) :   1.0443
B(  8-C , 15-C ) :   1.7125 B(  9-C , 10-C ) :   1.6732 B( 10-C , 11-C ) :   1.1421
B( 10-C , 13-C ) :   1.1376 B( 11-C , 12-N ) :   2.9930 B( 13-C , 14-N ) :   2.9840
B( 15-C , 16-C ) :   1.0476 B( 15-C , 69-H ) :   0.9453 B( 16-C , 17-C ) :   1.3047
B( 16-C , 21-C ) :   1.2814 B( 17-C , 18-N ) :   1.5698 B( 17-C , 70-H ) :   0.9816
B( 18-N , 19-C ) :   1.4850 B( 19-C , 20-N ) :   1.6300 B( 19-C , 22-C ) :   0.9935
B( 20-N , 21-C ) :   1.5940 B( 20-N , 22-C ) :  -0.1276 B( 21-C , 71-H ) :   0.9925
B( 22-C , 23-N ) :   1.1919 B( 22-C , 29-C ) :   1.4035 B( 23-N , 24-C ) :   0.9374
B( 23-N , 26-C ) :   1.0749 B( 24-C , 25-C ) :   1.1242 B( 24-C , 72-H ) :   0.9346
B( 24-C , 73-H ) :   0.9269 B( 25-C , 74-H ) :   0.9665 B( 25-C , 75-H ) :   0.9684
B( 25-C , 76-H ) :   0.9662 B( 26-C , 27-O ) :   2.0070 B( 26-C , 28-C ) :   0.9945
B( 27-O , 83-H ) :   0.1165 B( 28-C , 29-C ) :   1.2411 B( 28-C , 35-C ) :   1.3293
B( 29-C , 30-C ) :   0.9384 B( 30-C , 31-O ) :   2.1927 B( 30-C , 32-N ) :   1.0038
B( 32-N , 33-C ) :   0.9434 B( 32-N , 35-C ) :   1.1999 B( 33-C , 34-C ) :   1.1186
B( 33-C , 77-H ) :   0.9275 B( 33-C , 78-H ) :   0.9505 B( 34-C , 79-H ) :   0.9635
B( 34-C , 80-H ) :   0.9675 B( 34-C , 81-H ) :   0.9681 B( 35-C , 36-C ) :   1.1439
B( 36-C , 37-C ) :   1.7373 B( 36-C , 82-H ) :   0.9501 B( 37-C , 38-C ) :   1.0140
B( 37-C , 83-H ) :   0.9506 B( 38-C , 39-C ) :   0.8977 B( 38-C , 43-C ) :   0.9639
B( 38-C , 84-H ) :   0.8904 B( 39-C , 40-O ) :   2.2439 B( 39-C , 41-O ) :   1.1323
B( 41-O , 42-C ) :   0.9646 B( 42-C , 43-C ) :   1.0175 B( 42-C , 47-C ) :   0.9984
B( 42-C , 85-H ) :   0.9036 B( 43-C , 44-C ) :   1.0835 B( 43-C , 86-H ) :   0.8926
B( 44-C , 45-C ) :   1.0688 B( 44-C , 87-H ) :   0.9292 B( 44-C , 88-H ) :   0.9245
B( 45-C , 46-C ) :   1.1178 B( 45-C , 89-H ) :   0.9157 B( 45-C , 90-H ) :   0.9289
B( 46-C , 47-C ) :   1.0284 B( 46-C , 51-C ) :   0.9884 B( 46-C , 91-H ) :   0.8795
B( 47-C , 48-O ) :   0.9667 B( 47-C , 92-H ) :   0.9132 B( 48-O , 49-C ) :   1.1691
B( 49-C , 50-O ) :   2.1551 B( 49-C , 51-C ) :   0.9142 B( 51-C , 52-C ) :   1.0334
B( 51-C , 93-H ) :   0.8439 B( 52-C , 53-C ) :   1.8493 B( 52-C , 94-H ) :   0.9071
B( 53-C , 54-C ) :   0.9190 B( 53-C , 61-C ) :   0.9680 B( 54-C , 55-O ) :   2.2633
B( 54-C , 56-C ) :   0.9342 B( 56-C , 57-C ) :   1.4753 B( 56-C , 60-C ) :   1.2201
B( 57-C , 58-S ) :   1.1602 B( 57-C , 67-Cl) :   1.1335 B( 58-S , 59-C ) :   1.1586
B( 59-C , 60-C ) :   1.5531 B( 59-C , 95-H ) :   0.9572 B( 60-C , 61-C ) :   1.0225
B( 61-C , 62-C ) :   1.7178 B( 62-C , 63-C ) :   1.1308 B( 62-C , 65-C ) :   1.1482
B( 63-C , 64-N ) :   3.0096 B( 65-C , 66-N ) :   2.9237

-----------------------------------------------------------------------------
         ABSORPTION SPECTRUM VIA TRANSITION ELECTRIC DIPOLE MOMENTS
-----------------------------------------------------------------------------
State   Energy  Wavelength   fosc         T2         TX        TY        TZ
        (cm-1)    (nm)                  (au**2)     (au)      (au)      (au)
-----------------------------------------------------------------------------
   0   15614.2    640.4   0.595991044  12.56598  -2.21271   2.59858   0.95777
   1   22590.9    442.7   0.097734297   1.42426  -1.02965  -0.29559   0.52604
   2   22763.2    439.3   0.004835997   0.06994   0.23628   0.09254  -0.07450
   3   24375.2    410.3   0.017110214   0.23109  -0.16971   0.44650   0.05407
   4   26221.3    381.4   0.071643103   0.89949  -0.24774   0.91342   0.06140
   5   26572.9    376.3   0.002210744   0.02739   0.09255  -0.11245   0.07860
   6   27209.2    367.5   0.059200090   0.71628   0.58824  -0.59577   0.12372
   7   28239.9    354.1   0.005661693   0.06600  -0.04935  -0.25082  -0.02565
   8   29463.8    339.4   0.035745560   0.39940  -0.24174   0.26160  -0.52204
   9   30281.7    330.2   0.095784680   1.04134  -0.30753  -0.95566   0.18298
  10   31295.2    319.5   0.000610130   0.00642   0.05903   0.05319   0.01024
  11   31570.3    316.8   0.025667694   0.26766  -0.18156   0.47232   0.10774
  12   31686.5    315.6   0.022286132   0.23155  -0.06452  -0.37685  -0.29217
  13   32174.9    310.8   0.134365072   1.37482   0.36559  -1.10452   0.14560
  14   32321.1    309.4   0.175344737   1.78600   0.62230  -1.18145  -0.05399
  15   33157.6    301.6   0.027745928   0.27548  -0.22816   0.46376  -0.09139
  16   33397.3    299.4   0.069372946   0.68384   0.18739  -0.65308  -0.47138
  17   33695.8    296.8   0.001287896   0.01258  -0.08556  -0.05875   0.04256
  18   34541.3    289.5   0.045811972   0.43663  -0.21198  -0.61438   0.11929
  19   34610.6    288.9   0.026834464   0.25525   0.06077  -0.43774  -0.24482
  20   35180.6    284.2   0.354432439   3.31670  -0.47081   1.42387   1.03326
  21   35541.6    281.4   0.067252670   0.62294  -0.36236  -0.61793   0.33136
  22   35781.0    279.5   0.153018145   1.40788  -0.56217  -0.88686   0.55255
  23   36846.7    271.4   0.336104216   3.00297   0.05948   0.58059   1.63167
  24   37364.0    267.6   0.000237951   0.00210   0.00013  -0.03346   0.03126
  25   37409.8    267.3   0.132404475   1.16518   0.18934  -0.07532   1.06003
  26   37518.8    266.5   0.290846088   2.55205   0.35350  -0.83841   1.31307
  27   37919.8    263.7   0.135213150   1.17389   0.45816   0.83385  -0.51834
  28   38544.9    259.4   0.520548971   4.44601   1.27599   1.40270   0.92212
  29   38727.9    258.2   0.008997818   0.07649  -0.11766   0.19455   0.15747
  30   38905.0    257.0   0.123887853   1.04833   0.37681  -0.63208   0.71191
  31   39366.3    254.0   0.000652561   0.00546  -0.00109  -0.06079   0.04196
  32   39930.6    250.4   0.000269464   0.00222   0.03528   0.03088  -0.00487

FINAL SINGLE POINT ENERGY     -4598.380296217469

DIPOLE MOMENT
-------------
                                X             Y             Z
Electronic contribution:    -35.89867      15.33639      -2.05413
Nuclear contribution   :     35.58654     -17.98093       3.43287
                        -----------------------------------------
Total Dipole Moment    :     -0.31213      -2.64454       1.37874
                        -----------------------------------------
Magnitude (a.u.)       :      2.99866
Magnitude (Debye)      :      7.62198

Rotational constants in cm-1:     0.002025     0.000256     0.000248
Rotational constants in MHz :    60.701672     7.663695     7.420149

                             ****ORCA TERMINATED NORMALLY****
TOTAL RUN TIME: 0 days 0 hours 9 minutes 8 seconds 751 msec
