                         Program Version 4.2.0 -  RELEASE  -
|  1> # ORCA input file
|  2> # SCF done       -205.180882441707          0.000538988308
|  3> ! CAM-B3LYP def2-SVP def2/J RIJCOSX Grid4 TightSCF
|  4> %maxcore 5000
|  5> %tddft
|  6>     Mode sTDDFT
|  7>     Ethresh 5.0
|  8>     maxcore 5000
|  9> end
| 10>
| 11> %pal
| 12>   nprocs 6
| 13>   end
| 14> * xyz 0 1
| 15>    C        0.10138         1.97107        -5.49811
| 16>    C       -0.49409         2.48403        -6.61778
| 17>    C       -1.39763         1.76076        -7.42442
| 18>    N       -2.13845         1.21536        -8.10994
| 19>    C       -0.20614         3.76481        -7.13097
| 20>    N        0.03425         4.78188        -7.60733
| 21>    C        0.04102         0.59263        -5.04018
| 22>    C        1.13528         0.35534        -4.15461
| 23>    C        1.34260        -0.86980        -3.58762
| 24>    C        0.44858        -1.92429        -3.87916
| 25>    C       -0.65592        -1.68684        -4.74901
| 26>    C       -0.84496        -0.41086        -5.32591
| 27>    C       -1.54583        -2.74584        -5.02140
| 28>    C       -1.35459        -3.98159        -4.46607
| 29>    C       -0.26586        -4.21532        -3.61240
| 30>    C        0.61620        -3.20911        -3.32548
| 31>    C        1.90272         1.59811        -3.97738
| 32>    O        2.93030         1.77763        -3.36770
| 33>    C        1.09660         2.64253        -4.67958
| 34>    C        1.25794         3.94959        -4.38275
| 35>    C        0.37274         5.03541        -4.68067
| 36>    C       -0.99513         5.13765        -4.48735
| 37>    N       -1.89309         4.18136        -3.98222
| 38>    O       -3.03744         4.54508        -3.77634
| 39>    O       -1.49389         3.04359        -3.77380
| 40>    C       -1.42685         6.47669        -4.81236
| 41>    C       -0.34571         7.20352        -5.17134
| 42>    C        0.82430         6.36177        -5.10788
| 43>    C        2.09489         6.66819        -5.54651
| 44>    C        3.05266         5.74107        -6.05231
| 45>    C        4.01541         6.42743        -6.73604
| 46>    C        3.76000         7.82733        -6.62768
| 47>    N        4.59014         8.79989        -7.19855
| 48>    O        4.27208         9.98030        -7.10039
| 49>    O        5.58789         8.41686        -7.78466
| 50>    C        2.61776         8.02270        -5.83705
| 51>    C        2.17987         9.24412        -5.32460
| 52>    C        1.37115         9.42041        -4.22334
| 53>    C        0.87165        10.65219        -3.80310
| 54>    S       -0.00415        10.72335        -2.28537
| 55>    C       -0.37842        12.42333        -2.45441
| 56>    C        0.17168        12.88160        -3.65319
| 57>    C        0.88166        11.92178        -4.41078
| 58>    C        1.40869        12.48241        -5.60071
| 59>    C        1.12139        13.80471        -5.73244
| 60>    C        1.51256        14.70763        -6.84016
| 61>    S        0.16694        14.43478        -4.40433
| 62>    C       -1.14046        13.17248        -1.54742
| 63>    S       -1.66856        14.75850        -2.01710
| 64>    C       -2.52908        15.00133        -0.53009
| 65>    C       -2.37363        13.87636         0.32818
| 66>    C       -1.59726        12.83140        -0.25039
| 67>    C       -1.34266        11.66349         0.47722
| 68>    C       -1.85182        11.53021         1.75262
| 69>    C       -1.58616        10.35714         2.49841
| 70>    N       -1.35675         9.40332         3.08928
| 71>    C       -2.63310        12.56855         2.32770
| 72>    C       -3.13949        12.40665         3.64015
| 73>    N       -3.54957        12.27861         4.70143
| 74>    C       -2.88927        13.72648         1.62236
| 75>    C       -3.29591        16.11820        -0.19173
| 76>    C       -3.58988        17.24582        -0.92165
| 77>    C       -4.43625        18.34198        -0.49185
| 78>    C       -5.01288        18.51076         0.74220
| 79>    C       -5.82078        19.61377         1.09064
| 80>    N       -6.48477        20.48373         1.43656
| 81>    C       -4.87872        17.62848         1.83349
| 82>    N       -4.80568        16.94916         2.75744
| 83>    C       -4.56107        19.26392        -1.61700
| 84>    C       -3.77816        18.76708        -2.70000
| 85>    C       -3.14070        17.51225        -2.29112
| 86>    O       -2.38837        16.81972        -2.96152
| 87>    C       -3.70188        19.41757        -3.89794
| 88>    C       -4.42480        20.61836        -4.07488
| 89>    C       -5.21323        21.12112        -2.99959
| 90>    C       -5.26828        20.42634        -1.76826
| 91>    C       -5.93532        22.31622        -3.18889
| 92>    C       -5.88281        22.98431        -4.38269
| 93>    C       -5.10584        22.48893        -5.44001
| 94>    C       -4.39148        21.33087        -5.28929
| 95>    H        2.17693        -1.03319        -2.92161
| 96>    H       -1.69662        -0.24968        -5.96816
| 97>    H       -2.38115        -2.56110        -5.68057
| 98>    H       -2.04137        -4.78640        -4.68135
| 99>    H       -0.13051        -5.19642        -3.18235
|100>    H        1.45520        -3.38357        -2.66785
|101>    H        2.14731         4.20123        -3.81099
|102>    H       -2.45327         6.78675        -4.77554
|103>    H       -0.35098         8.20528        -5.55229
|104>    H        2.94996         4.67461        -6.01611
|105>    H        4.84014         6.01523        -7.28685
|106>    H        2.60359        10.11879        -5.79485
|107>    H        1.11433         8.56551        -3.61130
|108>    H        1.98227        11.94862        -6.33494
|109>    H        2.14740        14.18042        -7.54746
|110>    H        2.05121        15.57281        -6.45520
|111>    H        0.62911        15.07514        -7.36232
|112>    H       -0.74510        10.86803         0.06184
|113>    H       -3.47658        14.50202         2.09051
|114>    H       -3.73963        16.06114         0.79191
|115>    H       -3.10048        19.01940        -4.70171
|116>    H       -5.87633        20.83392        -0.97662
|117>    H       -6.53221        22.69440        -2.37213
|118>    H       -6.44059        23.89859        -4.51800
|119>    H       -5.07608        23.02840        -6.37468
|120>    H       -3.79176        20.94417        -6.10022
|121> *
|122>
|123>                          ****END OF INPUT****

CARTESIAN COORDINATES (ANGSTROEM)
---------------------------------
  C      0.101380    1.971070   -5.498110
  C     -0.494090    2.484030   -6.617780
  C     -1.397630    1.760760   -7.424420
  N     -2.138450    1.215360   -8.109940
  C     -0.206140    3.764810   -7.130970
  N      0.034250    4.781880   -7.607330
  C      0.041020    0.592630   -5.040180
  C      1.135280    0.355340   -4.154610
  C      1.342600   -0.869800   -3.587620
  C      0.448580   -1.924290   -3.879160
  C     -0.655920   -1.686840   -4.749010
  C     -0.844960   -0.410860   -5.325910
  C     -1.545830   -2.745840   -5.021400
  C     -1.354590   -3.981590   -4.466070
  C     -0.265860   -4.215320   -3.612400
  C      0.616200   -3.209110   -3.325480
  C      1.902720    1.598110   -3.977380
  O      2.930300    1.777630   -3.367700
  C      1.096600    2.642530   -4.679580
  C      1.257940    3.949590   -4.382750
  C      0.372740    5.035410   -4.680670
  C     -0.995130    5.137650   -4.487350
  N     -1.893090    4.181360   -3.982220
  O     -3.037440    4.545080   -3.776340
  O     -1.493890    3.043590   -3.773800
  C     -1.426850    6.476690   -4.812360
  C     -0.345710    7.203520   -5.171340
  C      0.824300    6.361770   -5.107880
  C      2.094890    6.668190   -5.546510
  C      3.052660    5.741070   -6.052310
  C      4.015410    6.427430   -6.736040
  C      3.760000    7.827330   -6.627680
  N      4.590140    8.799890   -7.198550
  O      4.272080    9.980300   -7.100390
  O      5.587890    8.416860   -7.784660
  C      2.617760    8.022700   -5.837050
  C      2.179870    9.244120   -5.324600
  C      1.371150    9.420410   -4.223340
  C      0.871650   10.652190   -3.803100
  S     -0.004150   10.723350   -2.285370
  C     -0.378420   12.423330   -2.454410
  C      0.171680   12.881600   -3.653190
  C      0.881660   11.921780   -4.410780
  C      1.408690   12.482410   -5.600710
  C      1.121390   13.804710   -5.732440
  C      1.512560   14.707630   -6.840160
  S      0.166940   14.434780   -4.404330
  C     -1.140460   13.172480   -1.547420
  S     -1.668560   14.758500   -2.017100
  C     -2.529080   15.001330   -0.530090
  C     -2.373630   13.876360    0.328180
  C     -1.597260   12.831400   -0.250390
  C     -1.342660   11.663490    0.477220
  C     -1.851820   11.530210    1.752620
  C     -1.586160   10.357140    2.498410
  N     -1.356750    9.403320    3.089280
  C     -2.633100   12.568550    2.327700
  C     -3.139490   12.406650    3.640150
  N     -3.549570   12.278610    4.701430
  C     -2.889270   13.726480    1.622360
  C     -3.295910   16.118200   -0.191730
  C     -3.589880   17.245820   -0.921650
  C     -4.436250   18.341980   -0.491850
  C     -5.012880   18.510760    0.742200
  C     -5.820780   19.613770    1.090640
  N     -6.484770   20.483730    1.436560
  C     -4.878720   17.628480    1.833490
  N     -4.805680   16.949160    2.757440
  C     -4.561070   19.263920   -1.617000
  C     -3.778160   18.767080   -2.700000
  C     -3.140700   17.512250   -2.291120
  O     -2.388370   16.819720   -2.961520
  C     -3.701880   19.417570   -3.897940
  C     -4.424800   20.618360   -4.074880
  C     -5.213230   21.121120   -2.999590
  C     -5.268280   20.426340   -1.768260
  C     -5.935320   22.316220   -3.188890
  C     -5.882810   22.984310   -4.382690
  C     -5.105840   22.488930   -5.440010
  C     -4.391480   21.330870   -5.289290
  H      2.176930   -1.033190   -2.921610
  H     -1.696620   -0.249680   -5.968160
  H     -2.381150   -2.561100   -5.680570
  H     -2.041370   -4.786400   -4.681350
  H     -0.130510   -5.196420   -3.182350
  H      1.455200   -3.383570   -2.667850
  H      2.147310    4.201230   -3.810990
  H     -2.453270    6.786750   -4.775540
  H     -0.350980    8.205280   -5.552290
  H      2.949960    4.674610   -6.016110
  H      4.840140    6.015230   -7.286850
  H      2.603590   10.118790   -5.794850
  H      1.114330    8.565510   -3.611300
  H      1.982270   11.948620   -6.334940
  H      2.147400   14.180420   -7.547460
  H      2.051210   15.572810   -6.455200
  H      0.629110   15.075140   -7.362320
  H     -0.745100   10.868030    0.061840
  H     -3.476580   14.502020    2.090510
  H     -3.739630   16.061140    0.791910
  H     -3.100480   19.019400   -4.701710
  H     -5.876330   20.833920   -0.976620
  H     -6.532210   22.694400   -2.372130
  H     -6.440590   23.898590   -4.518000
  H     -5.076080   23.028400   -6.374680
  H     -3.791760   20.944170   -6.100220

 Total Charge           Charge          ....    0
 Multiplicity           Mult            ....    1
 Number of Electrons    NEL             ....  556
 Basis Dimension        Dim             .... 1262

ORBITAL ENERGIES
----------------

  NO   OCC          E(Eh)            E(eV)
   0   2.0000     -89.004792     -2421.9435
   1   2.0000     -88.998991     -2421.7857
   2   2.0000     -88.983117     -2421.3537
   3   2.0000     -19.248635      -523.7820
   4   2.0000     -19.247952      -523.7634
   5   2.0000     -19.237753      -523.4859
   6   2.0000     -19.236678      -523.4566
   7   2.0000     -19.235377      -523.4212
   8   2.0000     -19.221399      -523.0409
   9   2.0000     -14.656028      -398.8108
  10   2.0000     -14.647023      -398.5658
  11   2.0000     -14.427963      -392.6048
  12   2.0000     -14.421319      -392.4240
  13   2.0000     -14.420405      -392.3992
  14   2.0000     -14.418522      -392.3479
  15   2.0000     -14.418458      -392.3462
  16   2.0000     -14.417123      -392.3098
  17   2.0000     -10.381865      -282.5049
  18   2.0000     -10.372085      -282.2388
  19   2.0000     -10.355731      -281.7938
  20   2.0000     -10.352140      -281.6961
  21   2.0000     -10.349924      -281.6358
  22   2.0000     -10.349293      -281.6186
  23   2.0000     -10.347161      -281.5606
  24   2.0000     -10.346861      -281.5524
  25   2.0000     -10.346179      -281.5339
  26   2.0000     -10.345348      -281.5112
  27   2.0000     -10.345055      -281.5032
  28   2.0000     -10.343189      -281.4525
  29   2.0000     -10.341577      -281.4086
  30   2.0000     -10.337492      -281.2974
  31   2.0000     -10.336262      -281.2640
  32   2.0000     -10.336139      -281.2606
  33   2.0000     -10.336119      -281.2601
  34   2.0000     -10.330970      -281.1200
  35   2.0000     -10.330940      -281.1192
  36   2.0000     -10.330744      -281.1138
  37   2.0000     -10.330573      -281.1092
  38   2.0000     -10.328708      -281.0584
  39   2.0000     -10.328622      -281.0561
  40   2.0000     -10.328338      -281.0484
  41   2.0000     -10.327750      -281.0324
  42   2.0000     -10.327588      -281.0279
  43   2.0000     -10.324848      -280.9534
  44   2.0000     -10.324313      -280.9388
  45   2.0000     -10.323872      -280.9268
  46   2.0000     -10.323429      -280.9148
  47   2.0000     -10.322028      -280.8767
  48   2.0000     -10.320519      -280.8356
  49   2.0000     -10.316396      -280.7234
  50   2.0000     -10.314132      -280.6618
  51   2.0000     -10.311408      -280.5877
  52   2.0000     -10.310350      -280.5589
  53   2.0000     -10.309205      -280.5277
  54   2.0000     -10.309095      -280.5247
  55   2.0000     -10.308438      -280.5069
  56   2.0000     -10.307093      -280.4703
  57   2.0000     -10.305968      -280.4396
  58   2.0000     -10.305606      -280.4298
  59   2.0000     -10.305565      -280.4287
  60   2.0000     -10.304777      -280.4072
  61   2.0000     -10.300293      -280.2852
  62   2.0000     -10.299935      -280.2755
  63   2.0000     -10.299764      -280.2708
  64   2.0000     -10.299536      -280.2646
  65   2.0000     -10.298785      -280.2442
  66   2.0000     -10.298715      -280.2423
  67   2.0000     -10.298056      -280.2243
  68   2.0000     -10.297268      -280.2029
  69   2.0000     -10.294485      -280.1272
  70   2.0000     -10.293936      -280.1122
  71   2.0000     -10.293470      -280.0996
  72   2.0000     -10.293335      -280.0959
  73   2.0000     -10.293001      -280.0868
  74   2.0000     -10.292803      -280.0814
  75   2.0000     -10.289140      -279.9817
  76   2.0000     -10.287959      -279.9496
  77   2.0000     -10.287472      -279.9363
  78   2.0000     -10.287197      -279.9289
  79   2.0000     -10.286600      -279.9126
  80   2.0000      -8.096834      -220.3260
  81   2.0000      -8.093530      -220.2361
  82   2.0000      -8.078764      -219.8344
  83   2.0000      -6.066115      -165.0674
  84   2.0000      -6.063033      -164.9835
  85   2.0000      -6.061330      -164.9372
  86   2.0000      -6.059735      -164.8938
  87   2.0000      -6.058782      -164.8678
  88   2.0000      -6.055410      -164.7761
  89   2.0000      -6.048468      -164.5872
  90   2.0000      -6.043941      -164.4640
  91   2.0000      -6.040230      -164.3630
  92   2.0000      -1.326339       -36.0915
  93   2.0000      -1.315296       -35.7910
  94   2.0000      -1.149842       -31.2888
  95   2.0000      -1.143400       -31.1135
  96   2.0000      -1.136326       -30.9210
  97   2.0000      -1.132058       -30.8049
  98   2.0000      -1.048915       -28.5424
  99   2.0000      -1.033785       -28.1307
 100   2.0000      -1.028090       -27.9757
 101   2.0000      -1.027499       -27.9597
 102   2.0000      -1.019905       -27.7530
 103   2.0000      -1.011661       -27.5287
 104   2.0000      -1.008979       -27.4557
 105   2.0000      -1.004255       -27.3272
 106   2.0000      -1.002263       -27.2730
 107   2.0000      -1.001668       -27.2568
 108   2.0000      -0.997802       -27.1516
 109   2.0000      -0.996979       -27.1292
 110   2.0000      -0.981839       -26.7172
 111   2.0000      -0.980518       -26.6812
 112   2.0000      -0.974297       -26.5120
 113   2.0000      -0.974220       -26.5099
 114   2.0000      -0.946963       -25.7682
 115   2.0000      -0.932455       -25.3734
 116   2.0000      -0.928212       -25.2579
 117   2.0000      -0.921920       -25.0867
 118   2.0000      -0.917747       -24.9732
 119   2.0000      -0.909466       -24.7478
 120   2.0000      -0.904880       -24.6230
 121   2.0000      -0.896331       -24.3904
 122   2.0000      -0.890168       -24.2227
 123   2.0000      -0.888495       -24.1772
 124   2.0000      -0.886391       -24.1199
 125   2.0000      -0.883883       -24.0517
 126   2.0000      -0.879424       -23.9303
 127   2.0000      -0.876690       -23.8559
 128   2.0000      -0.876044       -23.8384
 129   2.0000      -0.850177       -23.1345
 130   2.0000      -0.842944       -22.9377
 131   2.0000      -0.836941       -22.7743
 132   2.0000      -0.834569       -22.7098
 133   2.0000      -0.830637       -22.6028
 134   2.0000      -0.817108       -22.2346
 135   2.0000      -0.806305       -21.9407
 136   2.0000      -0.803889       -21.8749
 137   2.0000      -0.784771       -21.3547
 138   2.0000      -0.779988       -21.2245
 139   2.0000      -0.775670       -21.1071
 140   2.0000      -0.771975       -21.0065
 141   2.0000      -0.763309       -20.7707
 142   2.0000      -0.752537       -20.4776
 143   2.0000      -0.742570       -20.2064
 144   2.0000      -0.735408       -20.0115
 145   2.0000      -0.718783       -19.5591
 146   2.0000      -0.717750       -19.5310
 147   2.0000      -0.713468       -19.4144
 148   2.0000      -0.708452       -19.2780
 149   2.0000      -0.705607       -19.2005
 150   2.0000      -0.698656       -19.0114
 151   2.0000      -0.696379       -18.9494
 152   2.0000      -0.688276       -18.7290
 153   2.0000      -0.681375       -18.5412
 154   2.0000      -0.679287       -18.4843
 155   2.0000      -0.678087       -18.4517
 156   2.0000      -0.666350       -18.1323
 157   2.0000      -0.663245       -18.0478
 158   2.0000      -0.656044       -17.8519
 159   2.0000      -0.654769       -17.8172
 160   2.0000      -0.648901       -17.6575
 161   2.0000      -0.643014       -17.4973
 162   2.0000      -0.641442       -17.4545
 163   2.0000      -0.638834       -17.3836
 164   2.0000      -0.633345       -17.2342
 165   2.0000      -0.630588       -17.1592
 166   2.0000      -0.629021       -17.1165
 167   2.0000      -0.627561       -17.0768
 168   2.0000      -0.624856       -17.0032
 169   2.0000      -0.623836       -16.9754
 170   2.0000      -0.615010       -16.7353
 171   2.0000      -0.610085       -16.6012
 172   2.0000      -0.607018       -16.5178
 173   2.0000      -0.602189       -16.3864
 174   2.0000      -0.597842       -16.2681
 175   2.0000      -0.592489       -16.1224
 176   2.0000      -0.588472       -16.0132
 177   2.0000      -0.583700       -15.8833
 178   2.0000      -0.579866       -15.7790
 179   2.0000      -0.572696       -15.5839
 180   2.0000      -0.569532       -15.4978
 181   2.0000      -0.561121       -15.2689
 182   2.0000      -0.559311       -15.2196
 183   2.0000      -0.558136       -15.1877
 184   2.0000      -0.554926       -15.1003
 185   2.0000      -0.554540       -15.0898
 186   2.0000      -0.553368       -15.0579
 187   2.0000      -0.551459       -15.0060
 188   2.0000      -0.549096       -14.9416
 189   2.0000      -0.548337       -14.9210
 190   2.0000      -0.543773       -14.7968
 191   2.0000      -0.541986       -14.7482
 192   2.0000      -0.541177       -14.7262
 193   2.0000      -0.539792       -14.6885
 194   2.0000      -0.537460       -14.6250
 195   2.0000      -0.535435       -14.5699
 196   2.0000      -0.528212       -14.3734
 197   2.0000      -0.527065       -14.3422
 198   2.0000      -0.525928       -14.3112
 199   2.0000      -0.522691       -14.2231
 200   2.0000      -0.521734       -14.1971
 201   2.0000      -0.520282       -14.1576
 202   2.0000      -0.518281       -14.1032
 203   2.0000      -0.515501       -14.0275
 204   2.0000      -0.513061       -13.9611
 205   2.0000      -0.511855       -13.9283
 206   2.0000      -0.507576       -13.8118
 207   2.0000      -0.506470       -13.7817
 208   2.0000      -0.505499       -13.7553
 209   2.0000      -0.502383       -13.6705
 210   2.0000      -0.501512       -13.6468
 211   2.0000      -0.500396       -13.6165
 212   2.0000      -0.499260       -13.5855
 213   2.0000      -0.492207       -13.3936
 214   2.0000      -0.487479       -13.2650
 215   2.0000      -0.487235       -13.2583
 216   2.0000      -0.485830       -13.2201
 217   2.0000      -0.484683       -13.1889
 218   2.0000      -0.479623       -13.0512
 219   2.0000      -0.475643       -12.9429
 220   2.0000      -0.474423       -12.9097
 221   2.0000      -0.471476       -12.8295
 222   2.0000      -0.467349       -12.7172
 223   2.0000      -0.462010       -12.5719
 224   2.0000      -0.458352       -12.4724
 225   2.0000      -0.457014       -12.4360
 226   2.0000      -0.455583       -12.3970
 227   2.0000      -0.453375       -12.3370
 228   2.0000      -0.452183       -12.3045
 229   2.0000      -0.447937       -12.1890
 230   2.0000      -0.447596       -12.1797
 231   2.0000      -0.445689       -12.1278
 232   2.0000      -0.445234       -12.1154
 233   2.0000      -0.444319       -12.0905
 234   2.0000      -0.443656       -12.0725
 235   2.0000      -0.442729       -12.0473
 236   2.0000      -0.442216       -12.0333
 237   2.0000      -0.441727       -12.0200
 238   2.0000      -0.441035       -12.0012
 239   2.0000      -0.436559       -11.8794
 240   2.0000      -0.434814       -11.8319
 241   2.0000      -0.432820       -11.7776
 242   2.0000      -0.432709       -11.7746
 243   2.0000      -0.429332       -11.6827
 244   2.0000      -0.425748       -11.5852
 245   2.0000      -0.424579       -11.5534
 246   2.0000      -0.422683       -11.5018
 247   2.0000      -0.419303       -11.4098
 248   2.0000      -0.417492       -11.3605
 249   2.0000      -0.415393       -11.3034
 250   2.0000      -0.414086       -11.2679
 251   2.0000      -0.409096       -11.1321
 252   2.0000      -0.406816       -11.0700
 253   2.0000      -0.394775       -10.7424
 254   2.0000      -0.393238       -10.7006
 255   2.0000      -0.388843       -10.5810
 256   2.0000      -0.385677       -10.4948
 257   2.0000      -0.384195       -10.4545
 258   2.0000      -0.379299       -10.3212
 259   2.0000      -0.378150       -10.2900
 260   2.0000      -0.370271       -10.0756
 261   2.0000      -0.366728        -9.9792
 262   2.0000      -0.364561        -9.9202
 263   2.0000      -0.355580        -9.6758
 264   2.0000      -0.354869        -9.6565
 265   2.0000      -0.349561        -9.5120
 266   2.0000      -0.347824        -9.4648
 267   2.0000      -0.345313        -9.3964
 268   2.0000      -0.338877        -9.2213
 269   2.0000      -0.336408        -9.1541
 270   2.0000      -0.326680        -8.8894
 271   2.0000      -0.324771        -8.8375
 272   2.0000      -0.318089        -8.6556
 273   2.0000      -0.308385        -8.3916
 274   2.0000      -0.303850        -8.2682
 275   2.0000      -0.295447        -8.0395
 276   2.0000      -0.292050        -7.9471
 277   2.0000      -0.252791        -6.8788
 278   0.0000      -0.149325        -4.0633
 279   0.0000      -0.117574        -3.1994
 280   0.0000      -0.092400        -2.5143
 281   0.0000      -0.077337        -2.1044
 282   0.0000      -0.069862        -1.9010

MULLIKEN ATOMIC CHARGES
-----------------------
   0 C :    0.325881
   1 C :   -0.354646
   2 C :   -0.181023
   3 N :    0.161371
   4 C :   -0.188024
   5 N :    0.166731
   6 C :    0.039902
   7 C :    0.016326
   8 C :   -0.084185
   9 C :    0.097898
  10 C :    0.095078
  11 C :   -0.074251
  12 C :   -0.017847
  13 C :    0.036404
  14 C :    0.039174
  15 C :   -0.015731
  16 C :    0.135528
  17 O :   -0.132820
  18 C :   -0.085104
  19 C :   -0.048217
  20 C :   -0.007316
  21 C :    0.102260
  22 N :    0.269422
  23 O :   -0.231981
  24 O :   -0.251727
  25 C :    0.011380
  26 C :    0.013089
  27 C :    0.054637
  28 C :    0.041261
  29 C :   -0.006246
  30 C :    0.036339
  31 C :    0.076126
  32 N :    0.277308
  33 O :   -0.272613
  34 O :   -0.248173
  35 C :    0.051732
  36 C :   -0.068971
  37 C :    0.053109
  38 C :   -0.113997
  39 S :    0.148910
  40 C :   -0.111597
  41 C :   -0.082731
  42 C :    0.148913
  43 C :   -0.017905
  44 C :   -0.194185
  45 C :    0.113267
  46 S :    0.154952
  47 C :   -0.069982
  48 S :    0.213928
  49 C :   -0.058786
  50 C :    0.127735
  51 C :    0.109350
  52 C :   -0.059927
  53 C :   -0.070506
  54 C :   -0.181564
  55 N :    0.185203
  56 C :   -0.066254
  57 C :   -0.169954
  58 N :    0.195280
  59 C :   -0.062873
  60 C :   -0.024996
  61 C :   -0.099748
  62 C :    0.331000
  63 C :   -0.355990
  64 C :   -0.180425
  65 N :    0.150004
  66 C :   -0.179393
  67 N :    0.147185
  68 C :    0.043454
  69 C :    0.002895
  70 C :    0.171364
  71 O :   -0.199596
  72 C :   -0.082529
  73 C :    0.099989
  74 C :    0.096679
  75 C :   -0.083630
  76 C :   -0.019844
  77 C :    0.038029
  78 C :    0.037999
  79 C :   -0.016985
  80 H :   -0.009787
  81 H :   -0.002275
  82 H :   -0.008517
  83 H :   -0.002658
  84 H :   -0.004305
  85 H :   -0.015849
  86 H :    0.037616
  87 H :    0.002543
  88 H :    0.007771
  89 H :    0.004591
  90 H :    0.011787
  91 H :    0.019522
  92 H :    0.016320
  93 H :    0.008433
  94 H :    0.039933
  95 H :    0.044740
  96 H :    0.046036
  97 H :    0.006285
  98 H :    0.020728
  99 H :   -0.014888
 100 H :   -0.015871
 101 H :   -0.006352
 102 H :   -0.006777
 103 H :   -0.002276
 104 H :   -0.003257
 105 H :   -0.018308
Sum of atomic charges:   -0.0000000

LOEWDIN ATOMIC CHARGES
----------------------
   0 C :    0.079940
   1 C :   -0.135813
   2 C :   -0.018391
   3 N :   -0.045680
   4 C :   -0.017206
   5 N :   -0.052602
   6 C :   -0.017453
   7 C :   -0.055092
   8 C :    0.035026
   9 C :   -0.006896
  10 C :   -0.003346
  11 C :    0.025292
  12 C :   -0.004420
  13 C :   -0.011155
  14 C :   -0.010746
  15 C :   -0.008533
  16 C :    0.086101
  17 O :   -0.135738
  18 C :   -0.055693
  19 C :    0.044448
  20 C :   -0.006757
  21 C :   -0.023582
  22 N :    0.284897
  23 O :   -0.197501
  24 O :   -0.206155
  25 C :   -0.004181
  26 C :   -0.023527
  27 C :    0.027661
  28 C :    0.054193
  29 C :   -0.046662
  30 C :    0.045681
  31 C :   -0.064583
  32 N :    0.287605
  33 O :   -0.238376
  34 O :   -0.213388
  35 C :    0.022357
  36 C :   -0.017230
  37 C :   -0.002461
  38 C :   -0.161192
  39 S :    0.470352
  40 C :   -0.195523
  41 C :   -0.186549
  42 C :   -0.048518
  43 C :   -0.068331
  44 C :   -0.126930
  45 C :   -0.056610
  46 S :    0.425707
  47 C :   -0.168183
  48 S :    0.573349
  49 C :   -0.188464
  50 C :   -0.013247
  51 C :   -0.048323
  52 C :    0.022910
  53 C :   -0.047734
  54 C :   -0.033312
  55 N :   -0.027052
  56 C :   -0.036537
  57 C :   -0.031396
  58 N :   -0.018010
  59 C :    0.029955
  60 C :    0.045874
  61 C :   -0.103567
  62 C :    0.075915
  63 C :   -0.143090
  64 C :   -0.018190
  65 N :   -0.051064
  66 C :   -0.016182
  67 N :   -0.055701
  68 C :   -0.024568
  69 C :   -0.056366
  70 C :    0.086799
  71 O :   -0.181268
  72 C :    0.032658
  73 C :   -0.009095
  74 C :   -0.005372
  75 C :    0.021610
  76 C :   -0.004125
  77 C :   -0.010712
  78 C :   -0.010682
  79 C :   -0.009567
  80 H :    0.040151
  81 H :    0.040577
  82 H :    0.035222
  83 H :    0.033990
  84 H :    0.033348
  85 H :    0.032443
  86 H :    0.051365
  87 H :    0.038147
  88 H :    0.033427
  89 H :    0.032932
  90 H :    0.042475
  91 H :    0.036401
  92 H :    0.036793
  93 H :    0.038923
  94 H :    0.046526
  95 H :    0.044198
  96 H :    0.044911
  97 H :    0.028355
  98 H :    0.049246
  99 H :    0.047589
 100 H :    0.037997
 101 H :    0.040036
 102 H :    0.035770
 103 H :    0.034364
 104 H :    0.033621
 105 H :    0.031490

  Mayer bond orders larger than 0.100000
B(  0-C ,  1-C ) :   1.6713 B(  0-C ,  6-C ) :   1.0116 B(  0-C , 18-C ) :   0.9934
B(  1-C ,  2-C ) :   1.1334 B(  1-C ,  4-C ) :   1.1676 B(  2-C ,  3-N ) :   2.9937
B(  4-C ,  5-N ) :   2.9835 B(  6-C ,  7-C ) :   1.2133 B(  6-C , 11-C ) :   1.4542
B(  7-C ,  8-C ) :   1.4623 B(  7-C , 16-C ) :   0.9212 B(  8-C ,  9-C ) :   1.1897
B(  8-C , 80-H ) :   1.0163 B(  9-C , 10-C ) :   1.2535 B(  9-C , 15-C ) :   1.2424
B( 10-C , 11-C ) :   1.2075 B( 10-C , 12-C ) :   1.2385 B( 11-C , 81-H ) :   0.9939
B( 12-C , 13-C ) :   1.4913 B( 12-C , 82-H ) :   0.9979 B( 13-C , 14-C ) :   1.2586
B( 13-C , 83-H ) :   0.9883 B( 14-C , 15-C ) :   1.4917 B( 14-C , 84-H ) :   0.9882
B( 15-C , 85-H ) :   0.9977 B( 16-C , 17-O ) :   2.2881 B( 16-C , 18-C ) :   0.9234
B( 18-C , 19-C ) :   1.7808 B( 19-C , 20-C ) :   1.0069 B( 19-C , 86-H ) :   0.9271
B( 20-C , 21-C ) :   1.5556 B( 20-C , 27-C ) :   1.0733 B( 21-C , 22-N ) :   0.9417
B( 21-C , 25-C ) :   1.1311 B( 22-N , 23-O ) :   1.5428 B( 22-N , 24-O ) :   1.4876
B( 23-O , 24-O ) :   0.2640 B( 25-C , 26-C ) :   1.5988 B( 25-C , 87-H ) :   1.0094
B( 26-C , 27-C ) :   1.1109 B( 26-C , 88-H ) :   0.9914 B( 27-C , 28-C ) :   1.4774
B( 28-C , 29-C ) :   1.1815 B( 28-C , 35-C ) :   0.9792 B( 29-C , 30-C ) :   1.5116
B( 29-C , 89-H ) :   0.9951 B( 30-C , 31-C ) :   1.1576 B( 30-C , 90-H ) :   1.0113
B( 31-C , 32-N ) :   0.9727 B( 31-C , 35-C ) :   1.4273 B( 32-N , 33-O ) :   1.4726
B( 32-N , 34-O ) :   1.5348 B( 33-O , 34-O ) :   0.2476 B( 35-C , 36-C ) :   1.2900
B( 36-C , 37-C ) :   1.4497 B( 36-C , 91-H ) :   0.9498 B( 37-C , 38-C ) :   1.2520
B( 37-C , 92-H ) :   0.9445 B( 38-C , 39-S ) :   1.0982 B( 38-C , 42-C ) :   1.3023
B( 39-S , 40-C ) :   1.1272 B( 40-C , 41-C ) :   1.4102 B( 40-C , 47-C ) :   1.2648
B( 41-C , 42-C ) :   1.2868 B( 41-C , 46-S ) :   1.0802 B( 42-C , 43-C ) :   1.1594
B( 43-C , 44-C ) :   1.6511 B( 43-C , 93-H ) :   0.9949 B( 44-C , 45-C ) :   1.0705
B( 44-C , 46-S ) :   1.0786 B( 45-C , 94-H ) :   0.9555 B( 45-C , 95-H ) :   0.9463
B( 45-C , 96-H ) :   0.9463 B( 47-C , 48-S ) :   1.1551 B( 47-C , 51-C ) :   1.2213
B( 48-S , 49-C ) :   1.1124 B( 48-S , 71-O ) :   0.1046 B( 49-C , 50-C ) :   1.2060
B( 49-C , 60-C ) :   1.3147 B( 50-C , 51-C ) :   1.2449 B( 50-C , 59-C ) :   1.2312
B( 51-C , 52-C ) :   1.2222 B( 52-C , 53-C ) :   1.5426 B( 52-C , 97-H ) :   0.9801
B( 53-C , 54-C ) :   1.0763 B( 53-C , 56-C ) :   1.2845 B( 54-C , 55-N ) :   3.0464
B( 56-C , 57-C ) :   1.0866 B( 56-C , 59-C ) :   1.5265 B( 57-C , 58-N ) :   3.0426
B( 59-C , 98-H ) :   0.9853 B( 60-C , 61-C ) :   1.4865 B( 60-C , 99-H ) :   0.9282
B( 61-C , 62-C ) :   1.0832 B( 61-C , 70-C ) :   0.9862 B( 62-C , 63-C ) :   1.6165
B( 62-C , 68-C ) :   0.9831 B( 63-C , 64-C ) :   1.1489 B( 63-C , 66-C ) :   1.1492
B( 64-C , 65-N ) :   2.9608 B( 66-C , 67-N ) :   2.9682 B( 68-C , 69-C ) :   1.2131
B( 68-C , 75-C ) :   1.4579 B( 69-C , 70-C ) :   0.9692 B( 69-C , 72-C ) :   1.4670
B( 70-C , 71-O ) :   2.0866 B( 72-C , 73-C ) :   1.1739 B( 72-C ,100-H ) :   1.0170
B( 73-C , 74-C ) :   1.2575 B( 73-C , 79-C ) :   1.2457 B( 74-C , 75-C ) :   1.1992
B( 74-C , 76-C ) :   1.2431 B( 75-C ,101-H ) :   0.9898 B( 76-C , 77-C ) :   1.4849
B( 76-C ,102-H ) :   0.9976 B( 77-C , 78-C ) :   1.2636 B( 77-C ,103-H ) :   0.9887
B( 78-C , 79-C ) :   1.4845 B( 78-C ,104-H ) :   0.9888 B( 79-C ,105-H ) :   0.9979

-----------------------------------------------------------------------------
         ABSORPTION SPECTRUM VIA TRANSITION ELECTRIC DIPOLE MOMENTS
-----------------------------------------------------------------------------
State   Energy  Wavelength   fosc         T2         TX        TY        TZ
        (cm-1)    (nm)                  (au**2)     (au)      (au)      (au)
-----------------------------------------------------------------------------
   0    7650.4   1307.1   0.604727096  26.02276  -1.50934   4.53928   1.77190
   1   14752.8    677.8   0.589620212  13.15746   2.46148  -2.27316  -1.38972
   2   15212.5    657.4   0.172591996   3.73505  -1.11194   1.45501   0.61773
   3   17588.8    568.5   0.047727054   0.89331   0.58300  -0.60019  -0.43955
   4   18800.6    531.9   0.016613819   0.29092  -0.09478   0.45009  -0.28170
   5   21152.2    472.8   0.112600385   1.75251  -0.27054  -0.83413   0.99173
   6   21515.1    464.8   0.016724241   0.25590  -0.09742  -0.48441   0.10847
   7   22411.7    446.2   0.001334335   0.01960   0.05139   0.09662   0.08731
   8   22455.4    445.3   0.017714046   0.25970  -0.32900   0.36102  -0.14533
   9   23407.7    427.2   0.057904138   0.81438  -0.38159  -0.15151  -0.80362
  10   24210.2    413.0   0.025128218   0.34169   0.06293  -0.50267  -0.29164
  11   24614.3    406.3   0.002340026   0.03130  -0.06211   0.14328   0.08313
  12   24833.6    402.7   0.031091068   0.41217  -0.12915   0.57481   0.25510
  13   25277.3    395.6   0.059878799   0.77986  -0.14544   0.00095  -0.87104
  14   25459.8    392.8   0.016732651   0.21636   0.03253  -0.45233  -0.10345
  15   25569.2    391.1   0.228354155   2.94014   0.21775   1.52876  -0.74540
  16   26032.3    384.1   0.117682839   1.48825  -0.38524  -0.69093   0.92868
  17   26463.0    377.9   0.024251549   0.30170   0.34626  -0.29579   0.30710
  18   26621.9    375.6   0.004855215   0.06004   0.23933   0.00315  -0.05248
  19   26813.2    373.0   0.022084332   0.27115  -0.12654   0.50083   0.06564
  20   27353.4    365.6   0.136763096   1.64601  -0.43505  -1.09954   0.49776
  21   27863.0    358.9   0.048516243   0.57324   0.23701   0.66681  -0.26912
  22   28367.5    352.5   0.234630701   2.72295   1.40191   0.46538  -0.73554
  23   28857.9    346.5   0.143590179   1.63808  -0.92067   0.21317   0.86313
  24   28977.2    345.1   0.015091099   0.17145  -0.39244   0.04680   0.12349
  25   29466.8    339.4   0.235406952   2.63004  -0.30651  -1.10312   1.14857
  26   29751.7    336.1   0.196879855   2.17854   1.20907  -0.20223  -0.82207
  27   30028.2    333.0   0.026302687   0.28837  -0.02326   0.12394   0.52198
  28   30317.3    329.8   0.013029685   0.14149   0.11180   0.19333   0.30268
  29   30933.9    323.3   0.069428510   0.73889   0.51060   0.31986  -0.61308
  30   31024.8    322.3   0.272239634   2.88880  -0.15290   0.93086  -1.41383
  31   31276.6    319.7   0.064226686   0.67604  -0.10203  -0.81400   0.05510
  32   31428.5    318.2   0.030684240   0.32142  -0.42523   0.37325   0.03584
  33   31495.2    317.5   0.032396164   0.33863   0.45623   0.15301   0.32721
  34   31631.2    316.1   0.034514702   0.35922  -0.00240   0.57250  -0.17739
  35   31891.4    313.6   0.018905960   0.19516   0.33990   0.09306  -0.26641
  36   32061.4    311.9   0.098878034   1.01530  -0.58891   0.76103  -0.29886
  37   32241.2    310.2   0.075607099   0.77202  -0.17177   0.72178  -0.47069
  38   32325.0    309.4   0.048218272   0.49108  -0.19080   0.56522  -0.36769
  39   33056.0    302.5   0.083644495   0.83303   0.04417   0.91067   0.04192
  40   33327.0    300.1   0.360893141   3.56498   0.12454  -1.58519   1.01815
  41   33629.8    297.4   0.126278427   1.23618   0.01360   0.91295  -0.63444
  42   33770.1    296.1   0.087564329   0.85363  -0.63081   0.42395  -0.52533
  43   33791.4    295.9   0.018359701   0.17887  -0.23332   0.26566  -0.23206
  44   33893.0    295.0   0.206617933   2.00694  -0.26326  -0.82928   1.11800
  45   34640.3    288.7   0.065081173   0.61851   0.21634   0.63675   0.40774
  46   34669.3    288.4   0.041605304   0.39507  -0.03017  -0.46341   0.42357
  47   34869.5    286.8   0.092327806   0.87169   0.04972   0.60089  -0.71284
  48   34968.7    286.0   0.030196243   0.28428  -0.31242   0.41333  -0.12582
  49   35052.7    285.3   0.001928041   0.01811  -0.12092   0.00203   0.05902
  50   35242.2    283.8   0.007953873   0.07430   0.08451   0.25878   0.01374
  51   35373.7    282.7   0.024110702   0.22439  -0.40348   0.24634  -0.03016
  52   35784.5    279.5   0.219616469   2.02044  -0.45150   1.18138  -0.64878
  53   35953.0    278.1   0.303175733   2.77610  -0.13705  -1.26127   1.08006
  54   36192.0    276.3   0.063287057   0.57568  -0.03636   0.39213  -0.64853
  55   36492.8    274.0   0.066603387   0.60085   0.21091  -0.61415   0.42330
  56   36575.3    273.4   0.085255311   0.76738   0.50106   0.12624  -0.70737
  57   36730.4    272.3   0.407077406   3.64861  -0.22720  -1.49611   1.16561
  58   36879.7    271.2   0.030920911   0.27602  -0.26791   0.38373   0.23874
  59   37126.5    269.3   0.063337571   0.56163  -0.55252   0.32878   0.38505
  60   37573.7    266.1   0.087773720   0.76905  -0.29628  -0.66112   0.49416
  61   37658.8    265.5   0.043676209   0.38182  -0.05557   0.29449   0.54037
  62   37869.7    264.1   0.086368936   0.75083  -0.29996   0.20787   0.78590
  63   38262.2    261.4   0.075967427   0.65363   0.34465   0.34464  -0.64504
  64   38517.8    259.6   0.072617868   0.62067  -0.21961   0.61384  -0.44232
  65   38654.2    258.7   0.144273347   1.22876  -1.06896   0.05963   0.28727
  66   38871.2    257.3   0.136498827   1.15605   0.73065  -0.55247  -0.56300
  67   38995.8    256.4   0.108905459   0.91941  -0.15040  -0.94501   0.06123
  68   39434.0    253.6   0.019449296   0.16237  -0.04582  -0.39625  -0.05708
  69   39527.7    253.0   0.215309920   1.79324   0.78327  -0.09437  -1.08204
  70   39902.3    250.6   0.130702461   1.07836  -0.50735   0.74540  -0.51511
  71   39968.8    250.2   0.103247171   0.85042   0.45870   0.68723   0.40955
  72   40085.9    249.5   0.094615947   0.77705  -0.72242  -0.33166  -0.38099
  73   40159.2    249.0   0.484217995   3.96946   0.11951   1.45846  -1.35206

FINAL SINGLE POINT ENERGY     -4495.399056001210

DIPOLE MOMENT
-------------
                                X             Y             Z
Electronic contribution:     -1.74854       4.08859      22.49960
Nuclear contribution   :      2.51502      -2.44792     -25.83016
                        -----------------------------------------
Total Dipole Moment    :      0.76648       1.64067      -3.33056
                        -----------------------------------------
Magnitude (a.u.)       :      3.79103
Magnitude (Debye)      :      9.63603

Rotational constants in cm-1:     0.001342     0.000263     0.000241
Rotational constants in MHz :    40.225315     7.881769     7.217730

                             ****ORCA TERMINATED NORMALLY****
TOTAL RUN TIME: 0 days 0 hours 15 minutes 3 seconds 598 msec
