                         Program Version 4.2.0 -  RELEASE  -
|  1> # ORCA input file
|  2> # SCF done       -205.090832285864          0.000494460797
|  3> ! CAM-B3LYP def2-SVP def2/J RIJCOSX Grid4 TightSCF
|  4> %maxcore 5000
|  5> %tddft
|  6>     Mode sTDDFT
|  7>     Ethresh 5.0
|  8>     maxcore 5000
|  9> end
| 10>
| 11> %pal
| 12>   nprocs 6
| 13>   end
| 14> * xyz 0 1
| 15>    C        5.87228         5.14303        -0.12298
| 16>    C        6.33317         5.64669         1.06573
| 17>    C        7.67702         5.56191         1.48721
| 18>    N        8.75222         5.52877         1.88833
| 19>    C        5.54638         6.26756         2.05872
| 20>    N        4.97604         6.76180         2.92504
| 21>    C        6.67291         4.40275        -1.08918
| 22>    C        5.80075         3.86561        -2.07720
| 23>    C        6.26395         3.11049        -3.11564
| 24>    C        7.65099         2.86258        -3.22104
| 25>    C        8.53236         3.40745        -2.24307
| 26>    C        8.02162         4.17916        -1.17437
| 27>    C        9.91541         3.16243        -2.36359
| 28>    C       10.40619         2.41408        -3.39864
| 29>    C        9.53736         1.87639        -4.35992
| 30>    C        8.18920         2.09538        -4.27273
| 31>    C        4.41376         4.26799        -1.78498
| 32>    O        3.42843         3.92926        -2.40676
| 33>    C        4.49970         5.16696        -0.60697
| 34>    C        3.54477         6.00589        -0.10717
| 35>    C        2.18120         6.17000        -0.43216
| 36>    S        1.36555         7.52675         0.33431
| 37>    C       -0.13721         7.13937        -0.42563
| 38>    C        0.00435         5.99947        -1.22324
| 39>    C        1.29890         5.46269        -1.22341
| 40>    C       -1.06449         5.44192        -1.94922
| 41>    N       -1.93099         4.97621        -2.53810
| 42>    C       -1.31756         7.91232        -0.25383
| 43>    C       -1.33626         9.00265         0.53689
| 44>    N       -2.38587         9.86337         0.72421
| 45>    C       -3.58489         9.84374         0.02317
| 46>    O       -3.96643         8.96534        -0.70303
| 47>    C       -4.31573        11.15315         0.31649
| 48>    C       -3.46681        11.77503         1.38021
| 49>    C       -2.30672        11.00861         1.52814
| 50>    C       -1.28654        11.41488         2.36461
| 51>    C       -1.42821        12.61283         3.06373
| 52>    C       -2.59336        13.35663         2.92786
| 53>    C       -3.62130        12.94613         2.08933
| 54>    C       -0.32359        13.07030         3.96468
| 55>    C       -4.26250        12.01573        -0.97656
| 56>    C       -2.79545        12.32595        -1.20080
| 57>    O       -1.88882        11.54692        -1.39934
| 58>    N       -2.60590        13.67625        -1.03439
| 59>    C       -3.81889        14.32061        -0.74314
| 60>    C       -4.84822        13.37443        -0.76719
| 61>    C       -6.14728        13.76454        -0.52180
| 62>    C       -6.39849        15.09928        -0.24005
| 63>    C       -5.36876        16.03197        -0.16646
| 64>    C       -5.66547        17.45920         0.17417
| 65>    C       -4.05601        15.64092        -0.42045
| 66>    C       -1.33338        14.20135        -1.04765
| 67>    S       -0.01026        13.13212        -0.70603
| 68>    C        1.10844        14.45372        -0.81429
| 69>    C        2.54292        14.28875        -0.55953
| 70>    O        3.28792        15.22294        -0.40522
| 71>    O        2.99803        13.02687        -0.49266
| 72>    C        0.47062        15.64915        -1.12265
| 73>    C       -0.92528        15.48178        -1.27366
| 74>    C        1.18557        16.87816        -1.32590
| 75>    C        0.77470        18.12439        -0.99437
| 76>    C        1.56338        19.33260        -1.21688
| 77>    C        2.52822        19.48856        -2.17102
| 78>    C        3.25309        20.68397        -2.36486
| 79>    N        3.86688        21.63364        -2.55979
| 80>    C        2.86367        18.50796        -3.13168
| 81>    N        3.14334        17.78064        -3.97394
| 82>    C        1.06241        20.35866        -0.31628
| 83>    C       -0.10487        19.85989         0.33098
| 84>    C       -0.37777        18.48590        -0.12066
| 85>    O       -1.33328        17.80395         0.18758
| 86>    C       -0.80484        20.61287         1.23069
| 87>    C       -0.35646        21.91681         1.53524
| 88>    C        0.81625        22.41814         0.89862
| 89>    C        1.51711        21.61955        -0.03314
| 90>    C        1.25829        23.71845         1.21702
| 91>    C        0.57646        24.48817         2.11963
| 92>    C       -0.57842        23.99421         2.74497
| 93>    C       -1.03538        22.73669         2.45840
| 94>    H        5.58066         2.71060        -3.85015
| 95>    H        8.71493         4.58260        -0.45362
| 96>    H       10.57989         3.57747        -1.61997
| 97>    H       11.46721         2.23231        -3.48242
| 98>    H        9.94173         1.28843        -5.17031
| 99>    H        7.51555         1.68440        -5.01041
|100>    H        3.87708         6.70002         0.65664
|101>    H        1.58375         4.59134        -1.78500
|102>    H       -2.19213         7.60202        -0.80540
|103>    H       -0.44126         9.28265         1.07692
|104>    H       -5.35616        10.98000         0.59557
|105>    H       -0.38425        10.83677         2.48902
|106>    H       -2.70053        14.27807         3.47937
|107>    H       -4.51836        13.53805         1.99377
|108>    H       -0.48119        14.09644         4.28468
|109>    H        0.63781        13.00334         3.45913
|110>    H       -0.27733        12.43708         4.85036
|111>    H       -4.69476        11.44726        -1.80279
|112>    H       -6.95124        13.04489        -0.54029
|113>    H       -7.41209        15.41945        -0.05100
|114>    H       -6.37702        17.52095         0.99477
|115>    H       -6.10565        17.96330        -0.68617
|116>    H       -4.75565        17.98507         0.45023
|117>    H       -3.25666        16.35603        -0.32265
|118>    H        2.31672        12.36539        -0.67491
|119>    H       -1.57823        16.27211        -1.58498
|120>    H        2.18529        16.75637        -1.72422
|121>    H       -1.68886        20.21672         1.70854
|122>    H        2.40539        22.02096        -0.49476
|123>    H        2.14692        24.09452         0.73199
|124>    H        0.92337        25.48246         2.35731
|125>    H       -1.10342        24.61503         3.45536
|126>    H       -1.92366        22.35118         2.93735
|127> *
|128>
|129>                          ****END OF INPUT****

CARTESIAN COORDINATES (ANGSTROEM)
---------------------------------
  C      5.872280    5.143030   -0.122980
  C      6.333170    5.646690    1.065730
  C      7.677020    5.561910    1.487210
  N      8.752220    5.528770    1.888330
  C      5.546380    6.267560    2.058720
  N      4.976040    6.761800    2.925040
  C      6.672910    4.402750   -1.089180
  C      5.800750    3.865610   -2.077200
  C      6.263950    3.110490   -3.115640
  C      7.650990    2.862580   -3.221040
  C      8.532360    3.407450   -2.243070
  C      8.021620    4.179160   -1.174370
  C      9.915410    3.162430   -2.363590
  C     10.406190    2.414080   -3.398640
  C      9.537360    1.876390   -4.359920
  C      8.189200    2.095380   -4.272730
  C      4.413760    4.267990   -1.784980
  O      3.428430    3.929260   -2.406760
  C      4.499700    5.166960   -0.606970
  C      3.544770    6.005890   -0.107170
  C      2.181200    6.170000   -0.432160
  S      1.365550    7.526750    0.334310
  C     -0.137210    7.139370   -0.425630
  C      0.004350    5.999470   -1.223240
  C      1.298900    5.462690   -1.223410
  C     -1.064490    5.441920   -1.949220
  N     -1.930990    4.976210   -2.538100
  C     -1.317560    7.912320   -0.253830
  C     -1.336260    9.002650    0.536890
  N     -2.385870    9.863370    0.724210
  C     -3.584890    9.843740    0.023170
  O     -3.966430    8.965340   -0.703030
  C     -4.315730   11.153150    0.316490
  C     -3.466810   11.775030    1.380210
  C     -2.306720   11.008610    1.528140
  C     -1.286540   11.414880    2.364610
  C     -1.428210   12.612830    3.063730
  C     -2.593360   13.356630    2.927860
  C     -3.621300   12.946130    2.089330
  C     -0.323590   13.070300    3.964680
  C     -4.262500   12.015730   -0.976560
  C     -2.795450   12.325950   -1.200800
  O     -1.888820   11.546920   -1.399340
  N     -2.605900   13.676250   -1.034390
  C     -3.818890   14.320610   -0.743140
  C     -4.848220   13.374430   -0.767190
  C     -6.147280   13.764540   -0.521800
  C     -6.398490   15.099280   -0.240050
  C     -5.368760   16.031970   -0.166460
  C     -5.665470   17.459200    0.174170
  C     -4.056010   15.640920   -0.420450
  C     -1.333380   14.201350   -1.047650
  S     -0.010260   13.132120   -0.706030
  C      1.108440   14.453720   -0.814290
  C      2.542920   14.288750   -0.559530
  O      3.287920   15.222940   -0.405220
  O      2.998030   13.026870   -0.492660
  C      0.470620   15.649150   -1.122650
  C     -0.925280   15.481780   -1.273660
  C      1.185570   16.878160   -1.325900
  C      0.774700   18.124390   -0.994370
  C      1.563380   19.332600   -1.216880
  C      2.528220   19.488560   -2.171020
  C      3.253090   20.683970   -2.364860
  N      3.866880   21.633640   -2.559790
  C      2.863670   18.507960   -3.131680
  N      3.143340   17.780640   -3.973940
  C      1.062410   20.358660   -0.316280
  C     -0.104870   19.859890    0.330980
  C     -0.377770   18.485900   -0.120660
  O     -1.333280   17.803950    0.187580
  C     -0.804840   20.612870    1.230690
  C     -0.356460   21.916810    1.535240
  C      0.816250   22.418140    0.898620
  C      1.517110   21.619550   -0.033140
  C      1.258290   23.718450    1.217020
  C      0.576460   24.488170    2.119630
  C     -0.578420   23.994210    2.744970
  C     -1.035380   22.736690    2.458400
  H      5.580660    2.710600   -3.850150
  H      8.714930    4.582600   -0.453620
  H     10.579890    3.577470   -1.619970
  H     11.467210    2.232310   -3.482420
  H      9.941730    1.288430   -5.170310
  H      7.515550    1.684400   -5.010410
  H      3.877080    6.700020    0.656640
  H      1.583750    4.591340   -1.785000
  H     -2.192130    7.602020   -0.805400
  H     -0.441260    9.282650    1.076920
  H     -5.356160   10.980000    0.595570
  H     -0.384250   10.836770    2.489020
  H     -2.700530   14.278070    3.479370
  H     -4.518360   13.538050    1.993770
  H     -0.481190   14.096440    4.284680
  H      0.637810   13.003340    3.459130
  H     -0.277330   12.437080    4.850360
  H     -4.694760   11.447260   -1.802790
  H     -6.951240   13.044890   -0.540290
  H     -7.412090   15.419450   -0.051000
  H     -6.377020   17.520950    0.994770
  H     -6.105650   17.963300   -0.686170
  H     -4.755650   17.985070    0.450230
  H     -3.256660   16.356030   -0.322650
  H      2.316720   12.365390   -0.674910
  H     -1.578230   16.272110   -1.584980
  H      2.185290   16.756370   -1.724220
  H     -1.688860   20.216720    1.708540
  H      2.405390   22.020960   -0.494760
  H      2.146920   24.094520    0.731990
  H      0.923370   25.482460    2.357310
  H     -1.103420   24.615030    3.455360
  H     -1.923660   22.351180    2.937350

 Total Charge           Charge          ....    0
 Multiplicity           Mult            ....    1
 Number of Electrons    NEL             ....  546
 Basis Dimension        Dim             .... 1279

ORBITAL ENERGIES
----------------

  NO   OCC          E(Eh)            E(eV)
   0   2.0000     -88.988125     -2421.4900
   1   2.0000     -88.975681     -2421.1514
   2   2.0000     -19.267258      -524.2887
   3   2.0000     -19.231784      -523.3234
   4   2.0000     -19.229344      -523.2571
   5   2.0000     -19.219735      -522.9956
   6   2.0000     -19.216596      -522.9102
   7   2.0000     -19.206119      -522.6251
   8   2.0000     -14.496555      -394.4713
   9   2.0000     -14.486224      -394.1902
  10   2.0000     -14.418070      -392.3356
  11   2.0000     -14.414735      -392.2449
  12   2.0000     -14.413937      -392.2232
  13   2.0000     -14.410880      -392.1400
  14   2.0000     -14.399668      -391.8349
  15   2.0000     -10.415382      -283.4170
  16   2.0000     -10.408655      -283.2339
  17   2.0000     -10.399588      -282.9872
  18   2.0000     -10.380579      -282.4699
  19   2.0000     -10.367583      -282.1163
  20   2.0000     -10.364660      -282.0367
  21   2.0000     -10.346710      -281.5483
  22   2.0000     -10.342823      -281.4425
  23   2.0000     -10.341290      -281.4008
  24   2.0000     -10.338570      -281.3268
  25   2.0000     -10.338483      -281.3244
  26   2.0000     -10.337908      -281.3088
  27   2.0000     -10.337568      -281.2995
  28   2.0000     -10.333091      -281.1777
  29   2.0000     -10.324449      -280.9425
  30   2.0000     -10.321811      -280.8708
  31   2.0000     -10.320233      -280.8278
  32   2.0000     -10.320185      -280.8265
  33   2.0000     -10.319851      -280.8174
  34   2.0000     -10.319008      -280.7945
  35   2.0000     -10.317751      -280.7603
  36   2.0000     -10.317072      -280.7418
  37   2.0000     -10.316868      -280.7363
  38   2.0000     -10.313984      -280.6578
  39   2.0000     -10.313340      -280.6402
  40   2.0000     -10.311948      -280.6024
  41   2.0000     -10.308797      -280.5166
  42   2.0000     -10.306467      -280.4532
  43   2.0000     -10.305031      -280.4141
  44   2.0000     -10.304345      -280.3955
  45   2.0000     -10.303982      -280.3856
  46   2.0000     -10.302379      -280.3420
  47   2.0000     -10.300119      -280.2805
  48   2.0000     -10.299510      -280.2639
  49   2.0000     -10.299141      -280.2539
  50   2.0000     -10.298244      -280.2295
  51   2.0000     -10.296512      -280.1823
  52   2.0000     -10.296172      -280.1731
  53   2.0000     -10.295707      -280.1604
  54   2.0000     -10.295572      -280.1568
  55   2.0000     -10.294805      -280.1359
  56   2.0000     -10.294611      -280.1306
  57   2.0000     -10.294535      -280.1285
  58   2.0000     -10.294499      -280.1276
  59   2.0000     -10.293754      -280.1073
  60   2.0000     -10.293536      -280.1014
  61   2.0000     -10.292906      -280.0842
  62   2.0000     -10.292348      -280.0690
  63   2.0000     -10.291992      -280.0593
  64   2.0000     -10.291702      -280.0515
  65   2.0000     -10.291000      -280.0323
  66   2.0000     -10.289968      -280.0043
  67   2.0000     -10.288387      -279.9612
  68   2.0000     -10.287814      -279.9457
  69   2.0000     -10.285997      -279.8962
  70   2.0000     -10.285682      -279.8876
  71   2.0000     -10.283820      -279.8370
  72   2.0000     -10.283235      -279.8210
  73   2.0000     -10.283043      -279.8158
  74   2.0000     -10.282555      -279.8026
  75   2.0000     -10.282542      -279.8022
  76   2.0000     -10.277982      -279.6781
  77   2.0000     -10.275312      -279.6054
  78   2.0000     -10.273299      -279.5507
  79   2.0000      -8.082245      -219.9291
  80   2.0000      -8.071450      -219.6353
  81   2.0000      -6.051757      -164.6767
  82   2.0000      -6.047181      -164.5522
  83   2.0000      -6.044459      -164.4781
  84   2.0000      -6.040545      -164.3716
  85   2.0000      -6.036686      -164.2666
  86   2.0000      -6.033610      -164.1829
  87   2.0000      -1.190943       -32.4072
  88   2.0000      -1.181000       -32.1366
  89   2.0000      -1.160629       -31.5823
  90   2.0000      -1.143534       -31.1171
  91   2.0000      -1.131197       -30.7814
  92   2.0000      -1.104684       -30.0600
  93   2.0000      -1.097826       -29.8734
  94   2.0000      -1.088310       -29.6144
  95   2.0000      -1.021481       -27.7959
  96   2.0000      -1.016520       -27.6609
  97   2.0000      -1.012436       -27.5498
  98   2.0000      -1.011525       -27.5250
  99   2.0000      -1.002681       -27.2843
 100   2.0000      -0.996064       -27.1043
 101   2.0000      -0.994667       -27.0663
 102   2.0000      -0.990619       -26.9561
 103   2.0000      -0.980335       -26.6763
 104   2.0000      -0.978959       -26.6388
 105   2.0000      -0.976035       -26.5593
 106   2.0000      -0.968811       -26.3627
 107   2.0000      -0.967459       -26.3259
 108   2.0000      -0.944942       -25.7132
 109   2.0000      -0.931061       -25.3354
 110   2.0000      -0.926140       -25.2016
 111   2.0000      -0.918024       -24.9807
 112   2.0000      -0.910722       -24.7820
 113   2.0000      -0.903518       -24.5860
 114   2.0000      -0.890292       -24.2261
 115   2.0000      -0.887845       -24.1595
 116   2.0000      -0.884507       -24.0687
 117   2.0000      -0.878704       -23.9108
 118   2.0000      -0.876729       -23.8570
 119   2.0000      -0.863774       -23.5045
 120   2.0000      -0.861659       -23.4469
 121   2.0000      -0.858334       -23.3565
 122   2.0000      -0.855608       -23.2823
 123   2.0000      -0.847897       -23.0724
 124   2.0000      -0.841173       -22.8895
 125   2.0000      -0.834440       -22.7063
 126   2.0000      -0.833056       -22.6686
 127   2.0000      -0.825397       -22.4602
 128   2.0000      -0.813338       -22.1320
 129   2.0000      -0.793269       -21.5860
 130   2.0000      -0.789492       -21.4832
 131   2.0000      -0.775236       -21.0952
 132   2.0000      -0.768460       -20.9109
 133   2.0000      -0.767022       -20.8717
 134   2.0000      -0.763146       -20.7663
 135   2.0000      -0.759442       -20.6655
 136   2.0000      -0.740144       -20.1403
 137   2.0000      -0.739297       -20.1173
 138   2.0000      -0.728643       -19.8274
 139   2.0000      -0.724922       -19.7261
 140   2.0000      -0.714493       -19.4423
 141   2.0000      -0.711776       -19.3684
 142   2.0000      -0.708768       -19.2866
 143   2.0000      -0.702090       -19.1048
 144   2.0000      -0.699881       -19.0447
 145   2.0000      -0.698599       -19.0098
 146   2.0000      -0.693773       -18.8785
 147   2.0000      -0.690116       -18.7790
 148   2.0000      -0.682790       -18.5797
 149   2.0000      -0.677575       -18.4377
 150   2.0000      -0.676557       -18.4101
 151   2.0000      -0.673121       -18.3166
 152   2.0000      -0.661059       -17.9883
 153   2.0000      -0.648894       -17.6573
 154   2.0000      -0.642400       -17.4806
 155   2.0000      -0.638932       -17.3862
 156   2.0000      -0.636080       -17.3086
 157   2.0000      -0.632395       -17.2084
 158   2.0000      -0.626343       -17.0437
 159   2.0000      -0.622790       -16.9470
 160   2.0000      -0.620075       -16.8731
 161   2.0000      -0.612978       -16.6800
 162   2.0000      -0.612739       -16.6735
 163   2.0000      -0.606799       -16.5118
 164   2.0000      -0.604903       -16.4603
 165   2.0000      -0.603026       -16.4092
 166   2.0000      -0.595112       -16.1938
 167   2.0000      -0.589409       -16.0386
 168   2.0000      -0.579065       -15.7572
 169   2.0000      -0.575325       -15.6554
 170   2.0000      -0.570951       -15.5364
 171   2.0000      -0.565900       -15.3989
 172   2.0000      -0.565778       -15.3956
 173   2.0000      -0.561200       -15.2710
 174   2.0000      -0.559189       -15.2163
 175   2.0000      -0.554967       -15.1014
 176   2.0000      -0.553305       -15.0562
 177   2.0000      -0.550454       -14.9786
 178   2.0000      -0.548381       -14.9222
 179   2.0000      -0.547294       -14.8926
 180   2.0000      -0.543963       -14.8020
 181   2.0000      -0.542343       -14.7579
 182   2.0000      -0.541150       -14.7254
 183   2.0000      -0.539414       -14.6782
 184   2.0000      -0.538830       -14.6623
 185   2.0000      -0.535342       -14.5674
 186   2.0000      -0.534158       -14.5352
 187   2.0000      -0.531708       -14.4685
 188   2.0000      -0.528746       -14.3879
 189   2.0000      -0.528217       -14.3735
 190   2.0000      -0.525016       -14.2864
 191   2.0000      -0.523847       -14.2546
 192   2.0000      -0.521164       -14.1816
 193   2.0000      -0.518359       -14.1053
 194   2.0000      -0.517965       -14.0945
 195   2.0000      -0.514830       -14.0092
 196   2.0000      -0.514358       -13.9964
 197   2.0000      -0.512852       -13.9554
 198   2.0000      -0.511881       -13.9290
 199   2.0000      -0.510264       -13.8850
 200   2.0000      -0.505940       -13.7673
 201   2.0000      -0.504094       -13.7171
 202   2.0000      -0.502466       -13.6728
 203   2.0000      -0.501469       -13.6457
 204   2.0000      -0.496890       -13.5211
 205   2.0000      -0.494357       -13.4521
 206   2.0000      -0.493493       -13.4286
 207   2.0000      -0.492195       -13.3933
 208   2.0000      -0.491675       -13.3791
 209   2.0000      -0.489616       -13.3231
 210   2.0000      -0.483387       -13.1536
 211   2.0000      -0.482648       -13.1335
 212   2.0000      -0.479043       -13.0354
 213   2.0000      -0.473341       -12.8803
 214   2.0000      -0.472937       -12.8693
 215   2.0000      -0.471596       -12.8328
 216   2.0000      -0.469038       -12.7632
 217   2.0000      -0.465869       -12.6769
 218   2.0000      -0.465301       -12.6615
 219   2.0000      -0.464144       -12.6300
 220   2.0000      -0.462275       -12.5792
 221   2.0000      -0.453132       -12.3303
 222   2.0000      -0.451326       -12.2812
 223   2.0000      -0.450580       -12.2609
 224   2.0000      -0.449910       -12.2427
 225   2.0000      -0.446696       -12.1552
 226   2.0000      -0.446412       -12.1475
 227   2.0000      -0.443011       -12.0549
 228   2.0000      -0.442597       -12.0437
 229   2.0000      -0.439548       -11.9607
 230   2.0000      -0.438465       -11.9312
 231   2.0000      -0.437740       -11.9115
 232   2.0000      -0.437397       -11.9022
 233   2.0000      -0.436778       -11.8853
 234   2.0000      -0.435522       -11.8512
 235   2.0000      -0.434328       -11.8187
 236   2.0000      -0.430603       -11.7173
 237   2.0000      -0.430212       -11.7067
 238   2.0000      -0.427645       -11.6368
 239   2.0000      -0.427066       -11.6211
 240   2.0000      -0.426863       -11.6155
 241   2.0000      -0.423054       -11.5119
 242   2.0000      -0.422652       -11.5009
 243   2.0000      -0.417240       -11.3537
 244   2.0000      -0.416524       -11.3342
 245   2.0000      -0.412903       -11.2357
 246   2.0000      -0.407185       -11.0801
 247   2.0000      -0.405511       -11.0345
 248   2.0000      -0.404374       -11.0036
 249   2.0000      -0.402316       -10.9476
 250   2.0000      -0.399525       -10.8716
 251   2.0000      -0.385276       -10.4839
 252   2.0000      -0.384925       -10.4743
 253   2.0000      -0.372805       -10.1445
 254   2.0000      -0.372234       -10.1290
 255   2.0000      -0.369602       -10.0574
 256   2.0000      -0.358063        -9.7434
 257   2.0000      -0.355141        -9.6639
 258   2.0000      -0.349789        -9.5182
 259   2.0000      -0.346406        -9.4262
 260   2.0000      -0.340881        -9.2758
 261   2.0000      -0.338285        -9.2052
 262   2.0000      -0.334187        -9.0937
 263   2.0000      -0.331310        -9.0154
 264   2.0000      -0.327080        -8.9003
 265   2.0000      -0.323996        -8.8164
 266   2.0000      -0.315692        -8.5904
 267   2.0000      -0.313978        -8.5438
 268   2.0000      -0.307796        -8.3755
 269   2.0000      -0.297724        -8.1015
 270   2.0000      -0.291236        -7.9249
 271   2.0000      -0.286757        -7.8031
 272   2.0000      -0.263476        -7.1696
 273   0.0000      -0.094444        -2.5700
 274   0.0000      -0.093653        -2.5484
 275   0.0000      -0.064912        -1.7663
 276   0.0000      -0.056978        -1.5504
 277   0.0000      -0.039297        -1.0693

MULLIKEN ATOMIC CHARGES
-----------------------
   0 C :    0.307080
   1 C :   -0.354916
   2 C :   -0.180428
   3 N :    0.144918
   4 C :   -0.199775
   5 N :    0.156971
   6 C :    0.046530
   7 C :   -0.002413
   8 C :   -0.080064
   9 C :    0.097205
  10 C :    0.094285
  11 C :   -0.078906
  12 C :   -0.018932
  13 C :    0.035213
  14 C :    0.036344
  15 C :   -0.015259
  16 C :    0.160197
  17 O :   -0.153936
  18 C :   -0.089648
  19 C :    0.049413
  20 C :   -0.096444
  21 S :    0.112371
  22 C :   -0.021805
  23 C :   -0.091183
  24 C :    0.046520
  25 C :   -0.178146
  26 N :    0.137829
  27 C :   -0.003808
  28 C :    0.080033
  29 N :   -0.128629
  30 C :    0.159374
  31 O :   -0.162964
  32 C :    0.031435
  33 C :   -0.080386
  34 C :    0.221786
  35 C :   -0.140704
  36 C :   -0.037280
  37 C :   -0.013402
  38 C :    0.002485
  39 C :    0.092707
  40 C :    0.079359
  41 C :    0.124169
  42 O :   -0.207687
  43 N :   -0.143079
  44 C :    0.247028
  45 C :   -0.033202
  46 C :   -0.043502
  47 C :   -0.010464
  48 C :   -0.044074
  49 C :    0.084092
  50 C :   -0.127117
  51 C :    0.006695
  52 S :    0.153990
  53 C :   -0.204409
  54 C :    0.192071
  55 O :   -0.183068
  56 O :   -0.155402
  57 C :    0.068635
  58 C :    0.041958
  59 C :   -0.014571
  60 C :   -0.091683
  61 C :    0.283373
  62 C :   -0.319309
  63 C :   -0.182896
  64 N :    0.151903
  65 C :   -0.199810
  66 N :    0.167154
  67 C :    0.055851
  68 C :   -0.007208
  69 C :    0.157940
  70 O :   -0.153734
  71 C :   -0.079441
  72 C :    0.098219
  73 C :    0.095168
  74 C :   -0.077631
  75 C :   -0.017299
  76 C :    0.039018
  77 C :    0.033690
  78 C :   -0.014257
  79 H :   -0.011966
  80 H :   -0.007092
  81 H :   -0.009457
  82 H :   -0.004434
  83 H :   -0.005324
  84 H :   -0.016711
  85 H :    0.013107
  86 H :    0.028708
  87 H :    0.047252
  88 H :    0.015808
  89 H :    0.043146
  90 H :   -0.036181
  91 H :   -0.026998
  92 H :   -0.017479
  93 H :    0.014869
  94 H :    0.026939
  95 H :    0.037456
  96 H :    0.059605
  97 H :   -0.019488
  98 H :   -0.025232
  99 H :    0.024441
 100 H :    0.038164
 101 H :    0.021904
 102 H :   -0.028042
 103 H :    0.180332
 104 H :   -0.001242
 105 H :    0.058686
 106 H :   -0.017912
 107 H :   -0.004843
 108 H :   -0.007302
 109 H :   -0.002697
 110 H :   -0.002782
 111 H :   -0.019377
Sum of atomic charges:   -0.0000000

LOEWDIN ATOMIC CHARGES
----------------------
   0 C :    0.077890
   1 C :   -0.143325
   2 C :   -0.017070
   3 N :   -0.055185
   4 C :   -0.024854
   5 N :   -0.055476
   6 C :   -0.026421
   7 C :   -0.054762
   8 C :    0.032069
   9 C :   -0.008122
  10 C :   -0.006289
  11 C :    0.019841
  12 C :   -0.005404
  13 C :   -0.013626
  14 C :   -0.012351
  15 C :   -0.009509
  16 C :    0.087863
  17 O :   -0.141389
  18 C :   -0.092897
  19 C :    0.046236
  20 C :   -0.180113
  21 S :    0.448915
  22 C :   -0.106254
  23 C :   -0.116432
  24 C :    0.025401
  25 C :   -0.031940
  26 N :   -0.049553
  27 C :   -0.071415
  28 C :    0.058326
  29 N :    0.027956
  30 C :    0.097407
  31 O :   -0.144774
  32 C :   -0.015286
  33 C :   -0.060823
  34 C :    0.033418
  35 C :   -0.057756
  36 C :   -0.003561
  37 C :   -0.038766
  38 C :   -0.005502
  39 C :   -0.042908
  40 C :   -0.015144
  41 C :    0.090757
  42 O :   -0.184217
  43 N :    0.013127
  44 C :    0.041298
  45 C :   -0.048839
  46 C :   -0.013483
  47 C :   -0.035609
  48 C :   -0.006640
  49 C :   -0.044305
  50 C :   -0.047888
  51 C :   -0.109053
  52 S :    0.483255
  53 C :   -0.234545
  54 C :    0.067430
  55 O :   -0.157306
  56 O :   -0.028881
  57 C :   -0.034460
  58 C :   -0.047129
  59 C :    0.089909
  60 C :   -0.084041
  61 C :    0.075455
  62 C :   -0.125920
  63 C :   -0.016172
  64 N :   -0.047762
  65 C :   -0.025079
  66 N :   -0.040472
  67 C :   -0.023746
  68 C :   -0.057686
  69 C :    0.093324
  70 O :   -0.150074
  71 C :    0.032213
  72 C :   -0.009005
  73 C :   -0.004416
  74 C :    0.021563
  75 C :   -0.004120
  76 C :   -0.010742
  77 C :   -0.011700
  78 C :   -0.009723
  79 H :    0.039199
  80 H :    0.039114
  81 H :    0.034709
  82 H :    0.033204
  83 H :    0.032725
  84 H :    0.032081
  85 H :    0.042901
  86 H :    0.043461
  87 H :    0.048764
  88 H :    0.022726
  89 H :    0.050162
  90 H :    0.027193
  91 H :    0.027755
  92 H :    0.035062
  93 H :    0.031896
  94 H :    0.036164
  95 H :    0.041067
  96 H :    0.057355
  97 H :    0.032076
  98 H :    0.027788
  99 H :    0.034280
 100 H :    0.040804
 101 H :    0.033252
 102 H :    0.034648
 103 H :    0.078797
 104 H :    0.035773
 105 H :    0.051962
 106 H :    0.036644
 107 H :    0.040117
 108 H :    0.035731
 109 H :    0.034175
 110 H :    0.033519
 111 H :    0.031163

  Mayer bond orders larger than 0.100000
B(  0-C ,  1-C ) :   1.6270 B(  0-C ,  6-C ) :   0.9857 B(  0-C , 18-C ) :   1.0710
B(  1-C ,  2-C ) :   1.1477 B(  1-C ,  4-C ) :   1.1399 B(  2-C ,  3-N ) :   2.9680
B(  4-C ,  5-N ) :   2.9885 B(  6-C ,  7-C ) :   1.2149 B(  6-C , 11-C ) :   1.4524
B(  7-C ,  8-C ) :   1.4730 B(  7-C , 16-C ) :   0.9523 B(  8-C ,  9-C ) :   1.1794
B(  8-C , 79-H ) :   1.0155 B(  9-C , 10-C ) :   1.2556 B(  9-C , 15-C ) :   1.2450
B( 10-C , 11-C ) :   1.2075 B( 10-C , 12-C ) :   1.2406 B( 11-C , 80-H ) :   0.9894
B( 12-C , 13-C ) :   1.4901 B( 12-C , 81-H ) :   0.9967 B( 13-C , 14-C ) :   1.2602
B( 13-C , 82-H ) :   0.9885 B( 14-C , 15-C ) :   1.4891 B( 14-C , 83-H ) :   0.9883
B( 15-C , 84-H ) :   0.9972 B( 16-C , 17-O ) :   2.1746 B( 16-C , 18-C ) :   0.9386
B( 18-C , 19-C ) :   1.6053 B( 19-C , 20-C ) :   1.1985 B( 19-C , 85-H ) :   0.9160
B( 20-C , 21-S ) :   1.0836 B( 20-C , 24-C ) :   1.4531 B( 21-S , 22-C ) :   1.1530
B( 22-C , 23-C ) :   1.4187 B( 22-C , 27-C ) :   1.1700 B( 23-C , 24-C ) :   1.2823
B( 23-C , 25-C ) :   1.1044 B( 24-C , 86-H ) :   0.9813 B( 25-C , 26-N ) :   3.0267
B( 27-C , 28-C ) :   1.6631 B( 27-C , 87-H ) :   0.9520 B( 28-C , 29-N ) :   1.0924
B( 28-C , 88-H ) :   0.9712 B( 29-N , 30-C ) :   1.0465 B( 29-N , 34-C ) :   1.0011
B( 30-C , 31-O ) :   2.1653 B( 30-C , 32-C ) :   0.9358 B( 32-C , 33-C ) :   0.9522
B( 32-C , 40-C ) :   1.0242 B( 32-C , 89-H ) :   0.8842 B( 33-C , 34-C ) :   1.3484
B( 33-C , 38-C ) :   1.4519 B( 34-C , 35-C ) :   1.3585 B( 35-C , 36-C ) :   1.3327
B( 35-C , 90-H ) :   1.0113 B( 36-C , 37-C ) :   1.4134 B( 36-C , 39-C ) :   1.0510
B( 37-C , 38-C ) :   1.3398 B( 37-C , 91-H ) :   0.9935 B( 38-C , 92-H ) :   0.9963
B( 39-C , 93-H ) :   0.9606 B( 39-C , 94-H ) :   0.9571 B( 39-C , 95-H ) :   0.9544
B( 40-C , 41-C ) :   0.9071 B( 40-C , 45-C ) :   0.9944 B( 40-C , 96-H ) :   0.8762
B( 41-C , 42-O ) :   2.0492 B( 41-C , 43-N ) :   1.1113 B( 43-N , 44-C ) :   0.9794
B( 43-N , 51-C ) :   1.0248 B( 44-C , 45-C ) :   1.3717 B( 44-C , 50-C ) :   1.3547
B( 45-C , 46-C ) :   1.4168 B( 46-C , 47-C ) :   1.3478 B( 46-C , 97-H ) :   1.0094
B( 47-C , 48-C ) :   1.4015 B( 47-C , 98-H ) :   0.9958 B( 48-C , 49-C ) :   1.0524
B( 48-C , 50-C ) :   1.3401 B( 49-C , 99-H ) :   0.9583 B( 49-C ,100-H ) :   0.9539
B( 49-C ,101-H ) :   0.9597 B( 50-C ,102-H ) :   1.0053 B( 51-C , 52-S ) :   1.1623
B( 51-C , 58-C ) :   1.5259 B( 52-S , 53-C ) :   1.0918 B( 53-C , 54-C ) :   0.9561
B( 53-C , 57-C ) :   1.4862 B( 54-C , 55-O ) :   2.1082 B( 54-C , 56-O ) :   1.2500
B( 56-O ,103-H ) :   0.9474 B( 57-C , 58-C ) :   1.2506 B( 57-C , 59-C ) :   1.0937
B( 58-C ,104-H ) :   0.9938 B( 59-C , 60-C ) :   1.6830 B( 59-C ,105-H ) :   0.9232
B( 60-C , 61-C ) :   1.0225 B( 60-C , 69-C ) :   0.9340 B( 61-C , 62-C ) :   1.6809
B( 61-C , 67-C ) :   0.9991 B( 62-C , 63-C ) :   1.1385 B( 62-C , 65-C ) :   1.1307
B( 63-C , 64-N ) :   2.9746 B( 65-C , 66-N ) :   3.0065 B( 67-C , 68-C ) :   1.2119
B( 67-C , 74-C ) :   1.4478 B( 68-C , 69-C ) :   0.9556 B( 68-C , 71-C ) :   1.4625
B( 69-C , 70-O ) :   2.1681 B( 71-C , 72-C ) :   1.1854 B( 71-C ,106-H ) :   1.0164
B( 72-C , 73-C ) :   1.2565 B( 72-C , 78-C ) :   1.2412 B( 73-C , 74-C ) :   1.2059
B( 73-C , 75-C ) :   1.2376 B( 74-C ,107-H ) :   0.9927 B( 75-C , 76-C ) :   1.4906
B( 75-C ,108-H ) :   0.9985 B( 76-C , 77-C ) :   1.2585 B( 76-C ,109-H ) :   0.9885
B( 77-C , 78-C ) :   1.4899 B( 77-C ,110-H ) :   0.9892 B( 78-C ,111-H ) :   0.9982

-----------------------------------------------------------------------------
         ABSORPTION SPECTRUM VIA TRANSITION ELECTRIC DIPOLE MOMENTS
-----------------------------------------------------------------------------
State   Energy  Wavelength   fosc         T2         TX        TY        TZ
        (cm-1)    (nm)                  (au**2)     (au)      (au)      (au)
-----------------------------------------------------------------------------
   0   20944.1    477.5   1.170527056  18.39904  -3.68429   2.18207   0.25221
   1   25336.2    394.7   0.069663268   0.90519  -0.56292   0.75994  -0.10391
   2   26451.2    378.1   0.138113204   1.71896   0.13467   1.29874  -0.11876
   3   26685.7    374.7   0.077379259   0.95460   0.70973  -0.33328  -0.58294
   4   27244.7    367.0   0.074358285   0.89851   0.58009   0.61834  -0.42387
   5   28236.4    354.2   0.046980227   0.54775   0.35653  -0.43126  -0.48441
   6   28729.5    348.1   0.343089007   3.93146  -0.12706   1.76908   0.88638
   7   28774.8    347.5   0.052669586   0.60259   0.43363   0.60370  -0.22384
   8   29607.9    337.7   0.019300401   0.21460  -0.35078  -0.27616   0.12366
   9   29768.4    335.9   0.151508368   1.67555   0.11890  -0.77358  -1.03101
  10   30725.8    325.5   0.056715623   0.60768  -0.65595   0.30259   0.29299
  11   31791.2    314.6   0.120066027   1.24334   0.88353   0.33916  -0.58965
  12   32279.6    309.8   0.063697519   0.64963   0.51388   0.51387   0.34857
  13   32465.2    308.0   0.116484606   1.18121   0.53399   0.88229  -0.34297
  14   33510.4    298.4   0.109093519   1.07175  -0.28279   0.96800  -0.23402
  15   33762.0    296.2   0.394536920   3.84711  -0.60068   1.33004   1.31045
  16   33938.7    294.6   0.830843091   8.05934   1.62582  -1.50118  -1.77834
  17   34275.6    291.8   0.005449888   0.05235  -0.03482   0.20219  -0.10125
  18   34295.5    291.6   0.045998780   0.44156   0.35945   0.49943  -0.25083
  19   34348.6    291.1   0.947441834   9.08069  -0.67930   2.31818   1.80146
  20   34666.1    288.5   0.051961603   0.49346   0.05090  -0.52280  -0.46642
  21   35147.8    284.5   0.037481563   0.35107   0.19416   0.44671   0.33737
  22   35292.5    283.3   0.046491719   0.43368   0.52716  -0.02292  -0.39403
  23   35907.7    278.5   0.062323278   0.57140  -0.51125   0.37744   0.40934
  24   36207.1    276.2   0.000217817   0.00198   0.03526  -0.01989   0.01849
  25   36415.2    274.6   0.009893931   0.08945   0.18819   0.13857  -0.18663
  26   36948.0    270.7   0.022545559   0.20088   0.18792  -0.40487   0.04061
  27   37819.5    264.4   0.041672795   0.36275   0.43039  -0.23415  -0.35027
  28   37967.5    263.4   0.083844443   0.72701  -0.85071   0.03704  -0.04385
  29   38143.3    262.2   0.044207822   0.38155  -0.38130  -0.38900  -0.29127
  30   38438.5    260.2   0.060211146   0.51569   0.62922  -0.02105  -0.34543
  31   38777.5    257.9   0.087855154   0.74587  -0.37893  -0.26191  -0.73054
  32   38935.9    256.8   0.204408338   1.72832   1.07259   0.60217  -0.46396
  33   39065.7    256.0   0.009673137   0.08152  -0.21103  -0.18584   0.04947
  34   39672.1    252.1   0.069496445   0.57670  -0.62158   0.41901  -0.12155
  35   39982.4    250.1   0.074991325   0.61747  -0.41992  -0.29427  -0.59543
  36   40207.7    248.7   0.074339097   0.60867   0.53349   0.18838   0.53719

FINAL SINGLE POINT ENERGY     -4085.290393928938

DIPOLE MOMENT
-------------
                                X             Y             Z
Electronic contribution:     21.91637     -26.63413     -15.53281
Nuclear contribution   :    -25.05186      29.31688      17.08097
                        -----------------------------------------
Total Dipole Moment    :     -3.13549       2.68275       1.54815
                        -----------------------------------------
Magnitude (a.u.)       :      4.40740
Magnitude (Debye)      :     11.20273

Rotational constants in cm-1:     0.001130     0.000334     0.000282
Rotational constants in MHz :    33.872681    10.025466     8.458477

                             ****ORCA TERMINATED NORMALLY****
TOTAL RUN TIME: 0 days 0 hours 12 minutes 30 seconds 736 msec
