                         Program Version 4.2.0 -  RELEASE  -
|  1> # ORCA input file
|  2> # SCF done       -162.575529555831          0.000531053947
|  3> ! CAM-B3LYP def2-SVP def2/J RIJCOSX Grid4 TightSCF
|  4> %maxcore 5000
|  5> %tddft
|  6>     Mode sTDDFT
|  7>     Ethresh 5.0
|  8>     maxcore 5000
|  9> end
| 10>
| 11> %pal
| 12>   nprocs 6
| 13>   end
| 14> * xyz 0 1
| 15>    C       -0.90043        -8.57389        -4.53739
| 16>    O       -0.60072        -7.49613        -3.82929
| 17>    C       -0.39703        -7.88163        -2.54326
| 18>    C       -0.57920        -9.25659        -2.43315
| 19>    C       -0.90773        -9.70145        -3.75050
| 20>    C       -1.21923       -11.04977        -4.29420
| 21>    F       -1.48687       -10.99021        -5.60754
| 22>    F       -0.21344       -11.93392        -4.15958
| 23>    F       -2.29579       -11.62480        -3.72355
| 24>    O       -0.44324        -9.88286        -1.25578
| 25>    C       -0.55507       -11.29127        -1.18614
| 26>    C       -0.05682        -6.93704        -1.52555
| 27>    C        0.12428        -5.62936        -1.77697
| 28>    C        0.47686        -4.62042        -0.80769
| 29>    C        1.14284        -4.83979         0.36457
| 30>    F        1.52980        -6.02103         0.84803
| 31>    S        1.57640        -3.41241         1.24453
| 32>    C        0.82834        -2.47811        -0.00577
| 33>    F        0.80086        -1.14976         0.10535
| 34>    C        0.26809        -3.20607        -1.01550
| 35>    C       -0.45450        -2.59981        -2.10822
| 36>    C       -1.47687        -3.18646        -2.75676
| 37>    C       -2.17950        -2.62052        -3.85946
| 38>    C       -3.26311        -3.16864        -4.52572
| 39>    C       -3.91942        -4.46396        -4.16054
| 40>    C       -4.88115        -4.28371        -2.98419
| 41>    C       -3.70377        -2.35829        -5.57986
| 42>    C       -2.96944        -1.20597        -5.75225
| 43>    S       -1.70338        -1.10088        -4.56680
| 44>    C       -3.14538        -0.25019        -6.79476
| 45>    C       -2.35972         0.81999        -7.01224
| 46>    C       -2.49522         1.70723        -8.14468
| 47>    C       -2.19864         3.03778        -8.09781
| 48>    F       -1.75663         3.70153        -7.03009
| 49>    S       -2.49296         3.90606        -9.56784
| 50>    C       -3.01384         2.41901       -10.28458
| 51>    F       -3.36387         2.42202       -11.56906
| 52>    C       -2.96069         1.33014        -9.46036
| 53>    C       -3.22435        -0.03565        -9.82941
| 54>    C       -3.98004        -0.46799       -10.85657
| 55>    C       -4.21074        -1.87224       -11.03524
| 56>    O       -3.78881        -2.69773       -10.06626
| 57>    C       -4.13584        -3.96286       -10.38381
| 58>    C       -4.80323        -3.97290       -11.60482
| 59>    C       -4.85437        -2.61260       -12.02844
| 60>    C       -5.45409        -2.05480       -13.26928
| 61>    F       -5.31557        -0.73001       -13.38225
| 62>    F       -4.91595        -2.56991       -14.39488
| 63>    F       -6.78262        -2.28554       -13.36062
| 64>    O       -5.24759        -5.13566       -12.11040
| 65>    C       -5.89343        -5.19648       -13.36700
| 66>    C       -3.83534        -5.06086        -9.51127
| 67>    C       -3.21090        -4.94362        -8.34051
| 68>    H       -1.09290        -8.46050        -5.58600
| 69>    H       -0.37820       -11.53848        -0.14102
| 70>    H        0.19797       -11.78475        -1.80453
| 71>    H       -1.55337       -11.63100        -1.47064
| 72>    H        0.02994        -7.35570        -0.53555
| 73>    H        0.02016        -5.27397        -2.79231
| 74>    H       -0.16377        -1.58963        -2.36579
| 75>    H       -1.82841        -4.15521        -2.43166
| 76>    H       -3.16326        -5.20921        -3.90321
| 77>    H       -4.47420        -4.83163        -5.02590
| 78>    H       -4.35084        -3.92109        -2.10658
| 79>    H       -5.35654        -5.22992        -2.73736
| 80>    H       -5.65520        -3.56278        -3.23709
| 81>    H       -4.53298        -2.61553        -6.21623
| 82>    H       -3.98475        -0.44883        -7.44778
| 83>    H       -1.58290         1.06920        -6.30112
| 84>    H       -2.75598        -0.77188        -9.19217
| 85>    H       -4.45512         0.21533       -11.53878
| 86>    H       -6.13856        -6.24845       -13.50423
| 87>    H       -5.23384        -4.87463       -14.17528
| 88>    H       -6.81488        -4.61145       -13.37862
| 89>    H       -4.16992        -6.01785        -9.88351
| 90>    H       -2.87917        -3.98828        -7.97090
| 91>    H       -3.01419        -5.80055        -7.72190
| 92> *
| 93>
| 94>                          ****END OF INPUT****

CARTESIAN COORDINATES (ANGSTROEM)
---------------------------------
  C     -0.900430   -8.573890   -4.537390
  O     -0.600720   -7.496130   -3.829290
  C     -0.397030   -7.881630   -2.543260
  C     -0.579200   -9.256590   -2.433150
  C     -0.907730   -9.701450   -3.750500
  C     -1.219230  -11.049770   -4.294200
  F     -1.486870  -10.990210   -5.607540
  F     -0.213440  -11.933920   -4.159580
  F     -2.295790  -11.624800   -3.723550
  O     -0.443240   -9.882860   -1.255780
  C     -0.555070  -11.291270   -1.186140
  C     -0.056820   -6.937040   -1.525550
  C      0.124280   -5.629360   -1.776970
  C      0.476860   -4.620420   -0.807690
  C      1.142840   -4.839790    0.364570
  F      1.529800   -6.021030    0.848030
  S      1.576400   -3.412410    1.244530
  C      0.828340   -2.478110   -0.005770
  F      0.800860   -1.149760    0.105350
  C      0.268090   -3.206070   -1.015500
  C     -0.454500   -2.599810   -2.108220
  C     -1.476870   -3.186460   -2.756760
  C     -2.179500   -2.620520   -3.859460
  C     -3.263110   -3.168640   -4.525720
  C     -3.919420   -4.463960   -4.160540
  C     -4.881150   -4.283710   -2.984190
  C     -3.703770   -2.358290   -5.579860
  C     -2.969440   -1.205970   -5.752250
  S     -1.703380   -1.100880   -4.566800
  C     -3.145380   -0.250190   -6.794760
  C     -2.359720    0.819990   -7.012240
  C     -2.495220    1.707230   -8.144680
  C     -2.198640    3.037780   -8.097810
  F     -1.756630    3.701530   -7.030090
  S     -2.492960    3.906060   -9.567840
  C     -3.013840    2.419010  -10.284580
  F     -3.363870    2.422020  -11.569060
  C     -2.960690    1.330140   -9.460360
  C     -3.224350   -0.035650   -9.829410
  C     -3.980040   -0.467990  -10.856570
  C     -4.210740   -1.872240  -11.035240
  O     -3.788810   -2.697730  -10.066260
  C     -4.135840   -3.962860  -10.383810
  C     -4.803230   -3.972900  -11.604820
  C     -4.854370   -2.612600  -12.028440
  C     -5.454090   -2.054800  -13.269280
  F     -5.315570   -0.730010  -13.382250
  F     -4.915950   -2.569910  -14.394880
  F     -6.782620   -2.285540  -13.360620
  O     -5.247590   -5.135660  -12.110400
  C     -5.893430   -5.196480  -13.367000
  C     -3.835340   -5.060860   -9.511270
  C     -3.210900   -4.943620   -8.340510
  H     -1.092900   -8.460500   -5.586000
  H     -0.378200  -11.538480   -0.141020
  H      0.197970  -11.784750   -1.804530
  H     -1.553370  -11.631000   -1.470640
  H      0.029940   -7.355700   -0.535550
  H      0.020160   -5.273970   -2.792310
  H     -0.163770   -1.589630   -2.365790
  H     -1.828410   -4.155210   -2.431660
  H     -3.163260   -5.209210   -3.903210
  H     -4.474200   -4.831630   -5.025900
  H     -4.350840   -3.921090   -2.106580
  H     -5.356540   -5.229920   -2.737360
  H     -5.655200   -3.562780   -3.237090
  H     -4.532980   -2.615530   -6.216230
  H     -3.984750   -0.448830   -7.447780
  H     -1.582900    1.069200   -6.301120
  H     -2.755980   -0.771880   -9.192170
  H     -4.455120    0.215330  -11.538780
  H     -6.138560   -6.248450  -13.504230
  H     -5.233840   -4.874630  -14.175280
  H     -6.814880   -4.611450  -13.378620
  H     -4.169920   -6.017850   -9.883510
  H     -2.879170   -3.988280   -7.970900
  H     -3.014190   -5.800550   -7.721900

 Total Charge           Charge          ....    0
 Multiplicity           Mult            ....    1
 Number of Electrons    NEL             ....  410
 Basis Dimension        Dim             ....  874

ORBITAL ENERGIES
----------------

  NO   OCC          E(Eh)            E(eV)
   0   2.0000     -88.976415     -2421.1713
   1   2.0000     -88.970684     -2421.0154
   2   2.0000     -88.946479     -2420.3567
   3   2.0000     -24.806668      -675.0238
   4   2.0000     -24.804392      -674.9618
   5   2.0000     -24.803521      -674.9381
   6   2.0000     -24.801907      -674.8942
   7   2.0000     -24.801199      -674.8749
   8   2.0000     -24.800943      -674.8680
   9   2.0000     -24.800085      -674.8446
  10   2.0000     -24.798331      -674.7969
  11   2.0000     -24.797093      -674.7632
  12   2.0000     -24.796598      -674.7497
  13   2.0000     -19.305408      -525.3269
  14   2.0000     -19.296298      -525.0790
  15   2.0000     -19.256969      -524.0088
  16   2.0000     -19.253541      -523.9155
  17   2.0000     -10.525791      -286.4213
  18   2.0000     -10.523374      -286.3556
  19   2.0000     -10.381975      -282.5079
  20   2.0000     -10.378275      -282.4072
  21   2.0000     -10.374067      -282.2927
  22   2.0000     -10.373737      -282.2837
  23   2.0000     -10.349606      -281.6271
  24   2.0000     -10.346961      -281.5551
  25   2.0000     -10.345843      -281.5247
  26   2.0000     -10.342723      -281.4398
  27   2.0000     -10.324415      -280.9416
  28   2.0000     -10.324232      -280.9366
  29   2.0000     -10.320724      -280.8412
  30   2.0000     -10.320242      -280.8281
  31   2.0000     -10.298056      -280.2244
  32   2.0000     -10.295982      -280.1679
  33   2.0000     -10.295841      -280.1641
  34   2.0000     -10.292154      -280.0638
  35   2.0000     -10.291855      -280.0556
  36   2.0000     -10.290551      -280.0201
  37   2.0000     -10.286611      -279.9129
  38   2.0000     -10.285779      -279.8903
  39   2.0000     -10.285192      -279.8743
  40   2.0000     -10.282509      -279.8013
  41   2.0000     -10.282466      -279.8001
  42   2.0000     -10.280725      -279.7528
  43   2.0000     -10.278922      -279.7037
  44   2.0000     -10.278021      -279.6792
  45   2.0000     -10.277812      -279.6735
  46   2.0000     -10.275154      -279.6011
  47   2.0000     -10.274168      -279.5743
  48   2.0000     -10.272214      -279.5212
  49   2.0000     -10.268311      -279.4150
  50   2.0000     -10.267137      -279.3830
  51   2.0000     -10.258878      -279.1583
  52   2.0000     -10.254835      -279.0482
  53   2.0000      -8.073496      -219.6910
  54   2.0000      -8.067895      -219.5386
  55   2.0000      -8.041947      -218.8325
  56   2.0000      -6.042650      -164.4289
  57   2.0000      -6.039092      -164.3320
  58   2.0000      -6.037098      -164.2778
  59   2.0000      -6.034913      -164.2183
  60   2.0000      -6.033494      -164.1797
  61   2.0000      -6.029232      -164.0637
  62   2.0000      -6.011079      -163.5698
  63   2.0000      -6.007274      -163.4662
  64   2.0000      -6.004123      -163.3805
  65   2.0000      -1.392087       -37.8806
  66   2.0000      -1.390236       -37.8302
  67   2.0000      -1.322128       -35.9769
  68   2.0000      -1.317134       -35.8410
  69   2.0000      -1.314844       -35.7787
  70   2.0000      -1.313290       -35.7364
  71   2.0000      -1.294921       -35.2366
  72   2.0000      -1.293658       -35.2022
  73   2.0000      -1.291942       -35.1555
  74   2.0000      -1.287078       -35.0232
  75   2.0000      -1.226651       -33.3789
  76   2.0000      -1.219533       -33.1852
  77   2.0000      -1.160332       -31.5742
  78   2.0000      -1.155551       -31.4441
  79   2.0000      -0.996848       -27.1256
  80   2.0000      -0.991455       -26.9789
  81   2.0000      -0.980081       -26.6694
  82   2.0000      -0.924113       -25.1464
  83   2.0000      -0.922537       -25.1035
  84   2.0000      -0.916065       -24.9274
  85   2.0000      -0.911875       -24.8134
  86   2.0000      -0.907543       -24.6955
  87   2.0000      -0.894663       -24.3450
  88   2.0000      -0.883894       -24.0520
  89   2.0000      -0.871077       -23.7032
  90   2.0000      -0.864410       -23.5218
  91   2.0000      -0.847451       -23.0603
  92   2.0000      -0.838272       -22.8105
  93   2.0000      -0.827317       -22.5124
  94   2.0000      -0.819525       -22.3004
  95   2.0000      -0.814586       -22.1660
  96   2.0000      -0.801686       -21.8150
  97   2.0000      -0.789264       -21.4770
  98   2.0000      -0.787635       -21.4326
  99   2.0000      -0.786911       -21.4129
 100   2.0000      -0.776641       -21.1335
 101   2.0000      -0.774186       -21.0667
 102   2.0000      -0.728982       -19.8366
 103   2.0000      -0.725288       -19.7361
 104   2.0000      -0.720171       -19.5968
 105   2.0000      -0.715050       -19.4575
 106   2.0000      -0.714223       -19.4350
 107   2.0000      -0.706061       -19.2129
 108   2.0000      -0.694517       -18.8988
 109   2.0000      -0.689022       -18.7492
 110   2.0000      -0.684327       -18.6215
 111   2.0000      -0.682901       -18.5827
 112   2.0000      -0.677943       -18.4478
 113   2.0000      -0.675441       -18.3797
 114   2.0000      -0.673659       -18.3312
 115   2.0000      -0.672306       -18.2944
 116   2.0000      -0.661412       -17.9979
 117   2.0000      -0.655955       -17.8494
 118   2.0000      -0.650890       -17.7116
 119   2.0000      -0.643947       -17.5227
 120   2.0000      -0.639956       -17.4141
 121   2.0000      -0.629964       -17.1422
 122   2.0000      -0.618233       -16.8230
 123   2.0000      -0.609594       -16.5879
 124   2.0000      -0.604777       -16.4568
 125   2.0000      -0.602661       -16.3992
 126   2.0000      -0.599476       -16.3126
 127   2.0000      -0.593336       -16.1455
 128   2.0000      -0.591219       -16.0879
 129   2.0000      -0.583609       -15.8808
 130   2.0000      -0.581209       -15.8155
 131   2.0000      -0.578300       -15.7363
 132   2.0000      -0.575727       -15.6663
 133   2.0000      -0.575481       -15.6596
 134   2.0000      -0.574128       -15.6228
 135   2.0000      -0.568383       -15.4665
 136   2.0000      -0.566375       -15.4118
 137   2.0000      -0.563127       -15.3235
 138   2.0000      -0.558857       -15.2073
 139   2.0000      -0.558453       -15.1963
 140   2.0000      -0.554928       -15.1004
 141   2.0000      -0.553306       -15.0562
 142   2.0000      -0.551173       -14.9982
 143   2.0000      -0.548912       -14.9366
 144   2.0000      -0.547348       -14.8941
 145   2.0000      -0.543539       -14.7905
 146   2.0000      -0.541360       -14.7311
 147   2.0000      -0.540491       -14.7075
 148   2.0000      -0.537728       -14.6323
 149   2.0000      -0.535057       -14.5596
 150   2.0000      -0.532444       -14.4885
 151   2.0000      -0.530667       -14.4402
 152   2.0000      -0.529350       -14.4044
 153   2.0000      -0.522145       -14.2083
 154   2.0000      -0.513467       -13.9722
 155   2.0000      -0.512989       -13.9591
 156   2.0000      -0.508779       -13.8446
 157   2.0000      -0.507451       -13.8084
 158   2.0000      -0.506309       -13.7774
 159   2.0000      -0.504702       -13.7336
 160   2.0000      -0.502669       -13.6783
 161   2.0000      -0.498352       -13.5608
 162   2.0000      -0.488325       -13.2880
 163   2.0000      -0.486451       -13.2370
 164   2.0000      -0.485443       -13.2096
 165   2.0000      -0.484375       -13.1805
 166   2.0000      -0.480970       -13.0878
 167   2.0000      -0.474569       -12.9137
 168   2.0000      -0.471203       -12.8221
 169   2.0000      -0.468607       -12.7514
 170   2.0000      -0.465908       -12.6780
 171   2.0000      -0.463688       -12.6176
 172   2.0000      -0.459560       -12.5053
 173   2.0000      -0.458033       -12.4637
 174   2.0000      -0.454518       -12.3681
 175   2.0000      -0.452129       -12.3031
 176   2.0000      -0.450116       -12.2483
 177   2.0000      -0.442956       -12.0535
 178   2.0000      -0.439152       -11.9499
 179   2.0000      -0.438354       -11.9282
 180   2.0000      -0.436561       -11.8794
 181   2.0000      -0.434344       -11.8191
 182   2.0000      -0.432906       -11.7800
 183   2.0000      -0.429493       -11.6871
 184   2.0000      -0.425456       -11.5772
 185   2.0000      -0.423214       -11.5162
 186   2.0000      -0.414273       -11.2730
 187   2.0000      -0.412787       -11.2325
 188   2.0000      -0.408580       -11.1180
 189   2.0000      -0.405520       -11.0348
 190   2.0000      -0.403018       -10.9667
 191   2.0000      -0.396117       -10.7789
 192   2.0000      -0.389634       -10.6025
 193   2.0000      -0.372356       -10.1323
 194   2.0000      -0.366908        -9.9841
 195   2.0000      -0.350955        -9.5500
 196   2.0000      -0.345101        -9.3907
 197   2.0000      -0.332929        -9.0595
 198   2.0000      -0.316043        -8.6000
 199   2.0000      -0.311216        -8.4686
 200   2.0000      -0.301462        -8.2032
 201   2.0000      -0.285679        -7.7737
 202   2.0000      -0.250882        -6.8269
 203   2.0000      -0.245776        -6.6879
 204   2.0000      -0.239753        -6.5240
 205   0.0000      -0.041447        -1.1278
 206   0.0000      -0.035549        -0.9673
 207   0.0000      -0.017187        -0.4677
 208   0.0000       0.012982         0.3532
 209   0.0000       0.029132         0.7927

MULLIKEN ATOMIC CHARGES
-----------------------
   0 C :    0.109343
   1 O :   -0.175595
   2 C :    0.064997
   3 C :    0.154802
   4 C :   -0.189324
   5 C :    0.527542
   6 F :   -0.158835
   7 F :   -0.163177
   8 F :   -0.164673
   9 O :   -0.296741
  10 C :    0.179347
  11 C :   -0.013701
  12 C :   -0.042865
  13 C :    0.093888
  14 C :    0.040835
  15 F :   -0.163065
  16 S :    0.094860
  17 C :    0.057440
  18 F :   -0.162234
  19 C :    0.064466
  20 C :   -0.022194
  21 C :   -0.011037
  22 C :   -0.101536
  23 C :   -0.029627
  24 C :    0.072652
  25 C :    0.026555
  26 C :   -0.028676
  27 C :   -0.051365
  28 S :    0.099532
  29 C :    0.014368
  30 C :   -0.027894
  31 C :    0.072210
  32 C :    0.056607
  33 F :   -0.160085
  34 S :    0.100265
  35 C :    0.049444
  36 F :   -0.157106
  37 C :    0.084410
  38 C :   -0.031248
  39 C :   -0.035820
  40 C :    0.111700
  41 O :   -0.194579
  42 C :    0.056257
  43 C :    0.153963
  44 C :   -0.167538
  45 C :    0.512515
  46 F :   -0.147077
  47 F :   -0.167455
  48 F :   -0.168833
  49 O :   -0.302452
  50 C :    0.181861
  51 C :   -0.019826
  52 C :   -0.020042
  53 H :    0.024913
  54 H :    0.037810
  55 H :    0.031613
  56 H :    0.031738
  57 H :    0.008001
  58 H :    0.016598
  59 H :    0.003716
  60 H :    0.007458
  61 H :    0.009435
  62 H :    0.000477
  63 H :    0.014773
  64 H :    0.014681
  65 H :    0.011522
  66 H :   -0.022460
  67 H :    0.009109
  68 H :    0.008812
  69 H :    0.032545
  70 H :    0.011021
  71 H :    0.033843
  72 H :    0.032248
  73 H :    0.031912
  74 H :    0.001003
  75 H :    0.029754
  76 H :    0.014216
Sum of atomic charges:    0.0000000

LOEWDIN ATOMIC CHARGES
----------------------
   0 C :    0.063186
   1 O :    0.039326
   2 C :   -0.013914
   3 C :    0.021325
   4 C :   -0.166390
   5 C :    0.170580
   6 F :   -0.056201
   7 F :   -0.062566
   8 F :   -0.064418
   9 O :   -0.093424
  10 C :    0.076018
  11 C :   -0.027284
  12 C :   -0.032285
  13 C :   -0.087203
  14 C :   -0.085447
  15 F :   -0.051313
  16 S :    0.413322
  17 C :   -0.086618
  18 F :   -0.054457
  19 C :   -0.089672
  20 C :   -0.029538
  21 C :   -0.034360
  22 C :   -0.173899
  23 C :   -0.049546
  24 C :   -0.029983
  25 C :   -0.048033
  26 C :   -0.054630
  27 C :   -0.169018
  28 S :    0.425445
  29 C :   -0.029093
  30 C :   -0.031991
  31 C :   -0.087532
  32 C :   -0.085504
  33 F :   -0.052667
  34 S :    0.419739
  35 C :   -0.079473
  36 F :   -0.046216
  37 C :   -0.091685
  38 C :   -0.003380
  39 C :   -0.047533
  40 C :    0.059067
  41 O :    0.033594
  42 C :   -0.012083
  43 C :    0.026137
  44 C :   -0.164902
  45 C :    0.174060
  46 F :   -0.044541
  47 F :   -0.065926
  48 F :   -0.068802
  49 O :   -0.096330
  50 C :    0.074456
  51 C :   -0.033062
  52 C :   -0.054982
  53 H :    0.030676
  54 H :    0.030638
  55 H :    0.016378
  56 H :    0.015453
  57 H :    0.037940
  58 H :    0.032717
  59 H :    0.025964
  60 H :    0.035031
  61 H :    0.027260
  62 H :    0.029271
  63 H :    0.023507
  64 H :    0.023664
  65 H :    0.025064
  66 H :    0.028109
  67 H :    0.038138
  68 H :    0.028048
  69 H :    0.036768
  70 H :    0.031006
  71 H :    0.028900
  72 H :    0.015818
  73 H :    0.014914
  74 H :    0.039116
  75 H :    0.023094
  76 H :    0.022170

  Mayer bond orders larger than 0.100000
B(  0-C ,  1-O ) :   1.1954 B(  0-C ,  2-C ) :   0.1025 B(  0-C ,  4-C ) :   1.4949
B(  0-C , 53-H ) :   1.0123 B(  1-O ,  2-C ) :   1.1142 B(  2-C ,  3-C ) :   1.4426
B(  2-C , 11-C ) :   1.1331 B(  3-C ,  4-C ) :   1.2129 B(  3-C ,  9-O ) :   1.2316
B(  4-C ,  5-C ) :   0.9579 B(  5-C ,  6-F ) :   1.1685 B(  5-C ,  7-F ) :   1.1534
B(  5-C ,  8-F ) :   1.1522 B(  9-O , 10-C ) :   0.9304 B( 10-C , 54-H ) :   0.9777
B( 10-C , 55-H ) :   0.9656 B( 10-C , 56-H ) :   0.9645 B( 11-C , 12-C ) :   1.7021
B( 11-C , 57-H ) :   0.9690 B( 12-C , 13-C ) :   1.0557 B( 12-C , 58-H ) :   0.9673
B( 13-C , 14-C ) :   1.4762 B( 13-C , 19-C ) :   1.1561 B( 14-C , 15-F ) :   1.1106
B( 14-C , 16-S ) :   1.1101 B( 16-S , 17-C ) :   1.1104 B( 17-C , 18-F ) :   1.1342
B( 17-C , 19-C ) :   1.4715 B( 19-C , 20-C ) :   1.0724 B( 20-C , 21-C ) :   1.7054
B( 20-C , 59-H ) :   0.9687 B( 21-C , 22-C ) :   1.1577 B( 21-C , 60-H ) :   0.9617
B( 22-C , 23-C ) :   1.5064 B( 22-C , 28-S ) :   1.0968 B( 23-C , 24-C ) :   1.0676
B( 23-C , 26-C ) :   1.2553 B( 24-C , 25-C ) :   1.1021 B( 24-C , 61-H ) :   0.9193
B( 24-C , 62-H ) :   0.9244 B( 25-C , 63-H ) :   0.9720 B( 25-C , 64-H ) :   0.9675
B( 25-C , 65-H ) :   0.9670 B( 26-C , 27-C ) :   1.4745 B( 26-C , 66-H ) :   1.0035
B( 27-C , 28-S ) :   1.1169 B( 27-C , 29-C ) :   1.1464 B( 29-C , 30-C ) :   1.7017
B( 29-C , 67-H ) :   0.9758 B( 30-C , 31-C ) :   1.0668 B( 30-C , 68-H ) :   0.9685
B( 31-C , 32-C ) :   1.4748 B( 31-C , 37-C ) :   1.1612 B( 32-C , 33-F ) :   1.1378
B( 32-C , 34-S ) :   1.1084 B( 34-S , 35-C ) :   1.1183 B( 35-C , 36-F ) :   1.1181
B( 35-C , 37-C ) :   1.4655 B( 37-C , 38-C ) :   1.0584 B( 38-C , 39-C ) :   1.7110
B( 38-C , 69-H ) :   0.9639 B( 39-C , 40-C ) :   1.1420 B( 39-C , 70-H ) :   0.9635
B( 40-C , 41-O ) :   1.1869 B( 40-C , 42-C ) :   0.1111 B( 40-C , 44-C ) :   1.4209
B( 41-O , 42-C ) :   1.1105 B( 42-C , 43-C ) :   1.4412 B( 42-C , 51-C ) :   1.1392
B( 43-C , 44-C ) :   1.2062 B( 43-C , 49-O ) :   1.2245 B( 44-C , 45-C ) :   0.9537
B( 45-C , 46-F ) :   1.1542 B( 45-C , 47-F ) :   1.1503 B( 45-C , 48-F ) :   1.1487
B( 49-O , 50-C ) :   0.9297 B( 50-C , 71-H ) :   0.9773 B( 50-C , 72-H ) :   0.9664
B( 50-C , 73-H ) :   0.9638 B( 51-C , 52-C ) :   1.8913 B( 51-C , 74-H ) :   0.9558
B( 52-C , 75-H ) :   0.9567 B( 52-C , 76-H ) :   0.9462

-----------------------------------------------------------------------------
         ABSORPTION SPECTRUM VIA TRANSITION ELECTRIC DIPOLE MOMENTS
-----------------------------------------------------------------------------
State   Energy  Wavelength   fosc         T2         TX        TY        TZ
        (cm-1)    (nm)                  (au**2)     (au)      (au)      (au)
-----------------------------------------------------------------------------
   0   26656.4    375.1   0.522218524   6.44951   1.01196  -0.64960   2.23685
   1   28409.9    352.0   0.046461794   0.53840  -0.18681   0.57399  -0.41717
   2   29068.3    344.0   0.351442513   3.98025  -0.54108   1.50283  -1.19540
   3   29605.8    337.8   0.857063329   9.53041   0.10757  -2.94560   0.91776
   4   30163.4    331.5   0.073727667   0.80468   0.16155  -0.65008   0.59665
   5   32238.1    310.2   0.057165993   0.58377  -0.15208  -0.56590  -0.49030
   6   34499.6    289.9   0.763487633   7.28556  -0.79437  -1.80672  -1.84128
   7   36129.6    276.8   0.111853070   1.01920   0.39889   0.91445   0.15448
   8   37144.9    269.2   0.001295989   0.01149   0.07333  -0.00923   0.07761
   9   37841.5    264.3   0.014651341   0.12746  -0.17420   0.16573  -0.26391
  10   39289.6    254.5   0.000528386   0.00443  -0.00091  -0.06643  -0.00370
  11   39619.2    252.4   0.208899115   1.73583  -0.81153  -0.91741  -0.48540

FINAL SINGLE POINT ENERGY     -3876.559111205845

DIPOLE MOMENT
-------------
                                X             Y             Z
Electronic contribution:     17.20204      25.25806     -15.18048
Nuclear contribution   :    -17.56045     -26.10144      15.35620
                        -----------------------------------------
Total Dipole Moment    :     -0.35841      -0.84338       0.17571
                        -----------------------------------------
Magnitude (a.u.)       :      0.93307
Magnitude (Debye)      :      2.37168

Rotational constants in cm-1:     0.001609     0.000675     0.000493
Rotational constants in MHz :    48.228288    20.244321    14.764833

                             ****ORCA TERMINATED NORMALLY****
TOTAL RUN TIME: 0 days 0 hours 5 minutes 9 seconds 141 msec
