                         Program Version 4.2.0 -  RELEASE  -
|  1> # ORCA input file
|  2> # SCF done       -184.670789197972          0.000938688708
|  3> ! CAM-B3LYP def2-SVP def2/J RIJCOSX Grid4 TightSCF
|  4> %maxcore 5000
|  5> %tddft
|  6>     Mode sTDDFT
|  7>     Ethresh 5.0
|  8>     maxcore 5000
|  9> end
| 10>
| 11> %pal
| 12>   nprocs 6
| 13>   end
| 14> * xyz 0 1
| 15>    C       11.78860        -7.15643       -11.60718
| 16>    C       12.30092        -6.42413       -10.63308
| 17>    C       12.32851        -4.94797       -10.65767
| 18>    C       13.16455        -4.33422       -11.58281
| 19>    C       13.30583        -2.95377       -11.66873
| 20>    C       12.60070        -2.12461       -10.82286
| 21>    C       11.73760        -2.70590        -9.90412
| 22>    C       10.86283        -2.14215        -8.91843
| 23>    C       10.65011        -0.83407        -8.51604
| 24>    C        9.76244        -0.59947        -7.48122
| 25>    C        9.08826        -1.64889        -6.88277
| 26>    C        9.24791        -2.98203        -7.28257
| 27>    C        8.41959        -3.99571        -6.67436
| 28>    C        7.98579        -3.98352        -5.39589
| 29>    C        7.14473        -4.99429        -4.85864
| 30>    S        6.55611        -6.33051        -5.80373
| 31>    C        5.72003        -7.05002        -4.44942
| 32>    C        5.11890        -8.30397        -4.73603
| 33>    C        4.62436        -9.22724        -3.87495
| 34>    C        4.12165       -10.49158        -4.26699
| 35>    S        3.68917       -11.63879        -3.02936
| 36>    C        3.24439       -12.86383        -4.18527
| 37>    C        2.84192       -14.13840        -3.71905
| 38>    C        2.45219       -15.18099        -4.49160
| 39>    C        2.13456       -16.46156        -3.97652
| 40>    S        2.26597       -16.87203        -2.28991
| 41>    C        1.81467       -18.53872        -2.55471
| 42>    C        1.74260       -19.31674        -1.36834
| 43>    C        1.40017       -20.61937        -1.22116
| 44>    C        1.42818       -21.32198         0.03564
| 45>    C        2.36238       -20.96261         1.01895
| 46>    C        2.54513       -21.68857         2.18088
| 47>    C        1.78817       -22.82107         2.43233
| 48>    C        0.82987       -23.19329         1.50611
| 49>    C       -0.12758       -24.26160         1.49408
| 50>    C       -0.40318       -25.30860         2.36314
| 51>    C       -1.43111       -26.17340         2.04501
| 52>    C       -2.17868       -25.99976         0.88245
| 53>    C       -1.92230       -24.96307         0.00530
| 54>    C       -0.88821       -24.09126         0.31780
| 55>    N       -0.42876       -22.98813        -0.37280
| 56>    C       -1.08822       -22.49266        -1.55524
| 57>    C       -0.62930       -23.20514        -2.82569
| 58>    C        0.62612       -22.44731         0.31277
| 59>    C        1.55732       -18.74087        -3.91327
| 60>    N        1.17888       -19.93809        -4.56805
| 61>    O        1.45003       -21.00956        -4.05381
| 62>    O        0.61032       -19.82433        -5.63714
| 63>    C        1.72718       -17.56904        -4.70260
| 64>    C        1.56253       -17.50300        -6.10053
| 65>    N        1.48434       -17.34668        -7.23378
| 66>    C        3.40997       -12.37286        -5.47279
| 67>    S        3.10595       -13.15691        -7.00022
| 68>    C        3.61272       -11.79471        -8.02538
| 69>    O        3.59560       -11.82410        -9.21339
| 70>    S        4.15733       -10.37148        -7.09964
| 71>    C        3.90731       -11.05580        -5.51729
| 72>    C        5.88912        -6.25213        -3.31910
| 73>    N        5.32210        -6.44150        -2.03190
| 74>    O        4.37811        -7.20032        -1.90990
| 75>    O        5.81390        -5.81151        -1.11653
| 76>    C        6.69534        -5.10322        -3.55127
| 77>    C        7.01025        -4.11988        -2.59318
| 78>    N        7.31228        -3.25122        -1.90799
| 79>    C       10.18151        -3.22672        -8.30895
| 80>    N       10.65135        -4.40141        -8.84317
| 81>    C       10.23087        -5.73022        -8.48073
| 82>    C        9.06875        -6.22297        -9.34329
| 83>    C       11.59120        -4.10892        -9.81670
| 84>    H       11.81371        -8.23284       -11.58822
| 85>    H       11.30908        -6.70135       -12.45867
| 86>    H       12.79430        -6.89970        -9.79236
| 87>    H       13.73354        -4.96628       -12.24899
| 88>    H       13.97642        -2.53656       -12.40446
| 89>    H       12.70425        -1.05195       -10.87422
| 90>    H       11.17386        -0.02254        -8.99662
| 91>    H        9.58110         0.40865        -7.14165
| 92>    H        8.37037        -1.43354        -6.10634
| 93>    H        8.08102        -4.80911        -7.30169
| 94>    H        8.29846        -3.21690        -4.70085
| 95>    H        5.12997        -8.54619        -5.79166
| 96>    H        4.60092        -9.03606        -2.81313
| 97>    H        2.87527       -14.26667        -2.64418
| 98>    H        2.37959       -15.08107        -5.56563
| 99>    H        1.98159       -18.74410        -0.47998
|100>    H        1.15434       -21.20141        -2.09259
|101>    H        3.00838       -20.11950         0.82902
|102>    H        3.29896       -21.37610         2.88736
|103>    H        1.93554       -23.40116         3.33002
|104>    H        0.17708       -25.44193         3.26340
|105>    H       -1.66195       -26.99809         2.70231
|106>    H       -2.97614       -26.69308         0.66014
|107>    H       -2.51138       -24.84993        -0.89165
|108>    H       -0.91257       -21.41629        -1.62896
|109>    H       -2.16441       -22.64629        -1.42082
|110>    H        0.42247       -23.02114        -3.02821
|111>    H       -1.20518       -22.84792        -3.67518
|112>    H       -0.77715       -24.27795        -2.72898
|113>    H        9.95850        -5.72687        -7.42167
|114>    H       11.07692        -6.40660        -8.60458
|115>    H        8.25608        -5.50008        -9.35709
|116>    H        8.69316        -7.16756        -8.95871
|117>    H        9.40571        -6.37300       -10.36625
|118> *
|119>
|120>                          ****END OF INPUT****

CARTESIAN COORDINATES (ANGSTROEM)
---------------------------------
  C     11.788600   -7.156430  -11.607180
  C     12.300920   -6.424130  -10.633080
  C     12.328510   -4.947970  -10.657670
  C     13.164550   -4.334220  -11.582810
  C     13.305830   -2.953770  -11.668730
  C     12.600700   -2.124610  -10.822860
  C     11.737600   -2.705900   -9.904120
  C     10.862830   -2.142150   -8.918430
  C     10.650110   -0.834070   -8.516040
  C      9.762440   -0.599470   -7.481220
  C      9.088260   -1.648890   -6.882770
  C      9.247910   -2.982030   -7.282570
  C      8.419590   -3.995710   -6.674360
  C      7.985790   -3.983520   -5.395890
  C      7.144730   -4.994290   -4.858640
  S      6.556110   -6.330510   -5.803730
  C      5.720030   -7.050020   -4.449420
  C      5.118900   -8.303970   -4.736030
  C      4.624360   -9.227240   -3.874950
  C      4.121650  -10.491580   -4.266990
  S      3.689170  -11.638790   -3.029360
  C      3.244390  -12.863830   -4.185270
  C      2.841920  -14.138400   -3.719050
  C      2.452190  -15.180990   -4.491600
  C      2.134560  -16.461560   -3.976520
  S      2.265970  -16.872030   -2.289910
  C      1.814670  -18.538720   -2.554710
  C      1.742600  -19.316740   -1.368340
  C      1.400170  -20.619370   -1.221160
  C      1.428180  -21.321980    0.035640
  C      2.362380  -20.962610    1.018950
  C      2.545130  -21.688570    2.180880
  C      1.788170  -22.821070    2.432330
  C      0.829870  -23.193290    1.506110
  C     -0.127580  -24.261600    1.494080
  C     -0.403180  -25.308600    2.363140
  C     -1.431110  -26.173400    2.045010
  C     -2.178680  -25.999760    0.882450
  C     -1.922300  -24.963070    0.005300
  C     -0.888210  -24.091260    0.317800
  N     -0.428760  -22.988130   -0.372800
  C     -1.088220  -22.492660   -1.555240
  C     -0.629300  -23.205140   -2.825690
  C      0.626120  -22.447310    0.312770
  C      1.557320  -18.740870   -3.913270
  N      1.178880  -19.938090   -4.568050
  O      1.450030  -21.009560   -4.053810
  O      0.610320  -19.824330   -5.637140
  C      1.727180  -17.569040   -4.702600
  C      1.562530  -17.503000   -6.100530
  N      1.484340  -17.346680   -7.233780
  C      3.409970  -12.372860   -5.472790
  S      3.105950  -13.156910   -7.000220
  C      3.612720  -11.794710   -8.025380
  O      3.595600  -11.824100   -9.213390
  S      4.157330  -10.371480   -7.099640
  C      3.907310  -11.055800   -5.517290
  C      5.889120   -6.252130   -3.319100
  N      5.322100   -6.441500   -2.031900
  O      4.378110   -7.200320   -1.909900
  O      5.813900   -5.811510   -1.116530
  C      6.695340   -5.103220   -3.551270
  C      7.010250   -4.119880   -2.593180
  N      7.312280   -3.251220   -1.907990
  C     10.181510   -3.226720   -8.308950
  N     10.651350   -4.401410   -8.843170
  C     10.230870   -5.730220   -8.480730
  C      9.068750   -6.222970   -9.343290
  C     11.591200   -4.108920   -9.816700
  H     11.813710   -8.232840  -11.588220
  H     11.309080   -6.701350  -12.458670
  H     12.794300   -6.899700   -9.792360
  H     13.733540   -4.966280  -12.248990
  H     13.976420   -2.536560  -12.404460
  H     12.704250   -1.051950  -10.874220
  H     11.173860   -0.022540   -8.996620
  H      9.581100    0.408650   -7.141650
  H      8.370370   -1.433540   -6.106340
  H      8.081020   -4.809110   -7.301690
  H      8.298460   -3.216900   -4.700850
  H      5.129970   -8.546190   -5.791660
  H      4.600920   -9.036060   -2.813130
  H      2.875270  -14.266670   -2.644180
  H      2.379590  -15.081070   -5.565630
  H      1.981590  -18.744100   -0.479980
  H      1.154340  -21.201410   -2.092590
  H      3.008380  -20.119500    0.829020
  H      3.298960  -21.376100    2.887360
  H      1.935540  -23.401160    3.330020
  H      0.177080  -25.441930    3.263400
  H     -1.661950  -26.998090    2.702310
  H     -2.976140  -26.693080    0.660140
  H     -2.511380  -24.849930   -0.891650
  H     -0.912570  -21.416290   -1.628960
  H     -2.164410  -22.646290   -1.420820
  H      0.422470  -23.021140   -3.028210
  H     -1.205180  -22.847920   -3.675180
  H     -0.777150  -24.277950   -2.728980
  H      9.958500   -5.726870   -7.421670
  H     11.076920   -6.406600   -8.604580
  H      8.256080   -5.500080   -9.357090
  H      8.693160   -7.167560   -8.958710
  H      9.405710   -6.373000  -10.366250

 Total Charge           Charge          ....    0
 Multiplicity           Mult            ....    1
 Number of Electrons    NEL             ....  514
 Basis Dimension        Dim             .... 1156

ORBITAL ENERGIES
----------------

  NO   OCC          E(Eh)            E(eV)
   0   2.0000     -88.993503     -2421.6363
   1   2.0000     -88.992512     -2421.6094
   2   2.0000     -88.984691     -2421.3965
   3   2.0000     -88.980590     -2421.2850
   4   2.0000     -88.979414     -2421.2530
   5   2.0000     -19.252632      -523.8907
   6   2.0000     -19.252504      -523.8873
   7   2.0000     -19.250372      -523.8293
   8   2.0000     -19.249288      -523.7998
   9   2.0000     -19.243357      -523.6384
  10   2.0000     -14.662068      -398.9751
  11   2.0000     -14.659938      -398.9172
  12   2.0000     -14.457229      -393.4012
  13   2.0000     -14.456008      -393.3680
  14   2.0000     -14.407852      -392.0576
  15   2.0000     -14.401828      -391.8937
  16   2.0000     -10.422007      -283.5972
  17   2.0000     -10.356303      -281.8093
  18   2.0000     -10.352774      -281.7133
  19   2.0000     -10.349395      -281.6214
  20   2.0000     -10.349388      -281.6212
  21   2.0000     -10.343611      -281.4640
  22   2.0000     -10.341500      -281.4065
  23   2.0000     -10.339365      -281.3484
  24   2.0000     -10.338498      -281.3248
  25   2.0000     -10.337840      -281.3069
  26   2.0000     -10.336717      -281.2764
  27   2.0000     -10.335383      -281.2401
  28   2.0000     -10.330636      -281.1109
  29   2.0000     -10.317660      -280.7578
  30   2.0000     -10.316271      -280.7200
  31   2.0000     -10.315361      -280.6952
  32   2.0000     -10.314644      -280.6757
  33   2.0000     -10.313327      -280.6399
  34   2.0000     -10.312434      -280.6156
  35   2.0000     -10.311945      -280.6023
  36   2.0000     -10.311226      -280.5827
  37   2.0000     -10.311184      -280.5816
  38   2.0000     -10.307295      -280.4757
  39   2.0000     -10.306177      -280.4453
  40   2.0000     -10.303643      -280.3764
  41   2.0000     -10.301078      -280.3066
  42   2.0000     -10.299392      -280.2607
  43   2.0000     -10.298453      -280.2352
  44   2.0000     -10.294298      -280.1221
  45   2.0000     -10.286115      -279.8994
  46   2.0000     -10.286006      -279.8965
  47   2.0000     -10.281538      -279.7749
  48   2.0000     -10.278413      -279.6898
  49   2.0000     -10.277325      -279.6602
  50   2.0000     -10.277000      -279.6514
  51   2.0000     -10.274329      -279.5787
  52   2.0000     -10.273304      -279.5508
  53   2.0000     -10.270755      -279.4814
  54   2.0000     -10.270665      -279.4790
  55   2.0000     -10.270121      -279.4642
  56   2.0000     -10.269844      -279.4567
  57   2.0000     -10.269728      -279.4535
  58   2.0000     -10.268631      -279.4237
  59   2.0000     -10.268483      -279.4196
  60   2.0000     -10.267956      -279.4053
  61   2.0000     -10.266753      -279.3725
  62   2.0000     -10.266260      -279.3591
  63   2.0000     -10.266172      -279.3568
  64   2.0000     -10.266134      -279.3557
  65   2.0000     -10.264031      -279.2985
  66   2.0000     -10.260976      -279.2153
  67   2.0000     -10.260613      -279.2055
  68   2.0000     -10.260231      -279.1951
  69   2.0000      -8.089115      -220.1160
  70   2.0000      -8.087915      -220.0834
  71   2.0000      -8.080338      -219.8772
  72   2.0000      -8.077078      -219.7885
  73   2.0000      -8.075785      -219.7533
  74   2.0000      -6.058359      -164.8563
  75   2.0000      -6.057131      -164.8229
  76   2.0000      -6.054332      -164.7467
  77   2.0000      -6.053108      -164.7135
  78   2.0000      -6.051082      -164.6583
  79   2.0000      -6.049989      -164.6286
  80   2.0000      -6.049614      -164.6184
  81   2.0000      -6.046784      -164.5414
  82   2.0000      -6.045652      -164.5106
  83   2.0000      -6.045506      -164.5066
  84   2.0000      -6.042774      -164.4322
  85   2.0000      -6.042190      -164.4163
  86   2.0000      -6.041465      -164.3966
  87   2.0000      -6.037745      -164.2954
  88   2.0000      -6.036426      -164.2595
  89   2.0000      -1.333554       -36.2878
  90   2.0000      -1.331783       -36.2397
  91   2.0000      -1.173089       -31.9214
  92   2.0000      -1.150751       -31.3135
  93   2.0000      -1.149340       -31.2751
  94   2.0000      -1.086896       -29.5759
  95   2.0000      -1.086253       -29.5584
  96   2.0000      -1.035600       -28.1801
  97   2.0000      -1.033135       -28.1130
  98   2.0000      -1.031133       -28.0586
  99   2.0000      -0.989697       -26.9310
 100   2.0000      -0.984492       -26.7894
 101   2.0000      -0.960749       -26.1433
 102   2.0000      -0.955119       -25.9901
 103   2.0000      -0.954368       -25.9697
 104   2.0000      -0.948924       -25.8215
 105   2.0000      -0.948146       -25.8004
 106   2.0000      -0.943610       -25.6769
 107   2.0000      -0.934962       -25.4416
 108   2.0000      -0.928066       -25.2540
 109   2.0000      -0.921455       -25.0741
 110   2.0000      -0.912494       -24.8302
 111   2.0000      -0.905435       -24.6381
 112   2.0000      -0.896180       -24.3863
 113   2.0000      -0.885417       -24.0934
 114   2.0000      -0.882203       -24.0060
 115   2.0000      -0.873046       -23.7568
 116   2.0000      -0.871144       -23.7050
 117   2.0000      -0.867380       -23.6026
 118   2.0000      -0.844706       -22.9856
 119   2.0000      -0.841646       -22.9023
 120   2.0000      -0.837677       -22.7944
 121   2.0000      -0.831818       -22.6349
 122   2.0000      -0.831459       -22.6251
 123   2.0000      -0.826432       -22.4884
 124   2.0000      -0.808173       -21.9915
 125   2.0000      -0.807066       -21.9614
 126   2.0000      -0.805167       -21.9097
 127   2.0000      -0.798920       -21.7397
 128   2.0000      -0.789514       -21.4838
 129   2.0000      -0.770529       -20.9672
 130   2.0000      -0.759919       -20.6784
 131   2.0000      -0.750052       -20.4100
 132   2.0000      -0.744842       -20.2682
 133   2.0000      -0.733468       -19.9587
 134   2.0000      -0.731583       -19.9074
 135   2.0000      -0.730551       -19.8793
 136   2.0000      -0.711035       -19.3483
 137   2.0000      -0.710086       -19.3224
 138   2.0000      -0.699300       -19.0289
 139   2.0000      -0.698477       -19.0065
 140   2.0000      -0.690519       -18.7900
 141   2.0000      -0.686558       -18.6822
 142   2.0000      -0.677161       -18.4265
 143   2.0000      -0.672862       -18.3095
 144   2.0000      -0.666590       -18.1388
 145   2.0000      -0.664743       -18.0886
 146   2.0000      -0.662169       -18.0185
 147   2.0000      -0.660055       -17.9610
 148   2.0000      -0.655457       -17.8359
 149   2.0000      -0.651107       -17.7175
 150   2.0000      -0.645484       -17.5645
 151   2.0000      -0.640571       -17.4308
 152   2.0000      -0.634202       -17.2575
 153   2.0000      -0.631155       -17.1746
 154   2.0000      -0.626744       -17.0546
 155   2.0000      -0.621709       -16.9176
 156   2.0000      -0.609768       -16.5926
 157   2.0000      -0.607591       -16.5334
 158   2.0000      -0.607055       -16.5188
 159   2.0000      -0.605649       -16.4806
 160   2.0000      -0.600860       -16.3502
 161   2.0000      -0.600635       -16.3441
 162   2.0000      -0.594454       -16.1759
 163   2.0000      -0.588081       -16.0025
 164   2.0000      -0.582638       -15.8544
 165   2.0000      -0.579988       -15.7823
 166   2.0000      -0.574489       -15.6326
 167   2.0000      -0.571318       -15.5464
 168   2.0000      -0.561327       -15.2745
 169   2.0000      -0.559630       -15.2283
 170   2.0000      -0.554649       -15.0928
 171   2.0000      -0.552193       -15.0259
 172   2.0000      -0.550650       -14.9839
 173   2.0000      -0.548027       -14.9126
 174   2.0000      -0.548010       -14.9121
 175   2.0000      -0.544963       -14.8292
 176   2.0000      -0.542220       -14.7546
 177   2.0000      -0.541539       -14.7360
 178   2.0000      -0.538389       -14.6503
 179   2.0000      -0.531903       -14.4738
 180   2.0000      -0.529429       -14.4065
 181   2.0000      -0.528921       -14.3927
 182   2.0000      -0.526434       -14.3250
 183   2.0000      -0.524662       -14.2768
 184   2.0000      -0.522447       -14.2165
 185   2.0000      -0.518115       -14.0986
 186   2.0000      -0.515965       -14.0401
 187   2.0000      -0.513596       -13.9757
 188   2.0000      -0.511512       -13.9189
 189   2.0000      -0.507795       -13.8178
 190   2.0000      -0.505253       -13.7486
 191   2.0000      -0.503520       -13.7015
 192   2.0000      -0.502246       -13.6668
 193   2.0000      -0.499598       -13.5948
 194   2.0000      -0.497459       -13.5366
 195   2.0000      -0.493496       -13.4287
 196   2.0000      -0.487210       -13.2577
 197   2.0000      -0.480484       -13.0746
 198   2.0000      -0.478986       -13.0339
 199   2.0000      -0.475664       -12.9435
 200   2.0000      -0.474022       -12.8988
 201   2.0000      -0.468530       -12.7493
 202   2.0000      -0.467063       -12.7094
 203   2.0000      -0.460921       -12.5423
 204   2.0000      -0.457744       -12.4558
 205   2.0000      -0.456824       -12.4308
 206   2.0000      -0.455897       -12.4056
 207   2.0000      -0.455128       -12.3847
 208   2.0000      -0.453547       -12.3416
 209   2.0000      -0.447701       -12.1826
 210   2.0000      -0.447110       -12.1665
 211   2.0000      -0.445101       -12.1118
 212   2.0000      -0.442802       -12.0493
 213   2.0000      -0.442058       -12.0290
 214   2.0000      -0.441710       -12.0195
 215   2.0000      -0.441096       -12.0028
 216   2.0000      -0.439158       -11.9501
 217   2.0000      -0.438302       -11.9268
 218   2.0000      -0.435389       -11.8475
 219   2.0000      -0.433250       -11.7893
 220   2.0000      -0.431014       -11.7285
 221   2.0000      -0.429932       -11.6990
 222   2.0000      -0.424354       -11.5473
 223   2.0000      -0.422947       -11.5090
 224   2.0000      -0.420596       -11.4450
 225   2.0000      -0.419794       -11.4232
 226   2.0000      -0.417840       -11.3700
 227   2.0000      -0.412098       -11.2138
 228   2.0000      -0.411658       -11.2018
 229   2.0000      -0.407981       -11.1017
 230   2.0000      -0.405856       -11.0439
 231   2.0000      -0.398897       -10.8545
 232   2.0000      -0.398539       -10.8448
 233   2.0000      -0.393991       -10.7211
 234   2.0000      -0.391820       -10.6620
 235   2.0000      -0.387369       -10.5408
 236   2.0000      -0.384358       -10.4589
 237   2.0000      -0.380020       -10.3409
 238   2.0000      -0.376311       -10.2400
 239   2.0000      -0.373258       -10.1569
 240   2.0000      -0.370223       -10.0743
 241   2.0000      -0.361739        -9.8434
 242   2.0000      -0.359373        -9.7790
 243   2.0000      -0.353696        -9.6246
 244   2.0000      -0.352648        -9.5960
 245   2.0000      -0.351351        -9.5608
 246   2.0000      -0.345116        -9.3911
 247   2.0000      -0.334695        -9.1075
 248   2.0000      -0.326168        -8.8755
 249   2.0000      -0.312687        -8.5086
 250   2.0000      -0.311448        -8.4749
 251   2.0000      -0.295413        -8.0386
 252   2.0000      -0.280357        -7.6289
 253   2.0000      -0.278135        -7.5684
 254   2.0000      -0.270838        -7.3699
 255   2.0000      -0.257539        -7.0080
 256   2.0000      -0.248559        -6.7636
 257   0.0000      -0.099418        -2.7053
 258   0.0000      -0.076068        -2.0699
 259   0.0000      -0.058532        -1.5927
 260   0.0000      -0.053421        -1.4537
 261   0.0000      -0.018262        -0.4969

MULLIKEN ATOMIC CHARGES
-----------------------
   0 C :    0.004841
   1 C :   -0.098036
   2 C :   -0.017344
   3 C :   -0.028931
   4 C :    0.034996
   5 C :   -0.049398
   6 C :    0.063558
   7 C :    0.058096
   8 C :   -0.040801
   9 C :    0.030518
  10 C :   -0.038145
  11 C :    0.046874
  12 C :   -0.061895
  13 C :    0.006093
  14 C :   -0.059699
  15 S :    0.136718
  16 C :   -0.167862
  17 C :    0.019990
  18 C :    0.083285
  19 C :   -0.167646
  20 S :    0.176221
  21 C :   -0.151842
  22 C :    0.041738
  23 C :   -0.011675
  24 C :   -0.063388
  25 S :    0.149959
  26 C :   -0.152263
  27 C :    0.021514
  28 C :   -0.027278
  29 C :    0.034135
  30 C :   -0.036131
  31 C :    0.027435
  32 C :   -0.039808
  33 C :    0.057405
  34 C :    0.071439
  35 C :   -0.047352
  36 C :    0.027356
  37 C :    0.023848
  38 C :   -0.078661
  39 C :    0.133128
  40 N :   -0.178389
  41 C :    0.075144
  42 C :    0.013876
  43 C :    0.102596
  44 C :    0.226023
  45 N :    0.260480
  46 O :   -0.246448
  47 O :   -0.217146
  48 C :   -0.080265
  49 C :   -0.215803
  50 N :    0.146621
  51 C :   -0.010002
  52 S :    0.105162
  53 C :    0.099471
  54 O :   -0.140385
  55 S :    0.083712
  56 C :   -0.012287
  57 C :    0.237282
  58 N :    0.253986
  59 O :   -0.246042
  60 O :   -0.214523
  61 C :   -0.083391
  62 C :   -0.218232
  63 N :    0.147948
  64 C :    0.103943
  65 N :   -0.186788
  66 C :    0.099705
  67 C :    0.016973
  68 C :    0.107671
  69 H :    0.026617
  70 H :    0.027114
  71 H :    0.035969
  72 H :   -0.026518
  73 H :   -0.021992
  74 H :   -0.032531
  75 H :   -0.029084
  76 H :   -0.019043
  77 H :   -0.017389
  78 H :   -0.002494
  79 H :    0.021937
  80 H :   -0.013019
  81 H :    0.007526
  82 H :   -0.006177
  83 H :    0.029262
  84 H :   -0.013161
  85 H :    0.019196
  86 H :   -0.025150
  87 H :   -0.021007
  88 H :   -0.028059
  89 H :   -0.033942
  90 H :   -0.021041
  91 H :   -0.015006
  92 H :   -0.037416
  93 H :    0.027967
  94 H :    0.023195
  95 H :    0.045812
  96 H :    0.026614
  97 H :    0.018013
  98 H :    0.027389
  99 H :    0.015470
 100 H :    0.028278
 101 H :    0.016827
 102 H :    0.023958
Sum of atomic charges:   -0.0000000

LOEWDIN ATOMIC CHARGES
----------------------
   0 C :   -0.039021
   1 C :   -0.022786
   2 C :   -0.056328
   3 C :   -0.015772
   4 C :   -0.042152
   5 C :   -0.013276
   6 C :   -0.040441
   7 C :   -0.041336
   8 C :   -0.000973
   9 C :   -0.043956
  10 C :   -0.004430
  11 C :   -0.064990
  12 C :    0.002935
  13 C :   -0.053276
  14 C :   -0.125428
  15 S :    0.475478
  16 C :   -0.128295
  17 C :   -0.068677
  18 C :   -0.005523
  19 C :   -0.188092
  20 S :    0.470753
  21 C :   -0.185718
  22 C :   -0.037123
  23 C :   -0.039117
  24 C :   -0.140438
  25 S :    0.474633
  26 C :   -0.112795
  27 C :   -0.084256
  28 C :    0.035952
  29 C :   -0.067288
  30 C :   -0.006002
  31 C :   -0.047383
  32 C :    0.001902
  33 C :   -0.041599
  34 C :   -0.043038
  35 C :   -0.010855
  36 C :   -0.043308
  37 C :   -0.017463
  38 C :   -0.057927
  39 C :    0.030220
  40 N :    0.026152
  41 C :    0.038639
  42 C :   -0.062034
  43 C :    0.044455
  44 C :   -0.070987
  45 N :    0.289372
  46 O :   -0.203204
  47 O :   -0.173611
  48 C :   -0.088768
  49 C :   -0.042130
  50 N :   -0.042529
  51 C :   -0.206598
  52 S :    0.384805
  53 C :   -0.198836
  54 O :   -0.136552
  55 S :    0.367240
  56 C :   -0.204022
  57 C :   -0.060278
  58 N :    0.286873
  59 O :   -0.206897
  60 O :   -0.170254
  61 C :   -0.100525
  62 C :   -0.041536
  63 N :   -0.048026
  64 C :    0.038819
  65 N :    0.023702
  66 C :    0.037894
  67 C :   -0.064261
  68 C :    0.031977
  69 H :    0.025118
  70 H :    0.025699
  71 H :    0.029886
  72 H :    0.028020
  73 H :    0.026685
  74 H :    0.027377
  75 H :    0.029233
  76 H :    0.028646
  77 H :    0.030178
  78 H :    0.020307
  79 H :    0.044315
  80 H :    0.012587
  81 H :    0.031414
  82 H :    0.026259
  83 H :    0.030755
  84 H :    0.026843
  85 H :    0.028009
  86 H :    0.026204
  87 H :    0.027563
  88 H :    0.029811
  89 H :    0.027001
  90 H :    0.026073
  91 H :    0.028376
  92 H :    0.025904
  93 H :    0.028749
  94 H :    0.028163
  95 H :    0.027490
  96 H :    0.032783
  97 H :    0.026822
  98 H :    0.028278
  99 H :    0.030807
 100 H :    0.023599
 101 H :    0.028451
 102 H :    0.030900

  Mayer bond orders larger than 0.100000
B(  0-C ,  1-C ) :   2.0181 B(  0-C , 69-H ) :   0.9573 B(  0-C , 70-H ) :   0.9516
B(  1-C ,  2-C ) :   0.9682 B(  1-C , 71-H ) :   0.9477 B(  2-C ,  3-C ) :   1.4343
B(  2-C , 68-C ) :   1.3323 B(  3-C ,  4-C ) :   1.3284 B(  3-C , 72-H ) :   0.9930
B(  4-C ,  5-C ) :   1.3963 B(  4-C , 73-H ) :   0.9867 B(  5-C ,  6-C ) :   1.3363
B(  5-C , 74-H ) :   0.9986 B(  6-C ,  7-C ) :   1.0769 B(  6-C , 68-C ) :   1.2977
B(  7-C ,  8-C ) :   1.3526 B(  7-C , 64-C ) :   1.2739 B(  8-C ,  9-C ) :   1.3646
B(  8-C , 75-H ) :   0.9997 B(  9-C , 10-C ) :   1.3634 B(  9-C , 76-H ) :   0.9858
B( 10-C , 11-C ) :   1.3799 B( 10-C , 77-H ) :   0.9911 B( 11-C , 12-C ) :   1.0307
B( 11-C , 64-C ) :   1.2807 B( 12-C , 13-C ) :   1.6858 B( 12-C , 78-H ) :   0.9642
B( 13-C , 14-C ) :   1.1699 B( 13-C , 79-H ) :   0.9645 B( 14-C , 15-S ) :   1.0822
B( 14-C , 61-C ) :   1.5071 B( 15-S , 16-C ) :   1.1609 B( 16-C , 17-C ) :   1.1695
B( 16-C , 57-C ) :   1.4102 B( 17-C , 18-C ) :   1.6642 B( 17-C , 80-H ) :   0.9207
B( 18-C , 19-C ) :   1.1596 B( 18-C , 81-H ) :   0.9387 B( 19-C , 20-S ) :   1.1217
B( 19-C , 21-C ) :   0.1005 B( 19-C , 56-C ) :   1.5295 B( 20-S , 21-C ) :   1.1255
B( 21-C , 22-C ) :   1.1519 B( 21-C , 51-C ) :   1.5390 B( 22-C , 23-C ) :   1.6219
B( 22-C , 82-H ) :   0.9588 B( 23-C , 24-C ) :   1.2204 B( 23-C , 83-H ) :   0.9494
B( 24-C , 25-S ) :   1.0660 B( 24-C , 48-C ) :   1.5168 B( 25-S , 26-C ) :   1.1692
B( 26-C , 27-C ) :   1.1368 B( 26-C , 44-C ) :   1.4048 B( 27-C , 28-C ) :   1.6922
B( 27-C , 84-H ) :   0.9362 B( 28-C , 29-C ) :   1.0546 B( 28-C , 85-H ) :   0.9458
B( 29-C , 30-C ) :   1.3599 B( 29-C , 43-C ) :   1.2700 B( 30-C , 31-C ) :   1.3811
B( 30-C , 86-H ) :   0.9869 B( 31-C , 32-C ) :   1.3527 B( 31-C , 87-H ) :   0.9847
B( 32-C , 33-C ) :   1.3642 B( 32-C , 88-H ) :   1.0000 B( 33-C , 34-C ) :   1.0774
B( 33-C , 43-C ) :   1.2675 B( 34-C , 35-C ) :   1.3414 B( 34-C , 39-C ) :   1.3109
B( 35-C , 36-C ) :   1.4057 B( 35-C , 89-H ) :   0.9967 B( 36-C , 37-C ) :   1.3526
B( 36-C , 90-H ) :   0.9870 B( 37-C , 38-C ) :   1.3976 B( 37-C , 91-H ) :   0.9853
B( 38-C , 39-C ) :   1.3088 B( 38-C , 92-H ) :   1.0047 B( 39-C , 40-N ) :   1.1042
B( 40-N , 41-C ) :   0.9555 B( 40-N , 43-C ) :   1.1717 B( 41-C , 42-C ) :   1.1111
B( 41-C , 93-H ) :   0.9420 B( 41-C , 94-H ) :   0.9399 B( 42-C , 95-H ) :   0.9579
B( 42-C , 96-H ) :   0.9653 B( 42-C , 97-H ) :   0.9586 B( 44-C , 45-N ) :   0.9397
B( 44-C , 48-C ) :   1.2453 B( 45-N , 46-O ) :   1.4741 B( 45-N , 47-O ) :   1.5265
B( 46-O , 47-O ) :   0.2533 B( 48-C , 49-C ) :   1.1169 B( 49-C , 50-N ) :   2.9890
B( 51-C , 52-S ) :   1.0070 B( 51-C , 56-C ) :   1.2801 B( 52-S , 53-C ) :   0.9848
B( 52-S , 54-O ) :   0.1057 B( 53-C , 54-O ) :   2.1307 B( 53-C , 55-S ) :   0.9707
B( 54-O , 55-S ) :   0.1040 B( 55-S , 56-C ) :   1.0099 B( 57-C , 58-N ) :   0.9361
B( 57-C , 61-C ) :   1.2440 B( 58-N , 59-O ) :   1.4878 B( 58-N , 60-O ) :   1.5295
B( 59-O , 60-O ) :   0.2582 B( 61-C , 62-C ) :   1.1275 B( 62-C , 63-N ) :   2.9961
B( 64-C , 65-N ) :   1.1562 B( 65-N , 66-C ) :   0.9584 B( 65-N , 68-C ) :   1.1169
B( 66-C , 67-C ) :   1.1097 B( 66-C , 98-H ) :   0.9377 B( 66-C , 99-H ) :   0.9298
B( 67-C ,100-H ) :   0.9575 B( 67-C ,101-H ) :   0.9664 B( 67-C ,102-H ) :   0.9525

-----------------------------------------------------------------------------
         ABSORPTION SPECTRUM VIA TRANSITION ELECTRIC DIPOLE MOMENTS
-----------------------------------------------------------------------------
State   Energy  Wavelength   fosc         T2         TX        TY        TZ
        (cm-1)    (nm)                  (au**2)     (au)      (au)      (au)
-----------------------------------------------------------------------------
   0   17988.5    555.9   2.034466822  37.23335  -2.34799  -5.45022   1.41964
   1   20894.9    478.6   0.182307693   2.87237  -0.49427   0.54910  -1.52531
   2   23278.5    429.6   0.200417084   2.83436  -0.09163   1.15921   1.21745
   3   25153.8    397.6   0.064874343   0.84907   0.42214  -0.24616  -0.78120
   4   26156.4    382.3   0.240175469   3.02292  -0.49205  -0.92783   1.38562
   5   26908.4    371.6   0.198841617   2.43274  -0.77428  -0.06155   1.35257
   6   27303.9    366.2   0.270469591   3.26114  -1.22327  -1.26125   0.41714
   7   28023.3    356.8   0.094003751   1.10434  -0.47709  -0.70089   0.62086
   8   28516.7    350.7   0.061098866   0.70536  -0.21654  -0.68783  -0.43053
   9   29199.0    342.5   0.093436766   1.05348  -0.00692  -0.57923   0.84731
  10   30869.3    323.9   0.080290364   0.85627  -0.24119   0.10938   0.88664
  11   31317.0    319.3   0.013585686   0.14282  -0.10116   0.35214   0.09263
  12   31856.0    313.9   0.055141059   0.56985   0.16508   0.56806  -0.46894
  13   31954.0    313.0   0.015469077   0.15937  -0.24029  -0.03256   0.31713
  14   32592.9    306.8   0.004021954   0.04062  -0.09102   0.17884  -0.01890
  15   33751.7    296.3   0.001664147   0.01623   0.05622  -0.05108  -0.10228
  16   33872.5    295.2   0.061731427   0.59998  -0.16096  -0.61952   0.43619
  17   34594.8    289.1   0.006008335   0.05718   0.00896   0.10529   0.21450
  18   35058.3    285.2   0.027826432   0.26130   0.08454  -0.18773   0.46788
  19   35820.2    279.2   0.052331196   0.48096   0.00088  -0.65527   0.22712
  20   36111.4    276.9   0.161185084   1.46946   0.18604  -0.50593   1.08576
  21   36825.8    271.5   0.049505632   0.44257  -0.14724   0.31071   0.56951
  22   36982.5    270.4   0.045643317   0.40631  -0.21500  -0.07986   0.59473
  23   37337.5    267.8   0.027732144   0.24452  -0.06210   0.31846   0.37316
  24   37482.1    266.8   0.020004022   0.17570  -0.36643  -0.14792   0.13983
  25   38038.1    262.9   0.121285496   1.04970  -0.09931  -1.01920  -0.03268
  26   38490.4    259.8   0.046069924   0.39404  -0.07476   0.45814   0.42256
  27   38624.3    258.9   0.033167216   0.28270  -0.09481  -0.35015   0.38872
  28   38889.7    257.1   0.179056850   1.51577   0.59186   0.28289  -1.04184
  29   39142.5    255.5   0.018518625   0.15575   0.19746  -0.29057   0.17980
  30   39695.9    251.9   0.024361464   0.20204   0.28503   0.30606   0.16468
  31   39749.6    251.6   0.139811555   1.15794   0.52916   0.92662  -0.13898
  32   40115.9    249.3   0.021341970   0.17514  -0.24426  -0.33073   0.07810
  33   40278.9    248.3   0.040690374   0.33257  -0.18959  -0.26635   0.47507

FINAL SINGLE POINT ENERGY     -4731.417229004934

DIPOLE MOMENT
-------------
                                X             Y             Z
Electronic contribution:    -20.96000      18.32842      10.85852
Nuclear contribution   :     21.65675     -19.40650     -10.53799
                        -----------------------------------------
Total Dipole Moment    :      0.69675      -1.07808       0.32054
                        -----------------------------------------
Magnitude (a.u.)       :      1.32305
Magnitude (Debye)      :      3.36292

Rotational constants in cm-1:     0.002107     0.000203     0.000194
Rotational constants in MHz :    63.170198     6.093850     5.806949

                             ****ORCA TERMINATED NORMALLY****
TOTAL RUN TIME: 0 days 0 hours 8 minutes 47 seconds 547 msec
