                         Program Version 4.2.0 -  RELEASE  -
|  1> # ORCA input file
|  2> # SCF done       -192.654837652573          0.000503685896
|  3> ! CAM-B3LYP def2-SVP def2/J RIJCOSX Grid4 TightSCF
|  4> %maxcore 5000
|  5> %tddft
|  6>     Mode sTDDFT
|  7>     Ethresh 5.0
|  8>     maxcore 5000
|  9> end
| 10>
| 11> %pal
| 12>   nprocs 6
| 13>   end
| 14> * xyz 0 1
| 15>    C       -1.55188         0.70249        -6.14313
| 16>    C       -2.27279        -0.44138        -6.45985
| 17>    N       -2.46830        -1.59074        -5.72397
| 18>    C       -1.90672        -1.77351        -4.40978
| 19>    C       -2.81004        -1.19832        -3.32065
| 20>    C       -3.27083        -2.44155        -6.43721
| 21>    C       -3.57477        -1.84058        -7.69091
| 22>    C       -2.94393        -0.55295        -7.69642
| 23>    C       -2.88706         0.47949        -8.62322
| 24>    C       -2.16530         1.61144        -8.30284
| 25>    C       -1.50840         1.71813        -7.07870
| 26>    C       -4.33014        -2.49909        -8.64561
| 27>    C       -4.78244        -3.77603        -8.36265
| 28>    C       -4.48437        -4.37356        -7.15145
| 29>    C       -3.73676        -3.73996        -6.14924
| 30>    C       -3.52644        -4.41758        -4.89002
| 31>    C       -3.37973        -5.75747        -4.79564
| 32>    C       -3.26322        -6.56246        -3.62611
| 33>    S       -3.43067        -8.27770        -3.88062
| 34>    C       -3.32381        -8.65288        -2.18174
| 35>    C       -3.16997        -7.48659        -1.44947
| 36>    C       -3.11969        -6.31536        -2.26485
| 37>    N       -2.85880        -5.06125        -1.66213
| 38>    O       -2.26635        -4.21797        -2.31659
| 39>    O       -3.21701        -4.90382        -0.51147
| 40>    C       -2.98531        -7.44900        -0.05385
| 41>    N       -2.80205        -7.45393         1.07871
| 42>    C       -3.38576       -10.02238        -1.79841
| 43>    C       -3.43204       -10.48586        -0.53044
| 44>    C       -3.46008       -11.86665        -0.13233
| 45>    C       -3.66420       -12.17335         1.23706
| 46>    O       -3.86786       -11.12325         2.06474
| 47>    C       -4.02923       -11.35452         3.44506
| 48>    C       -3.65351       -13.49595         1.63767
| 49>    C       -3.43498       -14.55614         0.74748
| 50>    C       -3.25522       -14.24768        -0.62511
| 51>    C       -3.27187       -12.92403        -1.02633
| 52>    O       -3.08660       -15.28335        -1.48634
| 53>    C       -3.01247       -15.04274        -2.87888
| 54>    C       -2.92109       -16.39708        -3.56577
| 55>    C       -3.42362       -15.87917         1.30988
| 56>    C       -2.99349       -17.00918         0.70480
| 57>    C       -2.99245       -18.34038         1.21266
| 58>    S       -2.17935       -19.50095         0.19461
| 59>    C       -2.59629       -20.85213         1.20846
| 60>    C       -3.36620       -20.41953         2.27549
| 61>    C       -3.57502       -19.00662         2.28498
| 62>    N       -4.35562       -18.44245         3.32857
| 63>    O       -4.10132       -17.31428         3.71093
| 64>    O       -5.23420       -19.14095         3.79511
| 65>    C       -3.85338       -21.27047         3.28541
| 66>    N       -4.20561       -21.99600         4.10155
| 67>    C       -2.12856       -22.14453         0.82782
| 68>    C       -2.30650       -23.29624         1.50651
| 69>    C       -1.75652       -24.56040         1.06791
| 70>    C       -1.65708       -24.97475        -0.26987
| 71>    N       -2.22443       -24.45051        -1.41678
| 72>    C       -3.49408       -23.75436        -1.45099
| 73>    C       -4.56075       -24.46088        -0.61737
| 74>    C       -1.74789       -25.18081        -2.49613
| 75>    C       -0.91906       -26.22623        -2.03308
| 76>    C       -0.87132       -26.10395        -0.60382
| 77>    C       -0.26355       -26.87227         0.37682
| 78>    C       -0.45805       -26.52531         1.70188
| 79>    C       -1.19045       -25.39789         2.03442
| 80>    C       -0.34498       -27.13007        -2.91582
| 81>    C       -0.59794       -26.97622        -4.26397
| 82>    C       -1.37384       -25.91982        -4.72343
| 83>    C       -1.95081       -24.98558        -3.86721
| 84>    C       -2.64292       -23.82082        -4.42658
| 85>    C       -3.45598       -23.86156        -5.47309
| 86>    H       -1.03948         0.80938        -5.19943
| 87>    H       -0.93661        -1.26949        -4.38586
| 88>    H       -1.73226        -2.83554        -4.23183
| 89>    H       -2.87696        -0.11624        -3.40853
| 90>    H       -2.40898        -1.45469        -2.34494
| 91>    H       -3.81512        -1.60720        -3.39991
| 92>    H       -3.39914         0.39614        -9.56987
| 93>    H       -2.10778         2.42907        -9.00561
| 94>    H       -0.95367         2.61742        -6.85504
| 95>    H       -4.55602        -2.02316        -9.58732
| 96>    H       -5.37964        -4.31115        -9.08539
| 97>    H       -4.88576        -5.35440        -6.94610
| 98>    H       -3.51612        -3.81244        -3.99898
| 99>    H       -3.36559        -6.33795        -5.71022
|100>    H       -3.41305       -10.70791        -2.63522
|101>    H       -3.45702        -9.78219         0.28722
|102>    H       -4.13857       -10.36725         3.89032
|103>    H       -3.15380       -11.85134         3.87331
|104>    H       -4.92496       -11.94832         3.65067
|105>    H       -3.80262       -13.74888         2.67537
|106>    H       -3.11425       -12.68519        -2.06431
|107>    H       -2.12507       -14.43895        -3.11316
|108>    H       -3.90858       -14.50524        -3.21699
|109>    H       -2.02864       -16.92317        -3.23735
|110>    H       -2.87759       -16.26283        -4.64253
|111>    H       -3.79106       -16.99846        -3.31598
|112>    H       -3.76685       -15.93067         2.33336
|113>    H       -2.56905       -16.93655        -0.28540
|114>    H       -1.53659       -22.15768        -0.07901
|115>    H       -2.78852       -23.28694         2.47326
|116>    H       -3.82165       -23.73181        -2.49111
|117>    H       -3.38228       -22.72301        -1.10096
|118>    H       -4.62974       -25.50778        -0.90481
|119>    H       -5.52450       -23.98804        -0.78678
|120>    H       -4.33378       -24.40621         0.44405
|121>    H        0.33378       -27.72966         0.10766
|122>    H       -0.02009       -27.12323         2.48652
|123>    H       -1.29149       -25.11680         3.07239
|124>    H        0.28647       -27.92602        -2.55242
|125>    H       -0.16883       -27.66475        -4.97632
|126>    H       -1.50693       -25.78804        -5.78688
|127>    H       -2.41373       -22.87078        -3.95735
|128>    H       -3.71443       -24.79004        -5.95431
|129>    H       -3.90761       -22.97120        -5.87621
|130> *
|131>
|132>                          ****END OF INPUT****

CARTESIAN COORDINATES (ANGSTROEM)
---------------------------------
  C     -1.551880    0.702490   -6.143130
  C     -2.272790   -0.441380   -6.459850
  N     -2.468300   -1.590740   -5.723970
  C     -1.906720   -1.773510   -4.409780
  C     -2.810040   -1.198320   -3.320650
  C     -3.270830   -2.441550   -6.437210
  C     -3.574770   -1.840580   -7.690910
  C     -2.943930   -0.552950   -7.696420
  C     -2.887060    0.479490   -8.623220
  C     -2.165300    1.611440   -8.302840
  C     -1.508400    1.718130   -7.078700
  C     -4.330140   -2.499090   -8.645610
  C     -4.782440   -3.776030   -8.362650
  C     -4.484370   -4.373560   -7.151450
  C     -3.736760   -3.739960   -6.149240
  C     -3.526440   -4.417580   -4.890020
  C     -3.379730   -5.757470   -4.795640
  C     -3.263220   -6.562460   -3.626110
  S     -3.430670   -8.277700   -3.880620
  C     -3.323810   -8.652880   -2.181740
  C     -3.169970   -7.486590   -1.449470
  C     -3.119690   -6.315360   -2.264850
  N     -2.858800   -5.061250   -1.662130
  O     -2.266350   -4.217970   -2.316590
  O     -3.217010   -4.903820   -0.511470
  C     -2.985310   -7.449000   -0.053850
  N     -2.802050   -7.453930    1.078710
  C     -3.385760  -10.022380   -1.798410
  C     -3.432040  -10.485860   -0.530440
  C     -3.460080  -11.866650   -0.132330
  C     -3.664200  -12.173350    1.237060
  O     -3.867860  -11.123250    2.064740
  C     -4.029230  -11.354520    3.445060
  C     -3.653510  -13.495950    1.637670
  C     -3.434980  -14.556140    0.747480
  C     -3.255220  -14.247680   -0.625110
  C     -3.271870  -12.924030   -1.026330
  O     -3.086600  -15.283350   -1.486340
  C     -3.012470  -15.042740   -2.878880
  C     -2.921090  -16.397080   -3.565770
  C     -3.423620  -15.879170    1.309880
  C     -2.993490  -17.009180    0.704800
  C     -2.992450  -18.340380    1.212660
  S     -2.179350  -19.500950    0.194610
  C     -2.596290  -20.852130    1.208460
  C     -3.366200  -20.419530    2.275490
  C     -3.575020  -19.006620    2.284980
  N     -4.355620  -18.442450    3.328570
  O     -4.101320  -17.314280    3.710930
  O     -5.234200  -19.140950    3.795110
  C     -3.853380  -21.270470    3.285410
  N     -4.205610  -21.996000    4.101550
  C     -2.128560  -22.144530    0.827820
  C     -2.306500  -23.296240    1.506510
  C     -1.756520  -24.560400    1.067910
  C     -1.657080  -24.974750   -0.269870
  N     -2.224430  -24.450510   -1.416780
  C     -3.494080  -23.754360   -1.450990
  C     -4.560750  -24.460880   -0.617370
  C     -1.747890  -25.180810   -2.496130
  C     -0.919060  -26.226230   -2.033080
  C     -0.871320  -26.103950   -0.603820
  C     -0.263550  -26.872270    0.376820
  C     -0.458050  -26.525310    1.701880
  C     -1.190450  -25.397890    2.034420
  C     -0.344980  -27.130070   -2.915820
  C     -0.597940  -26.976220   -4.263970
  C     -1.373840  -25.919820   -4.723430
  C     -1.950810  -24.985580   -3.867210
  C     -2.642920  -23.820820   -4.426580
  C     -3.455980  -23.861560   -5.473090
  H     -1.039480    0.809380   -5.199430
  H     -0.936610   -1.269490   -4.385860
  H     -1.732260   -2.835540   -4.231830
  H     -2.876960   -0.116240   -3.408530
  H     -2.408980   -1.454690   -2.344940
  H     -3.815120   -1.607200   -3.399910
  H     -3.399140    0.396140   -9.569870
  H     -2.107780    2.429070   -9.005610
  H     -0.953670    2.617420   -6.855040
  H     -4.556020   -2.023160   -9.587320
  H     -5.379640   -4.311150   -9.085390
  H     -4.885760   -5.354400   -6.946100
  H     -3.516120   -3.812440   -3.998980
  H     -3.365590   -6.337950   -5.710220
  H     -3.413050  -10.707910   -2.635220
  H     -3.457020   -9.782190    0.287220
  H     -4.138570  -10.367250    3.890320
  H     -3.153800  -11.851340    3.873310
  H     -4.924960  -11.948320    3.650670
  H     -3.802620  -13.748880    2.675370
  H     -3.114250  -12.685190   -2.064310
  H     -2.125070  -14.438950   -3.113160
  H     -3.908580  -14.505240   -3.216990
  H     -2.028640  -16.923170   -3.237350
  H     -2.877590  -16.262830   -4.642530
  H     -3.791060  -16.998460   -3.315980
  H     -3.766850  -15.930670    2.333360
  H     -2.569050  -16.936550   -0.285400
  H     -1.536590  -22.157680   -0.079010
  H     -2.788520  -23.286940    2.473260
  H     -3.821650  -23.731810   -2.491110
  H     -3.382280  -22.723010   -1.100960
  H     -4.629740  -25.507780   -0.904810
  H     -5.524500  -23.988040   -0.786780
  H     -4.333780  -24.406210    0.444050
  H      0.333780  -27.729660    0.107660
  H     -0.020090  -27.123230    2.486520
  H     -1.291490  -25.116800    3.072390
  H      0.286470  -27.926020   -2.552420
  H     -0.168830  -27.664750   -4.976320
  H     -1.506930  -25.788040   -5.786880
  H     -2.413730  -22.870780   -3.957350
  H     -3.714430  -24.790040   -5.954310
  H     -3.907610  -22.971200   -5.876210

 Total Charge           Charge          ....    0
 Multiplicity           Mult            ....    1
 Number of Electrons    NEL             ....  508
 Basis Dimension        Dim             .... 1222

ORBITAL ENERGIES
----------------

  NO   OCC          E(Eh)            E(eV)
   0   2.0000     -88.985010     -2421.4052
   1   2.0000     -88.983583     -2421.3664
   2   2.0000     -19.257737      -524.0297
   3   2.0000     -19.249487      -523.8052
   4   2.0000     -19.249045      -523.7931
   5   2.0000     -19.247441      -523.7495
   6   2.0000     -19.245017      -523.6835
   7   2.0000     -19.244708      -523.6751
   8   2.0000     -14.656328      -398.8190
   9   2.0000     -14.652910      -398.7260
  10   2.0000     -14.449944      -393.2030
  11   2.0000     -14.448697      -393.1690
  12   2.0000     -14.403610      -391.9422
  13   2.0000     -14.402493      -391.9118
  14   2.0000     -10.343529      -281.4617
  15   2.0000     -10.342079      -281.4223
  16   2.0000     -10.341777      -281.4141
  17   2.0000     -10.341481      -281.4060
  18   2.0000     -10.340928      -281.3910
  19   2.0000     -10.338988      -281.3382
  20   2.0000     -10.337611      -281.3007
  21   2.0000     -10.337255      -281.2910
  22   2.0000     -10.336741      -281.2770
  23   2.0000     -10.326867      -281.0083
  24   2.0000     -10.325779      -280.9787
  25   2.0000     -10.322265      -280.8831
  26   2.0000     -10.308899      -280.5194
  27   2.0000     -10.307368      -280.4778
  28   2.0000     -10.306157      -280.4448
  29   2.0000     -10.305842      -280.4362
  30   2.0000     -10.305219      -280.4193
  31   2.0000     -10.303257      -280.3659
  32   2.0000     -10.302838      -280.3545
  33   2.0000     -10.297940      -280.2212
  34   2.0000     -10.294556      -280.1291
  35   2.0000     -10.292719      -280.0791
  36   2.0000     -10.292247      -280.0663
  37   2.0000     -10.291351      -280.0419
  38   2.0000     -10.290835      -280.0279
  39   2.0000     -10.290619      -280.0220
  40   2.0000     -10.289391      -279.9886
  41   2.0000     -10.288317      -279.9593
  42   2.0000     -10.286816      -279.9185
  43   2.0000     -10.285270      -279.8764
  44   2.0000     -10.281955      -279.7862
  45   2.0000     -10.280290      -279.7409
  46   2.0000     -10.280027      -279.7338
  47   2.0000     -10.278974      -279.7051
  48   2.0000     -10.278143      -279.6825
  49   2.0000     -10.275686      -279.6156
  50   2.0000     -10.275644      -279.6145
  51   2.0000     -10.270888      -279.4851
  52   2.0000     -10.270755      -279.4814
  53   2.0000     -10.270112      -279.4639
  54   2.0000     -10.269458      -279.4462
  55   2.0000     -10.267798      -279.4010
  56   2.0000     -10.266530      -279.3665
  57   2.0000     -10.266500      -279.3657
  58   2.0000     -10.265405      -279.3359
  59   2.0000     -10.264893      -279.3219
  60   2.0000     -10.264760      -279.3183
  61   2.0000     -10.264578      -279.3134
  62   2.0000     -10.264293      -279.3056
  63   2.0000     -10.262833      -279.2659
  64   2.0000     -10.262115      -279.2463
  65   2.0000     -10.260964      -279.2150
  66   2.0000     -10.260118      -279.1920
  67   2.0000     -10.260056      -279.1903
  68   2.0000     -10.258477      -279.1473
  69   2.0000     -10.255967      -279.0791
  70   2.0000     -10.254597      -279.0418
  71   2.0000      -8.080993      -219.8950
  72   2.0000      -8.079471      -219.8536
  73   2.0000      -6.050204      -164.6344
  74   2.0000      -6.048655      -164.5923
  75   2.0000      -6.046142      -164.5239
  76   2.0000      -6.044614      -164.4823
  77   2.0000      -6.043023      -164.4390
  78   2.0000      -6.041556      -164.3991
  79   2.0000      -1.327955       -36.1355
  80   2.0000      -1.325104       -36.0579
  81   2.0000      -1.163138       -31.6506
  82   2.0000      -1.155435       -31.4410
  83   2.0000      -1.145492       -31.1704
  84   2.0000      -1.142983       -31.1022
  85   2.0000      -1.079949       -29.3869
  86   2.0000      -1.079420       -29.3725
  87   2.0000      -1.025410       -27.9028
  88   2.0000      -1.024200       -27.8699
  89   2.0000      -0.985520       -26.8174
  90   2.0000      -0.984326       -26.7849
  91   2.0000      -0.964446       -26.2439
  92   2.0000      -0.949688       -25.8423
  93   2.0000      -0.948031       -25.7972
  94   2.0000      -0.944531       -25.7020
  95   2.0000      -0.937898       -25.5215
  96   2.0000      -0.930952       -25.3325
  97   2.0000      -0.925893       -25.1948
  98   2.0000      -0.914709       -24.8905
  99   2.0000      -0.912949       -24.8426
 100   2.0000      -0.904273       -24.6065
 101   2.0000      -0.896462       -24.3940
 102   2.0000      -0.886501       -24.1229
 103   2.0000      -0.878695       -23.9105
 104   2.0000      -0.873212       -23.7613
 105   2.0000      -0.868327       -23.6284
 106   2.0000      -0.864269       -23.5179
 107   2.0000      -0.854329       -23.2475
 108   2.0000      -0.838494       -22.8166
 109   2.0000      -0.836135       -22.7524
 110   2.0000      -0.835748       -22.7418
 111   2.0000      -0.830461       -22.5980
 112   2.0000      -0.827616       -22.5206
 113   2.0000      -0.825234       -22.4558
 114   2.0000      -0.805679       -21.9236
 115   2.0000      -0.801685       -21.8150
 116   2.0000      -0.799034       -21.7428
 117   2.0000      -0.795574       -21.6487
 118   2.0000      -0.786495       -21.4016
 119   2.0000      -0.785478       -21.3740
 120   2.0000      -0.767652       -20.8889
 121   2.0000      -0.750837       -20.4313
 122   2.0000      -0.742350       -20.2004
 123   2.0000      -0.739494       -20.1227
 124   2.0000      -0.737270       -20.0621
 125   2.0000      -0.725032       -19.7291
 126   2.0000      -0.724256       -19.7080
 127   2.0000      -0.708958       -19.2917
 128   2.0000      -0.707906       -19.2631
 129   2.0000      -0.702543       -19.1172
 130   2.0000      -0.694900       -18.9092
 131   2.0000      -0.691784       -18.8244
 132   2.0000      -0.691186       -18.8081
 133   2.0000      -0.679725       -18.4963
 134   2.0000      -0.676885       -18.4190
 135   2.0000      -0.669272       -18.2118
 136   2.0000      -0.668526       -18.1915
 137   2.0000      -0.659363       -17.9422
 138   2.0000      -0.653594       -17.7852
 139   2.0000      -0.652957       -17.7679
 140   2.0000      -0.647792       -17.6273
 141   2.0000      -0.646067       -17.5804
 142   2.0000      -0.637798       -17.3554
 143   2.0000      -0.631288       -17.1782
 144   2.0000      -0.625537       -17.0217
 145   2.0000      -0.624551       -16.9949
 146   2.0000      -0.622227       -16.9317
 147   2.0000      -0.616436       -16.7741
 148   2.0000      -0.608499       -16.5581
 149   2.0000      -0.605291       -16.4708
 150   2.0000      -0.602603       -16.3977
 151   2.0000      -0.601046       -16.3553
 152   2.0000      -0.599712       -16.3190
 153   2.0000      -0.597424       -16.2567
 154   2.0000      -0.593925       -16.1615
 155   2.0000      -0.588145       -16.0042
 156   2.0000      -0.583571       -15.8798
 157   2.0000      -0.579420       -15.7668
 158   2.0000      -0.576508       -15.6876
 159   2.0000      -0.571355       -15.5474
 160   2.0000      -0.563649       -15.3377
 161   2.0000      -0.560231       -15.2446
 162   2.0000      -0.556596       -15.1458
 163   2.0000      -0.556300       -15.1377
 164   2.0000      -0.550947       -14.9920
 165   2.0000      -0.550574       -14.9819
 166   2.0000      -0.542912       -14.7734
 167   2.0000      -0.540727       -14.7139
 168   2.0000      -0.539875       -14.6908
 169   2.0000      -0.538814       -14.6619
 170   2.0000      -0.535604       -14.5745
 171   2.0000      -0.531267       -14.4565
 172   2.0000      -0.527632       -14.3576
 173   2.0000      -0.525638       -14.3033
 174   2.0000      -0.521962       -14.2033
 175   2.0000      -0.520865       -14.1735
 176   2.0000      -0.518357       -14.1052
 177   2.0000      -0.516818       -14.0633
 178   2.0000      -0.516077       -14.0432
 179   2.0000      -0.513637       -13.9768
 180   2.0000      -0.507878       -13.8201
 181   2.0000      -0.503512       -13.7013
 182   2.0000      -0.502301       -13.6683
 183   2.0000      -0.499324       -13.5873
 184   2.0000      -0.498669       -13.5695
 185   2.0000      -0.497493       -13.5375
 186   2.0000      -0.494309       -13.4508
 187   2.0000      -0.493840       -13.4381
 188   2.0000      -0.489952       -13.3323
 189   2.0000      -0.488376       -13.2894
 190   2.0000      -0.481397       -13.0995
 191   2.0000      -0.477257       -12.9868
 192   2.0000      -0.475798       -12.9471
 193   2.0000      -0.470535       -12.8039
 194   2.0000      -0.470065       -12.7911
 195   2.0000      -0.469348       -12.7716
 196   2.0000      -0.466606       -12.6970
 197   2.0000      -0.465559       -12.6685
 198   2.0000      -0.462858       -12.5950
 199   2.0000      -0.461922       -12.5695
 200   2.0000      -0.459832       -12.5127
 201   2.0000      -0.457825       -12.4580
 202   2.0000      -0.450733       -12.2651
 203   2.0000      -0.450339       -12.2543
 204   2.0000      -0.447267       -12.1708
 205   2.0000      -0.446043       -12.1374
 206   2.0000      -0.444535       -12.0964
 207   2.0000      -0.442956       -12.0534
 208   2.0000      -0.441136       -12.0039
 209   2.0000      -0.438563       -11.9339
 210   2.0000      -0.436664       -11.8822
 211   2.0000      -0.434436       -11.8216
 212   2.0000      -0.432743       -11.7755
 213   2.0000      -0.431947       -11.7539
 214   2.0000      -0.431484       -11.7413
 215   2.0000      -0.430981       -11.7276
 216   2.0000      -0.428990       -11.6734
 217   2.0000      -0.424102       -11.5404
 218   2.0000      -0.419042       -11.4027
 219   2.0000      -0.418868       -11.3980
 220   2.0000      -0.416075       -11.3220
 221   2.0000      -0.414493       -11.2789
 222   2.0000      -0.413710       -11.2576
 223   2.0000      -0.410588       -11.1727
 224   2.0000      -0.409193       -11.1347
 225   2.0000      -0.408089       -11.1047
 226   2.0000      -0.405845       -11.0436
 227   2.0000      -0.400069       -10.8864
 228   2.0000      -0.392892       -10.6911
 229   2.0000      -0.391220       -10.6456
 230   2.0000      -0.389750       -10.6056
 231   2.0000      -0.388269       -10.5653
 232   2.0000      -0.386731       -10.5235
 233   2.0000      -0.386430       -10.5153
 234   2.0000      -0.377772       -10.2797
 235   2.0000      -0.374947       -10.2028
 236   2.0000      -0.371122       -10.0987
 237   2.0000      -0.369066       -10.0428
 238   2.0000      -0.367658       -10.0045
 239   2.0000      -0.361662        -9.8413
 240   2.0000      -0.351693        -9.5701
 241   2.0000      -0.344436        -9.3726
 242   2.0000      -0.342371        -9.3164
 243   2.0000      -0.338193        -9.2027
 244   2.0000      -0.327580        -8.9139
 245   2.0000      -0.317040        -8.6271
 246   2.0000      -0.309098        -8.4110
 247   2.0000      -0.291413        -7.9298
 248   2.0000      -0.287698        -7.8287
 249   2.0000      -0.274509        -7.4698
 250   2.0000      -0.273007        -7.4289
 251   2.0000      -0.262854        -7.1526
 252   2.0000      -0.254107        -6.9146
 253   2.0000      -0.243125        -6.6158
 254   0.0000      -0.079655        -2.1675
 255   0.0000      -0.066781        -1.8172
 256   0.0000      -0.048897        -1.3306
 257   0.0000      -0.044385        -1.2078
 258   0.0000      -0.007304        -0.1987

MULLIKEN ATOMIC CHARGES
-----------------------
   0 C :   -0.077860
   1 C :    0.127186
   2 N :   -0.174503
   3 C :    0.072929
   4 C :    0.018820
   5 C :    0.104239
   6 C :    0.062184
   7 C :    0.072181
   8 C :   -0.049237
   9 C :    0.025483
  10 C :    0.024681
  11 C :   -0.045759
  12 C :    0.027113
  13 C :   -0.040406
  14 C :    0.023732
  15 C :   -0.021405
  16 C :    0.033417
  17 C :   -0.163234
  18 S :    0.156424
  19 C :   -0.076475
  20 C :   -0.077123
  21 C :    0.211228
  22 N :    0.256566
  23 O :   -0.254914
  24 O :   -0.210806
  25 C :   -0.234973
  26 N :    0.155038
  27 C :    0.075658
  28 C :   -0.007862
  29 C :    0.046108
  30 C :    0.249217
  31 O :   -0.306071
  32 C :    0.175968
  33 C :   -0.168400
  34 C :    0.080760
  35 C :    0.226082
  36 C :   -0.147876
  37 O :   -0.323127
  38 C :    0.134328
  39 C :    0.017470
  40 C :   -0.033035
  41 C :    0.055652
  42 C :   -0.156601
  43 S :    0.157099
  44 C :   -0.087578
  45 C :   -0.078894
  46 C :    0.219818
  47 N :    0.258110
  48 O :   -0.239964
  49 O :   -0.217580
  50 C :   -0.227508
  51 N :    0.148488
  52 C :    0.044027
  53 C :   -0.057689
  54 C :    0.021625
  55 C :    0.080919
  56 N :   -0.199560
  57 C :    0.093528
  58 C :    0.011200
  59 C :    0.077721
  60 C :    0.069099
  61 C :    0.079948
  62 C :   -0.050803
  63 C :    0.032393
  64 C :   -0.030232
  65 C :   -0.052917
  66 C :    0.036685
  67 C :   -0.047689
  68 C :    0.028396
  69 C :   -0.054564
  70 C :   -0.018874
  71 H :   -0.038970
  72 H :    0.019828
  73 H :    0.047330
  74 H :    0.015094
  75 H :    0.034305
  76 H :    0.021001
  77 H :   -0.036157
  78 H :   -0.022617
  79 H :   -0.017834
  80 H :   -0.031266
  81 H :   -0.023883
  82 H :   -0.028320
  83 H :    0.010981
  84 H :   -0.011151
  85 H :   -0.030107
  86 H :    0.020531
  87 H :    0.050339
  88 H :    0.027922
  89 H :    0.026971
  90 H :   -0.025169
  91 H :   -0.037746
  92 H :    0.022386
  93 H :    0.018476
  94 H :    0.028054
  95 H :    0.022641
  96 H :    0.030241
  97 H :    0.004129
  98 H :   -0.005138
  99 H :    0.000335
 100 H :    0.023297
 101 H :    0.031886
 102 H :    0.016034
 103 H :    0.023552
 104 H :    0.021379
 105 H :    0.032161
 106 H :   -0.030782
 107 H :   -0.019177
 108 H :   -0.019308
 109 H :   -0.034199
 110 H :   -0.022989
 111 H :   -0.027184
 112 H :    0.011929
 113 H :    0.022205
 114 H :    0.020987
Sum of atomic charges:   -0.0000000

LOEWDIN ATOMIC CHARGES
----------------------
   0 C :   -0.058267
   1 C :    0.030336
   2 N :    0.027392
   3 C :    0.038932
   4 C :   -0.061701
   5 C :    0.041926
   6 C :   -0.041572
   7 C :   -0.044156
   8 C :   -0.012191
   9 C :   -0.045873
  10 C :   -0.019085
  11 C :   -0.002565
  12 C :   -0.049711
  13 C :   -0.010965
  14 C :   -0.065391
  15 C :    0.028571
  16 C :   -0.077113
  17 C :   -0.129047
  18 S :    0.474922
  19 C :   -0.129331
  20 C :   -0.101539
  21 C :   -0.064678
  22 N :    0.289014
  23 O :   -0.211365
  24 O :   -0.170777
  25 C :   -0.038130
  26 N :   -0.045064
  27 C :   -0.064168
  28 C :    0.024901
  29 C :   -0.040894
  30 C :    0.055109
  31 O :   -0.091799
  32 C :    0.080730
  33 C :   -0.049621
  34 C :   -0.034950
  35 C :    0.055130
  36 C :   -0.052267
  37 O :   -0.094426
  38 C :    0.082540
  39 C :   -0.060246
  40 C :    0.017412
  41 C :   -0.068475
  42 C :   -0.130119
  43 S :    0.475998
  44 C :   -0.132411
  45 C :   -0.104639
  46 C :   -0.058437
  47 N :    0.287738
  48 O :   -0.202420
  49 O :   -0.175623
  50 C :   -0.035617
  51 N :   -0.049845
  52 C :   -0.068744
  53 C :    0.018047
  54 C :   -0.060044
  55 C :    0.032899
  56 N :    0.008952
  57 C :    0.037182
  58 C :   -0.058506
  59 C :    0.032109
  60 C :   -0.041615
  61 C :   -0.038379
  62 C :   -0.007533
  63 C :   -0.041651
  64 C :   -0.007019
  65 C :   -0.013505
  66 C :   -0.042220
  67 C :   -0.013780
  68 C :   -0.056048
  69 C :   -0.023084
  70 C :   -0.046043
  71 H :    0.025486
  72 H :    0.028307
  73 H :    0.030809
  74 H :    0.024828
  75 H :    0.033181
  76 H :    0.023806
  77 H :    0.026209
  78 H :    0.025116
  79 H :    0.027421
  80 H :    0.028518
  81 H :    0.026158
  82 H :    0.025144
  83 H :    0.026711
  84 H :    0.027725
  85 H :    0.021865
  86 H :    0.040321
  87 H :    0.035285
  88 H :    0.017770
  89 H :    0.017050
  90 H :    0.034121
  91 H :    0.026185
  92 H :    0.014521
  93 H :    0.014842
  94 H :    0.028831
  95 H :    0.032998
  96 H :    0.031125
  97 H :    0.027925
  98 H :    0.024599
  99 H :    0.029970
 100 H :    0.039160
 101 H :    0.034311
 102 H :    0.017897
 103 H :    0.030587
 104 H :    0.031309
 105 H :    0.029331
 106 H :    0.028249
 107 H :    0.028054
 108 H :    0.031070
 109 H :    0.026984
 110 H :    0.026346
 111 H :    0.026891
 112 H :    0.028532
 113 H :    0.023595
 114 H :    0.023667

  Mayer bond orders larger than 0.100000
B(  0-C ,  1-C ) :   1.3081 B(  0-C , 10-C ) :   1.4015 B(  0-C , 71-H ) :   1.0032
B(  1-C ,  2-N ) :   1.1094 B(  1-C ,  7-C ) :   1.3079 B(  2-N ,  3-C ) :   0.9514
B(  2-N ,  5-C ) :   1.1703 B(  3-C ,  4-C ) :   1.1111 B(  3-C , 72-H ) :   0.9386
B(  3-C , 73-H ) :   0.9407 B(  4-C , 74-H ) :   0.9602 B(  4-C , 75-H ) :   0.9645
B(  4-C , 76-H ) :   0.9621 B(  5-C ,  6-C ) :   1.2655 B(  5-C , 14-C ) :   1.2793
B(  6-C ,  7-C ) :   1.0824 B(  6-C , 11-C ) :   1.3572 B(  7-C ,  8-C ) :   1.3365
B(  8-C ,  9-C ) :   1.4095 B(  8-C , 77-H ) :   0.9959 B(  9-C , 10-C ) :   1.3523
B(  9-C , 78-H ) :   0.9856 B( 10-C , 79-H ) :   0.9836 B( 11-C , 12-C ) :   1.3600
B( 11-C , 80-H ) :   1.0004 B( 12-C , 13-C ) :   1.3699 B( 12-C , 81-H ) :   0.9846
B( 13-C , 14-C ) :   1.3673 B( 13-C , 82-H ) :   0.9872 B( 14-C , 15-C ) :   1.0496
B( 15-C , 16-C ) :   1.7292 B( 15-C , 83-H ) :   0.9586 B( 16-C , 17-C ) :   1.1151
B( 16-C , 84-H ) :   0.9378 B( 17-C , 18-S ) :   1.1545 B( 17-C , 21-C ) :   1.4414
B( 18-S , 19-C ) :   1.1000 B( 19-C , 20-C ) :   1.5138 B( 19-C , 27-C ) :   1.1447
B( 20-C , 21-C ) :   1.2577 B( 20-C , 25-C ) :   1.1461 B( 21-C , 22-N ) :   0.9314
B( 22-N , 23-O ) :   1.4647 B( 22-N , 24-O ) :   1.5331 B( 23-O , 24-O ) :   0.2571
B( 25-C , 26-N ) :   2.9576 B( 27-C , 28-C ) :   1.6579 B( 27-C , 85-H ) :   0.9318
B( 28-C , 29-C ) :   1.1290 B( 28-C , 86-H ) :   0.9637 B( 29-C , 30-C ) :   1.3064
B( 29-C , 36-C ) :   1.2901 B( 30-C , 31-O ) :   1.1695 B( 30-C , 33-C ) :   1.2830
B( 31-O , 32-C ) :   0.9532 B( 32-C , 87-H ) :   0.9775 B( 32-C , 88-H ) :   0.9693
B( 32-C , 89-H ) :   0.9696 B( 33-C , 34-C ) :   1.2920 B( 33-C , 90-H ) :   1.0090
B( 34-C , 35-C ) :   1.3002 B( 34-C , 40-C ) :   1.1154 B( 35-C , 36-C ) :   1.3315
B( 35-C , 37-O ) :   1.1278 B( 36-C , 91-H ) :   0.9889 B( 37-O , 38-C ) :   0.9439
B( 38-C , 39-C ) :   1.0931 B( 38-C , 92-H ) :   0.9505 B( 38-C , 93-H ) :   0.9502
B( 39-C , 94-H ) :   0.9691 B( 39-C , 95-H ) :   0.9611 B( 39-C , 96-H ) :   0.9690
B( 40-C , 41-C ) :   1.6772 B( 40-C , 97-H ) :   0.9594 B( 41-C , 42-C ) :   1.1165
B( 41-C , 98-H ) :   0.9285 B( 42-C , 43-S ) :   1.1529 B( 42-C , 46-C ) :   1.4457
B( 43-S , 44-C ) :   1.1046 B( 44-C , 45-C ) :   1.5162 B( 44-C , 52-C ) :   1.1392
B( 45-C , 46-C ) :   1.2579 B( 45-C , 50-C ) :   1.1434 B( 46-C , 47-N ) :   0.9268
B( 47-N , 48-O ) :   1.4787 B( 47-N , 49-O ) :   1.5286 B( 48-O , 49-O ) :   0.2611
B( 50-C , 51-N ) :   2.9499 B( 52-C , 53-C ) :   1.7323 B( 52-C , 99-H ) :   0.9316
B( 53-C , 54-C ) :   1.0430 B( 53-C ,100-H ) :   0.9443 B( 54-C , 55-C ) :   1.2957
B( 54-C , 64-C ) :   1.3659 B( 55-C , 56-N ) :   1.1368 B( 55-C , 61-C ) :   1.3022
B( 56-N , 57-C ) :   0.9537 B( 56-N , 59-C ) :   1.1141 B( 57-C , 58-C ) :   1.1211
B( 57-C ,101-H ) :   0.9345 B( 57-C ,102-H ) :   0.9299 B( 58-C ,103-H ) :   0.9618
B( 58-C ,104-H ) :   0.9623 B( 58-C ,105-H ) :   0.9564 B( 59-C , 60-C ) :   1.3033
B( 59-C , 68-C ) :   1.3196 B( 60-C , 61-C ) :   1.0591 B( 60-C , 65-C ) :   1.3357
B( 61-C , 62-C ) :   1.3448 B( 62-C , 63-C ) :   1.3678 B( 62-C ,106-H ) :   0.9985
B( 63-C , 64-C ) :   1.3608 B( 63-C ,107-H ) :   0.9871 B( 64-C ,108-H ) :   0.9948
B( 65-C , 66-C ) :   1.3865 B( 65-C ,109-H ) :   1.0000 B( 66-C , 67-C ) :   1.3388
B( 66-C ,110-H ) :   0.9858 B( 67-C , 68-C ) :   1.4125 B( 67-C ,111-H ) :   0.9910
B( 68-C , 69-C ) :   1.0026 B( 69-C , 70-C ) :   1.9638 B( 69-C ,112-H ) :   0.9595
B( 70-C ,113-H ) :   0.9583 B( 70-C ,114-H ) :   0.9540

-----------------------------------------------------------------------------
         ABSORPTION SPECTRUM VIA TRANSITION ELECTRIC DIPOLE MOMENTS
-----------------------------------------------------------------------------
State   Energy  Wavelength   fosc         T2         TX        TY        TZ
        (cm-1)    (nm)                  (au**2)     (au)      (au)      (au)
-----------------------------------------------------------------------------
   0   19961.9    501.0   2.066771682  34.08517   0.13121  -5.25174   2.54700
   1   21766.8    459.4   0.153916758   2.32791  -0.06927  -1.22956  -0.90072
   2   25522.6    391.8   0.120868740   1.55907   0.48702  -0.35050  -1.09500
   3   26068.5    383.6   0.171660402   2.16785   0.10740  -1.27880  -0.72179
   4   26493.4    377.5   0.258774713   3.21558   0.66710  -1.46637  -0.78760
   5   27689.7    361.1   0.037444427   0.44519   0.00686  -0.62477   0.23410
   6   28405.9    352.0   0.021361427   0.24757   0.41752   0.12915  -0.23784
   7   28795.9    347.3   0.039495359   0.45153  -0.06046  -0.20776  -0.63617
   8   29750.1    336.1   0.328623585   3.63652   0.48826  -1.84287  -0.04431
   9   30890.2    323.7   0.184431407   1.96558  -0.07246  -1.39991  -0.02430
  10   31519.6    317.3   0.000544906   0.00569   0.04240  -0.02005  -0.05908
  11   32212.7    310.4   0.050032680   0.51133  -0.05828  -0.39113   0.59578
  12   32879.5    304.1   0.002523312   0.02527  -0.05320  -0.11605  -0.09470
  13   33995.3    294.2   0.019050632   0.18449   0.09793  -0.37900  -0.17680
  14   34194.7    292.4   0.063573289   0.61206   0.07908  -0.63783   0.44606
  15   34602.3    289.0   0.016950655   0.16127   0.06246   0.00224  -0.39669
  16   34777.3    287.5   0.093672545   0.88673  -0.23088   0.58409  -0.70162
  17   35695.6    280.1   0.008989731   0.08291  -0.17861   0.09236   0.20610
  18   35951.6    278.2   0.075116958   0.68785  -0.10358  -0.39600  -0.72132
  19   36333.3    275.2   0.051316704   0.46497   0.05359   0.06959   0.67621
  20   36883.1    271.1   0.365826646   3.26530  -0.90416   1.31872  -0.84189
  21   37227.6    268.6   0.064668381   0.57188  -0.27471   0.01069  -0.70448
  22   37509.9    266.6   0.019091281   0.16756  -0.01579   0.01689  -0.40868
  23   38273.5    261.3   0.030453740   0.26195   0.00540  -0.11225   0.49932
  24   38687.8    258.5   0.036604389   0.31148  -0.20396   0.48773   0.17890
  25   39044.1    256.1   0.143813526   1.21261  -0.57422   0.66963   0.65914
  26   39050.2    256.1   0.030690723   0.25874  -0.29460   0.15758   0.38356
  27   39165.3    255.3   0.022836683   0.19196  -0.26997  -0.28217   0.19863
  28   39613.9    252.4   0.214336805   1.78125   0.22036   1.30094  -0.20061
  29   40173.7    248.9   0.265066389   2.17214  -0.12714   1.46818   0.02053
  30   40257.4    248.4   0.007069941   0.05782  -0.01271  -0.03357  -0.23775

FINAL SINGLE POINT ENERGY     -3770.557539624805

DIPOLE MOMENT
-------------
                                X             Y             Z
Electronic contribution:      0.27632      11.54773      30.11558
Nuclear contribution   :      0.33613     -12.13211     -33.88116
                        -----------------------------------------
Total Dipole Moment    :      0.61246      -0.58438      -3.76558
                        -----------------------------------------
Magnitude (a.u.)       :      3.85956
Magnitude (Debye)      :      9.81022

Rotational constants in cm-1:     0.001966     0.000201     0.000186
Rotational constants in MHz :    58.950383     6.019239     5.567632

                             ****ORCA TERMINATED NORMALLY****
TOTAL RUN TIME: 0 days 0 hours 11 minutes 45 seconds 320 msec
