                         Program Version 4.2.0 -  RELEASE  -
|  1> # ORCA input file
|  2> # SCF done       -208.271697982953          0.000613834782
|  3> ! CAM-B3LYP def2-SVP def2/J RIJCOSX Grid4 TightSCF
|  4> %maxcore 5000
|  5> %tddft
|  6>     Mode sTDDFT
|  7>     Ethresh 5.0
|  8>     maxcore 5000
|  9> end
| 10>
| 11> %pal
| 12>   nprocs 6
| 13>   end
| 14> * xyz 0 1
| 15>    C        5.32192        -4.34322         6.23471
| 16>    C        5.79072        -5.21313         7.20883
| 17>    F        6.11981        -4.72356         8.40816
| 18>    C        5.92608        -6.58082         6.96796
| 19>    F        6.38173        -7.38306         7.93680
| 20>    C        5.59275        -7.11605         5.73420
| 21>    C        5.12651        -6.24923         4.76580
| 22>    C        4.98579        -4.87029         4.99782
| 23>    C        4.47014        -4.23668         3.78194
| 24>    C        4.20911        -2.89951         3.64053
| 25>    C        4.40878        -1.94359         4.66040
| 26>    N        4.54703        -1.11856         5.44574
| 27>    C        3.70931        -2.27491         2.47709
| 28>    N        3.30569        -1.68960         1.57570
| 29>    C        4.29718        -5.28149         2.79250
| 30>    C        4.70646        -6.55651         3.38465
| 31>    O        4.70767        -7.65549         2.85834
| 32>    C        3.82711        -5.11845         1.51059
| 33>    C        3.62355        -6.06640         0.50447
| 34>    S        3.90717        -7.79122         0.56288
| 35>    C        3.34243        -8.03105        -1.06509
| 36>    C        2.96377        -6.81501        -1.65965
| 37>    C        3.12762        -5.73213        -0.76387
| 38>    S        2.68547        -4.21721        -1.45398
| 39>    C        2.30387        -5.02786        -2.95231
| 40>    C        1.83181        -4.19770        -4.07031
| 41>    O        1.66835        -3.00558        -3.99037
| 42>    O        1.62960        -4.93091        -5.16638
| 43>    C        1.15013        -4.24242        -6.32431
| 44>    C       -0.36094        -4.07086        -6.28068
| 45>    C        2.49386        -6.37820        -2.92137
| 46>    C        3.31263        -9.34767        -1.56532
| 47>    C        2.72041        -9.73644        -2.72796
| 48>    C        2.70053       -11.06779        -3.19320
| 49>    C        2.03299       -11.58779        -4.31165
| 50>    N        1.28071       -10.75858        -5.19034
| 51>    O        1.60592        -9.59023        -5.29514
| 52>    O        0.34930       -11.25764        -5.78950
| 53>    C        2.16093       -12.98497        -4.47405
| 54>    C        1.59672       -13.78381        -5.59365
| 55>    C        2.94517       -13.54322        -3.47050
| 56>    S        3.49756       -12.34346        -2.33082
| 57>    C        3.31214       -14.89443        -3.26505
| 58>    S        2.65811       -16.22801        -4.17460
| 59>    C        3.54402       -17.43259        -3.27306
| 60>    C        4.34574       -16.80616        -2.30942
| 61>    C        4.19625       -15.39286        -2.31659
| 62>    S        5.20104       -14.61316        -1.14091
| 63>    C        5.82457       -16.16747        -0.65898
| 64>    C        6.84337       -16.25512         0.39576
| 65>    O        7.23046       -17.29378         0.86856
| 66>    O        7.27604       -15.03937         0.73737
| 67>    C        8.27084       -14.96496         1.76086
| 68>    C        7.64055       -14.97510         3.14537
| 69>    C        5.29181       -17.21865        -1.34303
| 70>    C        3.35567       -18.78271        -3.61284
| 71>    C        3.90271       -19.85938        -2.97560
| 72>    C        3.65907       -21.17704        -3.40100
| 73>    C        4.21833       -22.32926        -2.92027
| 74>    C        3.55522       -23.62856        -3.19955
| 75>    O        2.67794       -23.83950        -4.00376
| 76>    C        4.16167       -24.58417        -2.24504
| 77>    C        5.18879       -23.94236        -1.53048
| 78>    C        5.87961       -24.62703        -0.54389
| 79>    C        5.52755       -25.94650        -0.30022
| 80>    C        4.51673       -26.58085        -1.02368
| 81>    C        3.81855       -25.90072        -2.00873
| 82>    F        4.21497       -27.85701        -0.75869
| 83>    F        6.17251       -26.62258         0.65587
| 84>    C        5.33498       -22.57497        -2.03672
| 85>    C        6.44699       -21.79223        -1.86422
| 86>    C        6.70237       -20.59427        -2.56371
| 87>    N        6.98413       -19.63275        -3.12417
| 88>    C        7.53716       -22.14983        -1.04117
| 89>    N        8.44469       -22.38939        -0.38158
| 90>    H        5.23659        -3.29603         6.47357
| 91>    H        5.69548        -8.17223         5.54311
| 92>    H        3.56070        -4.11446         1.20149
| 93>    H        1.45259        -4.86888        -7.16545
| 94>    H        1.64237        -3.26628        -6.38484
| 95>    H       -0.84522        -5.03819        -6.17142
| 96>    H       -0.69951        -3.60548        -7.20166
| 97>    H       -0.64018        -3.43643        -5.44291
| 98>    H        2.31133        -6.99481        -3.78159
| 99>    H        3.78102       -10.09722        -0.93823
|100>    H        2.21678        -9.00815        -3.34263
|101>    H        0.81449       -14.44662        -5.22347
|102>    H        2.37164       -14.40071        -6.04745
|103>    H        1.15581       -13.14261        -6.35056
|104>    H        8.79870       -14.02808         1.57272
|105>    H        8.95519       -15.81186         1.64775
|106>    H        6.92447       -14.16212         3.23942
|107>    H        8.41550       -14.85522         3.89660
|108>    H        7.13014       -15.92007         3.31538
|109>    H        5.61411       -18.22461        -1.15743
|110>    H        2.72214       -18.96421        -4.47270
|111>    H        4.51273       -19.70498        -2.10205
|112>    H        2.88434       -21.32420        -4.14669
|113>    H        6.66401       -24.17965         0.04443
|114>    H        3.03474       -26.38773        -2.56660
|115> *
|116>
|117>                          ****END OF INPUT****

CARTESIAN COORDINATES (ANGSTROEM)
---------------------------------
  C      5.321920   -4.343220    6.234710
  C      5.790720   -5.213130    7.208830
  F      6.119810   -4.723560    8.408160
  C      5.926080   -6.580820    6.967960
  F      6.381730   -7.383060    7.936800
  C      5.592750   -7.116050    5.734200
  C      5.126510   -6.249230    4.765800
  C      4.985790   -4.870290    4.997820
  C      4.470140   -4.236680    3.781940
  C      4.209110   -2.899510    3.640530
  C      4.408780   -1.943590    4.660400
  N      4.547030   -1.118560    5.445740
  C      3.709310   -2.274910    2.477090
  N      3.305690   -1.689600    1.575700
  C      4.297180   -5.281490    2.792500
  C      4.706460   -6.556510    3.384650
  O      4.707670   -7.655490    2.858340
  C      3.827110   -5.118450    1.510590
  C      3.623550   -6.066400    0.504470
  S      3.907170   -7.791220    0.562880
  C      3.342430   -8.031050   -1.065090
  C      2.963770   -6.815010   -1.659650
  C      3.127620   -5.732130   -0.763870
  S      2.685470   -4.217210   -1.453980
  C      2.303870   -5.027860   -2.952310
  C      1.831810   -4.197700   -4.070310
  O      1.668350   -3.005580   -3.990370
  O      1.629600   -4.930910   -5.166380
  C      1.150130   -4.242420   -6.324310
  C     -0.360940   -4.070860   -6.280680
  C      2.493860   -6.378200   -2.921370
  C      3.312630   -9.347670   -1.565320
  C      2.720410   -9.736440   -2.727960
  C      2.700530  -11.067790   -3.193200
  C      2.032990  -11.587790   -4.311650
  N      1.280710  -10.758580   -5.190340
  O      1.605920   -9.590230   -5.295140
  O      0.349300  -11.257640   -5.789500
  C      2.160930  -12.984970   -4.474050
  C      1.596720  -13.783810   -5.593650
  C      2.945170  -13.543220   -3.470500
  S      3.497560  -12.343460   -2.330820
  C      3.312140  -14.894430   -3.265050
  S      2.658110  -16.228010   -4.174600
  C      3.544020  -17.432590   -3.273060
  C      4.345740  -16.806160   -2.309420
  C      4.196250  -15.392860   -2.316590
  S      5.201040  -14.613160   -1.140910
  C      5.824570  -16.167470   -0.658980
  C      6.843370  -16.255120    0.395760
  O      7.230460  -17.293780    0.868560
  O      7.276040  -15.039370    0.737370
  C      8.270840  -14.964960    1.760860
  C      7.640550  -14.975100    3.145370
  C      5.291810  -17.218650   -1.343030
  C      3.355670  -18.782710   -3.612840
  C      3.902710  -19.859380   -2.975600
  C      3.659070  -21.177040   -3.401000
  C      4.218330  -22.329260   -2.920270
  C      3.555220  -23.628560   -3.199550
  O      2.677940  -23.839500   -4.003760
  C      4.161670  -24.584170   -2.245040
  C      5.188790  -23.942360   -1.530480
  C      5.879610  -24.627030   -0.543890
  C      5.527550  -25.946500   -0.300220
  C      4.516730  -26.580850   -1.023680
  C      3.818550  -25.900720   -2.008730
  F      4.214970  -27.857010   -0.758690
  F      6.172510  -26.622580    0.655870
  C      5.334980  -22.574970   -2.036720
  C      6.446990  -21.792230   -1.864220
  C      6.702370  -20.594270   -2.563710
  N      6.984130  -19.632750   -3.124170
  C      7.537160  -22.149830   -1.041170
  N      8.444690  -22.389390   -0.381580
  H      5.236590   -3.296030    6.473570
  H      5.695480   -8.172230    5.543110
  H      3.560700   -4.114460    1.201490
  H      1.452590   -4.868880   -7.165450
  H      1.642370   -3.266280   -6.384840
  H     -0.845220   -5.038190   -6.171420
  H     -0.699510   -3.605480   -7.201660
  H     -0.640180   -3.436430   -5.442910
  H      2.311330   -6.994810   -3.781590
  H      3.781020  -10.097220   -0.938230
  H      2.216780   -9.008150   -3.342630
  H      0.814490  -14.446620   -5.223470
  H      2.371640  -14.400710   -6.047450
  H      1.155810  -13.142610   -6.350560
  H      8.798700  -14.028080    1.572720
  H      8.955190  -15.811860    1.647750
  H      6.924470  -14.162120    3.239420
  H      8.415500  -14.855220    3.896600
  H      7.130140  -15.920070    3.315380
  H      5.614110  -18.224610   -1.157430
  H      2.722140  -18.964210   -4.472700
  H      4.512730  -19.704980   -2.102050
  H      2.884340  -21.324200   -4.146690
  H      6.664010  -24.179650    0.044430
  H      3.034740  -26.387730   -2.566600

 Total Charge           Charge          ....    0
 Multiplicity           Mult            ....    1
 Number of Electrons    NEL             ....  558
 Basis Dimension        Dim             .... 1195

ORBITAL ENERGIES
----------------

  NO   OCC          E(Eh)            E(eV)
   0   2.0000     -88.997114     -2421.7346
   1   2.0000     -88.996191     -2421.7095
   2   2.0000     -88.984829     -2421.4003
   3   2.0000     -88.980485     -2421.2821
   4   2.0000     -88.975076     -2421.1349
   5   2.0000     -24.806891      -675.0298
   6   2.0000     -24.805007      -674.9786
   7   2.0000     -24.804045      -674.9524
   8   2.0000     -24.803361      -674.9338
   9   2.0000     -19.273853      -524.4682
  10   2.0000     -19.265000      -524.2273
  11   2.0000     -19.260827      -524.1137
  12   2.0000     -19.259507      -524.0778
  13   2.0000     -19.233375      -523.3667
  14   2.0000     -19.222226      -523.0634
  15   2.0000     -19.216884      -522.9180
  16   2.0000     -19.211067      -522.7597
  17   2.0000     -14.669037      -399.1648
  18   2.0000     -14.423581      -392.4856
  19   2.0000     -14.422868      -392.4662
  20   2.0000     -14.420703      -392.4073
  21   2.0000     -14.420491      -392.4015
  22   2.0000     -10.418306      -283.4965
  23   2.0000     -10.412191      -283.3301
  24   2.0000     -10.391776      -282.7746
  25   2.0000     -10.391368      -282.7635
  26   2.0000     -10.389682      -282.7176
  27   2.0000     -10.389165      -282.7035
  28   2.0000     -10.381495      -282.4948
  29   2.0000     -10.373514      -282.2777
  30   2.0000     -10.352067      -281.6941
  31   2.0000     -10.351910      -281.6898
  32   2.0000     -10.351330      -281.6740
  33   2.0000     -10.350852      -281.6610
  34   2.0000     -10.350538      -281.6525
  35   2.0000     -10.350177      -281.6426
  36   2.0000     -10.350127      -281.6413
  37   2.0000     -10.344478      -281.4876
  38   2.0000     -10.335289      -281.2375
  39   2.0000     -10.335241      -281.2362
  40   2.0000     -10.333420      -281.1867
  41   2.0000     -10.333157      -281.1795
  42   2.0000     -10.331492      -281.1342
  43   2.0000     -10.331092      -281.1233
  44   2.0000     -10.330172      -281.0983
  45   2.0000     -10.327774      -281.0330
  46   2.0000     -10.327717      -281.0315
  47   2.0000     -10.326650      -281.0024
  48   2.0000     -10.325571      -280.9731
  49   2.0000     -10.325335      -280.9666
  50   2.0000     -10.324483      -280.9435
  51   2.0000     -10.323180      -280.9080
  52   2.0000     -10.322925      -280.9011
  53   2.0000     -10.322496      -280.8894
  54   2.0000     -10.321392      -280.8594
  55   2.0000     -10.321193      -280.8539
  56   2.0000     -10.321058      -280.8503
  57   2.0000     -10.317929      -280.7651
  58   2.0000     -10.316644      -280.7301
  59   2.0000     -10.315264      -280.6926
  60   2.0000     -10.314064      -280.6599
  61   2.0000     -10.313380      -280.6413
  62   2.0000     -10.312324      -280.6126
  63   2.0000     -10.311795      -280.5982
  64   2.0000     -10.308703      -280.5141
  65   2.0000     -10.307673      -280.4860
  66   2.0000     -10.307210      -280.4735
  67   2.0000     -10.306207      -280.4461
  68   2.0000     -10.305847      -280.4364
  69   2.0000     -10.304381      -280.3965
  70   2.0000     -10.302040      -280.3327
  71   2.0000     -10.301459      -280.3169
  72   2.0000     -10.288192      -279.9559
  73   2.0000     -10.269411      -279.4449
  74   2.0000     -10.262343      -279.2525
  75   2.0000      -8.092222      -220.2006
  76   2.0000      -8.090453      -220.1524
  77   2.0000      -8.077665      -219.8044
  78   2.0000      -8.075517      -219.7460
  79   2.0000      -8.070040      -219.5970
  80   2.0000      -6.061470      -164.9410
  81   2.0000      -6.059846      -164.8968
  82   2.0000      -6.057550      -164.8343
  83   2.0000      -6.055465      -164.7776
  84   2.0000      -6.054149      -164.7418
  85   2.0000      -6.052721      -164.7029
  86   2.0000      -6.047075      -164.5493
  87   2.0000      -6.045264      -164.5000
  88   2.0000      -6.042468      -164.4239
  89   2.0000      -6.040876      -164.3806
  90   2.0000      -6.040044      -164.3580
  91   2.0000      -6.039642      -164.3470
  92   2.0000      -6.036872      -164.2717
  93   2.0000      -6.035346      -164.2301
  94   2.0000      -6.031606      -164.1283
  95   2.0000      -1.341417       -36.5018
  96   2.0000      -1.329945       -36.1897
  97   2.0000      -1.327707       -36.1287
  98   2.0000      -1.314705       -35.7750
  99   2.0000      -1.312464       -35.7140
 100   2.0000      -1.205713       -32.8091
 101   2.0000      -1.198196       -32.6046
 102   2.0000      -1.158487       -31.5240
 103   2.0000      -1.148804       -31.2605
 104   2.0000      -1.137790       -30.9608
 105   2.0000      -1.111940       -30.2574
 106   2.0000      -1.106036       -30.0968
 107   2.0000      -1.044216       -28.4146
 108   2.0000      -1.031055       -28.0564
 109   2.0000      -1.027586       -27.9620
 110   2.0000      -1.026771       -27.9399
 111   2.0000      -1.025868       -27.9153
 112   2.0000      -1.009748       -27.4766
 113   2.0000      -1.007773       -27.4229
 114   2.0000      -1.000482       -27.2245
 115   2.0000      -1.000233       -27.2177
 116   2.0000      -0.977806       -26.6074
 117   2.0000      -0.971261       -26.4293
 118   2.0000      -0.964045       -26.2330
 119   2.0000      -0.963331       -26.2136
 120   2.0000      -0.946188       -25.7471
 121   2.0000      -0.937370       -25.5071
 122   2.0000      -0.925480       -25.1836
 123   2.0000      -0.916385       -24.9361
 124   2.0000      -0.908218       -24.7139
 125   2.0000      -0.905831       -24.6489
 126   2.0000      -0.888234       -24.1701
 127   2.0000      -0.883302       -24.0359
 128   2.0000      -0.880525       -23.9603
 129   2.0000      -0.878445       -23.9037
 130   2.0000      -0.877661       -23.8824
 131   2.0000      -0.872355       -23.7380
 132   2.0000      -0.859241       -23.3811
 133   2.0000      -0.856904       -23.3175
 134   2.0000      -0.842331       -22.9210
 135   2.0000      -0.837868       -22.7996
 136   2.0000      -0.830907       -22.6101
 137   2.0000      -0.824101       -22.4249
 138   2.0000      -0.811612       -22.0851
 139   2.0000      -0.796387       -21.6708
 140   2.0000      -0.782866       -21.3029
 141   2.0000      -0.781496       -21.2656
 142   2.0000      -0.778543       -21.1852
 143   2.0000      -0.771758       -21.0006
 144   2.0000      -0.770310       -20.9612
 145   2.0000      -0.761126       -20.7113
 146   2.0000      -0.752431       -20.4747
 147   2.0000      -0.732851       -19.9419
 148   2.0000      -0.723236       -19.6802
 149   2.0000      -0.719534       -19.5795
 150   2.0000      -0.715446       -19.4683
 151   2.0000      -0.709313       -19.3014
 152   2.0000      -0.708858       -19.2890
 153   2.0000      -0.697472       -18.9792
 154   2.0000      -0.692971       -18.8567
 155   2.0000      -0.689751       -18.7691
 156   2.0000      -0.684708       -18.6319
 157   2.0000      -0.675318       -18.3763
 158   2.0000      -0.669978       -18.2310
 159   2.0000      -0.661935       -18.0122
 160   2.0000      -0.656620       -17.8675
 161   2.0000      -0.653997       -17.7962
 162   2.0000      -0.650159       -17.6917
 163   2.0000      -0.649340       -17.6694
 164   2.0000      -0.646108       -17.5815
 165   2.0000      -0.641736       -17.4625
 166   2.0000      -0.638750       -17.3813
 167   2.0000      -0.634062       -17.2537
 168   2.0000      -0.631837       -17.1932
 169   2.0000      -0.625177       -17.0119
 170   2.0000      -0.624257       -16.9869
 171   2.0000      -0.619313       -16.8524
 172   2.0000      -0.612155       -16.6576
 173   2.0000      -0.607033       -16.5182
 174   2.0000      -0.603128       -16.4120
 175   2.0000      -0.601637       -16.3714
 176   2.0000      -0.599516       -16.3137
 177   2.0000      -0.595509       -16.2046
 178   2.0000      -0.594919       -16.1886
 179   2.0000      -0.592547       -16.1240
 180   2.0000      -0.589563       -16.0428
 181   2.0000      -0.586937       -15.9714
 182   2.0000      -0.579082       -15.7576
 183   2.0000      -0.575334       -15.6556
 184   2.0000      -0.570264       -15.5177
 185   2.0000      -0.568065       -15.4578
 186   2.0000      -0.565903       -15.3990
 187   2.0000      -0.559481       -15.2243
 188   2.0000      -0.558720       -15.2036
 189   2.0000      -0.558151       -15.1881
 190   2.0000      -0.555567       -15.1177
 191   2.0000      -0.554687       -15.0938
 192   2.0000      -0.552514       -15.0347
 193   2.0000      -0.550551       -14.9812
 194   2.0000      -0.549656       -14.9569
 195   2.0000      -0.548388       -14.9224
 196   2.0000      -0.546203       -14.8629
 197   2.0000      -0.541470       -14.7341
 198   2.0000      -0.540101       -14.6969
 199   2.0000      -0.537045       -14.6137
 200   2.0000      -0.534349       -14.5404
 201   2.0000      -0.532261       -14.4836
 202   2.0000      -0.532151       -14.4806
 203   2.0000      -0.528991       -14.3946
 204   2.0000      -0.526441       -14.3252
 205   2.0000      -0.523968       -14.2579
 206   2.0000      -0.520516       -14.1640
 207   2.0000      -0.518543       -14.1103
 208   2.0000      -0.514787       -14.0081
 209   2.0000      -0.508148       -13.8274
 210   2.0000      -0.504745       -13.7348
 211   2.0000      -0.504649       -13.7322
 212   2.0000      -0.503385       -13.6978
 213   2.0000      -0.500357       -13.6154
 214   2.0000      -0.498270       -13.5586
 215   2.0000      -0.497280       -13.5317
 216   2.0000      -0.496185       -13.5019
 217   2.0000      -0.495216       -13.4755
 218   2.0000      -0.492890       -13.4122
 219   2.0000      -0.492361       -13.3978
 220   2.0000      -0.489019       -13.3069
 221   2.0000      -0.484074       -13.1723
 222   2.0000      -0.481746       -13.1090
 223   2.0000      -0.476395       -12.9634
 224   2.0000      -0.471229       -12.8228
 225   2.0000      -0.468086       -12.7373
 226   2.0000      -0.465831       -12.6759
 227   2.0000      -0.464719       -12.6457
 228   2.0000      -0.463628       -12.6160
 229   2.0000      -0.463231       -12.6052
 230   2.0000      -0.462898       -12.5961
 231   2.0000      -0.458600       -12.4792
 232   2.0000      -0.457301       -12.4438
 233   2.0000      -0.455648       -12.3988
 234   2.0000      -0.454959       -12.3801
 235   2.0000      -0.454767       -12.3748
 236   2.0000      -0.454143       -12.3579
 237   2.0000      -0.449429       -12.2296
 238   2.0000      -0.447661       -12.1815
 239   2.0000      -0.446814       -12.1584
 240   2.0000      -0.443621       -12.0715
 241   2.0000      -0.438672       -11.9369
 242   2.0000      -0.437816       -11.9136
 243   2.0000      -0.437030       -11.8922
 244   2.0000      -0.435143       -11.8408
 245   2.0000      -0.434159       -11.8141
 246   2.0000      -0.433002       -11.7826
 247   2.0000      -0.432203       -11.7608
 248   2.0000      -0.429199       -11.6791
 249   2.0000      -0.421554       -11.4711
 250   2.0000      -0.420952       -11.4547
 251   2.0000      -0.420519       -11.4429
 252   2.0000      -0.417120       -11.3504
 253   2.0000      -0.414161       -11.2699
 254   2.0000      -0.413617       -11.2551
 255   2.0000      -0.406659       -11.0657
 256   2.0000      -0.403031       -10.9670
 257   2.0000      -0.395247       -10.7552
 258   2.0000      -0.390139       -10.6162
 259   2.0000      -0.388344       -10.5674
 260   2.0000      -0.385774       -10.4975
 261   2.0000      -0.380950       -10.3662
 262   2.0000      -0.372111       -10.1257
 263   2.0000      -0.369163       -10.0454
 264   2.0000      -0.364677        -9.9234
 265   2.0000      -0.359491        -9.7823
 266   2.0000      -0.356072        -9.6892
 267   2.0000      -0.353315        -9.6142
 268   2.0000      -0.348237        -9.4760
 269   2.0000      -0.346355        -9.4248
 270   2.0000      -0.343861        -9.3569
 271   2.0000      -0.338706        -9.2167
 272   2.0000      -0.332515        -9.0482
 273   2.0000      -0.326604        -8.8873
 274   2.0000      -0.324618        -8.8333
 275   2.0000      -0.318759        -8.6739
 276   2.0000      -0.314911        -8.5692
 277   2.0000      -0.277077        -7.5396
 278   2.0000      -0.250793        -6.8244
 279   0.0000      -0.123407        -3.3581
 280   0.0000      -0.104126        -2.8334
 281   0.0000      -0.078913        -2.1473
 282   0.0000      -0.071502        -1.9457
 283   0.0000      -0.064390        -1.7521

MULLIKEN ATOMIC CHARGES
-----------------------
   0 C :   -0.093211
   1 C :    0.236553
   2 F :   -0.162794
   3 C :    0.236539
   4 F :   -0.167824
   5 C :   -0.106126
   6 C :   -0.004316
   7 C :    0.045136
   8 C :    0.320098
   9 C :   -0.349917
  10 C :   -0.192645
  11 N :    0.160539
  12 C :   -0.190112
  13 N :    0.157367
  14 C :   -0.098697
  15 C :    0.164662
  16 O :   -0.183489
  17 C :   -0.045334
  18 C :   -0.100589
  19 S :    0.220347
  20 C :   -0.099405
  21 C :    0.139092
  22 C :   -0.048573
  23 S :    0.207895
  24 C :   -0.147503
  25 C :    0.218220
  26 O :   -0.197347
  27 O :   -0.296062
  28 C :    0.175989
  29 C :   -0.026531
  30 C :   -0.006549
  31 C :    0.050515
  32 C :   -0.013476
  33 C :   -0.088146
  34 C :    0.142587
  35 N :    0.259679
  36 O :   -0.244974
  37 O :   -0.231050
  38 C :   -0.118516
  39 C :    0.119234
  40 C :   -0.106504
  41 S :    0.141596
  42 C :   -0.108831
  43 S :    0.145740
  44 C :   -0.110104
  45 C :    0.153659
  46 C :   -0.074414
  47 S :    0.166879
  48 C :   -0.115025
  49 C :    0.214959
  50 O :   -0.189513
  51 O :   -0.306580
  52 C :    0.167860
  53 C :   -0.025099
  54 C :    0.007852
  55 C :    0.067284
  56 C :    0.020731
  57 C :    0.016078
  58 C :   -0.114399
  59 C :    0.140076
  60 O :   -0.139319
  61 C :    0.005354
  62 C :    0.026762
  63 C :   -0.089896
  64 C :    0.239059
  65 C :    0.234101
  66 C :   -0.101843
  67 F :   -0.168423
  68 F :   -0.164424
  69 C :    0.278396
  70 C :   -0.336130
  71 C :   -0.207593
  72 N :    0.164768
  73 C :   -0.179847
  74 N :    0.158948
  75 H :    0.017564
  76 H :    0.009086
  77 H :    0.011773
  78 H :    0.026224
  79 H :    0.031340
  80 H :    0.028938
  81 H :    0.024487
  82 H :    0.037054
  83 H :    0.023011
  84 H :   -0.003208
  85 H :    0.010505
  86 H :    0.042131
  87 H :    0.036275
  88 H :    0.041873
  89 H :    0.027530
  90 H :    0.038950
  91 H :    0.026631
  92 H :    0.028846
  93 H :    0.036719
  94 H :    0.009542
  95 H :   -0.001959
  96 H :   -0.005689
  97 H :    0.017009
  98 H :    0.019450
  99 H :    0.012490
Sum of atomic charges:    0.0000000

LOEWDIN ATOMIC CHARGES
----------------------
   0 C :   -0.017499
   1 C :    0.074164
   2 F :   -0.041707
   3 C :    0.069812
   4 F :   -0.045041
   5 C :   -0.006466
   6 C :   -0.045394
   7 C :   -0.012749
   8 C :    0.073527
   9 C :   -0.136246
  10 C :   -0.019962
  11 N :   -0.046667
  12 C :   -0.023423
  13 N :   -0.042618
  14 C :   -0.112252
  15 C :    0.085123
  16 O :   -0.168342
  17 C :    0.051892
  18 C :   -0.209959
  19 S :    0.533358
  20 C :   -0.148258
  21 C :   -0.081208
  22 C :   -0.156839
  23 S :    0.476567
  24 C :   -0.193030
  25 C :    0.063978
  26 O :   -0.174923
  27 O :   -0.082735
  28 C :    0.087510
  29 C :   -0.066888
  30 C :   -0.018869
  31 C :   -0.031432
  32 C :   -0.028893
  33 C :   -0.141325
  34 C :   -0.065413
  35 N :    0.289548
  36 O :   -0.206326
  37 O :   -0.191217
  38 C :   -0.034512
  39 C :   -0.061993
  40 C :   -0.183011
  41 S :    0.473965
  42 C :   -0.193723
  43 S :    0.496987
  44 C :   -0.176575
  45 C :   -0.051430
  46 C :   -0.193124
  47 S :    0.428833
  48 C :   -0.187283
  49 C :    0.069058
  50 O :   -0.166213
  51 O :   -0.092397
  52 C :    0.087289
  53 C :   -0.066662
  54 C :   -0.003268
  55 C :    0.011431
  56 C :   -0.032320
  57 C :    0.065296
  58 C :   -0.099473
  59 C :    0.082036
  60 O :   -0.140014
  61 C :   -0.046599
  62 C :   -0.012326
  63 C :   -0.020017
  64 C :    0.074449
  65 C :    0.069762
  66 C :   -0.005010
  67 F :   -0.045041
  68 F :   -0.042543
  69 C :    0.069299
  70 C :   -0.137890
  71 C :   -0.021406
  72 N :   -0.048315
  73 C :   -0.021249
  74 N :   -0.043490
  75 H :    0.052113
  76 H :    0.051090
  77 H :    0.046613
  78 H :    0.025328
  79 H :    0.023119
  80 H :    0.028941
  81 H :    0.034087
  82 H :    0.032107
  83 H :    0.041858
  84 H :    0.024565
  85 H :    0.035959
  86 H :    0.040301
  87 H :    0.030502
  88 H :    0.038437
  89 H :    0.025583
  90 H :    0.025664
  91 H :    0.027834
  92 H :    0.035579
  93 H :    0.032524
  94 H :    0.040039
  95 H :    0.036471
  96 H :    0.029702
  97 H :    0.045068
  98 H :    0.051758
  99 H :    0.052436

  Mayer bond orders larger than 0.100000
B(  0-C ,  1-C ) :   1.3310 B(  0-C ,  5-C ) :   0.1048 B(  0-C ,  7-C ) :   1.3155
B(  0-C , 75-H ) :   0.9925 B(  1-C ,  2-F ) :   1.1483 B(  1-C ,  3-C ) :   1.2939
B(  3-C ,  4-F ) :   1.1321 B(  3-C ,  5-C ) :   1.3126 B(  5-C ,  6-C ) :   1.3184
B(  5-C , 76-H ) :   1.0211 B(  6-C ,  7-C ) :   1.3438 B(  6-C , 15-C ) :   0.9686
B(  7-C ,  8-C ) :   0.9989 B(  8-C ,  9-C ) :   1.6277 B(  8-C , 14-C ) :   1.0904
B(  9-C , 10-C ) :   1.1435 B(  9-C , 12-C ) :   1.1467 B( 10-C , 11-N ) :   2.9771
B( 12-C , 13-N ) :   2.9586 B( 14-C , 15-C ) :   0.9880 B( 14-C , 17-C ) :   1.4930
B( 15-C , 16-O ) :   2.1217 B( 17-C , 18-C ) :   1.2966 B( 17-C , 77-H ) :   0.9399
B( 18-C , 19-S ) :   1.0896 B( 18-C , 22-C ) :   1.3478 B( 19-S , 20-C ) :   1.1392
B( 20-C , 21-C ) :   1.2797 B( 20-C , 31-C ) :   1.1915 B( 21-C , 22-C ) :   1.2985
B( 21-C , 30-C ) :   1.1396 B( 22-C , 23-S ) :   1.1132 B( 23-S , 24-C ) :   1.0800
B( 24-C , 25-C ) :   0.9492 B( 24-C , 30-C ) :   1.6137 B( 25-C , 26-O ) :   2.1284
B( 25-C , 27-O ) :   1.2515 B( 27-O , 28-C ) :   0.8965 B( 28-C , 29-C ) :   1.1210
B( 28-C , 78-H ) :   0.9613 B( 28-C , 79-H ) :   0.9454 B( 29-C , 80-H ) :   0.9675
B( 29-C , 81-H ) :   0.9648 B( 29-C , 82-H ) :   0.9673 B( 30-C , 83-H ) :   0.9955
B( 31-C , 32-C ) :   1.5703 B( 31-C , 84-H ) :   0.9511 B( 32-C , 33-C ) :   1.2084
B( 32-C , 85-H ) :   0.9646 B( 33-C , 34-C ) :   1.4053 B( 33-C , 41-S ) :   1.1443
B( 34-C , 35-N ) :   0.9241 B( 34-C , 38-C ) :   1.2931 B( 35-N , 36-O ) :   1.4992
B( 35-N , 37-O ) :   1.5188 B( 36-O , 37-O ) :   0.2580 B( 38-C , 39-C ) :   1.1281
B( 38-C , 40-C ) :   1.4853 B( 39-C , 86-H ) :   0.9260 B( 39-C , 87-H ) :   0.9286
B( 39-C , 88-H ) :   0.9176 B( 40-C , 41-S ) :   1.1006 B( 40-C , 42-C ) :   1.1881
B( 42-C , 43-S ) :   1.1487 B( 42-C , 44-C ) :   0.1011 B( 42-C , 46-C ) :   1.4411
B( 43-S , 44-C ) :   1.1007 B( 44-C , 45-C ) :   1.3248 B( 44-C , 55-C ) :   1.1823
B( 45-C , 46-C ) :   1.2803 B( 45-C , 54-C ) :   1.1475 B( 46-C , 47-S ) :   1.0526
B( 47-S , 48-C ) :   1.0664 B( 48-C , 49-C ) :   0.9408 B( 48-C , 54-C ) :   1.6386
B( 49-C , 50-O ) :   2.1242 B( 49-C , 51-O ) :   1.2429 B( 51-O , 52-C ) :   0.8934
B( 52-C , 53-C ) :   1.1225 B( 52-C , 89-H ) :   0.9616 B( 52-C , 90-H ) :   0.9462
B( 53-C , 91-H ) :   0.9675 B( 53-C , 92-H ) :   0.9647 B( 53-C , 93-H ) :   0.9670
B( 54-C , 94-H ) :   0.9959 B( 55-C , 56-C ) :   1.5943 B( 55-C , 95-H ) :   0.9614
B( 56-C , 57-C ) :   1.1861 B( 56-C , 96-H ) :   0.9580 B( 57-C , 58-C ) :   1.5657
B( 57-C , 97-H ) :   0.9570 B( 58-C , 59-C ) :   0.9510 B( 58-C , 69-C ) :   1.0547
B( 59-C , 60-O ) :   2.2665 B( 59-C , 61-C ) :   0.9322 B( 61-C , 62-C ) :   1.3441
B( 61-C , 66-C ) :   1.3205 B( 62-C , 63-C ) :   1.3189 B( 62-C , 69-C ) :   1.0121
B( 63-C , 64-C ) :   1.3335 B( 63-C , 66-C ) :   0.1045 B( 63-C , 98-H ) :   0.9943
B( 64-C , 65-C ) :   1.2914 B( 64-C , 68-F ) :   1.1428 B( 65-C , 66-C ) :   1.3186
B( 65-C , 67-F ) :   1.1314 B( 66-C , 99-H ) :   1.0213 B( 69-C , 70-C ) :   1.6378
B( 70-C , 71-C ) :   1.1683 B( 70-C , 73-C ) :   1.1260 B( 71-C , 72-N ) :   2.9826
B( 73-C , 74-N ) :   2.9920

-----------------------------------------------------------------------------
         ABSORPTION SPECTRUM VIA TRANSITION ELECTRIC DIPOLE MOMENTS
-----------------------------------------------------------------------------
State   Energy  Wavelength   fosc         T2         TX        TY        TZ
        (cm-1)    (nm)                  (au**2)     (au)      (au)      (au)
-----------------------------------------------------------------------------
   0   13576.4    736.6   1.940438472  47.05334   0.11881  -6.47992  -2.24718
   1   18038.1    554.4   0.457027389   8.34119   1.24760  -1.28577   2.26528
   2   20386.3    490.5   0.072275319   1.16715  -0.40353   0.02757  -1.00178
   3   22974.3    435.3   0.018277906   0.26191   0.05705  -0.19966  -0.46776
   4   24563.8    407.1   0.093423136   1.25208   0.01654  -0.89618   0.66984
   5   25140.5    397.8   0.080209435   1.05033  -0.35610  -0.14412  -0.95014
   6   25778.0    387.9   0.039779744   0.50803  -0.12035  -0.60967  -0.34907
   7   27410.0    364.8   0.101216664   1.21568   0.65268   0.88850   0.01584
   8   27644.4    361.7   0.025956208   0.30911  -0.21741  -0.23839  -0.45278
   9   28474.0    351.2   0.006845448   0.07915   0.12725   0.18889   0.16515
  10   28705.7    348.4   0.016122330   0.18490   0.03486   0.04455   0.42626
  11   29435.6    339.7   0.006107258   0.06830  -0.13493   0.17464   0.14000
  12   29661.1    337.1   0.392680959   4.35841  -0.69200   1.57482  -1.18299
  13   29900.7    334.4   0.023214307   0.25559   0.13492   0.45773  -0.16696
  14   30290.3    330.1   0.028780692   0.31281  -0.07008  -0.41353   0.36998
  15   30873.3    323.9   0.126278075   1.34654   0.26326   0.97804   0.56629
  16   31268.6    319.8   0.059109395   0.62233   0.16126   0.48605   0.60007
  17   31494.8    317.5   0.270117812   2.82351  -0.94870   0.48337  -1.29994
  18   32475.9    307.9   0.067579840   0.68507   0.34245   0.75023  -0.07040
  19   32600.6    306.7   0.046618870   0.47077   0.47118  -0.45414   0.20620
  20   32629.1    306.5   0.017159730   0.17313   0.27705  -0.27287   0.14806
  21   33157.2    301.6   0.062841325   0.62394   0.40570  -0.19779   0.64825
  22   33546.7    298.1   0.008491197   0.08333  -0.18056  -0.07001   0.21407
  23   33908.7    294.9   0.256960175   2.49477  -0.77980   0.84224  -1.08504
  24   34080.6    293.4   0.037035992   0.35776   0.31503   0.48826   0.14184
  25   34300.9    291.5   0.079490599   0.76293  -0.34694  -0.80124  -0.02422
  26   35251.0    283.7   0.050712380   0.47361  -0.53830  -0.37502  -0.20785
  27   35490.6    281.8   0.001745226   0.01619   0.09308   0.08514   0.01665
  28   35640.6    280.6   0.316927923   2.92746  -0.41481   1.53618  -0.62891
  29   35899.8    278.6   0.086223881   0.79070  -0.50379   0.44701  -0.58058
  30   36197.2    276.3   0.296610330   2.69766  -0.03973   1.57880  -0.45109
  31   36664.8    272.7   0.045609333   0.40952   0.32627  -0.24945  -0.49076
  32   36827.2    271.5   0.149689775   1.33813   0.74259   0.87928   0.11642
  33   36897.5    271.0   0.470676140   4.19953  -1.02537  -1.75157  -0.28307
  34   37167.3    269.1   0.042140456   0.37326   0.56417  -0.13467   0.19194
  35   37429.4    267.2   0.010828563   0.09524  -0.05619   0.25887  -0.15834
  36   37718.7    265.1   0.038147893   0.33296  -0.21734   0.16784  -0.50750
  37   37999.2    263.2   0.006503450   0.05634  -0.11111  -0.20883  -0.01966
  38   38171.2    262.0   0.019088207   0.16463  -0.03471   0.40284  -0.03382
  39   38423.6    260.3   0.016246579   0.13920  -0.27993  -0.14406  -0.20022
  40   38473.3    259.9   0.000942658   0.00807   0.06722   0.05294   0.02729
  41   38856.8    257.4   0.017069236   0.14462   0.11700   0.28596   0.22171
  42   39393.7    253.8   0.169142431   1.41352  -0.45128   0.27160  -1.06588
  43   39630.8    252.3   0.009153770   0.07604  -0.02983  -0.16232   0.22091
  44   39706.8    251.8   0.139624299   1.15763   0.47588   0.04344   0.96400
  45   39779.6    251.4   0.014345918   0.11873   0.17872  -0.06584   0.28714
  46   40009.7    249.9   0.015010497   0.12351  -0.24358   0.14208  -0.20975
  47   40109.1    249.3   0.027169735   0.22301  -0.26954   0.37189  -0.10979

FINAL SINGLE POINT ENERGY     -5295.765117495314

DIPOLE MOMENT
-------------
                                X             Y             Z
Electronic contribution:     14.51807     -23.75330      43.57284
Nuclear contribution   :    -15.54803      22.15733     -44.63237
                        -----------------------------------------
Total Dipole Moment    :     -1.02996      -1.59598      -1.05952
                        -----------------------------------------
Magnitude (a.u.)       :      2.17498
Magnitude (Debye)      :      5.52836

Rotational constants in cm-1:     0.001059     0.000256     0.000211
Rotational constants in MHz :    31.762257     7.669930     6.320367

                             ****ORCA TERMINATED NORMALLY****
TOTAL RUN TIME: 0 days 0 hours 13 minutes 41 seconds 482 msec
