                         Program Version 4.2.0 -  RELEASE  -
|  1> # ORCA input file
|  2> # SCF done       -168.842378918359          0.000565042191
|  3> ! CAM-B3LYP def2-SVP def2/J RIJCOSX Grid4 TightSCF
|  4> %maxcore 5000
|  5> %tddft
|  6>     Mode sTDDFT
|  7>     Ethresh 5.0
|  8>     maxcore 5000
|  9> end
| 10>
| 11> %pal
| 12>   nprocs 6
| 13>   end
| 14> * xyz 0 1
| 15>    C        1.74808        11.45744        -6.45592
| 16>    S        3.04281        10.51070        -5.86172
| 17>    C        2.45425        10.67107        -4.22530
| 18>    C        1.30913        11.44256        -4.18390
| 19>    C        0.90658        11.88260        -5.46809
| 20>    C       -0.28854        12.74342        -5.69284
| 21>    S        0.24825        14.43948        -6.20630
| 22>    C       -1.19297        12.79011        -4.46525
| 23>    C       -0.38342        12.97519        -3.18698
| 24>    C        0.52846        11.77288        -2.95014
| 25>    C        3.11863        10.06234        -3.12482
| 26>    C        4.27321         9.36572        -3.19134
| 27>    C        4.91453         8.80492        -2.04521
| 28>    C        4.41564         8.67976        -0.77913
| 29>    C        5.34910         8.17721         0.15448
| 30>    C        5.21279         7.96266         1.53751
| 31>    C        6.35491         7.50210         2.20744
| 32>    C        7.51789         7.21007         1.45105
| 33>    N        7.64520         7.37514         0.15315
| 34>    C        6.59173         7.86855        -0.46433
| 35>    S        6.57264         8.22656        -2.15860
| 36>    S        8.83435         6.62896         2.43857
| 37>    C        7.84825         6.84599         3.85948
| 38>    C        6.59980         7.30287         3.59984
| 39>    F        5.70595         7.59020         4.55700
| 40>    F        8.35346         6.57488         5.05905
| 41>    C        3.94389         8.22520         2.19553
| 42>    C        3.14389         7.38090         2.93040
| 43>    C        3.44405         5.93889         3.20736
| 44>    C        3.24719         5.56359         4.67492
| 45>    C        1.92485         7.99017         3.28885
| 46>    C        1.77282         9.27234         2.82195
| 47>    S        3.19022         9.77304         1.94823
| 48>    C        0.61620        10.10391         2.89303
| 49>    C        0.43692        11.17813         2.09801
| 50>    C       -0.73454        11.99189         2.04815
| 51>    C       -1.77109        12.09245         2.93077
| 52>    C       -2.78827        12.97906         2.50353
| 53>    C       -3.97272        13.36667         3.14665
| 54>    C       -4.80546        14.24885         2.44586
| 55>    C       -4.37374        14.74185         1.18994
| 56>    N       -3.24309        14.42644         0.59839
| 57>    C       -2.48652        13.56452         1.24435
| 58>    S       -0.96178        13.02051         0.63693
| 59>    S       -5.51980        15.83915         0.46802
| 60>    C       -6.58447        15.60430         1.82728
| 61>    C       -6.09675        14.76269         2.77004
| 62>    F       -6.77809        14.42105         3.87639
| 63>    F       -7.75936        16.22480         1.85873
| 64>    C       -4.30799        12.88538         4.47877
| 65>    S       -4.51809        11.19266         4.77307
| 66>    C       -4.84570        11.47777         6.46059
| 67>    C       -4.78286        12.81901         6.75662
| 68>    C       -4.46654        13.61834         5.62687
| 69>    C       -4.29236        15.10179         5.71355
| 70>    S       -2.79123        15.67145         4.80460
| 71>    C       -4.24707        15.58266         7.15851
| 72>    C       -5.36811        14.91846         7.94943
| 73>    C       -5.07320        13.42771         8.09198
| 74>    C       -5.14160        10.32513         7.27382
| 75>    C       -5.08664        10.24056         8.60033
| 76>    H        1.67713        11.66312        -7.50584
| 77>    H       -0.84744        12.40567        -6.56955
| 78>    H        1.02932        14.67014        -5.15394
| 79>    H       -1.74757        11.84961        -4.40895
| 80>    H       -1.91307        13.60161        -4.57867
| 81>    H       -1.05499        13.09723        -2.33644
| 82>    H        0.21915        13.88326        -3.26188
| 83>    H       -0.08075        10.90502        -2.67509
| 84>    H        1.20095        11.97885        -2.11518
| 85>    H        2.63821        10.20150        -2.16654
| 86>    H        4.77697         9.24784        -4.14063
| 87>    H        3.40610         8.93839        -0.52308
| 88>    H        4.46539         5.70823         2.90080
| 89>    H        2.77360         5.33004         2.59122
| 90>    H        3.86193         6.18923         5.31537
| 91>    H        3.52817         4.52481         4.83065
| 92>    H        2.20855         5.68421         4.97104
| 93>    H        1.15405         7.48465         3.84235
| 94>    H       -0.15964         9.78535         3.57514
| 95>    H        1.21239        11.43448         1.38747
| 96>    H       -1.80643        11.55942         3.86308
| 97>    H       -5.10319        15.61013         5.18488
| 98>    H       -1.91355        15.01440         5.56108
| 99>    H       -4.34141        16.66908         7.17929
|100>    H       -3.28430        15.31920         7.60514
|101>    H       -6.31633        15.05993         7.42734
|102>    H       -5.45113        15.37392         8.93701
|103>    H       -5.92145        12.91329         8.54877
|104>    H       -4.20698        13.29476         8.74891
|105>    H       -5.41163         9.44463         6.70293
|106>    H       -4.78220        11.05560         9.22965
|107>    H       -5.33372         9.31992         9.09983
|108> *
|109>
|110>                          ****END OF INPUT****

CARTESIAN COORDINATES (ANGSTROEM)
---------------------------------
  C      1.748080   11.457440   -6.455920
  S      3.042810   10.510700   -5.861720
  C      2.454250   10.671070   -4.225300
  C      1.309130   11.442560   -4.183900
  C      0.906580   11.882600   -5.468090
  C     -0.288540   12.743420   -5.692840
  S      0.248250   14.439480   -6.206300
  C     -1.192970   12.790110   -4.465250
  C     -0.383420   12.975190   -3.186980
  C      0.528460   11.772880   -2.950140
  C      3.118630   10.062340   -3.124820
  C      4.273210    9.365720   -3.191340
  C      4.914530    8.804920   -2.045210
  C      4.415640    8.679760   -0.779130
  C      5.349100    8.177210    0.154480
  C      5.212790    7.962660    1.537510
  C      6.354910    7.502100    2.207440
  C      7.517890    7.210070    1.451050
  N      7.645200    7.375140    0.153150
  C      6.591730    7.868550   -0.464330
  S      6.572640    8.226560   -2.158600
  S      8.834350    6.628960    2.438570
  C      7.848250    6.845990    3.859480
  C      6.599800    7.302870    3.599840
  F      5.705950    7.590200    4.557000
  F      8.353460    6.574880    5.059050
  C      3.943890    8.225200    2.195530
  C      3.143890    7.380900    2.930400
  C      3.444050    5.938890    3.207360
  C      3.247190    5.563590    4.674920
  C      1.924850    7.990170    3.288850
  C      1.772820    9.272340    2.821950
  S      3.190220    9.773040    1.948230
  C      0.616200   10.103910    2.893030
  C      0.436920   11.178130    2.098010
  C     -0.734540   11.991890    2.048150
  C     -1.771090   12.092450    2.930770
  C     -2.788270   12.979060    2.503530
  C     -3.972720   13.366670    3.146650
  C     -4.805460   14.248850    2.445860
  C     -4.373740   14.741850    1.189940
  N     -3.243090   14.426440    0.598390
  C     -2.486520   13.564520    1.244350
  S     -0.961780   13.020510    0.636930
  S     -5.519800   15.839150    0.468020
  C     -6.584470   15.604300    1.827280
  C     -6.096750   14.762690    2.770040
  F     -6.778090   14.421050    3.876390
  F     -7.759360   16.224800    1.858730
  C     -4.307990   12.885380    4.478770
  S     -4.518090   11.192660    4.773070
  C     -4.845700   11.477770    6.460590
  C     -4.782860   12.819010    6.756620
  C     -4.466540   13.618340    5.626870
  C     -4.292360   15.101790    5.713550
  S     -2.791230   15.671450    4.804600
  C     -4.247070   15.582660    7.158510
  C     -5.368110   14.918460    7.949430
  C     -5.073200   13.427710    8.091980
  C     -5.141600   10.325130    7.273820
  C     -5.086640   10.240560    8.600330
  H      1.677130   11.663120   -7.505840
  H     -0.847440   12.405670   -6.569550
  H      1.029320   14.670140   -5.153940
  H     -1.747570   11.849610   -4.408950
  H     -1.913070   13.601610   -4.578670
  H     -1.054990   13.097230   -2.336440
  H      0.219150   13.883260   -3.261880
  H     -0.080750   10.905020   -2.675090
  H      1.200950   11.978850   -2.115180
  H      2.638210   10.201500   -2.166540
  H      4.776970    9.247840   -4.140630
  H      3.406100    8.938390   -0.523080
  H      4.465390    5.708230    2.900800
  H      2.773600    5.330040    2.591220
  H      3.861930    6.189230    5.315370
  H      3.528170    4.524810    4.830650
  H      2.208550    5.684210    4.971040
  H      1.154050    7.484650    3.842350
  H     -0.159640    9.785350    3.575140
  H      1.212390   11.434480    1.387470
  H     -1.806430   11.559420    3.863080
  H     -5.103190   15.610130    5.184880
  H     -1.913550   15.014400    5.561080
  H     -4.341410   16.669080    7.179290
  H     -3.284300   15.319200    7.605140
  H     -6.316330   15.059930    7.427340
  H     -5.451130   15.373920    8.937010
  H     -5.921450   12.913290    8.548770
  H     -4.206980   13.294760    8.748910
  H     -5.411630    9.444630    6.702930
  H     -4.782200   11.055600    9.229650
  H     -5.333720    9.319920    9.099830

 Total Charge           Charge          ....    0
 Multiplicity           Mult            ....    1
 Number of Electrons    NEL             ....  502
 Basis Dimension        Dim             .... 1050

ORBITAL ENERGIES
----------------

  NO   OCC          E(Eh)            E(eV)
   0   2.0000     -88.964603     -2420.8499
   1   2.0000     -88.962295     -2420.7871
   2   2.0000     -88.955758     -2420.6092
   3   2.0000     -88.954958     -2420.5875
   4   2.0000     -88.953699     -2420.5532
   5   2.0000     -88.948519     -2420.4123
   6   2.0000     -88.948064     -2420.3999
   7   2.0000     -88.910535     -2419.3787
   8   2.0000     -88.904294     -2419.2088
   9   2.0000     -24.806611      -675.0222
  10   2.0000     -24.804628      -674.9682
  11   2.0000     -24.795056      -674.7078
  12   2.0000     -24.793835      -674.6746
  13   2.0000     -14.421713      -392.4348
  14   2.0000     -14.419563      -392.3763
  15   2.0000     -10.385540      -282.6049
  16   2.0000     -10.383514      -282.5498
  17   2.0000     -10.363995      -282.0186
  18   2.0000     -10.362555      -281.9795
  19   2.0000     -10.343402      -281.4583
  20   2.0000     -10.341428      -281.4046
  21   2.0000     -10.336062      -281.2585
  22   2.0000     -10.333068      -281.1771
  23   2.0000     -10.311921      -280.6016
  24   2.0000     -10.311434      -280.5884
  25   2.0000     -10.310457      -280.5618
  26   2.0000     -10.306378      -280.4508
  27   2.0000     -10.304817      -280.4083
  28   2.0000     -10.303316      -280.3675
  29   2.0000     -10.300981      -280.3039
  30   2.0000     -10.300504      -280.2910
  31   2.0000     -10.300409      -280.2884
  32   2.0000     -10.299669      -280.2682
  33   2.0000     -10.299161      -280.2544
  34   2.0000     -10.296366      -280.1784
  35   2.0000     -10.293108      -280.0897
  36   2.0000     -10.290703      -280.0243
  37   2.0000     -10.290219      -280.0111
  38   2.0000     -10.289075      -279.9800
  39   2.0000     -10.289050      -279.9793
  40   2.0000     -10.286872      -279.9200
  41   2.0000     -10.285608      -279.8856
  42   2.0000     -10.283580      -279.8304
  43   2.0000     -10.280282      -279.7407
  44   2.0000     -10.279790      -279.7273
  45   2.0000     -10.279665      -279.7239
  46   2.0000     -10.278036      -279.6796
  47   2.0000     -10.277560      -279.6666
  48   2.0000     -10.274491      -279.5831
  49   2.0000     -10.274145      -279.5737
  50   2.0000     -10.272599      -279.5316
  51   2.0000     -10.270967      -279.4872
  52   2.0000     -10.270204      -279.4665
  53   2.0000     -10.269625      -279.4507
  54   2.0000     -10.269552      -279.4487
  55   2.0000     -10.268999      -279.4337
  56   2.0000     -10.268126      -279.4099
  57   2.0000     -10.266468      -279.3648
  58   2.0000     -10.263149      -279.2745
  59   2.0000     -10.261317      -279.2246
  60   2.0000     -10.253997      -279.0254
  61   2.0000      -8.061732      -219.3709
  62   2.0000      -8.059521      -219.3107
  63   2.0000      -8.051170      -219.0835
  64   2.0000      -8.050279      -219.0592
  65   2.0000      -8.050158      -219.0559
  66   2.0000      -8.044842      -218.9113
  67   2.0000      -8.044362      -218.8982
  68   2.0000      -8.005607      -217.8436
  69   2.0000      -7.999846      -217.6869
  70   2.0000      -6.031303      -164.1201
  71   2.0000      -6.029096      -164.0600
  72   2.0000      -6.027494      -164.0165
  73   2.0000      -6.025300      -163.9567
  74   2.0000      -6.022455      -163.8793
  75   2.0000      -6.020311      -163.8210
  76   2.0000      -6.020190      -163.8177
  77   2.0000      -6.019556      -163.8005
  78   2.0000      -6.019508      -163.7991
  79   2.0000      -6.016359      -163.7135
  80   2.0000      -6.015626      -163.6935
  81   2.0000      -6.015503      -163.6902
  82   2.0000      -6.014178      -163.6541
  83   2.0000      -6.013515      -163.6361
  84   2.0000      -6.013440      -163.6340
  85   2.0000      -6.012344      -163.6042
  86   2.0000      -6.011650      -163.5853
  87   2.0000      -6.010317      -163.5490
  88   2.0000      -6.009401      -163.5241
  89   2.0000      -6.006720      -163.4512
  90   2.0000      -6.006253      -163.4385
  91   2.0000      -5.976203      -162.6207
  92   2.0000      -5.972121      -162.5097
  93   2.0000      -5.970271      -162.4593
  94   2.0000      -5.966447      -162.3553
  95   2.0000      -5.965127      -162.3194
  96   2.0000      -5.959410      -162.1638
  97   2.0000      -1.324242       -36.0345
  98   2.0000      -1.322195       -35.9788
  99   2.0000      -1.304479       -35.4967
 100   2.0000      -1.303819       -35.4787
 101   2.0000      -1.068764       -29.0825
 102   2.0000      -1.066275       -29.0148
 103   2.0000      -0.994258       -27.0551
 104   2.0000      -0.991291       -26.9744
 105   2.0000      -0.988070       -26.8867
 106   2.0000      -0.986206       -26.8360
 107   2.0000      -0.983578       -26.7645
 108   2.0000      -0.964685       -26.2504
 109   2.0000      -0.960474       -26.1358
 110   2.0000      -0.928147       -25.2562
 111   2.0000      -0.924658       -25.1612
 112   2.0000      -0.922051       -25.0903
 113   2.0000      -0.917789       -24.9743
 114   2.0000      -0.897940       -24.4342
 115   2.0000      -0.888473       -24.1766
 116   2.0000      -0.879956       -23.9448
 117   2.0000      -0.870973       -23.7004
 118   2.0000      -0.866459       -23.5775
 119   2.0000      -0.862545       -23.4710
 120   2.0000      -0.847169       -23.0526
 121   2.0000      -0.845119       -22.9969
 122   2.0000      -0.832770       -22.6608
 123   2.0000      -0.825543       -22.4642
 124   2.0000      -0.823168       -22.3995
 125   2.0000      -0.819846       -22.3091
 126   2.0000      -0.814575       -22.1657
 127   2.0000      -0.811457       -22.0809
 128   2.0000      -0.807804       -21.9815
 129   2.0000      -0.798627       -21.7317
 130   2.0000      -0.789983       -21.4965
 131   2.0000      -0.782185       -21.2843
 132   2.0000      -0.774443       -21.0737
 133   2.0000      -0.768064       -20.9001
 134   2.0000      -0.747059       -20.3285
 135   2.0000      -0.731965       -19.9178
 136   2.0000      -0.714163       -19.4334
 137   2.0000      -0.709631       -19.3100
 138   2.0000      -0.708183       -19.2707
 139   2.0000      -0.704294       -19.1648
 140   2.0000      -0.703100       -19.1323
 141   2.0000      -0.702922       -19.1275
 142   2.0000      -0.695486       -18.9251
 143   2.0000      -0.689609       -18.7652
 144   2.0000      -0.686290       -18.6749
 145   2.0000      -0.678355       -18.4590
 146   2.0000      -0.665911       -18.1204
 147   2.0000      -0.659303       -17.9405
 148   2.0000      -0.655442       -17.8355
 149   2.0000      -0.645101       -17.5541
 150   2.0000      -0.641796       -17.4641
 151   2.0000      -0.639380       -17.3984
 152   2.0000      -0.635994       -17.3063
 153   2.0000      -0.630465       -17.1558
 154   2.0000      -0.621841       -16.9211
 155   2.0000      -0.610365       -16.6089
 156   2.0000      -0.606226       -16.4962
 157   2.0000      -0.602966       -16.4075
 158   2.0000      -0.596748       -16.2384
 159   2.0000      -0.596129       -16.2215
 160   2.0000      -0.592055       -16.1106
 161   2.0000      -0.587724       -15.9928
 162   2.0000      -0.586811       -15.9679
 163   2.0000      -0.585691       -15.9375
 164   2.0000      -0.583335       -15.8734
 165   2.0000      -0.577246       -15.7077
 166   2.0000      -0.573396       -15.6029
 167   2.0000      -0.566012       -15.4020
 168   2.0000      -0.564204       -15.3528
 169   2.0000      -0.550900       -14.9908
 170   2.0000      -0.548924       -14.9370
 171   2.0000      -0.544678       -14.8214
 172   2.0000      -0.541643       -14.7388
 173   2.0000      -0.540279       -14.7017
 174   2.0000      -0.537983       -14.6393
 175   2.0000      -0.531754       -14.4698
 176   2.0000      -0.528964       -14.3938
 177   2.0000      -0.526986       -14.3400
 178   2.0000      -0.526233       -14.3195
 179   2.0000      -0.523842       -14.2545
 180   2.0000      -0.521042       -14.1783
 181   2.0000      -0.517731       -14.0882
 182   2.0000      -0.514291       -13.9946
 183   2.0000      -0.513084       -13.9617
 184   2.0000      -0.508555       -13.8385
 185   2.0000      -0.504515       -13.7286
 186   2.0000      -0.501609       -13.6495
 187   2.0000      -0.500068       -13.6075
 188   2.0000      -0.495943       -13.4953
 189   2.0000      -0.494929       -13.4677
 190   2.0000      -0.493642       -13.4327
 191   2.0000      -0.491783       -13.3821
 192   2.0000      -0.488576       -13.2948
 193   2.0000      -0.487453       -13.2643
 194   2.0000      -0.484726       -13.1901
 195   2.0000      -0.482615       -13.1326
 196   2.0000      -0.481246       -13.0954
 197   2.0000      -0.477342       -12.9891
 198   2.0000      -0.472101       -12.8465
 199   2.0000      -0.468519       -12.7490
 200   2.0000      -0.467693       -12.7266
 201   2.0000      -0.466794       -12.7021
 202   2.0000      -0.463793       -12.6204
 203   2.0000      -0.461568       -12.5599
 204   2.0000      -0.455304       -12.3895
 205   2.0000      -0.453281       -12.3344
 206   2.0000      -0.447568       -12.1789
 207   2.0000      -0.445430       -12.1208
 208   2.0000      -0.442235       -12.0338
 209   2.0000      -0.440054       -11.9745
 210   2.0000      -0.436977       -11.8908
 211   2.0000      -0.436255       -11.8711
 212   2.0000      -0.434978       -11.8363
 213   2.0000      -0.430889       -11.7251
 214   2.0000      -0.429345       -11.6831
 215   2.0000      -0.424852       -11.5608
 216   2.0000      -0.422506       -11.4970
 217   2.0000      -0.418891       -11.3986
 218   2.0000      -0.417712       -11.3665
 219   2.0000      -0.414047       -11.2668
 220   2.0000      -0.412393       -11.2218
 221   2.0000      -0.410730       -11.1765
 222   2.0000      -0.408399       -11.1131
 223   2.0000      -0.406473       -11.0607
 224   2.0000      -0.405175       -11.0254
 225   2.0000      -0.403395       -10.9769
 226   2.0000      -0.402070       -10.9409
 227   2.0000      -0.398083       -10.8324
 228   2.0000      -0.394775       -10.7424
 229   2.0000      -0.391131       -10.6432
 230   2.0000      -0.381947       -10.3933
 231   2.0000      -0.379830       -10.3357
 232   2.0000      -0.368759       -10.0345
 233   2.0000      -0.364079        -9.9071
 234   2.0000      -0.361618        -9.8401
 235   2.0000      -0.349722        -9.5164
 236   2.0000      -0.346991        -9.4421
 237   2.0000      -0.329992        -8.9795
 238   2.0000      -0.326395        -8.8817
 239   2.0000      -0.318785        -8.6746
 240   2.0000      -0.313707        -8.5364
 241   2.0000      -0.312139        -8.4937
 242   2.0000      -0.308660        -8.3991
 243   2.0000      -0.307027        -8.3546
 244   2.0000      -0.300190        -8.1686
 245   2.0000      -0.289398        -7.8749
 246   2.0000      -0.281057        -7.6479
 247   2.0000      -0.278282        -7.5724
 248   2.0000      -0.270215        -7.3529
 249   2.0000      -0.254703        -6.9308
 250   2.0000      -0.242908        -6.6099
 251   0.0000      -0.058442        -1.5903
 252   0.0000      -0.044392        -1.2080
 253   0.0000      -0.024162        -0.6575
 254   0.0000      -0.008537        -0.2323
 255   0.0000       0.002295         0.0624

MULLIKEN ATOMIC CHARGES
-----------------------
   0 C :   -0.099680
   1 S :    0.112579
   2 C :   -0.121279
   3 C :   -0.064077
   4 C :    0.038701
   5 C :   -0.157695
   6 S :   -0.046913
   7 C :    0.101948
   8 C :    0.011653
   9 C :    0.127009
  10 C :    0.001526
  11 C :    0.031726
  12 C :   -0.055446
  13 C :   -0.053040
  14 C :    0.077386
  15 C :    0.079520
  16 C :    0.051753
  17 C :   -0.177111
  18 N :   -0.007528
  19 C :   -0.156726
  20 S :    0.132983
  21 S :    0.123978
  22 C :    0.057356
  23 C :    0.213700
  24 F :   -0.172850
  25 F :   -0.154257
  26 C :   -0.237866
  27 C :    0.043123
  28 C :    0.087634
  29 C :   -0.006789
  30 C :   -0.050526
  31 C :   -0.045397
  32 S :    0.116086
  33 C :    0.047254
  34 C :    0.026432
  35 C :   -0.052730
  36 C :   -0.041472
  37 C :    0.099272
  38 C :    0.081991
  39 C :    0.060089
  40 C :   -0.169723
  41 N :   -0.005384
  42 C :   -0.155025
  43 S :    0.117612
  44 S :    0.124594
  45 C :    0.056578
  46 C :    0.211966
  47 F :   -0.177824
  48 F :   -0.153057
  49 C :   -0.246135
  50 S :    0.138993
  51 C :   -0.151614
  52 C :   -0.086181
  53 C :    0.106063
  54 C :   -0.183518
  55 S :   -0.033048
  56 C :    0.095795
  57 C :    0.031523
  58 C :    0.093589
  59 C :    0.028799
  60 C :   -0.027491
  61 H :    0.015427
  62 H :    0.044002
  63 H :    0.050472
  64 H :    0.005850
  65 H :    0.012948
  66 H :    0.009650
  67 H :   -0.003952
  68 H :    0.016882
  69 H :    0.010438
  70 H :   -0.012626
  71 H :   -0.011921
  72 H :   -0.005054
  73 H :    0.007327
  74 H :    0.018652
  75 H :    0.026191
  76 H :    0.014394
  77 H :    0.009951
  78 H :   -0.024529
  79 H :   -0.005035
  80 H :   -0.006286
  81 H :   -0.015430
  82 H :    0.061532
  83 H :    0.047785
  84 H :    0.010331
  85 H :   -0.005053
  86 H :    0.011302
  87 H :    0.001910
  88 H :    0.021242
  89 H :    0.021090
  90 H :   -0.007080
  91 H :    0.016538
  92 H :    0.024224
Sum of atomic charges:   -0.0000000

LOEWDIN ATOMIC CHARGES
----------------------
   0 C :   -0.173790
   1 S :    0.437004
   2 C :   -0.187244
   3 C :   -0.049018
   4 C :   -0.090139
   5 C :   -0.114843
   6 S :    0.153099
   7 C :   -0.038894
   8 C :   -0.031117
   9 C :   -0.027147
  10 C :   -0.012901
  11 C :   -0.060057
  12 C :   -0.140812
  13 C :   -0.076032
  14 C :   -0.056956
  15 C :   -0.017127
  16 C :   -0.082995
  17 C :   -0.135086
  18 N :   -0.095160
  19 C :   -0.135281
  20 S :    0.410648
  21 S :    0.404824
  22 C :   -0.100641
  23 C :   -0.002462
  24 F :   -0.044790
  25 F :   -0.044342
  26 C :   -0.177206
  27 C :   -0.040330
  28 C :   -0.028896
  29 C :   -0.052189
  30 C :   -0.052302
  31 C :   -0.166625
  32 S :    0.447115
  33 C :   -0.016552
  34 C :   -0.055915
  35 C :   -0.145470
  36 C :   -0.060414
  37 C :   -0.056331
  38 C :   -0.013208
  39 C :   -0.083110
  40 C :   -0.130290
  41 N :   -0.096599
  42 C :   -0.132378
  43 S :    0.413922
  44 S :    0.408053
  45 C :   -0.100296
  46 C :   -0.003849
  47 F :   -0.051082
  48 F :   -0.043559
  49 C :   -0.182303
  50 S :    0.445084
  51 C :   -0.178542
  52 C :   -0.051188
  53 C :   -0.070151
  54 C :   -0.120897
  55 S :    0.178531
  56 C :   -0.037575
  57 C :   -0.028364
  58 C :   -0.027230
  59 C :   -0.041837
  60 C :   -0.046508
  61 H :    0.023299
  62 H :    0.032323
  63 H :   -0.038400
  64 H :    0.024476
  65 H :    0.026120
  66 H :    0.021053
  67 H :    0.016295
  68 H :    0.034007
  69 H :    0.027582
  70 H :    0.032669
  71 H :    0.022686
  72 H :    0.016885
  73 H :    0.028427
  74 H :    0.034938
  75 H :    0.023847
  76 H :    0.025997
  77 H :    0.018879
  78 H :    0.027332
  79 H :    0.036178
  80 H :    0.019551
  81 H :    0.023703
  82 H :    0.030759
  83 H :   -0.037205
  84 H :    0.027801
  85 H :    0.018088
  86 H :    0.025450
  87 H :    0.025479
  88 H :    0.034340
  89 H :    0.030448
  90 H :    0.028480
  91 H :    0.021491
  92 H :    0.026776

  Mayer bond orders larger than 0.100000
B(  0-C ,  1-S ) :   1.1715 B(  0-C ,  4-C ) :   1.5533 B(  0-C , 61-H ) :   0.9695
B(  1-S ,  2-C ) :   1.1158 B(  2-C ,  3-C ) :   1.4981 B(  2-C , 10-C ) :   1.1569
B(  3-C ,  4-C ) :   1.3089 B(  3-C ,  9-C ) :   1.0513 B(  4-C ,  5-C ) :   0.9430
B(  5-C ,  6-S ) :   1.0431 B(  5-C ,  7-C ) :   1.0224 B(  5-C , 62-H ) :   0.9209
B(  6-S , 63-H ) :   0.9522 B(  7-C ,  8-C ) :   1.0711 B(  7-C , 64-H ) :   0.9344
B(  7-C , 65-H ) :   0.9324 B(  8-C ,  9-C ) :   1.0818 B(  8-C , 66-H ) :   0.9289
B(  8-C , 67-H ) :   0.9456 B(  9-C , 68-H ) :   0.9116 B(  9-C , 69-H ) :   0.9128
B( 10-C , 11-C ) :   1.7014 B( 10-C , 70-H ) :   0.9653 B( 11-C , 12-C ) :   1.0984
B( 11-C , 71-H ) :   0.9664 B( 12-C , 13-C ) :   1.5704 B( 12-C , 20-S ) :   1.0698
B( 13-C , 14-C ) :   1.1806 B( 13-C , 72-H ) :   0.9771 B( 14-C , 15-C ) :   1.3532
B( 14-C , 19-C ) :   1.1878 B( 15-C , 16-C ) :   1.3978 B( 15-C , 26-C ) :   0.9638
B( 16-C , 17-C ) :   1.1765 B( 16-C , 23-C ) :   1.0708 B( 17-C , 18-N ) :   1.5635
B( 17-C , 21-S ) :   1.0662 B( 18-N , 19-C ) :   1.5359 B( 19-C , 20-S ) :   1.0848
B( 21-S , 22-C ) :   1.0807 B( 22-C , 23-C ) :   1.5140 B( 22-C , 25-F ) :   1.1372
B( 23-C , 24-F ) :   1.1207 B( 26-C , 27-C ) :   1.5942 B( 26-C , 31-C ) :   0.1047
B( 26-C , 32-S ) :   1.1175 B( 27-C , 28-C ) :   1.0733 B( 27-C , 30-C ) :   1.2173
B( 28-C , 29-C ) :   1.0922 B( 28-C , 73-H ) :   0.9202 B( 28-C , 74-H ) :   0.9241
B( 29-C , 75-H ) :   0.9712 B( 29-C , 76-H ) :   0.9659 B( 29-C , 77-H ) :   0.9694
B( 30-C , 31-C ) :   1.4977 B( 30-C , 78-H ) :   1.0014 B( 31-C , 32-S ) :   1.1090
B( 31-C , 33-C ) :   1.1292 B( 33-C , 34-C ) :   1.7125 B( 33-C , 79-H ) :   0.9782
B( 34-C , 35-C ) :   1.1002 B( 34-C , 80-H ) :   0.9525 B( 35-C , 36-C ) :   1.5661
B( 35-C , 43-S ) :   1.0721 B( 36-C , 37-C ) :   1.1784 B( 36-C , 81-H ) :   0.9876
B( 37-C , 38-C ) :   1.3604 B( 37-C , 42-C ) :   1.1919 B( 38-C , 39-C ) :   1.4073
B( 38-C , 49-C ) :   0.9536 B( 39-C , 40-C ) :   1.1764 B( 39-C , 46-C ) :   1.0726
B( 40-C , 41-N ) :   1.5609 B( 40-C , 44-S ) :   1.0674 B( 41-N , 42-C ) :   1.5452
B( 42-C , 43-S ) :   1.0832 B( 44-S , 45-C ) :   1.0822 B( 45-C , 46-C ) :   1.5125
B( 45-C , 48-F ) :   1.1401 B( 46-C , 47-F ) :   1.1222 B( 49-C , 50-S ) :   1.1438
B( 49-C , 51-C ) :   0.1139 B( 49-C , 53-C ) :   1.5902 B( 50-S , 51-C ) :   1.1087
B( 51-C , 52-C ) :   1.5675 B( 51-C , 59-C ) :   1.0806 B( 52-C , 53-C ) :   1.2955
B( 52-C , 58-C ) :   1.0495 B( 53-C , 54-C ) :   0.9458 B( 54-C , 55-S ) :   1.0493
B( 54-C , 56-C ) :   1.0410 B( 54-C , 82-H ) :   0.8877 B( 55-S , 83-H ) :   0.9548
B( 56-C , 57-C ) :   1.0621 B( 56-C , 84-H ) :   0.9315 B( 56-C , 85-H ) :   0.9379
B( 57-C , 58-C ) :   1.0878 B( 57-C , 86-H ) :   0.9438 B( 57-C , 87-H ) :   0.9322
B( 58-C , 88-H ) :   0.9157 B( 58-C , 89-H ) :   0.9075 B( 59-C , 60-C ) :   1.9444
B( 59-C , 90-H ) :   0.9478 B( 60-C , 91-H ) :   0.9583 B( 60-C , 92-H ) :   0.9451

-----------------------------------------------------------------------------
         ABSORPTION SPECTRUM VIA TRANSITION ELECTRIC DIPOLE MOMENTS
-----------------------------------------------------------------------------
State   Energy  Wavelength   fosc         T2         TX        TY        TZ
        (cm-1)    (nm)                  (au**2)     (au)      (au)      (au)
-----------------------------------------------------------------------------
   0   24283.9    411.8   0.530326740   7.18954  -1.52845   0.56229   2.13007
   1   27276.5    366.6   0.499262429   6.02582  -2.17031   1.14365   0.08736
   2   28099.9    355.9   1.074114010  12.58406  -2.68337   1.83421  -1.42100
   3   30048.3    332.8   0.787653397   8.62961   1.53476  -1.47005   2.02808
   4   30843.0    324.2   0.033411467   0.35663  -0.01610   0.28606   0.52397
   5   31447.8    318.0   0.016373039   0.17140   0.24908  -0.22633   0.24111
   6   32051.6    312.0   0.012014096   0.12340  -0.02077   0.20117  -0.28723
   7   32915.3    303.8   0.535978119   5.36073  -1.37419   1.39327  -1.23739
   8   34347.2    291.1   0.057863195   0.55461  -0.03416   0.66853  -0.32637
   9   35472.0    281.9   0.012676610   0.11765   0.13823  -0.29608   0.10430
  10   36046.7    277.4   0.078072531   0.71303  -0.70339   0.45698   0.09718
  11   36515.9    273.9   0.195105125   1.75898   1.15140  -0.55273   0.35744
  12   37162.9    269.1   0.093118420   0.82490   0.10230  -0.60794   0.66697
  13   37613.9    265.9   0.011656406   0.10202  -0.28873  -0.02908  -0.13345
  14   37985.9    263.3   0.091502650   0.79302   0.69687  -0.40849   0.37487
  15   38346.2    260.8   0.050936653   0.43730  -0.45846  -0.24527   0.40861
  16   38893.4    257.1   0.016632634   0.14079   0.06727   0.25151  -0.27019
  17   39072.0    255.9   0.136049960   1.14633   0.57566  -0.89651   0.10587
  18   39208.2    255.0   0.018519441   0.15550  -0.17338  -0.35291  -0.02986
  19   39372.9    254.0   0.019436050   0.16251   0.02144   0.09564  -0.39103
  20   39490.9    253.2   0.171922355   1.43321  -0.59669   0.98718  -0.32039
  21   39668.7    252.1   0.007713245   0.06401   0.12896   0.04822  -0.21226

FINAL SINGLE POINT ENERGY     -5860.822382193885

DIPOLE MOMENT
-------------
                                X             Y             Z
Electronic contribution:     31.50705      -0.95473     -15.98909
Nuclear contribution   :    -32.82108       0.26253      17.37320
                        -----------------------------------------
Total Dipole Moment    :     -1.31403      -0.69220       1.38412
                        -----------------------------------------
Magnitude (a.u.)       :      2.03017
Magnitude (Debye)      :      5.16028

Rotational constants in cm-1:     0.001117     0.000535     0.000380
Rotational constants in MHz :    33.483022    16.042139    11.400491

                             ****ORCA TERMINATED NORMALLY****
TOTAL RUN TIME: 0 days 0 hours 9 minutes 3 seconds 270 msec
