                         Program Version 4.2.0 -  RELEASE  -
|  1> # ORCA input file
|  2> # SCF done       -165.035215631111          0.000174514941
|  3> ! CAM-B3LYP def2-SVP def2/J RIJCOSX Grid4 TightSCF
|  4> %maxcore 5000
|  5> %tddft
|  6>     Mode sTDDFT
|  7>     Ethresh 5.0
|  8>     maxcore 5000
|  9> end
| 10>
| 11> %pal
| 12>   nprocs 6
| 13>   end
| 14> * xyz 0 1
| 15>    C        1.99638       -12.96819         6.69355
| 16>    C        3.07144       -12.77110         5.93518
| 17>    C        3.18158       -11.92126         4.77629
| 18>    S        4.79066       -11.48866         4.26754
| 19>    C        4.17434       -10.57765         2.93093
| 20>    C        5.10095        -9.89097         2.04341
| 21>    C        5.95893        -8.89264         2.52803
| 22>    C        6.07798        -8.36526         3.83310
| 23>    C        7.02605        -7.38631         3.92329
| 24>    C        7.39786        -6.66782         5.09127
| 25>    N        8.40922        -5.86760         5.18736
| 26>    C        8.50593        -5.35690         6.41863
| 27>    S        9.65040        -4.28531         7.11719
| 28>    C        8.81275        -4.37847         8.65389
| 29>    C        9.34648        -3.73083         9.83767
| 30>    C        9.49893        -4.47067        11.02548
| 31>    C        9.20282        -5.82594        11.29748
| 32>    C        9.48425        -6.20363        12.58175
| 33>    C        9.28040        -7.46747        13.21276
| 34>    C        8.64537        -8.51244        12.64133
| 35>    C        8.41820        -9.76856        13.27088
| 36>    S        9.02332       -10.11450        14.87237
| 37>    C        8.31809       -11.67213        14.84060
| 38>    C        7.65346       -11.92758        13.67547
| 39>    C        7.71482       -10.84433        12.76581
| 40>    C        7.02976       -10.88194        11.43572
| 41>    C        6.71110       -12.31764        11.02208
| 42>    C        6.02993       -13.06682        12.16192
| 43>    C        6.95883       -13.20753        13.36348
| 44>    S        8.20520       -14.55292        13.10348
| 45>    S       10.16969        -4.88430        13.52187
| 46>    C       10.06028        -3.82242        12.16045
| 47>    N       10.46818        -2.57197        12.19651
| 48>    C       10.31127        -1.88786        11.08546
| 49>    S       10.76938        -0.20978        10.97662
| 50>    C       10.16681        -0.16634         9.34369
| 51>    F       10.21421         0.96891         8.65634
| 52>    C        9.66963        -1.34857         8.90478
| 53>    F        9.11303        -1.49668         7.69497
| 54>    C        9.75321        -2.38851         9.88024
| 55>    C        7.71179        -5.19760         8.61386
| 56>    C        7.53100        -5.75217         7.34309
| 57>    S        6.43779        -6.84879         6.58498
| 58>    S        7.81993        -7.04935         2.39825
| 59>    C        6.84198        -8.24864         1.61840
| 60>    N        6.91902        -8.50895         0.32902
| 61>    C        6.11752        -9.45156        -0.11184
| 62>    S        6.10120        -9.93759        -1.78590
| 63>    C        4.90747       -11.15190        -1.41168
| 64>    F        4.45283       -11.94773        -2.37407
| 65>    C        4.53829       -11.17849        -0.10859
| 66>    F        3.65739       -12.06148         0.39028
| 67>    C        5.20377       -10.19264         0.68039
| 68>    C        2.80389       -10.59778         2.89781
| 69>    C        2.23560       -11.36968         3.94445
| 70>    C        0.75847       -11.57940         4.05194
| 71>    C        0.06681       -11.20652         2.74395
| 72>    C        0.51022        -9.81277         2.31397
| 73>    C        1.97572        -9.85122         1.90077
| 74>    S        2.63455        -8.12495         1.73308
| 75>    H        2.03918       -13.63211         7.53962
| 76>    H        1.05702       -12.47676         6.52238
| 77>    H        3.99691       -13.26879         6.19921
| 78>    H        5.48971        -8.69517         4.67069
| 79>    H        8.81553        -6.50146        10.55829
| 80>    H        9.64924        -7.56039        14.22508
| 81>    H        8.25306        -8.41769        11.63863
| 82>    H        8.43508       -12.32718        15.68130
| 83>    H        7.65076       -10.40548        10.67404
| 84>    H        6.09809       -10.30964        11.50514
| 85>    H        7.63274       -12.83455        10.74462
| 86>    H        6.06129       -12.30824        10.14573
| 87>    H        5.71689       -14.05821        11.83098
| 88>    H        5.13924       -12.51607        12.47635
| 89>    H        6.40689       -13.57025        14.23442
| 90>    H        8.94014       -13.90157        12.20500
| 91>    H        7.05111        -5.35084         9.44709
| 92>    H        0.36181       -10.95413         4.85864
| 93>    H        0.55658       -12.62254         4.30544
| 94>    H       -1.01533       -11.23064         2.87895
| 95>    H        0.32992       -11.92776         1.96728
| 96>    H        0.38684        -9.11659         3.14713
| 97>    H       -0.09557        -9.45493         1.47889
| 98>    H        2.07507       -10.30559         0.91125
| 99>    H        1.70805        -7.72768         0.86392
|100> *
|101>
|102>                          ****END OF INPUT****

CARTESIAN COORDINATES (ANGSTROEM)
---------------------------------
  C      1.996380  -12.968190    6.693550
  C      3.071440  -12.771100    5.935180
  C      3.181580  -11.921260    4.776290
  S      4.790660  -11.488660    4.267540
  C      4.174340  -10.577650    2.930930
  C      5.100950   -9.890970    2.043410
  C      5.958930   -8.892640    2.528030
  C      6.077980   -8.365260    3.833100
  C      7.026050   -7.386310    3.923290
  C      7.397860   -6.667820    5.091270
  N      8.409220   -5.867600    5.187360
  C      8.505930   -5.356900    6.418630
  S      9.650400   -4.285310    7.117190
  C      8.812750   -4.378470    8.653890
  C      9.346480   -3.730830    9.837670
  C      9.498930   -4.470670   11.025480
  C      9.202820   -5.825940   11.297480
  C      9.484250   -6.203630   12.581750
  C      9.280400   -7.467470   13.212760
  C      8.645370   -8.512440   12.641330
  C      8.418200   -9.768560   13.270880
  S      9.023320  -10.114500   14.872370
  C      8.318090  -11.672130   14.840600
  C      7.653460  -11.927580   13.675470
  C      7.714820  -10.844330   12.765810
  C      7.029760  -10.881940   11.435720
  C      6.711100  -12.317640   11.022080
  C      6.029930  -13.066820   12.161920
  C      6.958830  -13.207530   13.363480
  S      8.205200  -14.552920   13.103480
  S     10.169690   -4.884300   13.521870
  C     10.060280   -3.822420   12.160450
  N     10.468180   -2.571970   12.196510
  C     10.311270   -1.887860   11.085460
  S     10.769380   -0.209780   10.976620
  C     10.166810   -0.166340    9.343690
  F     10.214210    0.968910    8.656340
  C      9.669630   -1.348570    8.904780
  F      9.113030   -1.496680    7.694970
  C      9.753210   -2.388510    9.880240
  C      7.711790   -5.197600    8.613860
  C      7.531000   -5.752170    7.343090
  S      6.437790   -6.848790    6.584980
  S      7.819930   -7.049350    2.398250
  C      6.841980   -8.248640    1.618400
  N      6.919020   -8.508950    0.329020
  C      6.117520   -9.451560   -0.111840
  S      6.101200   -9.937590   -1.785900
  C      4.907470  -11.151900   -1.411680
  F      4.452830  -11.947730   -2.374070
  C      4.538290  -11.178490   -0.108590
  F      3.657390  -12.061480    0.390280
  C      5.203770  -10.192640    0.680390
  C      2.803890  -10.597780    2.897810
  C      2.235600  -11.369680    3.944450
  C      0.758470  -11.579400    4.051940
  C      0.066810  -11.206520    2.743950
  C      0.510220   -9.812770    2.313970
  C      1.975720   -9.851220    1.900770
  S      2.634550   -8.124950    1.733080
  H      2.039180  -13.632110    7.539620
  H      1.057020  -12.476760    6.522380
  H      3.996910  -13.268790    6.199210
  H      5.489710   -8.695170    4.670690
  H      8.815530   -6.501460   10.558290
  H      9.649240   -7.560390   14.225080
  H      8.253060   -8.417690   11.638630
  H      8.435080  -12.327180   15.681300
  H      7.650760  -10.405480   10.674040
  H      6.098090  -10.309640   11.505140
  H      7.632740  -12.834550   10.744620
  H      6.061290  -12.308240   10.145730
  H      5.716890  -14.058210   11.830980
  H      5.139240  -12.516070   12.476350
  H      6.406890  -13.570250   14.234420
  H      8.940140  -13.901570   12.205000
  H      7.051110   -5.350840    9.447090
  H      0.361810  -10.954130    4.858640
  H      0.556580  -12.622540    4.305440
  H     -1.015330  -11.230640    2.878950
  H      0.329920  -11.927760    1.967280
  H      0.386840   -9.116590    3.147130
  H     -0.095570   -9.454930    1.478890
  H      2.075070  -10.305590    0.911250
  H      1.708050   -7.727680    0.863920

 Total Charge           Charge          ....    0
 Multiplicity           Mult            ....    1
 Number of Electrons    NEL             ....  500
 Basis Dimension        Dim             .... 1005

ORBITAL ENERGIES
----------------

  NO   OCC          E(Eh)            E(eV)
   0   2.0000     -88.967579     -2420.9309
   1   2.0000     -88.965325     -2420.8696
   2   2.0000     -88.963439     -2420.8182
   3   2.0000     -88.962094     -2420.7816
   4   2.0000     -88.957529     -2420.6574
   5   2.0000     -88.953905     -2420.5588
   6   2.0000     -88.953676     -2420.5526
   7   2.0000     -88.951621     -2420.4967
   8   2.0000     -88.911827     -2419.4138
   9   2.0000     -88.910663     -2419.3821
  10   2.0000     -24.807645      -675.0503
  11   2.0000     -24.804255      -674.9581
  12   2.0000     -24.796298      -674.7416
  13   2.0000     -24.790264      -674.5774
  14   2.0000     -14.422094      -392.4451
  15   2.0000     -14.421976      -392.4419
  16   2.0000     -14.421682      -392.4339
  17   2.0000     -10.386541      -282.6322
  18   2.0000     -10.383554      -282.5509
  19   2.0000     -10.365032      -282.0468
  20   2.0000     -10.362728      -281.9842
  21   2.0000     -10.349669      -281.6288
  22   2.0000     -10.345320      -281.5105
  23   2.0000     -10.343586      -281.4633
  24   2.0000     -10.336916      -281.2818
  25   2.0000     -10.335909      -281.2544
  26   2.0000     -10.326541      -280.9995
  27   2.0000     -10.315652      -280.7032
  28   2.0000     -10.314611      -280.6748
  29   2.0000     -10.314577      -280.6739
  30   2.0000     -10.314174      -280.6629
  31   2.0000     -10.310945      -280.5751
  32   2.0000     -10.306930      -280.4658
  33   2.0000     -10.305208      -280.4190
  34   2.0000     -10.304764      -280.4069
  35   2.0000     -10.303737      -280.3790
  36   2.0000     -10.302551      -280.3467
  37   2.0000     -10.301183      -280.3094
  38   2.0000     -10.298616      -280.2396
  39   2.0000     -10.296423      -280.1799
  40   2.0000     -10.293258      -280.0938
  41   2.0000     -10.292276      -280.0671
  42   2.0000     -10.292098      -280.0622
  43   2.0000     -10.290956      -280.0311
  44   2.0000     -10.290806      -280.0271
  45   2.0000     -10.286484      -279.9095
  46   2.0000     -10.285959      -279.8952
  47   2.0000     -10.284663      -279.8599
  48   2.0000     -10.283998      -279.8418
  49   2.0000     -10.280080      -279.7352
  50   2.0000     -10.279835      -279.7285
  51   2.0000     -10.277840      -279.6742
  52   2.0000     -10.276862      -279.6476
  53   2.0000     -10.275742      -279.6171
  54   2.0000     -10.274075      -279.5718
  55   2.0000     -10.271385      -279.4986
  56   2.0000     -10.271299      -279.4963
  57   2.0000     -10.270528      -279.4753
  58   2.0000     -10.270109      -279.4639
  59   2.0000     -10.268210      -279.4122
  60   2.0000      -8.063031      -219.4062
  61   2.0000      -8.062497      -219.3917
  62   2.0000      -8.060680      -219.3423
  63   2.0000      -8.057787      -219.2635
  64   2.0000      -8.053009      -219.1335
  65   2.0000      -8.050120      -219.0549
  66   2.0000      -8.049500      -219.0380
  67   2.0000      -8.048362      -219.0071
  68   2.0000      -8.006741      -217.8745
  69   2.0000      -8.006226      -217.8605
  70   2.0000      -6.032412      -164.1503
  71   2.0000      -6.032086      -164.1414
  72   2.0000      -6.030240      -164.0912
  73   2.0000      -6.028587      -164.0462
  74   2.0000      -6.028238      -164.0367
  75   2.0000      -6.027113      -164.0061
  76   2.0000      -6.026431      -163.9875
  77   2.0000      -6.024613      -163.9381
  78   2.0000      -6.023201      -163.8996
  79   2.0000      -6.023162      -163.8986
  80   2.0000      -6.022183      -163.8719
  81   2.0000      -6.021396      -163.8505
  82   2.0000      -6.019653      -163.8031
  83   2.0000      -6.019470      -163.7981
  84   2.0000      -6.018666      -163.7762
  85   2.0000      -6.018166      -163.7626
  86   2.0000      -6.017730      -163.7508
  87   2.0000      -6.015546      -163.6913
  88   2.0000      -6.015256      -163.6834
  89   2.0000      -6.014515      -163.6633
  90   2.0000      -6.013795      -163.6437
  91   2.0000      -6.011869      -163.5913
  92   2.0000      -6.011373      -163.5778
  93   2.0000      -6.009805      -163.5351
  94   2.0000      -5.977151      -162.6465
  95   2.0000      -5.976660      -162.6332
  96   2.0000      -5.973408      -162.5447
  97   2.0000      -5.972808      -162.5284
  98   2.0000      -5.966298      -162.3512
  99   2.0000      -5.965799      -162.3377
 100   2.0000      -1.325270       -36.0624
 101   2.0000      -1.322338       -35.9827
 102   2.0000      -1.305601       -35.5272
 103   2.0000      -1.301872       -35.4257
 104   2.0000      -1.079458       -29.3736
 105   2.0000      -1.069311       -29.0974
 106   2.0000      -1.068951       -29.0876
 107   2.0000      -0.996883       -27.1266
 108   2.0000      -0.991653       -26.9843
 109   2.0000      -0.990820       -26.9616
 110   2.0000      -0.987426       -26.8692
 111   2.0000      -0.982558       -26.7368
 112   2.0000      -0.965391       -26.2696
 113   2.0000      -0.960862       -26.1464
 114   2.0000      -0.929187       -25.2845
 115   2.0000      -0.928581       -25.2680
 116   2.0000      -0.923306       -25.1244
 117   2.0000      -0.917256       -24.9598
 118   2.0000      -0.902805       -24.5666
 119   2.0000      -0.893881       -24.3237
 120   2.0000      -0.882055       -24.0019
 121   2.0000      -0.872622       -23.7452
 122   2.0000      -0.863642       -23.5009
 123   2.0000      -0.852202       -23.1896
 124   2.0000      -0.848965       -23.1015
 125   2.0000      -0.845914       -23.0185
 126   2.0000      -0.828809       -22.5530
 127   2.0000      -0.827630       -22.5210
 128   2.0000      -0.826722       -22.4963
 129   2.0000      -0.824608       -22.4387
 130   2.0000      -0.815064       -22.1790
 131   2.0000      -0.812264       -22.1028
 132   2.0000      -0.802927       -21.8488
 133   2.0000      -0.795037       -21.6341
 134   2.0000      -0.787208       -21.4210
 135   2.0000      -0.778167       -21.1750
 136   2.0000      -0.773194       -21.0397
 137   2.0000      -0.753854       -20.5134
 138   2.0000      -0.731290       -19.8994
 139   2.0000      -0.717423       -19.5221
 140   2.0000      -0.711188       -19.3524
 141   2.0000      -0.710567       -19.3355
 142   2.0000      -0.706589       -19.2273
 143   2.0000      -0.704612       -19.1735
 144   2.0000      -0.698732       -19.0135
 145   2.0000      -0.695793       -18.9335
 146   2.0000      -0.689166       -18.7532
 147   2.0000      -0.678340       -18.4586
 148   2.0000      -0.672475       -18.2990
 149   2.0000      -0.661580       -18.0025
 150   2.0000      -0.657450       -17.8901
 151   2.0000      -0.654386       -17.8067
 152   2.0000      -0.646125       -17.5819
 153   2.0000      -0.644360       -17.5339
 154   2.0000      -0.638243       -17.3675
 155   2.0000      -0.634889       -17.2762
 156   2.0000      -0.624985       -17.0067
 157   2.0000      -0.620887       -16.8952
 158   2.0000      -0.609225       -16.5779
 159   2.0000      -0.603887       -16.4326
 160   2.0000      -0.601605       -16.3705
 161   2.0000      -0.600187       -16.3319
 162   2.0000      -0.595411       -16.2020
 163   2.0000      -0.588738       -16.0204
 164   2.0000      -0.588044       -16.0015
 165   2.0000      -0.586382       -15.9563
 166   2.0000      -0.584293       -15.8994
 167   2.0000      -0.574967       -15.6457
 168   2.0000      -0.570114       -15.5136
 169   2.0000      -0.567241       -15.4354
 170   2.0000      -0.555341       -15.1116
 171   2.0000      -0.549944       -14.9647
 172   2.0000      -0.549026       -14.9398
 173   2.0000      -0.548678       -14.9303
 174   2.0000      -0.547421       -14.8961
 175   2.0000      -0.543659       -14.7937
 176   2.0000      -0.542143       -14.7525
 177   2.0000      -0.540437       -14.7060
 178   2.0000      -0.534807       -14.5528
 179   2.0000      -0.530600       -14.4384
 180   2.0000      -0.527279       -14.3480
 181   2.0000      -0.526418       -14.3246
 182   2.0000      -0.524455       -14.2711
 183   2.0000      -0.521613       -14.1938
 184   2.0000      -0.518955       -14.1215
 185   2.0000      -0.513604       -13.9759
 186   2.0000      -0.511520       -13.9192
 187   2.0000      -0.511463       -13.9176
 188   2.0000      -0.509047       -13.8519
 189   2.0000      -0.505149       -13.7458
 190   2.0000      -0.500133       -13.6093
 191   2.0000      -0.495996       -13.4967
 192   2.0000      -0.493337       -13.4244
 193   2.0000      -0.492694       -13.4069
 194   2.0000      -0.490228       -13.3398
 195   2.0000      -0.487080       -13.2541
 196   2.0000      -0.484814       -13.1924
 197   2.0000      -0.478416       -13.0184
 198   2.0000      -0.476434       -12.9644
 199   2.0000      -0.473866       -12.8946
 200   2.0000      -0.470534       -12.8039
 201   2.0000      -0.468560       -12.7502
 202   2.0000      -0.467213       -12.7135
 203   2.0000      -0.462498       -12.5852
 204   2.0000      -0.458370       -12.4729
 205   2.0000      -0.455075       -12.3832
 206   2.0000      -0.453283       -12.3345
 207   2.0000      -0.450254       -12.2520
 208   2.0000      -0.446387       -12.1468
 209   2.0000      -0.439978       -11.9724
 210   2.0000      -0.439033       -11.9467
 211   2.0000      -0.438087       -11.9209
 212   2.0000      -0.436671       -11.8824
 213   2.0000      -0.434733       -11.8297
 214   2.0000      -0.427508       -11.6331
 215   2.0000      -0.423012       -11.5107
 216   2.0000      -0.420822       -11.4511
 217   2.0000      -0.419399       -11.4124
 218   2.0000      -0.416485       -11.3331
 219   2.0000      -0.415144       -11.2966
 220   2.0000      -0.412933       -11.2365
 221   2.0000      -0.409963       -11.1557
 222   2.0000      -0.409827       -11.1520
 223   2.0000      -0.406414       -11.0591
 224   2.0000      -0.403338       -10.9754
 225   2.0000      -0.401120       -10.9150
 226   2.0000      -0.394830       -10.7439
 227   2.0000      -0.389029       -10.5860
 228   2.0000      -0.383880       -10.4459
 229   2.0000      -0.382965       -10.4210
 230   2.0000      -0.382336       -10.4039
 231   2.0000      -0.368118       -10.0170
 232   2.0000      -0.364550        -9.9199
 233   2.0000      -0.360541        -9.8108
 234   2.0000      -0.349452        -9.5091
 235   2.0000      -0.349012        -9.4971
 236   2.0000      -0.331057        -9.0085
 237   2.0000      -0.328768        -8.9462
 238   2.0000      -0.321321        -8.7436
 239   2.0000      -0.316336        -8.6079
 240   2.0000      -0.313397        -8.5280
 241   2.0000      -0.312261        -8.4971
 242   2.0000      -0.307338        -8.3631
 243   2.0000      -0.299740        -8.1563
 244   2.0000      -0.295259        -8.0344
 245   2.0000      -0.285862        -7.7787
 246   2.0000      -0.283400        -7.7117
 247   2.0000      -0.271641        -7.3917
 248   2.0000      -0.260922        -7.1001
 249   2.0000      -0.247166        -6.7257
 250   0.0000      -0.062578        -1.7028
 251   0.0000      -0.047375        -1.2891
 252   0.0000      -0.025258        -0.6873
 253   0.0000      -0.013128        -0.3572
 254   0.0000      -0.000038        -0.0010

MULLIKEN ATOMIC CHARGES
-----------------------
   0 C :   -0.028483
   1 C :    0.029322
   2 C :   -0.153208
   3 S :    0.143368
   4 C :   -0.256306
   5 C :    0.050505
   6 C :    0.110175
   7 C :   -0.051229
   8 C :   -0.020899
   9 C :   -0.109877
  10 N :   -0.026398
  11 C :   -0.079648
  12 S :    0.186745
  13 C :   -0.177868
  14 C :    0.097492
  15 C :    0.083741
  16 C :   -0.061906
  17 C :   -0.051956
  18 C :    0.038704
  19 C :    0.006233
  20 C :   -0.123813
  21 S :    0.115016
  22 C :   -0.098526
  23 C :    0.035838
  24 C :   -0.064605
  25 C :    0.122977
  26 C :    0.012809
  27 C :    0.105858
  28 C :   -0.158036
  29 S :   -0.045080
  30 S :    0.134176
  31 C :   -0.154810
  32 N :   -0.008246
  33 C :   -0.176733
  34 S :    0.128138
  35 C :    0.060634
  36 F :   -0.151094
  37 C :    0.214373
  38 F :   -0.171932
  39 C :    0.037642
  40 C :   -0.019824
  41 C :    0.000525
  42 S :    0.111209
  43 S :    0.190180
  44 C :   -0.151748
  45 N :   -0.005163
  46 C :   -0.170695
  47 S :    0.126157
  48 C :    0.056261
  49 F :   -0.153061
  50 C :    0.213898
  51 F :   -0.177922
  52 C :    0.078293
  53 C :    0.093865
  54 C :   -0.081446
  55 C :    0.095934
  56 C :    0.022622
  57 C :    0.077870
  58 C :   -0.140341
  59 S :   -0.039514
  60 H :    0.024344
  61 H :    0.017108
  62 H :   -0.007727
  63 H :    0.000583
  64 H :   -0.012182
  65 H :   -0.013076
  66 H :   -0.016115
  67 H :    0.017128
  68 H :    0.016793
  69 H :    0.016760
  70 H :   -0.002834
  71 H :    0.004741
  72 H :    0.009423
  73 H :    0.006078
  74 H :    0.044714
  75 H :    0.051873
  76 H :   -0.002145
  77 H :    0.022274
  78 H :    0.021532
  79 H :    0.004210
  80 H :    0.013279
  81 H :    0.009766
  82 H :    0.000775
  83 H :    0.054446
  84 H :    0.048058
Sum of atomic charges:   -0.0000000

LOEWDIN ATOMIC CHARGES
----------------------
   0 C :   -0.046752
   1 C :   -0.041536
   2 C :   -0.177391
   3 S :    0.448520
   4 C :   -0.184219
   5 C :   -0.017345
   6 C :   -0.060348
   7 C :   -0.049746
   8 C :   -0.179602
   9 C :   -0.128786
  10 N :   -0.098085
  11 C :   -0.195374
  12 S :    0.459935
  13 C :   -0.162127
  14 C :   -0.017802
  15 C :   -0.052256
  16 C :   -0.069162
  17 C :   -0.140940
  18 C :   -0.058864
  19 C :   -0.014805
  20 C :   -0.185008
  21 S :    0.440117
  22 C :   -0.173505
  23 C :   -0.090806
  24 C :   -0.051939
  25 C :   -0.027107
  26 C :   -0.030336
  27 C :   -0.039192
  28 C :   -0.114423
  29 S :    0.154059
  30 S :    0.414447
  31 C :   -0.135827
  32 N :   -0.094318
  33 C :   -0.133893
  34 S :    0.409145
  35 C :   -0.100240
  36 F :   -0.041495
  37 C :   -0.005630
  38 F :   -0.052564
  39 C :   -0.084640
  40 C :   -0.064460
  41 C :   -0.222625
  42 S :    0.397185
  43 S :    0.447756
  44 C :   -0.128857
  45 N :   -0.093749
  46 C :   -0.126677
  47 S :    0.409379
  48 C :   -0.099503
  49 F :   -0.043373
  50 C :   -0.001540
  51 F :   -0.050756
  52 C :   -0.078013
  53 C :   -0.064773
  54 C :   -0.047901
  55 C :   -0.026703
  56 C :   -0.028493
  57 C :   -0.041031
  58 C :   -0.113713
  59 S :    0.165757
  60 H :    0.026668
  61 H :    0.021725
  62 H :    0.028262
  63 H :    0.023694
  64 H :    0.027831
  65 H :    0.022038
  66 H :    0.031476
  67 H :    0.024058
  68 H :    0.030890
  69 H :    0.033717
  70 H :    0.016627
  71 H :    0.026997
  72 H :    0.024882
  73 H :    0.024355
  74 H :    0.032707
  75 H :   -0.037805
  76 H :    0.035112
  77 H :    0.031515
  78 H :    0.034368
  79 H :    0.025873
  80 H :    0.025469
  81 H :    0.021567
  82 H :    0.022908
  83 H :    0.024752
  84 H :   -0.037753

  Mayer bond orders larger than 0.100000
B(  0-C ,  1-C ) :   1.9462 B(  0-C , 60-H ) :   0.9451 B(  0-C , 61-H ) :   0.9572
B(  1-C ,  2-C ) :   1.0806 B(  1-C , 62-H ) :   0.9477 B(  2-C ,  3-S ) :   1.1097
B(  2-C ,  4-C ) :   0.1145 B(  2-C , 54-C ) :   1.5672 B(  3-S ,  4-C ) :   1.1438
B(  4-C ,  5-C ) :   0.9591 B(  4-C , 53-C ) :   1.5890 B(  5-C ,  6-C ) :   1.3539
B(  5-C , 52-C ) :   1.4125 B(  6-C ,  7-C ) :   1.1990 B(  6-C , 44-C ) :   1.1905
B(  7-C ,  8-C ) :   1.5550 B(  7-C , 63-H ) :   0.9758 B(  8-C ,  9-C ) :   1.1135
B(  8-C , 43-S ) :   1.0748 B(  9-C , 10-N ) :   1.7592 B(  9-C , 42-S ) :   1.0859
B( 10-N , 11-C ) :   1.3706 B( 10-N , 42-S ) :   0.1012 B( 11-C , 12-S ) :   1.1152
B( 11-C , 41-C ) :   1.3654 B( 12-S , 13-C ) :   1.1312 B( 13-C , 14-C ) :   1.0170
B( 13-C , 40-C ) :   1.5361 B( 14-C , 15-C ) :   1.3498 B( 14-C , 39-C ) :   1.3736
B( 15-C , 16-C ) :   1.1825 B( 15-C , 31-C ) :   1.1908 B( 16-C , 17-C ) :   1.5550
B( 16-C , 64-H ) :   0.9883 B( 17-C , 18-C ) :   1.1042 B( 17-C , 30-S ) :   1.0729
B( 18-C , 19-C ) :   1.7016 B( 18-C , 65-H ) :   0.9629 B( 19-C , 20-C ) :   1.1583
B( 19-C , 66-H ) :   0.9656 B( 20-C , 21-S ) :   1.1193 B( 20-C , 24-C ) :   1.4991
B( 21-S , 22-C ) :   1.1712 B( 22-C , 23-C ) :   1.5570 B( 22-C , 67-H ) :   0.9691
B( 23-C , 24-C ) :   1.3056 B( 23-C , 28-C ) :   0.9445 B( 24-C , 25-C ) :   1.0545
B( 25-C , 26-C ) :   1.0838 B( 25-C , 68-H ) :   0.9137 B( 25-C , 69-H ) :   0.9123
B( 26-C , 27-C ) :   1.0694 B( 26-C , 70-H ) :   0.9454 B( 26-C , 71-H ) :   0.9332
B( 27-C , 28-C ) :   1.0212 B( 27-C , 72-H ) :   0.9317 B( 27-C , 73-H ) :   0.9353
B( 28-C , 29-S ) :   1.0433 B( 28-C , 74-H ) :   0.9218 B( 29-S , 75-H ) :   0.9523
B( 30-S , 31-C ) :   1.0840 B( 31-C , 32-N ) :   1.5365 B( 32-N , 33-C ) :   1.5593
B( 33-C , 34-S ) :   1.0720 B( 33-C , 39-C ) :   1.1753 B( 34-S , 35-C ) :   1.0789
B( 35-C , 36-F ) :   1.1408 B( 35-C , 37-C ) :   1.5137 B( 37-C , 38-F ) :   1.1423
B( 37-C , 39-C ) :   1.0764 B( 40-C , 41-C ) :   1.2473 B( 40-C , 76-H ) :   1.0059
B( 41-C , 42-S ) :   1.0680 B( 43-S , 44-C ) :   1.0824 B( 44-C , 45-N ) :   1.5345
B( 45-N , 46-C ) :   1.5687 B( 46-C , 47-S ) :   1.0691 B( 46-C , 52-C ) :   1.1697
B( 47-S , 48-C ) :   1.0800 B( 48-C , 49-F ) :   1.1398 B( 48-C , 50-C ) :   1.5141
B( 50-C , 51-F ) :   1.1218 B( 50-C , 52-C ) :   1.0722 B( 53-C , 54-C ) :   1.3001
B( 53-C , 58-C ) :   0.9852 B( 54-C , 55-C ) :   1.0500 B( 55-C , 56-C ) :   1.0914
B( 55-C , 77-H ) :   0.9064 B( 55-C , 78-H ) :   0.9159 B( 56-C , 57-C ) :   1.0647
B( 56-C , 79-H ) :   0.9327 B( 56-C , 80-H ) :   0.9435 B( 57-C , 58-C ) :   1.0380
B( 57-C , 81-H ) :   0.9380 B( 57-C , 82-H ) :   0.9310 B( 58-C , 59-S ) :   1.0486
B( 58-C , 83-H ) :   0.8864 B( 59-S , 84-H ) :   0.9558

-----------------------------------------------------------------------------
         ABSORPTION SPECTRUM VIA TRANSITION ELECTRIC DIPOLE MOMENTS
-----------------------------------------------------------------------------
State   Energy  Wavelength   fosc         T2         TX        TY        TZ
        (cm-1)    (nm)                  (au**2)     (au)      (au)      (au)
-----------------------------------------------------------------------------
   0   24517.3    407.9   0.837392536  11.24428  -0.85076   0.38217  -3.22094
   1   27974.1    357.5   1.250476564  14.71616  -1.61275  -3.45979  -0.38084
   2   29107.9    343.5   0.240067177   2.71517  -0.58409  -1.42058   0.59663
   3   29679.9    336.9   0.587135539   6.51256   0.29045   2.22162   1.22171
   4   31397.7    318.5   0.135900042   1.42494  -0.06709  -0.33038   1.14511
   5   32126.3    311.3   0.039769942   0.40754  -0.01576   0.41568   0.48425
   6   32595.2    306.8   0.073602085   0.74338  -0.01558  -0.85859  -0.07716
   7   33807.9    295.8   0.241638855   2.35301  -0.21632  -0.88442  -1.23451
   8   34531.6    289.6   0.006472878   0.06171  -0.13759  -0.02199   0.20566
   9   34756.2    287.7   0.314343349   2.97747  -0.43206  -0.65216   1.53801
  10   35638.2    280.6   0.077439122   0.71535  -0.71810  -0.42008   0.15237
  11   36627.9    273.0   0.120067257   1.07917  -0.09043  -0.08407  -1.03147
  12   36874.0    271.2   0.202613999   1.80894   0.60054   1.16981   0.28256
  13   37372.3    267.6   0.048604698   0.42816  -0.04231  -0.01626   0.65277
  14   38385.2    260.5   0.041865614   0.35906   0.18915   0.48516   0.29649
  15   38737.2    258.1   0.044585169   0.37891   0.01768  -0.18759   0.58601
  16   39157.7    255.4   0.071891030   0.60441   0.21194   0.29929   0.68551
  17   39235.9    254.9   0.030014286   0.25184  -0.33029   0.18060   0.33185
  18   39259.9    254.7   0.063003610   0.52831  -0.48325  -0.52925   0.12116
  19   40089.6    249.4   0.096091131   0.78909  -0.30958  -0.46767  -0.68886

FINAL SINGLE POINT ENERGY     -6195.221807013564

DIPOLE MOMENT
-------------
                                X             Y             Z
Electronic contribution:     53.44805      72.52797     -37.08176
Nuclear contribution   :    -55.68486     -74.10755      37.84139
                        -----------------------------------------
Total Dipole Moment    :     -2.23681      -1.57957       0.75962
                        -----------------------------------------
Magnitude (a.u.)       :      2.84172
Magnitude (Debye)      :      7.22309

Rotational constants in cm-1:     0.001056     0.000509     0.000371
Rotational constants in MHz :    31.649228    15.267414    11.133143

                             ****ORCA TERMINATED NORMALLY****
TOTAL RUN TIME: 0 days 0 hours 6 minutes 51 seconds 225 msec
