                         Program Version 4.2.0 -  RELEASE  -
|  1> # ORCA input file
|  2> # SCF done        -88.579488228983          0.000837983380
|  3> ! CAM-B3LYP def2-SVP def2/J RIJCOSX Grid4 TightSCF
|  4> %maxcore 5000
|  5> %tddft
|  6>     Mode sTDDFT
|  7>     Ethresh 5.0
|  8>     maxcore 5000
|  9> end
| 10>
| 11> %pal
| 12>   nprocs 6
| 13>   end
| 14> * xyz 0 1
| 15>    C        0.20093        -0.61732         0.60318
| 16>    N       -0.03144         0.67917         0.24600
| 17>    C       -0.99081         0.66030        -0.71075
| 18>    N       -1.38128        -0.54829        -0.98322
| 19>    C       -0.64738        -1.37581        -0.17059
| 20>    C       -0.83217        -2.79733        -0.21472
| 21>    N       -1.74764        -3.34957        -1.04686
| 22>    C       -1.73750        -4.70886        -0.90650
| 23>    C       -0.77539        -5.02421         0.05432
| 24>    C       -0.21197        -3.82764         0.48449
| 25>    C       -2.56322        -5.56397        -1.61104
| 26>    C       -3.23457        -6.41737        -2.16252
| 27>    C       -4.04864        -7.29501        -2.84064
| 28>    C       -4.14663        -8.67788        -2.69102
| 29>    N       -3.34555        -9.34154        -1.73917
| 30>    O       -2.42362        -8.71796        -1.23657
| 31>    O       -3.61249       -10.49754        -1.45223
| 32>    C       -5.09845        -9.29217        -3.55381
| 33>    C       -5.32571       -10.76094        -3.65841
| 34>    C       -5.74532        -8.36807        -4.34072
| 35>    S       -5.16909        -6.73513        -4.03710
| 36>    C       -6.77766        -8.55164        -5.31306
| 37>    N       -7.06817        -7.57901        -6.22832
| 38>    C       -8.10125        -7.97875        -7.02473
| 39>    C       -8.48997        -9.24157        -6.60159
| 40>    C       -7.66677        -9.59761        -5.53316
| 41>    C       -8.61392        -7.19316        -8.05515
| 42>    C       -9.07886        -6.52909        -8.95542
| 43>    C       -9.62331        -5.77983        -9.99611
| 44>    N       -9.37376        -4.43945       -10.18505
| 45>    C      -10.07001        -4.06436       -11.28395
| 46>    N      -10.73713        -5.05913       -11.80105
| 47>    C      -10.47725        -6.13289       -11.02259
| 48>    H        0.91795        -0.89210         1.34703
| 49>    H        0.42814         1.48910         0.62846
| 50>    H       -1.37216         1.54597        -1.17809
| 51>    H       -2.32924        -2.80765        -1.66527
| 52>    H       -0.53710        -6.01677         0.38000
| 53>    H        0.55924        -3.71251         1.21967
| 54>    H       -4.44757       -11.30759        -3.32724
| 55>    H       -5.55781       -11.02979        -4.68631
| 56>    H       -6.15574       -11.06157        -3.01949
| 57>    H       -6.58194        -6.70074        -6.30719
| 58>    H       -9.28330        -9.82491        -7.02407
| 59>    H       -7.73908       -10.50236        -4.96651
| 60>    H       -8.78477        -3.86568        -9.60392
| 61>    H      -10.06302        -3.06435       -11.66961
| 62>    H      -10.90460        -7.09264       -11.23000
| 63> *
| 64>
| 65>                          ****END OF INPUT****

CARTESIAN COORDINATES (ANGSTROEM)
---------------------------------
  C      0.200930   -0.617320    0.603180
  N     -0.031440    0.679170    0.246000
  C     -0.990810    0.660300   -0.710750
  N     -1.381280   -0.548290   -0.983220
  C     -0.647380   -1.375810   -0.170590
  C     -0.832170   -2.797330   -0.214720
  N     -1.747640   -3.349570   -1.046860
  C     -1.737500   -4.708860   -0.906500
  C     -0.775390   -5.024210    0.054320
  C     -0.211970   -3.827640    0.484490
  C     -2.563220   -5.563970   -1.611040
  C     -3.234570   -6.417370   -2.162520
  C     -4.048640   -7.295010   -2.840640
  C     -4.146630   -8.677880   -2.691020
  N     -3.345550   -9.341540   -1.739170
  O     -2.423620   -8.717960   -1.236570
  O     -3.612490  -10.497540   -1.452230
  C     -5.098450   -9.292170   -3.553810
  C     -5.325710  -10.760940   -3.658410
  C     -5.745320   -8.368070   -4.340720
  S     -5.169090   -6.735130   -4.037100
  C     -6.777660   -8.551640   -5.313060
  N     -7.068170   -7.579010   -6.228320
  C     -8.101250   -7.978750   -7.024730
  C     -8.489970   -9.241570   -6.601590
  C     -7.666770   -9.597610   -5.533160
  C     -8.613920   -7.193160   -8.055150
  C     -9.078860   -6.529090   -8.955420
  C     -9.623310   -5.779830   -9.996110
  N     -9.373760   -4.439450  -10.185050
  C    -10.070010   -4.064360  -11.283950
  N    -10.737130   -5.059130  -11.801050
  C    -10.477250   -6.132890  -11.022590
  H      0.917950   -0.892100    1.347030
  H      0.428140    1.489100    0.628460
  H     -1.372160    1.545970   -1.178090
  H     -2.329240   -2.807650   -1.665270
  H     -0.537100   -6.016770    0.380000
  H      0.559240   -3.712510    1.219670
  H     -4.447570  -11.307590   -3.327240
  H     -5.557810  -11.029790   -4.686310
  H     -6.155740  -11.061570   -3.019490
  H     -6.581940   -6.700740   -6.307190
  H     -9.283300   -9.824910   -7.024070
  H     -7.739080  -10.502360   -4.966510
  H     -8.784770   -3.865680   -9.603920
  H    -10.063020   -3.064350  -11.669610
  H    -10.904600   -7.092640  -11.230000

 Total Charge           Charge          ....    0
 Multiplicity           Mult            ....    1
 Number of Electrons    NEL             ....  234
 Basis Dimension        Dim             ....  541

ORBITAL ENERGIES
----------------

  NO   OCC          E(Eh)            E(eV)
   0   2.0000     -88.968882     -2420.9664
   1   2.0000     -19.220179      -523.0077
   2   2.0000     -19.219793      -522.9971
   3   2.0000     -14.630104      -398.1054
   4   2.0000     -14.480457      -394.0333
   5   2.0000     -14.469225      -393.7276
   6   2.0000     -14.464437      -393.5973
   7   2.0000     -14.453559      -393.3013
   8   2.0000     -14.395484      -391.7210
   9   2.0000     -14.380597      -391.3159
  10   2.0000     -10.333003      -281.1753
  11   2.0000     -10.330924      -281.1187
  12   2.0000     -10.319395      -280.8050
  13   2.0000     -10.316595      -280.7288
  14   2.0000     -10.311888      -280.6007
  15   2.0000     -10.311165      -280.5811
  16   2.0000     -10.309000      -280.5222
  17   2.0000     -10.307573      -280.4833
  18   2.0000     -10.305008      -280.4135
  19   2.0000     -10.301078      -280.3066
  20   2.0000     -10.299065      -280.2518
  21   2.0000     -10.294880      -280.1379
  22   2.0000     -10.291864      -280.0559
  23   2.0000     -10.277588      -279.6674
  24   2.0000     -10.276888      -279.6483
  25   2.0000     -10.276869      -279.6478
  26   2.0000     -10.274520      -279.5839
  27   2.0000     -10.272951      -279.5412
  28   2.0000     -10.258533      -279.1489
  29   2.0000     -10.258027      -279.1351
  30   2.0000     -10.256376      -279.0902
  31   2.0000     -10.256007      -279.0801
  32   2.0000     -10.251163      -278.9483
  33   2.0000      -8.064411      -219.4438
  34   2.0000      -6.033810      -164.1883
  35   2.0000      -6.029731      -164.0773
  36   2.0000      -6.026211      -163.9815
  37   2.0000      -1.299570       -35.3631
  38   2.0000      -1.120197       -30.4821
  39   2.0000      -1.115975       -30.3672
  40   2.0000      -1.109279       -30.1850
  41   2.0000      -1.084043       -29.4983
  42   2.0000      -1.074003       -29.2251
  43   2.0000      -0.999460       -27.1967
  44   2.0000      -0.970121       -26.3983
  45   2.0000      -0.958739       -26.0886
  46   2.0000      -0.902784       -24.5660
  47   2.0000      -0.890453       -24.2305
  48   2.0000      -0.878071       -23.8935
  49   2.0000      -0.874046       -23.7840
  50   2.0000      -0.867992       -23.6193
  51   2.0000      -0.864494       -23.5241
  52   2.0000      -0.846370       -23.0309
  53   2.0000      -0.839516       -22.8444
  54   2.0000      -0.808975       -22.0133
  55   2.0000      -0.799799       -21.7636
  56   2.0000      -0.764844       -20.8125
  57   2.0000      -0.748798       -20.3758
  58   2.0000      -0.729180       -19.8420
  59   2.0000      -0.713031       -19.4026
  60   2.0000      -0.703483       -19.1427
  61   2.0000      -0.698020       -18.9941
  62   2.0000      -0.684703       -18.6317
  63   2.0000      -0.681281       -18.5386
  64   2.0000      -0.672842       -18.3090
  65   2.0000      -0.671195       -18.2642
  66   2.0000      -0.668679       -18.1957
  67   2.0000      -0.662141       -18.0178
  68   2.0000      -0.650146       -17.6914
  69   2.0000      -0.638632       -17.3781
  70   2.0000      -0.620024       -16.8717
  71   2.0000      -0.613178       -16.6854
  72   2.0000      -0.607189       -16.5224
  73   2.0000      -0.602315       -16.3898
  74   2.0000      -0.560804       -15.2602
  75   2.0000      -0.549549       -14.9540
  76   2.0000      -0.543158       -14.7801
  77   2.0000      -0.538433       -14.6515
  78   2.0000      -0.534686       -14.5495
  79   2.0000      -0.530398       -14.4329
  80   2.0000      -0.529228       -14.4010
  81   2.0000      -0.527962       -14.3666
  82   2.0000      -0.527224       -14.3465
  83   2.0000      -0.522849       -14.2274
  84   2.0000      -0.520655       -14.1677
  85   2.0000      -0.514158       -13.9909
  86   2.0000      -0.512611       -13.9488
  87   2.0000      -0.506365       -13.7789
  88   2.0000      -0.499415       -13.5898
  89   2.0000      -0.492894       -13.4123
  90   2.0000      -0.485301       -13.2057
  91   2.0000      -0.484176       -13.1751
  92   2.0000      -0.476124       -12.9560
  93   2.0000      -0.470606       -12.8058
  94   2.0000      -0.464597       -12.6423
  95   2.0000      -0.457752       -12.4561
  96   2.0000      -0.448560       -12.2059
  97   2.0000      -0.423254       -11.5173
  98   2.0000      -0.412201       -11.2166
  99   2.0000      -0.397664       -10.8210
 100   2.0000      -0.377135       -10.2624
 101   2.0000      -0.374766       -10.1979
 102   2.0000      -0.366127        -9.9628
 103   2.0000      -0.360269        -9.8034
 104   2.0000      -0.359306        -9.7772
 105   2.0000      -0.357464        -9.7271
 106   2.0000      -0.352476        -9.5914
 107   2.0000      -0.343877        -9.3574
 108   2.0000      -0.331826        -9.0294
 109   2.0000      -0.331107        -9.0099
 110   2.0000      -0.328495        -8.9388
 111   2.0000      -0.325271        -8.8511
 112   2.0000      -0.323489        -8.8026
 113   2.0000      -0.318189        -8.6584
 114   2.0000      -0.292781        -7.9670
 115   2.0000      -0.250747        -6.8232
 116   2.0000      -0.223485        -6.0813
 117   0.0000      -0.052056        -1.4165
 118   0.0000      -0.012357        -0.3363
 119   0.0000       0.021295         0.5795
 120   0.0000       0.036948         1.0054
 121   0.0000       0.043472         1.1829

MULLIKEN ATOMIC CHARGES
-----------------------
   0 C :   -0.014443
   1 N :   -0.045936
   2 C :    0.090510
   3 N :   -0.151507
   4 C :   -0.004764
   5 C :    0.091858
   6 N :   -0.016586
   7 C :   -0.016951
   8 C :    0.003776
   9 C :   -0.053379
  10 C :    0.055119
  11 C :   -0.045890
  12 C :   -0.174127
  13 C :    0.165165
  14 N :    0.261102
  15 O :   -0.244008
  16 O :   -0.259503
  17 C :   -0.123422
  18 C :    0.131727
  19 C :   -0.114643
  20 S :    0.142934
  21 C :    0.086118
  22 N :   -0.067586
  23 C :    0.000945
  24 C :   -0.009676
  25 C :   -0.058770
  26 C :    0.019523
  27 C :    0.019369
  28 C :   -0.043391
  29 N :   -0.067914
  30 C :    0.085383
  31 N :   -0.121020
  32 C :   -0.009267
  33 H :   -0.005052
  34 H :    0.135102
  35 H :    0.009947
  36 H :    0.126324
  37 H :   -0.015716
  38 H :   -0.038509
  39 H :    0.032926
  40 H :    0.021358
  41 H :    0.031930
  42 H :    0.121745
  43 H :   -0.026948
  44 H :   -0.024815
  45 H :    0.127071
  46 H :    0.010622
  47 H :   -0.016729
Sum of atomic charges:   -0.0000000

LOEWDIN ATOMIC CHARGES
----------------------
   0 C :   -0.027600
   1 N :    0.087678
   2 C :    0.016735
   3 N :   -0.129574
   4 C :   -0.056400
   5 C :   -0.001276
   6 N :    0.117819
   7 C :   -0.050504
   8 C :   -0.022270
   9 C :   -0.077029
  10 C :   -0.005059
  11 C :   -0.073953
  12 C :   -0.152617
  13 C :   -0.071799
  14 N :    0.287527
  15 O :   -0.203099
  16 O :   -0.218698
  17 C :   -0.040130
  18 C :   -0.048385
  19 C :   -0.177721
  20 S :    0.440602
  21 C :   -0.028519
  22 N :    0.093561
  23 C :   -0.033196
  24 C :   -0.045018
  25 C :   -0.064186
  26 C :   -0.045547
  27 C :   -0.049663
  28 C :   -0.057951
  29 N :    0.086687
  30 C :    0.016337
  31 N :   -0.111077
  32 C :   -0.022282
  33 H :    0.024192
  34 H :    0.096025
  35 H :    0.017840
  36 H :    0.093140
  37 H :    0.033987
  38 H :    0.021854
  39 H :    0.035139
  40 H :    0.031888
  41 H :    0.041712
  42 H :    0.081400
  43 H :    0.029808
  44 H :    0.026530
  45 H :    0.094476
  46 H :    0.017109
  47 H :    0.021507

  Mayer bond orders larger than 0.100000
B(  0-C ,  1-N ) :   1.2160 B(  0-C ,  4-C ) :   1.5199 B(  0-C , 33-H ) :   0.9823
B(  1-N ,  2-C ) :   1.2368 B(  1-N , 34-H ) :   0.9358 B(  2-C ,  3-N ) :   1.6523
B(  2-C , 35-H ) :   0.9803 B(  3-N ,  4-C ) :   1.4049 B(  4-C ,  5-C ) :   1.0051
B(  5-C ,  6-N ) :   1.2991 B(  5-C ,  7-C ) :   0.1366 B(  5-C ,  9-C ) :   1.4287
B(  6-N ,  7-C ) :   1.2044 B(  6-N , 36-H ) :   0.9255 B(  7-C ,  8-C ) :   1.4350
B(  7-C , 10-C ) :   0.8514 B(  8-C ,  9-C ) :   1.3206 B(  8-C , 37-H ) :   1.0164
B(  9-C , 38-H ) :   1.0013 B( 10-C , 11-C ) :   2.2584 B( 11-C , 12-C ) :   1.0169
B( 12-C , 13-C ) :   1.4431 B( 12-C , 19-C ) :   0.1095 B( 12-C , 20-S ) :   1.1393
B( 13-C , 14-N ) :   0.9527 B( 13-C , 17-C ) :   1.2296 B( 14-N , 15-O ) :   1.5115
B( 14-N , 16-O ) :   1.4915 B( 15-O , 16-O ) :   0.2541 B( 17-C , 18-C ) :   1.1290
B( 17-C , 19-C ) :   1.6080 B( 18-C , 39-H ) :   0.9256 B( 18-C , 40-H ) :   0.9312
B( 18-C , 41-H ) :   0.9307 B( 19-C , 20-S ) :   1.0598 B( 19-C , 21-C ) :   1.0367
B( 21-C , 22-N ) :   1.2254 B( 21-C , 23-C ) :   0.1354 B( 21-C , 25-C ) :   1.4444
B( 22-N , 23-C ) :   1.2279 B( 22-N , 42-H ) :   0.9320 B( 23-C , 24-C ) :   1.4614
B( 23-C , 26-C ) :   0.8033 B( 24-C , 25-C ) :   1.2944 B( 24-C , 43-H ) :   1.0145
B( 25-C , 44-H ) :   1.0092 B( 26-C , 27-C ) :   2.2620 B( 27-C , 28-C ) :   0.8181
B( 28-C , 29-N ) :   1.2180 B( 28-C , 30-C ) :   0.1079 B( 28-C , 32-C ) :   1.4926
B( 29-N , 30-C ) :   1.2176 B( 29-N , 45-H ) :   0.9399 B( 30-C , 31-N ) :   1.6536
B( 30-C , 46-H ) :   0.9811 B( 31-N , 32-C ) :   1.4308 B( 32-C , 47-H ) :   1.0078

-----------------------------------------------------------------------------
         ABSORPTION SPECTRUM VIA TRANSITION ELECTRIC DIPOLE MOMENTS
-----------------------------------------------------------------------------
State   Energy  Wavelength   fosc         T2         TX        TY        TZ
        (cm-1)    (nm)                  (au**2)     (au)      (au)      (au)
-----------------------------------------------------------------------------
   0   20657.8    484.1   0.861467213  13.72874  -2.15351  -2.31278  -1.93448
   1   28096.3    355.9   0.185634615   2.17513  -0.08710  -1.44971   0.25668
   2   29712.1    336.6   1.170158843  12.96544   2.25466  -0.48538   2.76520
   3   31261.9    319.9   0.014026917   0.14771   0.25727  -0.02704   0.28425
   4   36470.0    274.2   0.350842862   3.16703  -0.39840   1.40892  -1.01156
   5   36748.6    272.1   0.057372885   0.51397  -0.23377   0.44808  -0.50848
   6   36816.1    271.6   0.011083634   0.09911  -0.14278  -0.27907   0.02905
   7   37552.5    266.3   0.174347116   1.52845  -0.09295  -1.18784   0.32992
   8   38728.2    258.2   0.190875641   1.62255   0.62318   1.07247   0.28983

FINAL SINGLE POINT ENERGY     -1815.311750813970

DIPOLE MOMENT
-------------
                                X             Y             Z
Electronic contribution:      1.22453      -0.09637       1.46256
Nuclear contribution   :      0.19538       4.02017      -0.60898
                        -----------------------------------------
Total Dipole Moment    :      1.41991       3.92380       0.85359
                        -----------------------------------------
Magnitude (a.u.)       :      4.25922
Magnitude (Debye)      :     10.82608

Rotational constants in cm-1:     0.004430     0.001365     0.001047
Rotational constants in MHz :   132.798694    40.921557    31.393666

                             ****ORCA TERMINATED NORMALLY****
TOTAL RUN TIME: 0 days 0 hours 2 minutes 1 seconds 58 msec
