                         Program Version 4.2.0 -  RELEASE  -
|  1> # ORCA input file
|  2> # SCF done       -148.192332920633          0.000805667444
|  3> ! CAM-B3LYP def2-SVP def2/J RIJCOSX Grid4 TightSCF
|  4> %maxcore 5000
|  5> %tddft
|  6>     Mode sTDDFT
|  7>     Ethresh 5.0
|  8>     maxcore 5000
|  9> end
| 10>
| 11> %pal
| 12>   nprocs 6
| 13>   end
| 14> * xyz 0 1
| 15>    C        0.85376        -0.24233        -3.74190
| 16>    S       -0.69762        -0.29821        -3.03255
| 17>    C       -1.04174        -1.87196        -3.68765
| 18>    C        0.04570        -2.33046        -4.44179
| 19>    C        1.12424        -1.37976        -4.46194
| 20>    C        2.31570        -1.68337        -5.18739
| 21>    C        3.36937        -0.74837        -5.20733
| 22>    N        4.22473         0.01708        -5.22125
| 23>    C        2.41316        -2.88175        -5.85211
| 24>    C        1.35455        -3.80604        -5.82104
| 25>    C        0.19810        -3.54695        -5.13763
| 26>    C       -2.29930        -2.46363        -3.40041
| 27>    C       -3.28437        -1.90784        -2.60385
| 28>    C       -4.40884        -2.72699        -2.51262
| 29>    C       -4.29540        -3.92563        -3.24681
| 30>    S       -2.77687        -4.03022        -4.05182
| 31>    C       -5.48022        -4.63443        -3.05367
| 32>    C       -6.29144        -3.85355        -2.20446
| 33>    N       -5.62761        -2.69659        -1.88644
| 34>    C       -7.52039        -4.44631        -1.90485
| 35>    C       -7.66279        -5.67311        -2.52136
| 36>    S       -6.25417        -6.10938        -3.49113
| 37>    C       -8.75745        -6.56995        -2.40725
| 38>    C       -8.82008        -7.75020        -3.06435
| 39>    C       -9.85507        -8.71286        -2.95447
| 40>    S      -11.39284        -8.30635        -2.23968
| 41>    C      -12.02357        -9.85851        -2.63203
| 42>    C      -11.12881       -10.65334        -3.27101
| 43>    C      -11.42194       -12.05034        -3.70821
| 44>    C       -9.86027       -10.01533        -3.44678
| 45>    C       -8.73995       -10.68318        -4.04930
| 46>    C       -7.43669       -10.44715        -3.78099
| 47>    C       -6.35799       -11.08094        -4.45825
| 48>    C       -5.06606       -10.74249        -4.23414
| 49>    C       -3.93145       -11.29151        -4.88856
| 50>    C       -3.85136       -12.33049        -5.79552
| 51>    C       -2.53761       -12.55570        -6.20889
| 52>    C       -1.59730       -11.68121        -5.62312
| 53>    S       -2.35702       -10.57924        -4.54125
| 54>    C       -0.34615       -12.02642        -6.13730
| 55>    C       -0.55138       -13.10879        -7.02029
| 56>    N       -1.88664       -13.41909        -7.05155
| 57>    C        0.61851       -13.57605        -7.61892
| 58>    C        1.72333       -12.85480        -7.21053
| 59>    S        1.31443       -11.58082        -6.06848
| 60>    C        3.08415       -12.99547        -7.59306
| 61>    C        3.58588       -14.01076        -8.33039
| 62>    C        4.95553       -14.10771        -8.72209
| 63>    S        5.71515       -15.67007        -8.73654
| 64>    C        7.24772       -15.01653        -9.09896
| 65>    C        7.20567       -13.64714        -9.24036
| 66>    C        5.88000       -13.11921        -9.05123
| 67>    C        5.66836       -11.73557        -9.31969
| 68>    C        4.38216       -11.15837        -9.39874
| 69>    N        3.37583       -10.62376        -9.53687
| 70>    C        6.74341       -10.93196        -9.63066
| 71>    C        8.04892       -11.45083        -9.71711
| 72>    C        8.28259       -12.78329        -9.55179
| 73>    H        1.48313         0.61268        -3.59684
| 74>    H        3.31246        -3.11616        -6.40248
| 75>    H        1.46556        -4.73964        -6.35072
| 76>    H       -0.59572        -4.27533        -5.13013
| 77>    H       -3.17093        -0.95450        -2.12003
| 78>    H       -5.97048        -1.95987        -1.29542
| 79>    H       -8.27751        -4.01845        -1.27322
| 80>    H       -9.54959        -6.28170        -1.72829
| 81>    H       -8.01852        -7.99860        -3.74745
| 82>    H      -13.03369       -10.09333        -2.35873
| 83>    H      -12.43566       -12.32851        -3.43169
| 84>    H      -10.72629       -12.74731        -3.24239
| 85>    H      -11.31987       -12.14016        -4.78956
| 86>    H       -8.98719       -11.46071        -4.76179
| 87>    H       -7.16393        -9.74741        -3.00368
| 88>    H       -6.60388       -11.82932        -5.19908
| 89>    H       -4.85332        -9.96538        -3.51097
| 90>    H       -4.70381       -12.89324        -6.12789
| 91>    H       -2.31367       -14.13833        -7.60820
| 92>    H        0.66645       -14.38324        -8.32595
| 93>    H        3.74971       -12.22441        -7.23039
| 94>    H        2.95791       -14.85367        -8.58414
| 95>    H        8.09894       -15.66092        -9.18788
| 96>    H        6.57465        -9.88482        -9.83501
| 97>    H        8.85988       -10.77831        -9.95214
| 98>    H        9.27166       -13.20057        -9.66491
| 99> *
|100>
|101>                          ****END OF INPUT****

CARTESIAN COORDINATES (ANGSTROEM)
---------------------------------
  C      0.853760   -0.242330   -3.741900
  S     -0.697620   -0.298210   -3.032550
  C     -1.041740   -1.871960   -3.687650
  C      0.045700   -2.330460   -4.441790
  C      1.124240   -1.379760   -4.461940
  C      2.315700   -1.683370   -5.187390
  C      3.369370   -0.748370   -5.207330
  N      4.224730    0.017080   -5.221250
  C      2.413160   -2.881750   -5.852110
  C      1.354550   -3.806040   -5.821040
  C      0.198100   -3.546950   -5.137630
  C     -2.299300   -2.463630   -3.400410
  C     -3.284370   -1.907840   -2.603850
  C     -4.408840   -2.726990   -2.512620
  C     -4.295400   -3.925630   -3.246810
  S     -2.776870   -4.030220   -4.051820
  C     -5.480220   -4.634430   -3.053670
  C     -6.291440   -3.853550   -2.204460
  N     -5.627610   -2.696590   -1.886440
  C     -7.520390   -4.446310   -1.904850
  C     -7.662790   -5.673110   -2.521360
  S     -6.254170   -6.109380   -3.491130
  C     -8.757450   -6.569950   -2.407250
  C     -8.820080   -7.750200   -3.064350
  C     -9.855070   -8.712860   -2.954470
  S    -11.392840   -8.306350   -2.239680
  C    -12.023570   -9.858510   -2.632030
  C    -11.128810  -10.653340   -3.271010
  C    -11.421940  -12.050340   -3.708210
  C     -9.860270  -10.015330   -3.446780
  C     -8.739950  -10.683180   -4.049300
  C     -7.436690  -10.447150   -3.780990
  C     -6.357990  -11.080940   -4.458250
  C     -5.066060  -10.742490   -4.234140
  C     -3.931450  -11.291510   -4.888560
  C     -3.851360  -12.330490   -5.795520
  C     -2.537610  -12.555700   -6.208890
  C     -1.597300  -11.681210   -5.623120
  S     -2.357020  -10.579240   -4.541250
  C     -0.346150  -12.026420   -6.137300
  C     -0.551380  -13.108790   -7.020290
  N     -1.886640  -13.419090   -7.051550
  C      0.618510  -13.576050   -7.618920
  C      1.723330  -12.854800   -7.210530
  S      1.314430  -11.580820   -6.068480
  C      3.084150  -12.995470   -7.593060
  C      3.585880  -14.010760   -8.330390
  C      4.955530  -14.107710   -8.722090
  S      5.715150  -15.670070   -8.736540
  C      7.247720  -15.016530   -9.098960
  C      7.205670  -13.647140   -9.240360
  C      5.880000  -13.119210   -9.051230
  C      5.668360  -11.735570   -9.319690
  C      4.382160  -11.158370   -9.398740
  N      3.375830  -10.623760   -9.536870
  C      6.743410  -10.931960   -9.630660
  C      8.048920  -11.450830   -9.717110
  C      8.282590  -12.783290   -9.551790
  H      1.483130    0.612680   -3.596840
  H      3.312460   -3.116160   -6.402480
  H      1.465560   -4.739640   -6.350720
  H     -0.595720   -4.275330   -5.130130
  H     -3.170930   -0.954500   -2.120030
  H     -5.970480   -1.959870   -1.295420
  H     -8.277510   -4.018450   -1.273220
  H     -9.549590   -6.281700   -1.728290
  H     -8.018520   -7.998600   -3.747450
  H    -13.033690  -10.093330   -2.358730
  H    -12.435660  -12.328510   -3.431690
  H    -10.726290  -12.747310   -3.242390
  H    -11.319870  -12.140160   -4.789560
  H     -8.987190  -11.460710   -4.761790
  H     -7.163930   -9.747410   -3.003680
  H     -6.603880  -11.829320   -5.199080
  H     -4.853320   -9.965380   -3.510970
  H     -4.703810  -12.893240   -6.127890
  H     -2.313670  -14.138330   -7.608200
  H      0.666450  -14.383240   -8.325950
  H      3.749710  -12.224410   -7.230390
  H      2.957910  -14.853670   -8.584140
  H      8.098940  -15.660920   -9.187880
  H      6.574650   -9.884820   -9.835010
  H      8.859880  -10.778310   -9.952140
  H      9.271660  -13.200570   -9.664910

 Total Charge           Charge          ....    0
 Multiplicity           Mult            ....    1
 Number of Electrons    NEL             ....  448
 Basis Dimension        Dim             ....  970

ORBITAL ENERGIES
----------------

  NO   OCC          E(Eh)            E(eV)
   0   2.0000     -88.966577     -2420.9036
   1   2.0000     -88.966104     -2420.8908
   2   2.0000     -88.953695     -2420.5531
   3   2.0000     -88.945796     -2420.3382
   4   2.0000     -88.944274     -2420.2967
   5   2.0000     -88.943581     -2420.2779
   6   2.0000     -88.940075     -2420.1825
   7   2.0000     -14.460697      -393.4956
   8   2.0000     -14.455634      -393.3578
   9   2.0000     -14.393538      -391.6681
  10   2.0000     -14.392552      -391.6412
  11   2.0000     -10.309548      -280.5371
  12   2.0000     -10.307176      -280.4725
  13   2.0000     -10.306794      -280.4621
  14   2.0000     -10.305206      -280.4189
  15   2.0000     -10.304092      -280.3886
  16   2.0000     -10.303460      -280.3714
  17   2.0000     -10.302329      -280.3406
  18   2.0000     -10.301034      -280.3054
  19   2.0000     -10.300359      -280.2870
  20   2.0000     -10.295967      -280.1675
  21   2.0000     -10.295012      -280.1415
  22   2.0000     -10.293812      -280.1089
  23   2.0000     -10.293086      -280.0891
  24   2.0000     -10.292721      -280.0792
  25   2.0000     -10.291530      -280.0468
  26   2.0000     -10.290987      -280.0320
  27   2.0000     -10.289081      -279.9801
  28   2.0000     -10.288891      -279.9749
  29   2.0000     -10.288162      -279.9551
  30   2.0000     -10.288024      -279.9514
  31   2.0000     -10.286649      -279.9140
  32   2.0000     -10.286371      -279.9064
  33   2.0000     -10.285750      -279.8895
  34   2.0000     -10.285748      -279.8894
  35   2.0000     -10.284447      -279.8540
  36   2.0000     -10.283636      -279.8320
  37   2.0000     -10.283232      -279.8210
  38   2.0000     -10.282934      -279.8129
  39   2.0000     -10.281441      -279.7722
  40   2.0000     -10.278640      -279.6960
  41   2.0000     -10.278482      -279.6917
  42   2.0000     -10.278436      -279.6905
  43   2.0000     -10.278161      -279.6830
  44   2.0000     -10.274411      -279.5809
  45   2.0000     -10.273786      -279.5639
  46   2.0000     -10.273746      -279.5628
  47   2.0000     -10.273252      -279.5494
  48   2.0000     -10.273001      -279.5426
  49   2.0000     -10.271137      -279.4918
  50   2.0000     -10.270909      -279.4856
  51   2.0000     -10.270582      -279.4768
  52   2.0000     -10.267807      -279.4012
  53   2.0000     -10.267620      -279.3962
  54   2.0000     -10.266728      -279.3719
  55   2.0000     -10.265793      -279.3464
  56   2.0000     -10.265523      -279.3391
  57   2.0000     -10.262665      -279.2613
  58   2.0000      -8.062152      -219.3823
  59   2.0000      -8.061263      -219.3581
  60   2.0000      -8.047945      -218.9957
  61   2.0000      -8.040472      -218.7924
  62   2.0000      -8.039179      -218.7572
  63   2.0000      -8.038560      -218.7403
  64   2.0000      -8.036033      -218.6716
  65   2.0000      -6.031036      -164.1128
  66   2.0000      -6.030324      -164.0935
  67   2.0000      -6.026766      -163.9966
  68   2.0000      -6.025936      -163.9741
  69   2.0000      -6.025297      -163.9567
  70   2.0000      -6.024225      -163.9275
  71   2.0000      -6.017754      -163.7514
  72   2.0000      -6.013573      -163.6376
  73   2.0000      -6.010110      -163.5434
  74   2.0000      -6.009248      -163.5200
  75   2.0000      -6.008831      -163.5086
  76   2.0000      -6.008154      -163.4902
  77   2.0000      -6.006170      -163.4362
  78   2.0000      -6.005302      -163.4126
  79   2.0000      -6.004751      -163.3976
  80   2.0000      -6.004150      -163.3812
  81   2.0000      -6.001848      -163.3186
  82   2.0000      -6.001156      -163.2998
  83   2.0000      -6.000662      -163.2863
  84   2.0000      -6.000044      -163.2695
  85   2.0000      -5.998216      -163.2198
  86   2.0000      -1.079407       -29.3722
  87   2.0000      -1.075002       -29.2523
  88   2.0000      -1.000636       -27.2287
  89   2.0000      -1.000334       -27.2205
  90   2.0000      -0.978650       -26.6304
  91   2.0000      -0.977291       -26.5934
  92   2.0000      -0.973786       -26.4981
  93   2.0000      -0.964422       -26.2432
  94   2.0000      -0.963024       -26.2052
  95   2.0000      -0.960549       -26.1379
  96   2.0000      -0.958050       -26.0699
  97   2.0000      -0.935966       -25.4689
  98   2.0000      -0.932078       -25.3631
  99   2.0000      -0.901924       -24.5426
 100   2.0000      -0.895074       -24.3562
 101   2.0000      -0.891709       -24.2646
 102   2.0000      -0.877871       -23.8881
 103   2.0000      -0.871858       -23.7245
 104   2.0000      -0.862632       -23.4734
 105   2.0000      -0.860880       -23.4257
 106   2.0000      -0.844496       -22.9799
 107   2.0000      -0.836988       -22.7756
 108   2.0000      -0.835124       -22.7249
 109   2.0000      -0.833074       -22.6691
 110   2.0000      -0.827294       -22.5118
 111   2.0000      -0.824447       -22.4344
 112   2.0000      -0.816296       -22.2125
 113   2.0000      -0.808130       -21.9903
 114   2.0000      -0.806172       -21.9370
 115   2.0000      -0.802836       -21.8463
 116   2.0000      -0.790384       -21.5074
 117   2.0000      -0.771594       -20.9961
 118   2.0000      -0.752779       -20.4841
 119   2.0000      -0.744351       -20.2548
 120   2.0000      -0.733115       -19.9491
 121   2.0000      -0.730868       -19.8879
 122   2.0000      -0.724253       -19.7079
 123   2.0000      -0.715230       -19.4624
 124   2.0000      -0.698360       -19.0033
 125   2.0000      -0.689620       -18.7655
 126   2.0000      -0.679072       -18.4785
 127   2.0000      -0.677241       -18.4287
 128   2.0000      -0.670189       -18.2368
 129   2.0000      -0.668052       -18.1786
 130   2.0000      -0.658669       -17.9233
 131   2.0000      -0.654636       -17.8136
 132   2.0000      -0.647913       -17.6306
 133   2.0000      -0.640057       -17.4168
 134   2.0000      -0.631408       -17.1815
 135   2.0000      -0.629710       -17.1353
 136   2.0000      -0.624091       -16.9824
 137   2.0000      -0.612574       -16.6690
 138   2.0000      -0.609138       -16.5755
 139   2.0000      -0.603696       -16.4274
 140   2.0000      -0.602890       -16.4055
 141   2.0000      -0.596581       -16.2338
 142   2.0000      -0.590568       -16.0702
 143   2.0000      -0.583988       -15.8911
 144   2.0000      -0.578225       -15.7343
 145   2.0000      -0.575903       -15.6711
 146   2.0000      -0.565258       -15.3814
 147   2.0000      -0.561604       -15.2820
 148   2.0000      -0.557696       -15.1757
 149   2.0000      -0.556087       -15.1319
 150   2.0000      -0.552949       -15.0465
 151   2.0000      -0.544628       -14.8201
 152   2.0000      -0.531661       -14.4672
 153   2.0000      -0.529963       -14.4210
 154   2.0000      -0.528652       -14.3853
 155   2.0000      -0.524715       -14.2782
 156   2.0000      -0.522644       -14.2219
 157   2.0000      -0.521082       -14.1794
 158   2.0000      -0.515475       -14.0268
 159   2.0000      -0.509589       -13.8666
 160   2.0000      -0.506450       -13.7812
 161   2.0000      -0.503508       -13.7012
 162   2.0000      -0.502581       -13.6759
 163   2.0000      -0.500033       -13.6066
 164   2.0000      -0.498335       -13.5604
 165   2.0000      -0.494212       -13.4482
 166   2.0000      -0.487691       -13.2707
 167   2.0000      -0.485757       -13.2181
 168   2.0000      -0.482082       -13.1181
 169   2.0000      -0.476646       -12.9702
 170   2.0000      -0.469898       -12.7866
 171   2.0000      -0.466325       -12.6894
 172   2.0000      -0.464688       -12.6448
 173   2.0000      -0.463819       -12.6211
 174   2.0000      -0.459200       -12.4955
 175   2.0000      -0.458148       -12.4669
 176   2.0000      -0.455623       -12.3981
 177   2.0000      -0.454158       -12.3583
 178   2.0000      -0.452562       -12.3148
 179   2.0000      -0.450344       -12.2545
 180   2.0000      -0.449551       -12.2329
 181   2.0000      -0.445876       -12.1329
 182   2.0000      -0.443897       -12.0791
 183   2.0000      -0.442686       -12.0461
 184   2.0000      -0.440779       -11.9942
 185   2.0000      -0.436280       -11.8718
 186   2.0000      -0.432164       -11.7598
 187   2.0000      -0.430618       -11.7177
 188   2.0000      -0.428422       -11.6580
 189   2.0000      -0.425808       -11.5868
 190   2.0000      -0.425030       -11.5657
 191   2.0000      -0.422413       -11.4944
 192   2.0000      -0.419179       -11.4064
 193   2.0000      -0.418185       -11.3794
 194   2.0000      -0.416059       -11.3215
 195   2.0000      -0.411959       -11.2100
 196   2.0000      -0.410957       -11.1827
 197   2.0000      -0.410062       -11.1583
 198   2.0000      -0.405989       -11.0475
 199   2.0000      -0.404376       -11.0036
 200   2.0000      -0.403125       -10.9696
 201   2.0000      -0.399962       -10.8835
 202   2.0000      -0.398534       -10.8447
 203   2.0000      -0.397405       -10.8139
 204   2.0000      -0.392616       -10.6836
 205   2.0000      -0.380192       -10.3456
 206   2.0000      -0.374089       -10.1795
 207   2.0000      -0.360701        -9.8152
 208   2.0000      -0.356946        -9.7130
 209   2.0000      -0.338352        -9.2070
 210   2.0000      -0.332512        -9.0481
 211   2.0000      -0.324132        -8.8201
 212   2.0000      -0.319421        -8.6919
 213   2.0000      -0.318050        -8.6546
 214   2.0000      -0.316918        -8.6238
 215   2.0000      -0.312100        -8.4927
 216   2.0000      -0.295030        -8.0282
 217   2.0000      -0.282846        -7.6966
 218   2.0000      -0.274558        -7.4711
 219   2.0000      -0.269603        -7.3363
 220   2.0000      -0.261420        -7.1136
 221   2.0000      -0.249007        -6.7758
 222   2.0000      -0.219093        -5.9618
 223   2.0000      -0.207227        -5.6389
 224   0.0000      -0.060216        -1.6386
 225   0.0000      -0.053560        -1.4574
 226   0.0000      -0.038783        -1.0553
 227   0.0000      -0.019131        -0.5206
 228   0.0000       0.001358         0.0369

MULLIKEN ATOMIC CHARGES
-----------------------
   0 C :   -0.134463
   1 S :    0.148962
   2 C :   -0.107111
   3 C :    0.078704
   4 C :    0.111300
   5 C :   -0.079609
   6 C :   -0.189977
   7 N :    0.103914
   8 C :    0.025009
   9 C :    0.012725
  10 C :   -0.013324
  11 C :   -0.057973
  12 C :   -0.115922
  13 C :    0.139990
  14 C :   -0.105568
  15 S :    0.109979
  16 C :   -0.111651
  17 C :    0.130406
  18 N :   -0.017897
  19 C :   -0.087722
  20 C :   -0.042579
  21 S :    0.105047
  22 C :    0.003109
  23 C :   -0.027800
  24 C :   -0.127609
  25 S :    0.094099
  26 C :   -0.126022
  27 C :   -0.075732
  28 C :    0.119545
  29 C :    0.129409
  30 C :   -0.054098
  31 C :    0.011381
  32 C :   -0.002154
  33 C :    0.047705
  34 C :   -0.079736
  35 C :   -0.061983
  36 C :    0.112502
  37 C :   -0.122870
  38 S :    0.131903
  39 C :   -0.122732
  40 C :    0.114524
  41 N :   -0.020617
  42 C :   -0.061150
  43 C :   -0.099741
  44 S :    0.144909
  45 C :    0.079616
  46 C :    0.005361
  47 C :   -0.189472
  48 S :    0.161550
  49 C :   -0.137584
  50 C :    0.069112
  51 C :    0.189326
  52 C :   -0.102507
  53 C :   -0.217938
  54 N :    0.113263
  55 C :    0.013646
  56 C :    0.017382
  57 C :    0.024551
  58 H :    0.032263
  59 H :   -0.008186
  60 H :   -0.003782
  61 H :   -0.002234
  62 H :   -0.019910
  63 H :    0.122568
  64 H :   -0.031316
  65 H :   -0.012093
  66 H :    0.017425
  67 H :    0.009965
  68 H :    0.005472
  69 H :    0.027852
  70 H :    0.027120
  71 H :   -0.020170
  72 H :    0.002214
  73 H :   -0.018808
  74 H :   -0.016095
  75 H :   -0.033085
  76 H :    0.120755
  77 H :   -0.029807
  78 H :    0.000883
  79 H :   -0.013953
  80 H :    0.018383
  81 H :   -0.004690
  82 H :   -0.006137
  83 H :   -0.020023
Sum of atomic charges:   -0.0000000

LOEWDIN ATOMIC CHARGES
----------------------
   0 C :   -0.199045
   1 S :    0.490090
   2 C :   -0.183112
   3 C :   -0.056700
   4 C :   -0.036621
   5 C :   -0.069103
   6 C :   -0.026522
   7 N :   -0.065696
   8 C :    0.016107
   9 C :   -0.032352
  10 C :    0.000753
  11 C :   -0.178738
  12 C :   -0.083128
  13 C :   -0.019208
  14 C :   -0.222738
  15 S :    0.425090
  16 C :   -0.223287
  17 C :   -0.019752
  18 N :    0.060019
  19 C :   -0.078685
  20 C :   -0.150579
  21 S :    0.403173
  22 C :   -0.050277
  23 C :   -0.049594
  24 C :   -0.164915
  25 S :    0.416093
  26 C :   -0.193100
  27 C :   -0.059185
  28 C :   -0.044967
  29 C :   -0.061304
  30 C :   -0.031490
  31 C :   -0.020698
  32 C :   -0.027686
  33 C :   -0.041669
  34 C :   -0.161511
  35 C :   -0.075794
  36 C :   -0.016571
  37 C :   -0.225839
  38 S :    0.412104
  39 C :   -0.222874
  40 C :   -0.017343
  41 N :    0.056495
  42 C :   -0.070119
  43 C :   -0.160598
  44 S :    0.421682
  45 C :   -0.014273
  46 C :   -0.064431
  47 C :   -0.174730
  48 S :    0.487875
  49 C :   -0.202961
  50 C :   -0.052378
  51 C :   -0.043573
  52 C :   -0.067108
  53 C :   -0.029632
  54 N :   -0.064361
  55 C :    0.012646
  56 C :   -0.035130
  57 C :    0.008294
  58 H :    0.030202
  59 H :    0.039252
  60 H :    0.034779
  61 H :    0.018717
  62 H :    0.023502
  63 H :    0.091641
  64 H :    0.029296
  65 H :    0.027172
  66 H :    0.027640
  67 H :    0.019371
  68 H :    0.031674
  69 H :    0.035373
  70 H :    0.033518
  71 H :    0.025137
  72 H :    0.029994
  73 H :    0.023590
  74 H :    0.027601
  75 H :    0.027278
  76 H :    0.090556
  77 H :    0.027849
  78 H :    0.031419
  79 H :    0.025171
  80 H :    0.023518
  81 H :    0.039357
  82 H :    0.032835
  83 H :    0.032513

  Mayer bond orders larger than 0.100000
B(  0-C ,  1-S ) :   1.1671 B(  0-C ,  2-C ) :   0.1098 B(  0-C ,  4-C ) :   1.4758
B(  0-C , 58-H ) :   0.9497 B(  1-S ,  2-C ) :   1.1943 B(  2-C ,  3-C ) :   1.3598
B(  2-C , 11-C ) :   1.1797 B(  3-C ,  4-C ) :   1.1782 B(  3-C , 10-C ) :   1.1983
B(  4-C ,  5-C ) :   1.1804 B(  5-C ,  6-C ) :   1.0737 B(  5-C ,  8-C ) :   1.5676
B(  6-C ,  7-N ) :   3.0382 B(  8-C ,  9-C ) :   1.1937 B(  8-C , 59-H ) :   0.9950
B(  9-C , 10-C ) :   1.5566 B(  9-C , 60-H ) :   0.9815 B( 10-C , 61-H ) :   0.9786
B( 11-C , 12-C ) :   1.4634 B( 11-C , 15-S ) :   1.0937 B( 12-C , 13-C ) :   1.2345
B( 12-C , 62-H ) :   1.0045 B( 13-C , 14-C ) :   1.4000 B( 13-C , 18-N ) :   1.1646
B( 14-C , 15-S ) :   1.0333 B( 14-C , 16-C ) :   1.3770 B( 16-C , 17-C ) :   1.4067
B( 16-C , 21-S ) :   1.0276 B( 17-C , 18-N ) :   1.1600 B( 17-C , 19-C ) :   1.1976
B( 18-N , 63-H ) :   0.9366 B( 19-C , 20-C ) :   1.4638 B( 19-C , 64-H ) :   1.0233
B( 20-C , 21-S ) :   1.0824 B( 20-C , 22-C ) :   1.1681 B( 22-C , 23-C ) :   1.6442
B( 22-C , 65-H ) :   0.9783 B( 23-C , 24-C ) :   1.1687 B( 23-C , 66-H ) :   0.9567
B( 24-C , 25-S ) :   1.1217 B( 24-C , 29-C ) :   1.4519 B( 25-S , 26-C ) :   1.1282
B( 26-C , 27-C ) :   1.6108 B( 26-C , 67-H ) :   0.9649 B( 27-C , 28-C ) :   1.0979
B( 27-C , 29-C ) :   1.2164 B( 28-C , 68-H ) :   0.9507 B( 28-C , 69-H ) :   0.9443
B( 28-C , 70-H ) :   0.9416 B( 29-C , 30-C ) :   1.0821 B( 30-C , 31-C ) :   1.6686
B( 30-C , 71-H ) :   0.9591 B( 31-C , 32-C ) :   1.1315 B( 31-C , 72-H ) :   0.9870
B( 32-C , 33-C ) :   1.6723 B( 32-C , 73-H ) :   0.9845 B( 33-C , 34-C ) :   1.1097
B( 33-C , 74-H ) :   0.9643 B( 34-C , 35-C ) :   1.4841 B( 34-C , 38-S ) :   1.0919
B( 35-C , 36-C ) :   1.2322 B( 35-C , 75-H ) :   1.0077 B( 36-C , 37-C ) :   1.4053
B( 36-C , 41-N ) :   1.1604 B( 37-C , 38-S ) :   1.0358 B( 37-C , 39-C ) :   1.3831
B( 39-C , 40-C ) :   1.4041 B( 39-C , 44-S ) :   1.0447 B( 40-C , 41-N ) :   1.1587
B( 40-C , 42-C ) :   1.2313 B( 41-N , 76-H ) :   0.9362 B( 42-C , 43-C ) :   1.4842
B( 42-C , 77-H ) :   1.0068 B( 43-C , 44-S ) :   1.0948 B( 43-C , 45-C ) :   1.1529
B( 45-C , 46-C ) :   1.7140 B( 45-C , 78-H ) :   0.9494 B( 46-C , 47-C ) :   1.0907
B( 46-C , 79-H ) :   0.9487 B( 47-C , 48-S ) :   1.1710 B( 47-C , 49-C ) :   0.1076
B( 47-C , 51-C ) :   1.3914 B( 48-S , 49-C ) :   1.2006 B( 49-C , 50-C ) :   1.4183
B( 49-C , 80-H ) :   0.9714 B( 50-C , 51-C ) :   1.1865 B( 50-C , 57-C ) :   1.1749
B( 51-C , 52-C ) :   1.1976 B( 52-C , 53-C ) :   1.0843 B( 52-C , 55-C ) :   1.5734
B( 53-C , 54-N ) :   3.0294 B( 55-C , 56-C ) :   1.1892 B( 55-C , 81-H ) :   0.9921
B( 56-C , 57-C ) :   1.5505 B( 56-C , 82-H ) :   0.9860 B( 57-C , 83-H ) :   1.0002

-----------------------------------------------------------------------------
         ABSORPTION SPECTRUM VIA TRANSITION ELECTRIC DIPOLE MOMENTS
-----------------------------------------------------------------------------
State   Energy  Wavelength   fosc         T2         TX        TY        TZ
        (cm-1)    (nm)                  (au**2)     (au)      (au)      (au)
-----------------------------------------------------------------------------
   0   17735.6    563.8   0.643916566  11.95251  -0.21498  -3.37505  -0.71785
   1   20245.8    493.9   2.134162060  34.70301  -5.62896   0.00041   1.73718
   2   22445.4    445.5   0.092734764   1.36016   0.64364  -0.85562  -0.46239
   3   22960.3    435.5   0.196282855   2.81437   1.58631   0.37051  -0.40087
   4   25775.1    388.0   0.463764507   5.92343  -2.27698   0.29932   0.80574
   5   26794.3    373.2   0.661250174   8.12456   2.60963   0.99208  -0.57462
   6   28375.3    352.4   0.029286230   0.33978  -0.51741   0.02009   0.26770
   7   28728.2    348.1   0.059641998   0.68347   0.80248   0.03330  -0.19591
   8   29633.9    337.5   0.044153005   0.49051   0.66376   0.22122  -0.03160
   9   30120.2    332.0   0.133381136   1.45785   1.15332   0.35346  -0.05268
  10   30684.2    325.9   0.092935552   0.99711  -0.10448   0.85909   0.49815
  11   31604.9    316.4   0.105605261   1.10003  -0.55737  -0.68671  -0.56374
  12   32096.2    311.6   0.049603963   0.50879  -0.69613  -0.03577   0.15138
  13   32782.4    305.0   0.030937404   0.31068  -0.02744   0.55534   0.03912
  14   33226.7    301.0   0.060813173   0.60254   0.74059  -0.23251   0.00330
  15   33655.3    297.1   0.066561659   0.65110   0.61761  -0.25121  -0.45447
  16   34457.5    290.2   0.066474735   0.63511   0.72709  -0.30894  -0.10489
  17   34825.0    287.1   0.006059716   0.05728   0.11354   0.19323   0.08399
  18   35127.6    284.7   0.015147462   0.14196  -0.18468   0.26694   0.19130
  19   35649.4    280.5   0.031504694   0.29094   0.31302   0.38391   0.21347
  20   36413.2    274.6   0.008965739   0.08106   0.24525  -0.05218  -0.13486
  21   36883.8    271.1   0.068475574   0.61119   0.54658   0.53912   0.14762
  22   37091.1    269.6   0.012411982   0.11017   0.26447  -0.08986  -0.17930
  23   37698.9    265.3   0.033028799   0.28843  -0.52861  -0.07028  -0.06370
  24   38213.5    261.7   0.040523817   0.34912  -0.42555   0.20814   0.35312
  25   38508.5    259.7   0.004009287   0.03428   0.02607  -0.15578   0.09659
  26   39022.5    256.3   0.031219869   0.26339   0.37218  -0.18761  -0.29945
  27   39463.6    253.4   0.115053713   0.95980   0.64712  -0.49331  -0.54560
  28   39756.5    251.5   0.023905285   0.19795   0.24380  -0.22036  -0.29993
  29   40287.2    248.2   0.082587960   0.67488  -0.56615  -0.57421   0.15695

FINAL SINGLE POINT ENERGY     -4809.463384429552

DIPOLE MOMENT
-------------
                                X             Y             Z
Electronic contribution:     23.26747      22.21043       3.12285
Nuclear contribution   :    -24.58835     -24.55518      -2.83294
                        -----------------------------------------
Total Dipole Moment    :     -1.32088      -2.34476       0.28991
                        -----------------------------------------
Magnitude (a.u.)       :      2.70678
Magnitude (Debye)      :      6.88009

Rotational constants in cm-1:     0.000971     0.000498     0.000332
Rotational constants in MHz :    29.119482    14.917016     9.966246

                             ****ORCA TERMINATED NORMALLY****
TOTAL RUN TIME: 0 days 0 hours 11 minutes 29 seconds 137 msec
