                         Program Version 4.2.0 -  RELEASE  -
|  1> # ORCA input file
|  2> # SCF done       -136.236433525878          0.000740021303
|  3> ! CAM-B3LYP def2-SVP def2/J RIJCOSX Grid4 TightSCF
|  4> %maxcore 5000
|  5> %tddft
|  6>     Mode sTDDFT
|  7>     Ethresh 5.0
|  8>     maxcore 5000
|  9> end
| 10>
| 11> %pal
| 12>   nprocs 6
| 13>   end
| 14> * xyz 0 1
| 15>    C       -2.14890        -8.89683        -3.02678
| 16>    S       -2.72481        -7.42857        -2.39055
| 17>    C       -1.14244        -6.70908        -2.35553
| 18>    C       -0.18970        -7.62251        -2.83798
| 19>    C       -0.78699        -8.87182        -3.21870
| 20>    C        0.02912        -9.92104        -3.73502
| 21>    C       -0.56864       -11.14205        -4.11044
| 22>    N       -1.05735       -12.13498        -4.41162
| 23>    C        1.38311        -9.72332        -3.85731
| 24>    C        1.96074        -8.50188        -3.47123
| 25>    C        1.20571        -7.47463        -2.97356
| 26>    C       -0.98057        -5.37438        -1.90018
| 27>    S        0.55400        -4.52857        -2.03396
| 28>    C       -0.08407        -3.08057        -1.34005
| 29>    C       -1.38222        -3.23951        -1.02808
| 30>    C       -1.92166        -4.51969        -1.33023
| 31>    C       -3.29764        -4.65625        -0.97789
| 32>    C       -3.89707        -3.56882        -0.42898
| 33>    S       -2.66990        -2.23490        -0.30593
| 34>    O       -2.35721        -1.93894         1.06359
| 35>    O       -2.98186        -1.13551        -1.17779
| 36>    C       -5.24364        -3.48198        -0.01010
| 37>    C       -5.97260        -2.43610         0.54052
| 38>    C       -5.47312        -1.07203         0.88831
| 39>    C       -5.07207        -1.00392         2.36482
| 40>    C       -7.30148        -2.79776         0.79744
| 41>    C       -7.63124        -4.09259         0.45858
| 42>    S       -6.24937        -4.91053        -0.20186
| 43>    C       -8.90716        -4.70173         0.59510
| 44>    C       -9.18497        -5.98275         0.26509
| 45>    C      -10.45836        -6.61031         0.37291
| 46>    S      -10.52319        -8.35984         0.40498
| 47>    C      -12.23746        -8.37043         0.59633
| 48>    C      -12.72173        -7.11216         0.61845
| 49>    C      -11.73990        -6.09302         0.48098
| 50>    C      -12.26666        -4.75316         0.46415
| 51>    C      -13.58313        -4.65741         0.68622
| 52>    S      -14.32584        -6.32571         0.69984
| 53>    O      -15.00171        -6.48298        -0.55957
| 54>    O      -15.07816        -6.64091         1.87878
| 55>    C      -14.50601        -3.57610         0.79466
| 56>    S      -14.94934        -2.53356        -0.51090
| 57>    C      -16.23557        -1.84784         0.37671
| 58>    C      -16.34451        -2.38181         1.64371
| 59>    C      -15.33799        -3.37338         1.88530
| 60>    C      -15.22986        -3.97098         3.17366
| 61>    C      -14.10067        -4.76162         3.47993
| 62>    N      -13.12657        -5.29604         3.76862
| 63>    C      -16.16822        -3.66047         4.12763
| 64>    C      -17.20070        -2.73778         3.85735
| 65>    C      -17.28357        -2.08670         2.66161
| 66>    H       -2.82565        -9.70323        -3.22872
| 67>    H        2.00714       -10.51281        -4.24854
| 68>    H        3.02810        -8.37925        -3.57175
| 69>    H        1.68238        -6.55411        -2.68190
| 70>    H        0.54751        -2.22522        -1.21407
| 71>    H       -3.83820        -5.57611        -1.13439
| 72>    H       -6.27966        -0.35809         0.70264
| 73>    H       -4.62427        -0.79479         0.26912
| 74>    H       -5.88147        -1.35659         3.00154
| 75>    H       -4.83635         0.02216         2.63353
| 76>    H       -4.18899        -1.61242         2.53848
| 77>    H       -8.01690        -2.11558         1.22296
| 78>    H       -9.67245        -4.06932         1.01986
| 79>    H       -8.37622        -6.61546        -0.07872
| 80>    H      -12.76573        -9.29839         0.67930
| 81>    H      -11.63314        -3.89433         0.31217
| 82>    H      -16.85412        -1.09812        -0.07458
| 83>    H      -16.10309        -4.11237         5.10583
| 84>    H      -17.91841        -2.52890         4.63624
| 85>    H      -18.04846        -1.34857         2.47501
| 86> *
| 87>
| 88>                          ****END OF INPUT****

CARTESIAN COORDINATES (ANGSTROEM)
---------------------------------
  C     -2.148900   -8.896830   -3.026780
  S     -2.724810   -7.428570   -2.390550
  C     -1.142440   -6.709080   -2.355530
  C     -0.189700   -7.622510   -2.837980
  C     -0.786990   -8.871820   -3.218700
  C      0.029120   -9.921040   -3.735020
  C     -0.568640  -11.142050   -4.110440
  N     -1.057350  -12.134980   -4.411620
  C      1.383110   -9.723320   -3.857310
  C      1.960740   -8.501880   -3.471230
  C      1.205710   -7.474630   -2.973560
  C     -0.980570   -5.374380   -1.900180
  S      0.554000   -4.528570   -2.033960
  C     -0.084070   -3.080570   -1.340050
  C     -1.382220   -3.239510   -1.028080
  C     -1.921660   -4.519690   -1.330230
  C     -3.297640   -4.656250   -0.977890
  C     -3.897070   -3.568820   -0.428980
  S     -2.669900   -2.234900   -0.305930
  O     -2.357210   -1.938940    1.063590
  O     -2.981860   -1.135510   -1.177790
  C     -5.243640   -3.481980   -0.010100
  C     -5.972600   -2.436100    0.540520
  C     -5.473120   -1.072030    0.888310
  C     -5.072070   -1.003920    2.364820
  C     -7.301480   -2.797760    0.797440
  C     -7.631240   -4.092590    0.458580
  S     -6.249370   -4.910530   -0.201860
  C     -8.907160   -4.701730    0.595100
  C     -9.184970   -5.982750    0.265090
  C    -10.458360   -6.610310    0.372910
  S    -10.523190   -8.359840    0.404980
  C    -12.237460   -8.370430    0.596330
  C    -12.721730   -7.112160    0.618450
  C    -11.739900   -6.093020    0.480980
  C    -12.266660   -4.753160    0.464150
  C    -13.583130   -4.657410    0.686220
  S    -14.325840   -6.325710    0.699840
  O    -15.001710   -6.482980   -0.559570
  O    -15.078160   -6.640910    1.878780
  C    -14.506010   -3.576100    0.794660
  S    -14.949340   -2.533560   -0.510900
  C    -16.235570   -1.847840    0.376710
  C    -16.344510   -2.381810    1.643710
  C    -15.337990   -3.373380    1.885300
  C    -15.229860   -3.970980    3.173660
  C    -14.100670   -4.761620    3.479930
  N    -13.126570   -5.296040    3.768620
  C    -16.168220   -3.660470    4.127630
  C    -17.200700   -2.737780    3.857350
  C    -17.283570   -2.086700    2.661610
  H     -2.825650   -9.703230   -3.228720
  H      2.007140  -10.512810   -4.248540
  H      3.028100   -8.379250   -3.571750
  H      1.682380   -6.554110   -2.681900
  H      0.547510   -2.225220   -1.214070
  H     -3.838200   -5.576110   -1.134390
  H     -6.279660   -0.358090    0.702640
  H     -4.624270   -0.794790    0.269120
  H     -5.881470   -1.356590    3.001540
  H     -4.836350    0.022160    2.633530
  H     -4.188990   -1.612420    2.538480
  H     -8.016900   -2.115580    1.222960
  H     -9.672450   -4.069320    1.019860
  H     -8.376220   -6.615460   -0.078720
  H    -12.765730   -9.298390    0.679300
  H    -11.633140   -3.894330    0.312170
  H    -16.854120   -1.098120   -0.074580
  H    -16.103090   -4.112370    5.105830
  H    -17.918410   -2.528900    4.636240
  H    -18.048460   -1.348570    2.475010

 Total Charge           Charge          ....    0
 Multiplicity           Mult            ....    1
 Number of Electrons    NEL             ....  406
 Basis Dimension        Dim             ....  842

ORBITAL ENERGIES
----------------

  NO   OCC          E(Eh)            E(eV)
   0   2.0000     -89.156623     -2426.0751
   1   2.0000     -89.138819     -2425.5906
   2   2.0000     -88.990818     -2421.5633
   3   2.0000     -88.983044     -2421.3517
   4   2.0000     -88.980733     -2421.2888
   5   2.0000     -88.972489     -2421.0645
   6   2.0000     -88.963226     -2420.8124
   7   2.0000     -19.204882      -522.5914
   8   2.0000     -19.204667      -522.5855
   9   2.0000     -19.196015      -522.3501
  10   2.0000     -19.186828      -522.1001
  11   2.0000     -14.409980      -392.1155
  12   2.0000     -14.392540      -391.6409
  13   2.0000     -10.337805      -281.3060
  14   2.0000     -10.332029      -281.1488
  15   2.0000     -10.328208      -281.0448
  16   2.0000     -10.323596      -280.9193
  17   2.0000     -10.322888      -280.9001
  18   2.0000     -10.322466      -280.8886
  19   2.0000     -10.319593      -280.8104
  20   2.0000     -10.316340      -280.7219
  21   2.0000     -10.314871      -280.6819
  22   2.0000     -10.314863      -280.6817
  23   2.0000     -10.314212      -280.6640
  24   2.0000     -10.313943      -280.6566
  25   2.0000     -10.309649      -280.5398
  26   2.0000     -10.309646      -280.5397
  27   2.0000     -10.309139      -280.5259
  28   2.0000     -10.309107      -280.5251
  29   2.0000     -10.308893      -280.5192
  30   2.0000     -10.308311      -280.5034
  31   2.0000     -10.307895      -280.4921
  32   2.0000     -10.306894      -280.4648
  33   2.0000     -10.306474      -280.4534
  34   2.0000     -10.304876      -280.4099
  35   2.0000     -10.301002      -280.3045
  36   2.0000     -10.300460      -280.2898
  37   2.0000     -10.300374      -280.2874
  38   2.0000     -10.299482      -280.2631
  39   2.0000     -10.299147      -280.2540
  40   2.0000     -10.296555      -280.1835
  41   2.0000     -10.295110      -280.1442
  42   2.0000     -10.295102      -280.1440
  43   2.0000     -10.292564      -280.0749
  44   2.0000     -10.291913      -280.0572
  45   2.0000     -10.291375      -280.0425
  46   2.0000     -10.289958      -280.0040
  47   2.0000     -10.283010      -279.8149
  48   2.0000     -10.280590      -279.7491
  49   2.0000     -10.262035      -279.2442
  50   2.0000     -10.243609      -278.7428
  51   2.0000      -8.220888      -223.7017
  52   2.0000      -8.204281      -223.2498
  53   2.0000      -8.085551      -220.0190
  54   2.0000      -8.078022      -219.8141
  55   2.0000      -8.075826      -219.7544
  56   2.0000      -8.068267      -219.5487
  57   2.0000      -8.058561      -219.2846
  58   2.0000      -6.189849      -168.4344
  59   2.0000      -6.189514      -168.4252
  60   2.0000      -6.189389      -168.4218
  61   2.0000      -6.173328      -167.9848
  62   2.0000      -6.172932      -167.9740
  63   2.0000      -6.172322      -167.9574
  64   2.0000      -6.054619      -164.7546
  65   2.0000      -6.050093      -164.6314
  66   2.0000      -6.048683      -164.5930
  67   2.0000      -6.047677      -164.5657
  68   2.0000      -6.044738      -164.4857
  69   2.0000      -6.043131      -164.4419
  70   2.0000      -6.040343      -164.3661
  71   2.0000      -6.039840      -164.3524
  72   2.0000      -6.039043      -164.3307
  73   2.0000      -6.037661      -164.2931
  74   2.0000      -6.033289      -164.1741
  75   2.0000      -6.030349      -164.0941
  76   2.0000      -6.028012      -164.0305
  77   2.0000      -6.023940      -163.9197
  78   2.0000      -6.020339      -163.8217
  79   2.0000      -1.211219       -32.9589
  80   2.0000      -1.197892       -32.5963
  81   2.0000      -1.089088       -29.6356
  82   2.0000      -1.075111       -29.2553
  83   2.0000      -1.027881       -27.9701
  84   2.0000      -1.013510       -27.5790
  85   2.0000      -1.011922       -27.5358
  86   2.0000      -1.007484       -27.4150
  87   2.0000      -0.997412       -27.1410
  88   2.0000      -0.992952       -27.0196
  89   2.0000      -0.978497       -26.6263
  90   2.0000      -0.954079       -25.9618
  91   2.0000      -0.950861       -25.8742
  92   2.0000      -0.947876       -25.7930
  93   2.0000      -0.935246       -25.4493
  94   2.0000      -0.916202       -24.9311
  95   2.0000      -0.900735       -24.5102
  96   2.0000      -0.885837       -24.1049
  97   2.0000      -0.878180       -23.8965
  98   2.0000      -0.871481       -23.7142
  99   2.0000      -0.869565       -23.6621
 100   2.0000      -0.851599       -23.1732
 101   2.0000      -0.845252       -23.0005
 102   2.0000      -0.840719       -22.8771
 103   2.0000      -0.835368       -22.7315
 104   2.0000      -0.814117       -22.1532
 105   2.0000      -0.812808       -22.1176
 106   2.0000      -0.799233       -21.7482
 107   2.0000      -0.789826       -21.4923
 108   2.0000      -0.774520       -21.0758
 109   2.0000      -0.769193       -20.9308
 110   2.0000      -0.751058       -20.4373
 111   2.0000      -0.738865       -20.1055
 112   2.0000      -0.737368       -20.0648
 113   2.0000      -0.718454       -19.5501
 114   2.0000      -0.716240       -19.4899
 115   2.0000      -0.706792       -19.2328
 116   2.0000      -0.696504       -18.9528
 117   2.0000      -0.686220       -18.6730
 118   2.0000      -0.681695       -18.5499
 119   2.0000      -0.672549       -18.3010
 120   2.0000      -0.665036       -18.0965
 121   2.0000      -0.659699       -17.9513
 122   2.0000      -0.652106       -17.7447
 123   2.0000      -0.644533       -17.5386
 124   2.0000      -0.631148       -17.1744
 125   2.0000      -0.623632       -16.9699
 126   2.0000      -0.616145       -16.7662
 127   2.0000      -0.607943       -16.5430
 128   2.0000      -0.599296       -16.3077
 129   2.0000      -0.591750       -16.1023
 130   2.0000      -0.587015       -15.9735
 131   2.0000      -0.581872       -15.8335
 132   2.0000      -0.576921       -15.6988
 133   2.0000      -0.576074       -15.6758
 134   2.0000      -0.568224       -15.4622
 135   2.0000      -0.561828       -15.2881
 136   2.0000      -0.556158       -15.1338
 137   2.0000      -0.554959       -15.1012
 138   2.0000      -0.545703       -14.8493
 139   2.0000      -0.544178       -14.8078
 140   2.0000      -0.542322       -14.7573
 141   2.0000      -0.539525       -14.6812
 142   2.0000      -0.530124       -14.4254
 143   2.0000      -0.527247       -14.3471
 144   2.0000      -0.526314       -14.3217
 145   2.0000      -0.525507       -14.2998
 146   2.0000      -0.523608       -14.2481
 147   2.0000      -0.517331       -14.0773
 148   2.0000      -0.508596       -13.8396
 149   2.0000      -0.506009       -13.7692
 150   2.0000      -0.504815       -13.7367
 151   2.0000      -0.502802       -13.6819
 152   2.0000      -0.500488       -13.6190
 153   2.0000      -0.497381       -13.5344
 154   2.0000      -0.495987       -13.4965
 155   2.0000      -0.493422       -13.4267
 156   2.0000      -0.490798       -13.3553
 157   2.0000      -0.481037       -13.0897
 158   2.0000      -0.477536       -12.9944
 159   2.0000      -0.471522       -12.8308
 160   2.0000      -0.469009       -12.7624
 161   2.0000      -0.464725       -12.6458
 162   2.0000      -0.462925       -12.5968
 163   2.0000      -0.459751       -12.5105
 164   2.0000      -0.458966       -12.4891
 165   2.0000      -0.449953       -12.2439
 166   2.0000      -0.446402       -12.1472
 167   2.0000      -0.444670       -12.1001
 168   2.0000      -0.441308       -12.0086
 169   2.0000      -0.439220       -11.9518
 170   2.0000      -0.436670       -11.8824
 171   2.0000      -0.436414       -11.8754
 172   2.0000      -0.431938       -11.7536
 173   2.0000      -0.429196       -11.6790
 174   2.0000      -0.425368       -11.5748
 175   2.0000      -0.423348       -11.5199
 176   2.0000      -0.421697       -11.4750
 177   2.0000      -0.420838       -11.4516
 178   2.0000      -0.414745       -11.2858
 179   2.0000      -0.413931       -11.2636
 180   2.0000      -0.411793       -11.2055
 181   2.0000      -0.403899       -10.9906
 182   2.0000      -0.401121       -10.9151
 183   2.0000      -0.399596       -10.8736
 184   2.0000      -0.397890       -10.8271
 185   2.0000      -0.389005       -10.5854
 186   2.0000      -0.387392       -10.5415
 187   2.0000      -0.385877       -10.5003
 188   2.0000      -0.373907       -10.1745
 189   2.0000      -0.364878        -9.9288
 190   2.0000      -0.362883        -9.8745
 191   2.0000      -0.359499        -9.7825
 192   2.0000      -0.349725        -9.5165
 193   2.0000      -0.346699        -9.4342
 194   2.0000      -0.338284        -9.2052
 195   2.0000      -0.336799        -9.1648
 196   2.0000      -0.325908        -8.8684
 197   2.0000      -0.323135        -8.7930
 198   2.0000      -0.318103        -8.6560
 199   2.0000      -0.306414        -8.3380
 200   2.0000      -0.278135        -7.5684
 201   2.0000      -0.267341        -7.2747
 202   2.0000      -0.246053        -6.6954
 203   0.0000      -0.088996        -2.4217
 204   0.0000      -0.063846        -1.7373
 205   0.0000      -0.049864        -1.3569
 206   0.0000      -0.029677        -0.8075
 207   0.0000      -0.011057        -0.3009

MULLIKEN ATOMIC CHARGES
-----------------------
   0 C :   -0.106141
   1 S :    0.153523
   2 C :   -0.131976
   3 C :    0.080477
   4 C :    0.100098
   5 C :   -0.070945
   6 C :   -0.194378
   7 N :    0.116469
   8 C :    0.027432
   9 C :    0.015417
  10 C :   -0.009963
  11 C :   -0.103166
  12 S :    0.115041
  13 C :   -0.124546
  14 C :    0.032992
  15 C :    0.093136
  16 C :   -0.038511
  17 C :   -0.018692
  18 S :    0.785280
  19 O :   -0.436692
  20 O :   -0.435219
  21 C :   -0.090579
  22 C :   -0.023813
  23 C :    0.045411
  24 C :    0.031956
  25 C :   -0.040206
  26 C :   -0.010084
  27 S :    0.084536
  28 C :    0.018195
  29 C :    0.042011
  30 C :   -0.148062
  31 S :    0.141612
  32 C :   -0.135889
  33 C :    0.036212
  34 C :    0.096012
  35 C :    0.095074
  36 C :   -0.164031
  37 S :    0.800704
  38 O :   -0.449899
  39 O :   -0.420626
  40 C :   -0.174690
  41 S :    0.218549
  42 C :   -0.129878
  43 C :    0.078784
  44 C :    0.173640
  45 C :   -0.054018
  46 C :   -0.200648
  47 N :    0.104892
  48 C :    0.019100
  49 C :    0.020368
  50 C :    0.021316
  51 H :    0.041980
  52 H :   -0.002739
  53 H :   -0.001012
  54 H :   -0.003069
  55 H :    0.043011
  56 H :    0.017754
  57 H :    0.001684
  58 H :    0.022534
  59 H :   -0.001981
  60 H :    0.016269
  61 H :    0.029301
  62 H :   -0.019930
  63 H :   -0.003205
  64 H :   -0.004356
  65 H :    0.041948
  66 H :   -0.010549
  67 H :    0.024998
  68 H :   -0.007436
  69 H :   -0.003515
  70 H :   -0.017274
Sum of atomic charges:   -0.0000000

LOEWDIN ATOMIC CHARGES
----------------------
   0 C :   -0.185398
   1 S :    0.520367
   2 C :   -0.194574
   3 C :   -0.047544
   4 C :   -0.036310
   5 C :   -0.062346
   6 C :   -0.028461
   7 N :   -0.054294
   8 C :    0.017278
   9 C :   -0.023019
  10 C :   -0.005891
  11 C :   -0.173163
  12 S :    0.462373
  13 C :   -0.154617
  14 C :   -0.196903
  15 C :   -0.082573
  16 C :   -0.043076
  17 C :   -0.160590
  18 S :    1.179262
  19 O :   -0.479922
  20 O :   -0.483266
  21 C :   -0.186358
  22 C :   -0.022529
  23 C :   -0.039160
  24 C :   -0.049120
  25 C :   -0.049243
  26 C :   -0.153771
  27 S :    0.421699
  28 C :   -0.024890
  29 C :   -0.044137
  30 C :   -0.155682
  31 S :    0.457804
  32 C :   -0.154096
  33 C :   -0.198931
  34 C :   -0.071211
  35 C :    0.006890
  36 C :   -0.174182
  37 S :    1.177041
  38 O :   -0.499590
  39 O :   -0.469832
  40 C :   -0.227491
  41 S :    0.520196
  42 C :   -0.184903
  43 C :   -0.052619
  44 C :   -0.023801
  45 C :   -0.058780
  46 C :   -0.031657
  47 N :   -0.073009
  48 C :    0.020142
  49 C :   -0.028506
  50 C :    0.005766
  51 H :    0.034991
  52 H :    0.041710
  53 H :    0.035930
  54 H :    0.016372
  55 H :    0.037941
  56 H :    0.013042
  57 H :    0.031379
  58 H :    0.017507
  59 H :    0.017004
  60 H :    0.026034
  61 H :    0.024304
  62 H :    0.030803
  63 H :    0.036879
  64 H :    0.025252
  65 H :    0.036675
  66 H :    0.035583
  67 H :    0.027233
  68 H :    0.040688
  69 H :    0.033975
  70 H :    0.033324

  Mayer bond orders larger than 0.100000
B(  0-C ,  1-S ) :   1.1918 B(  0-C ,  2-C ) :   0.1097 B(  0-C ,  4-C ) :   1.4591
B(  0-C , 51-H ) :   0.9483 B(  1-S ,  2-C ) :   1.1860 B(  2-C ,  3-C ) :   1.3471
B(  2-C , 11-C ) :   1.1747 B(  3-C ,  4-C ) :   1.1928 B(  3-C , 10-C ) :   1.1975
B(  4-C ,  5-C ) :   1.1859 B(  5-C ,  6-C ) :   1.0742 B(  5-C ,  8-C ) :   1.5657
B(  6-C ,  7-N ) :   3.0397 B(  8-C ,  9-C ) :   1.1959 B(  8-C , 52-H ) :   0.9955
B(  9-C , 10-C ) :   1.5578 B(  9-C , 53-H ) :   0.9821 B( 10-C , 54-H ) :   0.9752
B( 11-C , 12-S ) :   1.1219 B( 11-C , 15-C ) :   1.4566 B( 12-S , 13-C ) :   1.1408
B( 13-C , 14-C ) :   1.6363 B( 13-C , 55-H ) :   0.9771 B( 14-C , 15-C ) :   1.2380
B( 14-C , 18-S ) :   0.7797 B( 15-C , 16-C ) :   1.0966 B( 16-C , 17-C ) :   1.6525
B( 16-C , 56-H ) :   0.9598 B( 17-C , 18-S ) :   0.8280 B( 17-C , 21-C ) :   1.1983
B( 18-S , 19-O ) :   1.7123 B( 18-S , 20-O ) :   1.6888 B( 21-C , 22-C ) :   1.5050
B( 21-C , 27-S ) :   1.0941 B( 22-C , 23-C ) :   1.0728 B( 22-C , 25-C ) :   1.2492
B( 23-C , 24-C ) :   1.0947 B( 23-C , 57-H ) :   0.9151 B( 23-C , 58-H ) :   0.9011
B( 24-C , 59-H ) :   0.9671 B( 24-C , 60-H ) :   0.9667 B( 24-C , 61-H ) :   0.9590
B( 25-C , 26-C ) :   1.4652 B( 25-C , 62-H ) :   1.0034 B( 26-C , 27-S ) :   1.1066
B( 26-C , 28-C ) :   1.1618 B( 28-C , 29-C ) :   1.6686 B( 28-C , 63-H ) :   0.9739
B( 29-C , 30-C ) :   1.1219 B( 29-C , 64-H ) :   0.9503 B( 30-C , 31-S ) :   1.1299
B( 30-C , 34-C ) :   1.4740 B( 31-S , 32-C ) :   1.1603 B( 32-C , 33-C ) :   1.6272
B( 32-C , 65-H ) :   0.9765 B( 33-C , 34-C ) :   1.2425 B( 33-C , 37-S ) :   0.7652
B( 34-C , 35-C ) :   1.0769 B( 35-C , 36-C ) :   1.7325 B( 35-C , 66-H ) :   0.9900
B( 36-C , 37-S ) :   0.8268 B( 36-C , 40-C ) :   1.0307 B( 37-S , 38-O ) :   1.7275
B( 37-S , 39-O ) :   1.7363 B( 40-C , 41-S ) :   1.1854 B( 40-C , 42-C ) :   0.1222
B( 40-C , 44-C ) :   1.4036 B( 41-S , 42-C ) :   1.2338 B( 42-C , 43-C ) :   1.4067
B( 42-C , 67-H ) :   0.9669 B( 43-C , 44-C ) :   1.2028 B( 43-C , 50-C ) :   1.1676
B( 44-C , 45-C ) :   1.2081 B( 45-C , 46-C ) :   1.0705 B( 45-C , 48-C ) :   1.5787
B( 46-C , 47-N ) :   3.0174 B( 48-C , 49-C ) :   1.1788 B( 48-C , 68-H ) :   0.9949
B( 49-C , 50-C ) :   1.5589 B( 49-C , 69-H ) :   0.9842 B( 50-C , 70-H ) :   1.0002

-----------------------------------------------------------------------------
         ABSORPTION SPECTRUM VIA TRANSITION ELECTRIC DIPOLE MOMENTS
-----------------------------------------------------------------------------
State   Energy  Wavelength   fosc         T2         TX        TY        TZ
        (cm-1)    (nm)                  (au**2)     (au)      (au)      (au)
-----------------------------------------------------------------------------
   0   19020.4    525.8   1.139785325  19.72780  -3.83058   1.63680   1.54122
   1   24781.6    403.5   0.726487648   9.65105  -2.75508  -1.41916  -0.21581
   2   25073.8    398.8   0.037382239   0.49082   0.24104   0.62528   0.20430
   3   27061.0    369.5   0.279236908   3.39706  -0.75023  -1.67812  -0.13465
   4   28654.7    349.0   0.082287018   0.94539  -0.11021  -0.95435   0.14990
   5   30778.3    324.9   0.097547304   1.04339  -0.09747   1.01641   0.02814
   6   31690.8    315.5   0.095458861   0.99165   0.47718  -0.86012  -0.15541
   7   32249.3    310.1   0.109758674   1.12046   1.05384  -0.09677   0.02274
   8   33418.1    299.2   0.019739532   0.19446   0.28452   0.10352   0.32061
   9   33750.6    296.3   0.083018803   0.80979   0.13674   0.87112   0.17957
  10   34097.0    293.3   0.011611583   0.11211   0.31965  -0.06758   0.07327
  11   34295.5    291.6   0.044755207   0.42962   0.09078  -0.48115  -0.43575
  12   34993.5    285.8   0.006927084   0.06517  -0.25397   0.02426  -0.00903
  13   36620.4    273.1   0.046177983   0.41513   0.17911   0.60051   0.14980
  14   37036.5    270.0   0.015539060   0.13812  -0.23146   0.27998   0.07848
  15   37192.6    268.9   0.280556940   2.48336  -1.06220   0.98167   0.62563
  16   37716.4    265.1   0.140382651   1.22535  -0.07807   1.08057   0.22722
  17   38496.2    259.8   0.114408750   0.97840   0.23505  -0.95660  -0.08977
  18   39062.2    256.0   0.007071392   0.05960   0.01129  -0.13954   0.20000
  19   39275.1    254.6   0.023766733   0.19922   0.42605  -0.03749   0.12766

FINAL SINGLE POINT ENERGY     -4654.368208766587

DIPOLE MOMENT
-------------
                                X             Y             Z
Electronic contribution:     -3.59362     -18.36200     -12.68225
Nuclear contribution   :      4.53189      19.77885      12.35944
                        -----------------------------------------
Total Dipole Moment    :      0.93827       1.41685      -0.32281
                        -----------------------------------------
Magnitude (a.u.)       :      1.72974
Magnitude (Debye)      :      4.39666

Rotational constants in cm-1:     0.002716     0.000510     0.000447
Rotational constants in MHz :    81.432130    15.304274    13.387775

                             ****ORCA TERMINATED NORMALLY****
TOTAL RUN TIME: 0 days 0 hours 5 minutes 1 seconds 397 msec
