                         Program Version 4.2.0 -  RELEASE  -
|  1> # ORCA input file
|  2> # SCF done       -125.880158901248          0.000225748100
|  3> ! CAM-B3LYP def2-SVP def2/J RIJCOSX Grid4 TightSCF
|  4> %maxcore 5000
|  5> %tddft
|  6>     Mode sTDDFT
|  7>     Ethresh 5.0
|  8>     maxcore 5000
|  9> end
| 10>
| 11> %pal
| 12>   nprocs 6
| 13>   end
| 14> * xyz 0 1
| 15>    O        0.10338         2.19409         1.80836
| 16>    C        1.05916         1.50489         1.56938
| 17>    O        1.43150         1.24646         0.30291
| 18>    C        1.87403         0.90806         2.63407
| 19>    C        1.64027         1.06028         3.97805
| 20>    C        2.58535         0.37692         4.74829
| 21>    S        2.86546         0.16278         6.43677
| 22>    C        4.27341        -0.83496         6.11029
| 23>    C        5.00026        -1.34842         7.22597
| 24>    C        6.10192        -2.12090         7.14520
| 25>    C        6.86440        -2.63493         8.25686
| 26>    C        8.01169        -3.39928         7.99677
| 27>    C        8.78457        -3.89663         9.01814
| 28>    C        8.44605        -3.65078        10.35471
| 29>    C        9.29453        -4.17761        11.41173
| 30>    N       10.30894        -4.94388        11.05144
| 31>    C       11.14874        -5.47271        11.93136
| 32>    C       11.09070        -5.30233        13.30901
| 33>    C       11.99015        -5.86237        14.28130
| 34>    C       12.99360        -6.72231        14.03195
| 35>    C       13.88460        -7.28635        15.02137
| 36>    C       14.76000        -8.31196        14.64406
| 37>    C       15.61445        -8.89576        15.55205
| 38>    C       15.63668        -8.47183        16.88208
| 39>    C       16.53039        -9.09273        17.85205
| 40>    C       17.72068        -9.69994        17.54849
| 41>    S       18.56549       -10.36440        18.89640
| 42>    C       17.30303        -9.84157        19.95537
| 43>    C       17.06578        -9.95079        21.33175
| 44>    C       15.87761        -9.36818        21.68684
| 45>    C       15.34283        -9.30975        23.05432
| 46>    O       15.92686        -9.79015        23.98805
| 47>    O       14.16095        -8.68946        23.21627
| 48>    S       15.03915        -8.67404        20.31012
| 49>    C       16.30301        -9.17411        19.25192
| 50>    C       14.77733        -7.43960        17.26143
| 51>    C       13.92095        -6.85936        16.35303
| 52>    C       10.02174        -4.47881        13.74478
| 53>    N        9.72939        -4.13800        14.99985
| 54>    S        8.43177        -3.19403        14.99023
| 55>    N        8.17323        -3.16815        13.40460
| 56>    C        9.10297        -3.90714        12.79783
| 57>    C        7.29756        -2.89927        10.62234
| 58>    C        6.52575        -2.40470         9.59637
| 59>    C        4.50064        -0.98664         4.75987
| 60>    C        3.54944        -0.30350         3.99749
| 61>    S        3.28076        -0.09398         2.30710
| 62>    H        2.21355         0.68107         0.24542
| 63>    H        0.82170         1.64149         4.35972
| 64>    H        4.60271        -1.06515         8.19011
| 65>    H        6.47904        -2.38966         6.16717
| 66>    H        8.29143        -3.59434         6.97098
| 67>    H        9.66783        -4.48057         8.81338
| 68>    H       11.92882        -6.07430        11.48519
| 69>    H       11.78316        -5.54177        15.29268
| 70>    H       13.16500        -7.06022        13.01828
| 71>    H       14.75393        -8.65992        13.62086
| 72>    H       16.25934        -9.70222        15.23729
| 73>    H       18.17612        -9.77569        16.58089
| 74>    H       17.71501       -10.42702        22.04242
| 75>    H       13.79380        -8.34783        22.38977
| 76>    H       14.79350        -7.07519        18.27775
| 77>    H       13.27919        -6.05666        16.68002
| 78>    H        7.01975        -2.70652        11.64615
| 79>    H        5.64566        -1.82993         9.83898
| 80>    H        5.30913        -1.55738         4.34395
| 81> *
| 82>
| 83>                          ****END OF INPUT****

CARTESIAN COORDINATES (ANGSTROEM)
---------------------------------
  O      0.103380    2.194090    1.808360
  C      1.059160    1.504890    1.569380
  O      1.431500    1.246460    0.302910
  C      1.874030    0.908060    2.634070
  C      1.640270    1.060280    3.978050
  C      2.585350    0.376920    4.748290
  S      2.865460    0.162780    6.436770
  C      4.273410   -0.834960    6.110290
  C      5.000260   -1.348420    7.225970
  C      6.101920   -2.120900    7.145200
  C      6.864400   -2.634930    8.256860
  C      8.011690   -3.399280    7.996770
  C      8.784570   -3.896630    9.018140
  C      8.446050   -3.650780   10.354710
  C      9.294530   -4.177610   11.411730
  N     10.308940   -4.943880   11.051440
  C     11.148740   -5.472710   11.931360
  C     11.090700   -5.302330   13.309010
  C     11.990150   -5.862370   14.281300
  C     12.993600   -6.722310   14.031950
  C     13.884600   -7.286350   15.021370
  C     14.760000   -8.311960   14.644060
  C     15.614450   -8.895760   15.552050
  C     15.636680   -8.471830   16.882080
  C     16.530390   -9.092730   17.852050
  C     17.720680   -9.699940   17.548490
  S     18.565490  -10.364400   18.896400
  C     17.303030   -9.841570   19.955370
  C     17.065780   -9.950790   21.331750
  C     15.877610   -9.368180   21.686840
  C     15.342830   -9.309750   23.054320
  O     15.926860   -9.790150   23.988050
  O     14.160950   -8.689460   23.216270
  S     15.039150   -8.674040   20.310120
  C     16.303010   -9.174110   19.251920
  C     14.777330   -7.439600   17.261430
  C     13.920950   -6.859360   16.353030
  C     10.021740   -4.478810   13.744780
  N      9.729390   -4.138000   14.999850
  S      8.431770   -3.194030   14.990230
  N      8.173230   -3.168150   13.404600
  C      9.102970   -3.907140   12.797830
  C      7.297560   -2.899270   10.622340
  C      6.525750   -2.404700    9.596370
  C      4.500640   -0.986640    4.759870
  C      3.549440   -0.303500    3.997490
  S      3.280760   -0.093980    2.307100
  H      2.213550    0.681070    0.245420
  H      0.821700    1.641490    4.359720
  H      4.602710   -1.065150    8.190110
  H      6.479040   -2.389660    6.167170
  H      8.291430   -3.594340    6.970980
  H      9.667830   -4.480570    8.813380
  H     11.928820   -6.074300   11.485190
  H     11.783160   -5.541770   15.292680
  H     13.165000   -7.060220   13.018280
  H     14.753930   -8.659920   13.620860
  H     16.259340   -9.702220   15.237290
  H     18.176120   -9.775690   16.580890
  H     17.715010  -10.427020   22.042420
  H     13.793800   -8.347830   22.389770
  H     14.793500   -7.075190   18.277750
  H     13.279190   -6.056660   16.680020
  H      7.019750   -2.706520   11.646150
  H      5.645660   -1.829930    9.838980
  H      5.309130   -1.557380    4.343950

 Total Charge           Charge          ....    0
 Multiplicity           Mult            ....    1
 Number of Electrons    NEL             ....  362
 Basis Dimension        Dim             ....  773

ORBITAL ENERGIES
----------------

  NO   OCC          E(Eh)            E(eV)
   0   2.0000     -89.036463     -2422.8053
   1   2.0000     -88.976653     -2421.1778
   2   2.0000     -88.971669     -2421.0422
   3   2.0000     -88.968668     -2420.9605
   4   2.0000     -88.964784     -2420.8548
   5   2.0000     -19.259626      -524.0811
   6   2.0000     -19.256256      -523.9894
   7   2.0000     -19.193434      -522.2799
   8   2.0000     -19.189440      -522.1712
   9   2.0000     -14.451791      -393.2532
  10   2.0000     -14.447250      -393.1297
  11   2.0000     -14.413413      -392.2089
  12   2.0000     -10.404496      -283.1207
  13   2.0000     -10.400520      -283.0125
  14   2.0000     -10.331901      -281.1453
  15   2.0000     -10.331363      -281.1307
  16   2.0000     -10.330936      -281.1191
  17   2.0000     -10.316664      -280.7307
  18   2.0000     -10.315719      -280.7050
  19   2.0000     -10.313936      -280.6565
  20   2.0000     -10.312891      -280.6280
  21   2.0000     -10.312241      -280.6104
  22   2.0000     -10.309602      -280.5385
  23   2.0000     -10.309162      -280.5266
  24   2.0000     -10.308794      -280.5165
  25   2.0000     -10.306517      -280.4546
  26   2.0000     -10.299998      -280.2772
  27   2.0000     -10.299380      -280.2604
  28   2.0000     -10.296388      -280.1790
  29   2.0000     -10.296037      -280.1694
  30   2.0000     -10.292483      -280.0727
  31   2.0000     -10.289531      -279.9924
  32   2.0000     -10.289503      -279.9916
  33   2.0000     -10.286516      -279.9103
  34   2.0000     -10.285492      -279.8825
  35   2.0000     -10.284291      -279.8498
  36   2.0000     -10.283939      -279.8402
  37   2.0000     -10.281370      -279.7703
  38   2.0000     -10.280729      -279.7529
  39   2.0000     -10.280330      -279.7420
  40   2.0000     -10.279745      -279.7261
  41   2.0000     -10.279308      -279.7142
  42   2.0000     -10.279031      -279.7067
  43   2.0000     -10.271976      -279.5147
  44   2.0000     -10.271714      -279.5075
  45   2.0000     -10.268878      -279.4304
  46   2.0000     -10.268659      -279.4244
  47   2.0000      -8.128183      -221.1791
  48   2.0000      -8.071700      -219.6421
  49   2.0000      -8.067202      -219.5197
  50   2.0000      -8.064449      -219.4448
  51   2.0000      -8.060286      -219.3315
  52   2.0000      -6.099380      -165.9726
  53   2.0000      -6.091533      -165.7591
  54   2.0000      -6.090720      -165.7369
  55   2.0000      -6.041205      -164.3895
  56   2.0000      -6.037158      -164.2794
  57   2.0000      -6.036667      -164.2661
  58   2.0000      -6.033940      -164.1919
  59   2.0000      -6.033433      -164.1781
  60   2.0000      -6.032764      -164.1599
  61   2.0000      -6.029721      -164.0771
  62   2.0000      -6.029720      -164.0770
  63   2.0000      -6.028818      -164.0525
  64   2.0000      -6.026185      -163.9808
  65   2.0000      -6.025786      -163.9700
  66   2.0000      -6.021912      -163.8646
  67   2.0000      -1.181391       -32.1473
  68   2.0000      -1.177571       -32.0433
  69   2.0000      -1.135704       -30.9041
  70   2.0000      -1.094219       -29.7752
  71   2.0000      -1.090173       -29.6651
  72   2.0000      -1.047607       -28.5068
  73   2.0000      -1.020337       -27.7648
  74   2.0000      -1.015481       -27.6326
  75   2.0000      -0.989915       -26.9370
  76   2.0000      -0.968337       -26.3498
  77   2.0000      -0.959736       -26.1157
  78   2.0000      -0.952220       -25.9112
  79   2.0000      -0.951684       -25.8966
  80   2.0000      -0.921871       -25.0854
  81   2.0000      -0.902016       -24.5451
  82   2.0000      -0.898901       -24.4603
  83   2.0000      -0.881119       -23.9765
  84   2.0000      -0.868162       -23.6239
  85   2.0000      -0.862945       -23.4819
  86   2.0000      -0.846240       -23.0274
  87   2.0000      -0.844559       -22.9816
  88   2.0000      -0.835471       -22.7343
  89   2.0000      -0.825781       -22.4706
  90   2.0000      -0.821255       -22.3475
  91   2.0000      -0.809725       -22.0337
  92   2.0000      -0.803890       -21.8750
  93   2.0000      -0.789940       -21.4954
  94   2.0000      -0.767788       -20.8926
  95   2.0000      -0.741781       -20.1849
  96   2.0000      -0.738209       -20.0877
  97   2.0000      -0.733805       -19.9678
  98   2.0000      -0.723320       -19.6825
  99   2.0000      -0.710623       -19.3370
 100   2.0000      -0.703197       -19.1350
 101   2.0000      -0.693925       -18.8827
 102   2.0000      -0.692341       -18.8396
 103   2.0000      -0.686253       -18.6739
 104   2.0000      -0.675671       -18.3860
 105   2.0000      -0.665679       -18.1141
 106   2.0000      -0.654932       -17.8216
 107   2.0000      -0.646227       -17.5847
 108   2.0000      -0.643363       -17.5068
 109   2.0000      -0.631560       -17.1856
 110   2.0000      -0.626029       -17.0351
 111   2.0000      -0.622789       -16.9469
 112   2.0000      -0.611737       -16.6462
 113   2.0000      -0.600734       -16.3468
 114   2.0000      -0.598112       -16.2755
 115   2.0000      -0.589154       -16.0317
 116   2.0000      -0.586052       -15.9473
 117   2.0000      -0.580596       -15.7988
 118   2.0000      -0.573008       -15.5923
 119   2.0000      -0.560730       -15.2582
 120   2.0000      -0.559450       -15.2234
 121   2.0000      -0.547635       -14.9019
 122   2.0000      -0.540081       -14.6964
 123   2.0000      -0.538977       -14.6663
 124   2.0000      -0.536365       -14.5952
 125   2.0000      -0.534824       -14.5533
 126   2.0000      -0.531506       -14.4630
 127   2.0000      -0.526431       -14.3249
 128   2.0000      -0.520451       -14.1622
 129   2.0000      -0.518158       -14.0998
 130   2.0000      -0.513045       -13.9607
 131   2.0000      -0.510943       -13.9035
 132   2.0000      -0.504828       -13.7371
 133   2.0000      -0.503390       -13.6979
 134   2.0000      -0.501829       -13.6555
 135   2.0000      -0.501403       -13.6439
 136   2.0000      -0.495271       -13.4770
 137   2.0000      -0.493206       -13.4208
 138   2.0000      -0.492172       -13.3927
 139   2.0000      -0.490442       -13.3456
 140   2.0000      -0.486968       -13.2511
 141   2.0000      -0.475286       -12.9332
 142   2.0000      -0.474068       -12.9000
 143   2.0000      -0.472389       -12.8544
 144   2.0000      -0.464802       -12.6479
 145   2.0000      -0.460822       -12.5396
 146   2.0000      -0.457861       -12.4590
 147   2.0000      -0.456824       -12.4308
 148   2.0000      -0.454136       -12.3577
 149   2.0000      -0.453396       -12.3375
 150   2.0000      -0.444469       -12.0946
 151   2.0000      -0.443280       -12.0623
 152   2.0000      -0.442588       -12.0434
 153   2.0000      -0.434934       -11.8352
 154   2.0000      -0.432391       -11.7660
 155   2.0000      -0.428355       -11.6561
 156   2.0000      -0.426085       -11.5944
 157   2.0000      -0.420105       -11.4316
 158   2.0000      -0.417008       -11.3474
 159   2.0000      -0.415897       -11.3171
 160   2.0000      -0.401878       -10.9357
 161   2.0000      -0.397520       -10.8171
 162   2.0000      -0.391258       -10.6467
 163   2.0000      -0.390244       -10.6191
 164   2.0000      -0.385334       -10.4855
 165   2.0000      -0.375980       -10.2309
 166   2.0000      -0.371190       -10.1006
 167   2.0000      -0.364841        -9.9278
 168   2.0000      -0.356693        -9.7061
 169   2.0000      -0.350063        -9.5257
 170   2.0000      -0.346479        -9.4282
 171   2.0000      -0.340030        -9.2527
 172   2.0000      -0.337656        -9.1881
 173   2.0000      -0.334005        -9.0887
 174   2.0000      -0.325028        -8.8445
 175   2.0000      -0.321079        -8.7370
 176   2.0000      -0.308846        -8.4041
 177   2.0000      -0.303912        -8.2699
 178   2.0000      -0.292159        -7.9501
 179   2.0000      -0.269312        -7.3284
 180   2.0000      -0.248617        -6.7652
 181   0.0000      -0.086315        -2.3487
 182   0.0000      -0.050013        -1.3609
 183   0.0000      -0.037082        -1.0091
 184   0.0000      -0.024503        -0.6668
 185   0.0000      -0.003754        -0.1021

MULLIKEN ATOMIC CHARGES
-----------------------
   0 O :   -0.175423
   1 C :    0.176683
   2 O :   -0.159792
   3 C :   -0.183285
   4 C :   -0.001604
   5 C :   -0.014546
   6 S :    0.143610
   7 C :   -0.080192
   8 C :    0.077413
   9 C :   -0.003857
  10 C :    0.126885
  11 C :   -0.018398
  12 C :   -0.009319
  13 C :    0.051183
  14 C :    0.001917
  15 N :   -0.042108
  16 C :   -0.039389
  17 C :    0.035973
  18 C :   -0.000827
  19 C :    0.021055
  20 C :    0.116266
  21 C :   -0.019154
  22 C :   -0.024699
  23 C :    0.094877
  24 C :    0.110198
  25 C :   -0.142666
  26 S :    0.153145
  27 C :   -0.037160
  28 C :    0.001793
  29 C :   -0.172405
  30 C :    0.178145
  31 O :   -0.171258
  32 O :   -0.160766
  33 S :    0.098366
  34 C :   -0.073064
  35 C :   -0.030606
  36 C :   -0.017230
  37 C :    0.039005
  38 N :   -0.282724
  39 S :    0.524665
  40 N :   -0.271630
  41 C :    0.015988
  42 C :   -0.009507
  43 C :   -0.017726
  44 C :   -0.023131
  45 C :   -0.023855
  46 S :    0.097816
  47 H :    0.178000
  48 H :    0.012932
  49 H :   -0.016360
  50 H :   -0.025092
  51 H :   -0.028020
  52 H :   -0.010555
  53 H :   -0.004298
  54 H :   -0.003799
  55 H :   -0.023507
  56 H :   -0.023982
  57 H :   -0.027353
  58 H :    0.027566
  59 H :    0.013203
  60 H :    0.178964
  61 H :   -0.024780
  62 H :   -0.021402
  63 H :   -0.014609
  64 H :   -0.031159
  65 H :   -0.014409
Sum of atomic charges:   -0.0000000

LOEWDIN ATOMIC CHARGES
----------------------
   0 O :   -0.163546
   1 C :    0.061713
   2 O :   -0.035446
   3 C :   -0.233432
   4 C :   -0.015768
   5 C :   -0.210020
   6 S :    0.429591
   7 C :   -0.146321
   8 C :   -0.041729
   9 C :   -0.003324
  10 C :   -0.019070
  11 C :   -0.020742
  12 C :    0.009252
  13 C :   -0.039359
  14 C :    0.024765
  15 N :   -0.062148
  16 C :    0.019690
  17 C :   -0.053433
  18 C :   -0.016245
  19 C :   -0.004359
  20 C :   -0.025162
  21 C :   -0.012019
  22 C :   -0.014825
  23 C :   -0.020362
  24 C :   -0.066827
  25 C :   -0.166258
  26 S :    0.440951
  27 C :   -0.206929
  28 C :   -0.013780
  29 C :   -0.233387
  30 C :    0.062861
  31 O :   -0.160248
  32 O :   -0.034750
  33 S :    0.416272
  34 C :   -0.184554
  35 C :   -0.025271
  36 C :   -0.004934
  37 C :   -0.036419
  38 N :   -0.288319
  39 S :    0.656413
  40 N :   -0.271995
  41 C :   -0.060168
  42 C :   -0.004918
  43 C :   -0.016277
  44 C :   -0.071584
  45 C :   -0.185564
  46 S :    0.400485
  47 H :    0.077096
  48 H :    0.045868
  49 H :    0.026582
  50 H :    0.027337
  51 H :    0.025951
  52 H :    0.030976
  53 H :    0.021476
  54 H :    0.030736
  55 H :    0.026114
  56 H :    0.028006
  57 H :    0.027733
  58 H :    0.024744
  59 H :    0.045983
  60 H :    0.077442
  61 H :    0.017386
  62 H :    0.029616
  63 H :    0.027014
  64 H :    0.025165
  65 H :    0.032274

  Mayer bond orders larger than 0.100000
B(  0-O ,  1-C ) :   2.1988 B(  1-C ,  2-O ) :   1.2346 B(  1-C ,  3-C ) :   0.9482
B(  2-O , 47-H ) :   0.9512 B(  3-C ,  4-C ) :   1.5620 B(  3-C , 46-S ) :   1.0648
B(  4-C ,  5-C ) :   1.2321 B(  4-C , 48-H ) :   1.0120 B(  5-C ,  6-S ) :   1.0645
B(  5-C , 45-C ) :   1.4180 B(  6-S ,  7-C ) :   1.1142 B(  7-C ,  8-C ) :   1.1033
B(  7-C , 44-C ) :   1.5259 B(  8-C ,  9-C ) :   1.7130 B(  8-C , 49-H ) :   0.9542
B(  9-C , 10-C ) :   1.0852 B(  9-C , 50-H ) :   0.9839 B( 10-C , 11-C ) :   1.3095
B( 10-C , 43-C ) :   1.3281 B( 11-C , 12-C ) :   1.3716 B( 11-C , 51-H ) :   1.0008
B( 12-C , 13-C ) :   1.3404 B( 12-C , 52-H ) :   0.9911 B( 13-C , 14-C ) :   1.0463
B( 13-C , 42-C ) :   1.3442 B( 14-C , 15-N ) :   1.6763 B( 14-C , 17-C ) :   0.1117
B( 14-C , 41-C ) :   1.1437 B( 15-N , 16-C ) :   1.4485 B( 16-C , 17-C ) :   1.4174
B( 16-C , 53-H ) :   0.9791 B( 17-C , 18-C ) :   1.0972 B( 17-C , 37-C ) :   1.1831
B( 18-C , 19-C ) :   1.6777 B( 18-C , 54-H ) :   0.9762 B( 19-C , 20-C ) :   1.0740
B( 19-C , 55-H ) :   0.9812 B( 20-C , 21-C ) :   1.3264 B( 20-C , 36-C ) :   1.3403
B( 21-C , 22-C ) :   1.3886 B( 21-C , 56-H ) :   0.9976 B( 22-C , 23-C ) :   1.3671
B( 22-C , 57-H ) :   0.9945 B( 23-C , 24-C ) :   1.0031 B( 23-C , 35-C ) :   1.3422
B( 24-C , 25-C ) :   1.5725 B( 24-C , 34-C ) :   1.2334 B( 25-C , 26-S ) :   1.1488
B( 25-C , 58-H ) :   0.9563 B( 26-S , 27-C ) :   1.0809 B( 27-C , 28-C ) :   1.2222
B( 27-C , 34-C ) :   1.4405 B( 28-C , 29-C ) :   1.5740 B( 28-C , 59-H ) :   1.0126
B( 29-C , 30-C ) :   0.9407 B( 29-C , 33-S ) :   1.0621 B( 30-C , 31-O ) :   2.2049
B( 30-C , 32-O ) :   1.2343 B( 32-O , 60-H ) :   0.9507 B( 33-S , 34-C ) :   1.1072
B( 35-C , 36-C ) :   1.4160 B( 35-C , 61-H ) :   0.9814 B( 36-C , 62-H ) :   0.9909
B( 37-C , 38-N ) :   1.5257 B( 37-C , 41-C ) :   1.1797 B( 38-N , 39-S ) :   1.2695
B( 38-N , 40-N ) :   0.1520 B( 39-S , 40-N ) :   1.2744 B( 40-N , 41-C ) :   1.5194
B( 42-C , 43-C ) :   1.4078 B( 42-C , 63-H ) :   0.9683 B( 43-C , 64-H ) :   0.9886
B( 44-C , 45-C ) :   1.2587 B( 44-C , 65-H ) :   0.9990 B( 45-C , 46-S ) :   1.0926

-----------------------------------------------------------------------------
         ABSORPTION SPECTRUM VIA TRANSITION ELECTRIC DIPOLE MOMENTS
-----------------------------------------------------------------------------
State   Energy  Wavelength   fosc         T2         TX        TY        TZ
        (cm-1)    (nm)                  (au**2)     (au)      (au)      (au)
-----------------------------------------------------------------------------
   0   20065.5    498.4   1.581965639  25.95514  -3.14631   2.10102  -3.41198
   1   26359.6    379.4   0.082184792   1.02643   0.30191  -0.17893   0.95040
   2   28928.8    345.7   1.173117476  13.35018   2.28090  -1.60990   2.35709
   3   29479.8    339.2   0.000731348   0.00817   0.00515   0.06904  -0.05808
   4   32383.7    308.8   0.178791951   1.81760   0.99026  -0.72681   0.55563
   5   32898.3    304.0   0.060601407   0.60643  -0.49719   0.30072  -0.51846
   6   33143.0    301.7   0.185567550   1.84326  -1.11952   0.69068  -0.33599
   7   34812.2    287.3   0.054915281   0.51932   0.49530  -0.20935  -0.47976
   8   35782.8    279.5   0.142568702   1.31167  -0.22070   0.01924   1.12365
   9   36270.1    275.7   0.011176693   0.10145  -0.19489   0.11577  -0.22375
  10   36347.7    275.1   0.212991478   1.92913   0.92868  -0.73770   0.72284
  11   36796.2    271.8   0.047477270   0.42477   0.36548  -0.34775  -0.41263
  12   38136.1    262.2   0.014816456   0.12790   0.09722  -0.15239   0.30859
  13   39191.9    255.2   0.056099990   0.47124  -0.09778   0.19743   0.65015

FINAL SINGLE POINT ENERGY     -3798.423126743241

DIPOLE MOMENT
-------------
                                X             Y             Z
Electronic contribution:     -6.79320       4.92139       7.86604
Nuclear contribution   :      8.50511      -5.78741      -8.50804
                        -----------------------------------------
Total Dipole Moment    :      1.71190      -0.86602      -0.64200
                        -----------------------------------------
Magnitude (a.u.)       :      2.02306
Magnitude (Debye)      :      5.14221

Rotational constants in cm-1:     0.007833     0.000277     0.000268
Rotational constants in MHz :   234.813284     8.305618     8.034960

                             ****ORCA TERMINATED NORMALLY****
TOTAL RUN TIME: 0 days 0 hours 4 minutes 8 seconds 19 msec
