                         Program Version 4.2.0 -  RELEASE  -
|  1> # ORCA input file
|  2> # SCF done       -159.660242793075          0.000500610886
|  3> ! CAM-B3LYP def2-SVP def2/J RIJCOSX Grid4 TightSCF
|  4> %maxcore 5000
|  5> %tddft
|  6>     Mode sTDDFT
|  7>     Ethresh 5.0
|  8>     maxcore 5000
|  9> end
| 10>
| 11> %pal
| 12>   nprocs 6
| 13>   end
| 14> * xyz 0 1
| 15>    C        2.15878        -0.70343        -1.02525
| 16>    C        0.76673        -0.31002        -0.65613
| 17>    C       -0.21113        -1.23760        -0.48148
| 18>    S       -1.72249        -0.57683        -0.00860
| 19>    C       -1.05252         1.03139        -0.01279
| 20>    C       -1.86162         2.14762         0.27462
| 21>    C       -3.18385         2.08681         0.60430
| 22>    C       -3.99358         3.21095         0.87265
| 23>    C       -3.65681         4.55204         0.85703
| 24>    C       -4.80334         5.32657         1.16950
| 25>    C       -4.91263         6.69969         1.24302
| 26>    C       -6.06700         7.48020         1.52580
| 27>    C       -5.72787         8.81456         1.47710
| 28>    C       -6.57482         9.93060         1.68089
| 29>    C       -7.92397         9.93259         1.98075
| 30>    C       -8.43140        11.22483         2.09912
| 31>    S      -10.01511        11.86391         2.44842
| 32>    C       -9.38829        13.48185         2.31182
| 33>    C       -9.96175        14.76037         2.43584
| 34>    C       -9.03722        15.73575         2.23241
| 35>    S       -7.45157        15.13554         1.88624
| 36>    C       -8.02576        13.51256         2.01348
| 37>    C       -7.47758        12.22938         1.89164
| 38>    S       -5.93016        11.56266         1.54721
| 39>    C       -4.30434         8.92017         1.15933
| 40>    C       -3.83724         7.66961         1.02397
| 41>    F       -2.57469         7.32480         0.73341
| 42>    C       -5.87749         4.35228         1.38770
| 43>    F       -7.13232         4.69448         1.71170
| 44>    C       -5.41407         3.10591         1.21740
| 45>    C        0.30529         1.01851        -0.38600
| 46>    C        1.07165         2.21957        -0.42066
| 47>    C        2.24528         2.45837        -1.06527
| 48>    C        2.89440         3.71198        -0.99549
| 49>    C        4.03680         4.00951        -1.67764
| 50>    C        4.71328         5.24689        -1.63148
| 51>    C        5.85437         5.57151        -2.34122
| 52>    C        6.24176         6.90063        -2.02847
| 53>    C        7.31541         7.62182        -2.50830
| 54>    C        7.70898         8.94417        -2.17130
| 55>    C        8.84845         9.27327        -2.87736
| 56>    C        9.60553        10.46926        -2.84958
| 57>    C        9.32052        11.54425        -2.06702
| 58>    C       10.08067        12.73775        -2.01010
| 59>    C       11.22506        13.09579        -2.69838
| 60>    C       11.67773        14.36406        -2.33844
| 61>    S       13.03602        15.33667        -2.83731
| 62>    C       12.53810        16.59051        -1.73793
| 63>    C       13.05376        17.85782        -1.41081
| 64>    C       12.28952        18.47064        -0.46884
| 65>    S       10.92870        17.53368         0.04615
| 66>    C       11.38127        16.26325        -1.03099
| 67>    C       10.88847        14.99641        -1.37047
| 68>    S        9.56288        14.00520        -0.90242
| 69>    C        9.21045         8.12612        -3.71442
| 70>    C        8.30567         7.16310        -3.48652
| 71>    F        8.27860         5.94872        -4.05499
| 72>    C        5.24366         7.36863        -1.06256
| 73>    F        5.25969         8.59203        -0.51463
| 74>    C        4.33736         6.41010        -0.82242
| 75>    H        2.28230        -1.77719        -0.90327
| 76>    H        2.88156        -0.19197        -0.39256
| 77>    H        2.36735        -0.45693        -2.06596
| 78>    H       -0.12442        -2.30033        -0.59973
| 79>    H       -1.39515         3.11957         0.21483
| 80>    H       -3.66069         1.11593         0.66089
| 81>    H       -2.69239         4.96355         0.63722
| 82>    H       -7.03855         7.08032         1.73447
| 83>    H       -8.50323         9.03741         2.10468
| 84>    H      -10.99594        14.94201         2.66153
| 85>    H       -9.18654        16.79663         2.26341
| 86>    H       -3.76324         9.84108         1.05958
| 87>    H       -5.95751         2.18550         1.30833
| 88>    H        0.64611         3.05344         0.12301
| 89>    H        2.70471         1.70670        -1.68668
| 90>    H        2.44265         4.46506        -0.36495
| 91>    H        4.47469         3.25155        -2.31591
| 92>    H        6.37026         4.92456        -3.02331
| 93>    H        7.19125         9.56995        -1.47264
| 94>    H       10.47109        10.50234        -3.49750
| 95>    H        8.45545        11.50812        -1.42045
| 96>    H       11.70868        12.46967        -3.42418
| 97>    H       13.93668        18.28492        -1.84806
| 98>    H       12.43974        19.43726        -0.03079
| 99>    H       10.05272         8.08988        -4.37779
|100>    H        3.49564         6.47365        -0.16214
|101> *
|102>
|103>                          ****END OF INPUT****

CARTESIAN COORDINATES (ANGSTROEM)
---------------------------------
  C      2.158780   -0.703430   -1.025250
  C      0.766730   -0.310020   -0.656130
  C     -0.211130   -1.237600   -0.481480
  S     -1.722490   -0.576830   -0.008600
  C     -1.052520    1.031390   -0.012790
  C     -1.861620    2.147620    0.274620
  C     -3.183850    2.086810    0.604300
  C     -3.993580    3.210950    0.872650
  C     -3.656810    4.552040    0.857030
  C     -4.803340    5.326570    1.169500
  C     -4.912630    6.699690    1.243020
  C     -6.067000    7.480200    1.525800
  C     -5.727870    8.814560    1.477100
  C     -6.574820    9.930600    1.680890
  C     -7.923970    9.932590    1.980750
  C     -8.431400   11.224830    2.099120
  S    -10.015110   11.863910    2.448420
  C     -9.388290   13.481850    2.311820
  C     -9.961750   14.760370    2.435840
  C     -9.037220   15.735750    2.232410
  S     -7.451570   15.135540    1.886240
  C     -8.025760   13.512560    2.013480
  C     -7.477580   12.229380    1.891640
  S     -5.930160   11.562660    1.547210
  C     -4.304340    8.920170    1.159330
  C     -3.837240    7.669610    1.023970
  F     -2.574690    7.324800    0.733410
  C     -5.877490    4.352280    1.387700
  F     -7.132320    4.694480    1.711700
  C     -5.414070    3.105910    1.217400
  C      0.305290    1.018510   -0.386000
  C      1.071650    2.219570   -0.420660
  C      2.245280    2.458370   -1.065270
  C      2.894400    3.711980   -0.995490
  C      4.036800    4.009510   -1.677640
  C      4.713280    5.246890   -1.631480
  C      5.854370    5.571510   -2.341220
  C      6.241760    6.900630   -2.028470
  C      7.315410    7.621820   -2.508300
  C      7.708980    8.944170   -2.171300
  C      8.848450    9.273270   -2.877360
  C      9.605530   10.469260   -2.849580
  C      9.320520   11.544250   -2.067020
  C     10.080670   12.737750   -2.010100
  C     11.225060   13.095790   -2.698380
  C     11.677730   14.364060   -2.338440
  S     13.036020   15.336670   -2.837310
  C     12.538100   16.590510   -1.737930
  C     13.053760   17.857820   -1.410810
  C     12.289520   18.470640   -0.468840
  S     10.928700   17.533680    0.046150
  C     11.381270   16.263250   -1.030990
  C     10.888470   14.996410   -1.370470
  S      9.562880   14.005200   -0.902420
  C      9.210450    8.126120   -3.714420
  C      8.305670    7.163100   -3.486520
  F      8.278600    5.948720   -4.054990
  C      5.243660    7.368630   -1.062560
  F      5.259690    8.592030   -0.514630
  C      4.337360    6.410100   -0.822420
  H      2.282300   -1.777190   -0.903270
  H      2.881560   -0.191970   -0.392560
  H      2.367350   -0.456930   -2.065960
  H     -0.124420   -2.300330   -0.599730
  H     -1.395150    3.119570    0.214830
  H     -3.660690    1.115930    0.660890
  H     -2.692390    4.963550    0.637220
  H     -7.038550    7.080320    1.734470
  H     -8.503230    9.037410    2.104680
  H    -10.995940   14.942010    2.661530
  H     -9.186540   16.796630    2.263410
  H     -3.763240    9.841080    1.059580
  H     -5.957510    2.185500    1.308330
  H      0.646110    3.053440    0.123010
  H      2.704710    1.706700   -1.686680
  H      2.442650    4.465060   -0.364950
  H      4.474690    3.251550   -2.315910
  H      6.370260    4.924560   -3.023310
  H      7.191250    9.569950   -1.472640
  H     10.471090   10.502340   -3.497500
  H      8.455450   11.508120   -1.420450
  H     11.708680   12.469670   -3.424180
  H     13.936680   18.284920   -1.848060
  H     12.439740   19.437260   -0.030790
  H     10.052720    8.089880   -4.377790
  H      3.495640    6.473650   -0.162140

 Total Charge           Charge          ....    0
 Multiplicity           Mult            ....    1
 Number of Electrons    NEL             ....  468
 Basis Dimension        Dim             ....  998

ORBITAL ENERGIES
----------------

  NO   OCC          E(Eh)            E(eV)
   0   2.0000     -88.958941     -2420.6959
   1   2.0000     -88.958348     -2420.6797
   2   2.0000     -88.957724     -2420.6627
   3   2.0000     -88.957643     -2420.6605
   4   2.0000     -88.954030     -2420.5622
   5   2.0000     -88.953656     -2420.5520
   6   2.0000     -88.951742     -2420.5000
   7   2.0000     -24.782679      -674.3710
   8   2.0000     -24.780511      -674.3120
   9   2.0000     -24.780107      -674.3010
  10   2.0000     -24.779342      -674.2802
  11   2.0000     -10.347951      -281.5821
  12   2.0000     -10.345220      -281.5078
  13   2.0000     -10.345076      -281.5038
  14   2.0000     -10.344004      -281.4747
  15   2.0000     -10.304628      -280.4032
  16   2.0000     -10.304567      -280.4015
  17   2.0000     -10.304543      -280.4009
  18   2.0000     -10.304020      -280.3866
  19   2.0000     -10.301384      -280.3149
  20   2.0000     -10.301344      -280.3138
  21   2.0000     -10.301211      -280.3102
  22   2.0000     -10.299928      -280.2753
  23   2.0000     -10.299288      -280.2579
  24   2.0000     -10.298234      -280.2292
  25   2.0000     -10.298189      -280.2280
  26   2.0000     -10.296659      -280.1863
  27   2.0000     -10.296587      -280.1844
  28   2.0000     -10.293735      -280.1068
  29   2.0000     -10.293171      -280.0914
  30   2.0000     -10.292259      -280.0666
  31   2.0000     -10.291838      -280.0551
  32   2.0000     -10.290354      -280.0148
  33   2.0000     -10.286675      -279.9147
  34   2.0000     -10.286218      -279.9022
  35   2.0000     -10.285523      -279.8833
  36   2.0000     -10.283868      -279.8383
  37   2.0000     -10.282805      -279.8093
  38   2.0000     -10.281980      -279.7869
  39   2.0000     -10.280678      -279.7515
  40   2.0000     -10.280507      -279.7468
  41   2.0000     -10.280468      -279.7457
  42   2.0000     -10.280070      -279.7349
  43   2.0000     -10.279669      -279.7240
  44   2.0000     -10.278445      -279.6907
  45   2.0000     -10.278390      -279.6892
  46   2.0000     -10.277018      -279.6519
  47   2.0000     -10.276124      -279.6276
  48   2.0000     -10.275356      -279.6067
  49   2.0000     -10.275298      -279.6051
  50   2.0000     -10.274127      -279.5732
  51   2.0000     -10.268916      -279.4314
  52   2.0000     -10.266646      -279.3697
  53   2.0000     -10.263128      -279.2739
  54   2.0000     -10.263037      -279.2714
  55   2.0000     -10.262195      -279.2485
  56   2.0000     -10.252942      -278.9967
  57   2.0000     -10.252748      -278.9915
  58   2.0000     -10.250872      -278.9404
  59   2.0000     -10.249226      -278.8956
  60   2.0000      -8.053946      -219.1590
  61   2.0000      -8.053697      -219.1522
  62   2.0000      -8.053286      -219.1410
  63   2.0000      -8.053132      -219.1369
  64   2.0000      -8.049377      -219.0347
  65   2.0000      -8.048939      -219.0228
  66   2.0000      -8.047718      -218.9895
  67   2.0000      -6.023426      -163.9057
  68   2.0000      -6.023167      -163.8987
  69   2.0000      -6.022882      -163.8909
  70   2.0000      -6.022727      -163.8867
  71   2.0000      -6.019414      -163.7966
  72   2.0000      -6.019183      -163.7903
  73   2.0000      -6.019101      -163.7881
  74   2.0000      -6.018675      -163.7765
  75   2.0000      -6.018568      -163.7736
  76   2.0000      -6.018407      -163.7692
  77   2.0000      -6.016917      -163.7286
  78   2.0000      -6.015649      -163.6941
  79   2.0000      -6.015321      -163.6852
  80   2.0000      -6.015305      -163.6848
  81   2.0000      -6.014989      -163.6762
  82   2.0000      -6.014869      -163.6729
  83   2.0000      -6.014863      -163.6727
  84   2.0000      -6.012798      -163.6166
  85   2.0000      -6.010297      -163.5485
  86   2.0000      -6.009974      -163.5397
  87   2.0000      -6.009871      -163.5369
  88   2.0000      -1.294242       -35.2181
  89   2.0000      -1.292202       -35.1626
  90   2.0000      -1.291811       -35.1520
  91   2.0000      -1.290724       -35.1224
  92   2.0000      -1.014143       -27.5962
  93   2.0000      -1.014108       -27.5953
  94   2.0000      -0.985014       -26.8036
  95   2.0000      -0.982100       -26.7243
  96   2.0000      -0.977169       -26.5901
  97   2.0000      -0.973548       -26.4916
  98   2.0000      -0.971207       -26.4279
  99   2.0000      -0.958604       -26.0849
 100   2.0000      -0.957359       -26.0511
 101   2.0000      -0.922395       -25.0997
 102   2.0000      -0.916843       -24.9486
 103   2.0000      -0.911090       -24.7920
 104   2.0000      -0.897448       -24.4208
 105   2.0000      -0.887196       -24.1418
 106   2.0000      -0.871339       -23.7103
 107   2.0000      -0.863100       -23.4861
 108   2.0000      -0.854320       -23.2472
 109   2.0000      -0.852508       -23.1979
 110   2.0000      -0.840756       -22.8781
 111   2.0000      -0.835063       -22.7232
 112   2.0000      -0.830283       -22.5932
 113   2.0000      -0.828922       -22.5561
 114   2.0000      -0.815632       -22.1945
 115   2.0000      -0.809634       -22.0313
 116   2.0000      -0.799501       -21.7555
 117   2.0000      -0.791254       -21.5311
 118   2.0000      -0.786784       -21.4095
 119   2.0000      -0.783602       -21.3229
 120   2.0000      -0.781933       -21.2775
 121   2.0000      -0.776647       -21.1336
 122   2.0000      -0.762731       -20.7550
 123   2.0000      -0.754441       -20.5294
 124   2.0000      -0.745959       -20.2986
 125   2.0000      -0.739470       -20.1220
 126   2.0000      -0.713038       -19.4027
 127   2.0000      -0.707444       -19.2505
 128   2.0000      -0.698729       -19.0134
 129   2.0000      -0.693803       -18.8793
 130   2.0000      -0.669159       -18.2088
 131   2.0000      -0.665966       -18.1218
 132   2.0000      -0.661161       -17.9911
 133   2.0000      -0.655720       -17.8430
 134   2.0000      -0.652872       -17.7655
 135   2.0000      -0.649172       -17.6649
 136   2.0000      -0.645564       -17.5667
 137   2.0000      -0.643854       -17.5202
 138   2.0000      -0.639642       -17.4056
 139   2.0000      -0.634702       -17.2711
 140   2.0000      -0.629971       -17.1424
 141   2.0000      -0.625663       -17.0252
 142   2.0000      -0.622607       -16.9420
 143   2.0000      -0.622277       -16.9330
 144   2.0000      -0.615944       -16.7607
 145   2.0000      -0.612591       -16.6694
 146   2.0000      -0.609690       -16.5905
 147   2.0000      -0.598774       -16.2935
 148   2.0000      -0.592787       -16.1305
 149   2.0000      -0.586309       -15.9543
 150   2.0000      -0.579820       -15.7777
 151   2.0000      -0.568101       -15.4588
 152   2.0000      -0.566651       -15.4194
 153   2.0000      -0.561418       -15.2770
 154   2.0000      -0.552855       -15.0439
 155   2.0000      -0.552039       -15.0217
 156   2.0000      -0.551227       -14.9996
 157   2.0000      -0.550083       -14.9685
 158   2.0000      -0.544879       -14.8269
 159   2.0000      -0.544581       -14.8188
 160   2.0000      -0.543185       -14.7808
 161   2.0000      -0.541276       -14.7289
 162   2.0000      -0.539544       -14.6817
 163   2.0000      -0.535928       -14.5833
 164   2.0000      -0.531187       -14.4543
 165   2.0000      -0.524398       -14.2696
 166   2.0000      -0.521040       -14.1782
 167   2.0000      -0.516813       -14.0632
 168   2.0000      -0.516329       -14.0500
 169   2.0000      -0.511988       -13.9319
 170   2.0000      -0.511821       -13.9274
 171   2.0000      -0.511471       -13.9178
 172   2.0000      -0.508275       -13.8309
 173   2.0000      -0.505898       -13.7662
 174   2.0000      -0.503149       -13.6914
 175   2.0000      -0.495823       -13.4920
 176   2.0000      -0.488672       -13.2974
 177   2.0000      -0.485337       -13.2067
 178   2.0000      -0.483153       -13.1473
 179   2.0000      -0.479298       -13.0424
 180   2.0000      -0.478948       -13.0328
 181   2.0000      -0.475196       -12.9307
 182   2.0000      -0.471947       -12.8423
 183   2.0000      -0.469529       -12.7765
 184   2.0000      -0.467182       -12.7127
 185   2.0000      -0.466592       -12.6966
 186   2.0000      -0.465787       -12.6747
 187   2.0000      -0.462679       -12.5901
 188   2.0000      -0.460991       -12.5442
 189   2.0000      -0.460709       -12.5365
 190   2.0000      -0.456952       -12.4343
 191   2.0000      -0.454307       -12.3623
 192   2.0000      -0.453492       -12.3401
 193   2.0000      -0.451070       -12.2742
 194   2.0000      -0.449177       -12.2227
 195   2.0000      -0.446330       -12.1453
 196   2.0000      -0.446105       -12.1391
 197   2.0000      -0.443214       -12.0605
 198   2.0000      -0.441628       -12.0173
 199   2.0000      -0.436618       -11.8810
 200   2.0000      -0.434445       -11.8218
 201   2.0000      -0.432506       -11.7691
 202   2.0000      -0.430875       -11.7247
 203   2.0000      -0.427461       -11.6318
 204   2.0000      -0.419608       -11.4181
 205   2.0000      -0.418368       -11.3844
 206   2.0000      -0.416226       -11.3261
 207   2.0000      -0.412635       -11.2284
 208   2.0000      -0.409383       -11.1399
 209   2.0000      -0.407548       -11.0900
 210   2.0000      -0.405924       -11.0457
 211   2.0000      -0.403922       -10.9913
 212   2.0000      -0.403569       -10.9817
 213   2.0000      -0.402170       -10.9436
 214   2.0000      -0.395560       -10.7637
 215   2.0000      -0.380249       -10.3471
 216   2.0000      -0.379216       -10.3190
 217   2.0000      -0.358718        -9.7612
 218   2.0000      -0.355567        -9.6755
 219   2.0000      -0.337347        -9.1797
 220   2.0000      -0.329907        -8.9772
 221   2.0000      -0.329639        -8.9699
 222   2.0000      -0.318058        -8.6548
 223   2.0000      -0.307755        -8.3744
 224   2.0000      -0.296371        -8.0647
 225   2.0000      -0.291601        -7.9349
 226   2.0000      -0.290280        -7.8989
 227   2.0000      -0.281363        -7.6563
 228   2.0000      -0.280233        -7.6255
 229   2.0000      -0.279960        -7.6181
 230   2.0000      -0.261471        -7.1150
 231   2.0000      -0.249689        -6.7944
 232   2.0000      -0.231803        -6.3077
 233   2.0000      -0.218242        -5.9387
 234   0.0000      -0.102844        -2.7985
 235   0.0000      -0.090620        -2.4659
 236   0.0000      -0.033055        -0.8995
 237   0.0000      -0.020483        -0.5574
 238   0.0000      -0.007576        -0.2062

MULLIKEN ATOMIC CHARGES
-----------------------
   0 C :    0.114312
   1 C :   -0.091322
   2 C :   -0.109854
   3 S :    0.108676
   4 C :   -0.106617
   5 C :    0.022665
   6 C :   -0.020899
   7 C :    0.109958
   8 C :   -0.099014
   9 C :    0.006870
  10 C :    0.015877
  11 C :   -0.111789
  12 C :    0.122915
  13 C :   -0.064150
  14 C :   -0.042117
  15 C :   -0.025076
  16 S :    0.147974
  17 C :   -0.054286
  18 C :    0.022404
  19 C :   -0.079348
  20 S :    0.143430
  21 C :   -0.101146
  22 C :   -0.065553
  23 S :    0.137578
  24 C :   -0.100651
  25 C :    0.255524
  26 F :   -0.178779
  27 C :    0.257183
  28 F :   -0.180282
  29 C :   -0.083380
  30 C :    0.152086
  31 C :   -0.057233
  32 C :    0.017965
  33 C :    0.016684
  34 C :   -0.006586
  35 C :    0.122198
  36 C :   -0.095318
  37 C :    0.014536
  38 C :    0.011885
  39 C :   -0.104799
  40 C :    0.115780
  41 C :   -0.012601
  42 C :    0.074280
  43 C :   -0.075514
  44 C :   -0.034033
  45 C :   -0.035637
  46 S :    0.144690
  47 C :   -0.052421
  48 C :    0.020584
  49 C :   -0.078074
  50 S :    0.142905
  51 C :   -0.102941
  52 C :   -0.071947
  53 S :    0.147777
  54 C :   -0.087983
  55 C :    0.255879
  56 F :   -0.181674
  57 C :    0.254277
  58 F :   -0.179222
  59 C :   -0.084865
  60 H :    0.007414
  61 H :    0.032361
  62 H :    0.039691
  63 H :    0.016265
  64 H :   -0.010887
  65 H :   -0.015480
  66 H :   -0.023710
  67 H :   -0.022867
  68 H :   -0.012966
  69 H :   -0.009547
  70 H :    0.031216
  71 H :   -0.009837
  72 H :   -0.022051
  73 H :   -0.011610
  74 H :   -0.021423
  75 H :   -0.010896
  76 H :   -0.021797
  77 H :   -0.020053
  78 H :   -0.019834
  79 H :   -0.026967
  80 H :   -0.011839
  81 H :   -0.014016
  82 H :   -0.009870
  83 H :    0.029808
  84 H :   -0.022544
  85 H :   -0.020341
Sum of atomic charges:   -0.0000000

LOEWDIN ATOMIC CHARGES
----------------------
   0 C :   -0.044886
   1 C :   -0.054571
   2 C :   -0.182463
   3 S :    0.434038
   4 C :   -0.163138
   5 C :   -0.011077
   6 C :   -0.032624
   7 C :   -0.002330
   8 C :   -0.069207
   9 C :   -0.001300
  10 C :   -0.002733
  11 C :   -0.068286
  12 C :   -0.016510
  13 C :   -0.156760
  14 C :   -0.048697
  15 C :   -0.191702
  16 S :    0.401421
  17 C :   -0.194697
  18 C :   -0.072502
  19 C :   -0.173425
  20 S :    0.425857
  21 C :   -0.224392
  22 C :   -0.213450
  23 S :    0.430492
  24 C :   -0.069746
  25 C :    0.083888
  26 F :   -0.055124
  27 C :    0.079588
  28 F :   -0.056194
  29 C :   -0.060079
  30 C :   -0.052180
  31 C :   -0.014416
  32 C :   -0.023758
  33 C :   -0.011020
  34 C :   -0.019856
  35 C :   -0.002545
  36 C :   -0.060694
  37 C :   -0.003939
  38 C :   -0.001263
  39 C :   -0.069044
  40 C :   -0.002409
  41 C :   -0.026007
  42 C :   -0.013628
  43 C :   -0.163027
  44 C :   -0.058888
  45 C :   -0.191642
  46 S :    0.399222
  47 C :   -0.195485
  48 C :   -0.072606
  49 C :   -0.173718
  50 S :    0.425873
  51 C :   -0.224494
  52 C :   -0.215346
  53 S :    0.428213
  54 C :   -0.061591
  55 C :    0.079227
  56 F :   -0.057139
  57 C :    0.082010
  58 F :   -0.055876
  59 C :   -0.061134
  60 H :    0.033085
  61 H :    0.036274
  62 H :    0.034897
  63 H :    0.022481
  64 H :    0.034159
  65 H :    0.021693
  66 H :    0.017046
  67 H :    0.019712
  68 H :    0.035837
  69 H :    0.034235
  70 H :    0.024863
  71 H :    0.025459
  72 H :    0.028546
  73 H :    0.028780
  74 H :    0.027696
  75 H :    0.027397
  76 H :    0.030821
  77 H :    0.021769
  78 H :    0.018262
  79 H :    0.026643
  80 H :    0.031439
  81 H :    0.032555
  82 H :    0.034097
  83 H :    0.024599
  84 H :    0.027763
  85 H :    0.027661

  Mayer bond orders larger than 0.100000
B(  0-C ,  1-C ) :   1.0965 B(  0-C , 60-H ) :   0.9449 B(  0-C , 61-H ) :   0.9447
B(  0-C , 62-H ) :   0.9389 B(  1-C ,  2-C ) :   1.6070 B(  1-C , 30-C ) :   1.2200
B(  2-C ,  3-S ) :   1.1362 B(  2-C , 63-H ) :   0.9652 B(  3-S ,  4-C ) :   1.1236
B(  4-C ,  5-C ) :   1.1984 B(  4-C , 30-C ) :   1.3706 B(  5-C ,  6-C ) :   1.6032
B(  5-C , 64-H ) :   0.9693 B(  6-C ,  7-C ) :   1.1470 B(  6-C , 65-H ) :   0.9757
B(  7-C ,  8-C ) :   1.5146 B(  7-C , 29-C ) :   1.0086 B(  8-C ,  9-C ) :   1.1585
B(  8-C , 66-H ) :   1.0071 B(  9-C , 10-C ) :   1.4249 B(  9-C , 27-C ) :   1.0152
B( 10-C , 11-C ) :   1.1447 B( 10-C , 25-C ) :   1.0242 B( 11-C , 12-C ) :   1.5480
B( 11-C , 67-H ) :   1.0132 B( 12-C , 13-C ) :   1.1322 B( 12-C , 24-C ) :   1.0164
B( 13-C , 14-C ) :   1.4994 B( 13-C , 23-S ) :   1.0816 B( 14-C , 15-C ) :   1.2703
B( 14-C , 68-H ) :   1.0039 B( 15-C , 16-S ) :   1.0478 B( 15-C , 22-C ) :   1.4534
B( 16-S , 17-C ) :   1.0535 B( 17-C , 18-C ) :   1.2630 B( 17-C , 21-C ) :   1.4735
B( 18-C , 19-C ) :   1.5905 B( 18-C , 69-H ) :   1.0003 B( 19-C , 20-S ) :   1.1435
B( 19-C , 70-H ) :   0.9686 B( 20-S , 21-C ) :   1.0789 B( 21-C , 22-C ) :   1.3035
B( 22-C , 23-S ) :   1.0814 B( 24-C , 25-C ) :   1.6652 B( 24-C , 71-H ) :   1.0091
B( 25-C , 26-F ) :   1.1185 B( 27-C , 28-F ) :   1.1179 B( 27-C , 29-C ) :   1.6574
B( 29-C , 72-H ) :   1.0219 B( 30-C , 31-C ) :   1.1132 B( 31-C , 32-C ) :   1.6247
B( 31-C , 73-H ) :   0.9658 B( 32-C , 33-C ) :   1.1427 B( 32-C , 74-H ) :   0.9889
B( 33-C , 34-C ) :   1.5782 B( 33-C , 75-H ) :   0.9878 B( 34-C , 35-C ) :   1.1402
B( 34-C , 76-H ) :   0.9852 B( 35-C , 36-C ) :   1.4912 B( 35-C , 59-C ) :   1.0179
B( 36-C , 37-C ) :   1.1353 B( 36-C , 77-H ) :   1.0241 B( 37-C , 38-C ) :   1.4354
B( 37-C , 57-C ) :   1.0223 B( 38-C , 39-C ) :   1.1521 B( 38-C , 55-C ) :   1.0166
B( 39-C , 40-C ) :   1.5219 B( 39-C , 78-H ) :   1.0094 B( 40-C , 41-C ) :   1.1387
B( 40-C , 54-C ) :   1.0098 B( 41-C , 42-C ) :   1.6534 B( 41-C , 79-H ) :   0.9753
B( 42-C , 43-C ) :   1.1330 B( 42-C , 80-H ) :   0.9623 B( 43-C , 44-C ) :   1.4980
B( 43-C , 53-S ) :   1.0862 B( 44-C , 45-C ) :   1.2809 B( 44-C , 81-H ) :   0.9974
B( 45-C , 46-S ) :   1.0493 B( 45-C , 52-C ) :   1.4576 B( 46-S , 47-C ) :   1.0519
B( 47-C , 48-C ) :   1.2597 B( 47-C , 51-C ) :   1.4784 B( 48-C , 49-C ) :   1.5918
B( 48-C , 82-H ) :   1.0012 B( 49-C , 50-S ) :   1.1438 B( 49-C , 83-H ) :   0.9683
B( 50-S , 51-C ) :   1.0792 B( 51-C , 52-C ) :   1.3058 B( 52-C , 53-S ) :   1.0818
B( 54-C , 55-C ) :   1.6560 B( 54-C , 84-H ) :   1.0212 B( 55-C , 56-F ) :   1.1191
B( 57-C , 58-F ) :   1.1187 B( 57-C , 59-C ) :   1.6688 B( 59-C , 85-H ) :   1.0130

-----------------------------------------------------------------------------
         ABSORPTION SPECTRUM VIA TRANSITION ELECTRIC DIPOLE MOMENTS
-----------------------------------------------------------------------------
State   Energy  Wavelength   fosc         T2         TX        TY        TZ
        (cm-1)    (nm)                  (au**2)     (au)      (au)      (au)
-----------------------------------------------------------------------------
   0   11262.6    887.9   0.926429678  27.08010  -5.03884   0.28387   1.26870
   1   13652.1    732.5   1.207258563  29.11239  -1.17213  -5.26672  -0.01355
   2   15990.3    625.4   0.007408985   0.15254   0.25418  -0.27581  -0.10890
   3   16321.3    612.7   0.033075795   0.66716  -0.41460  -0.61648   0.33944
   4   18449.5    542.0   0.020195758   0.36037  -0.53011  -0.17877   0.21770
   5   19922.7    501.9   0.117664094   1.94433   1.29241   0.42026  -0.31206
   6   22820.4    438.2   0.717829575  10.35556  -1.83566  -2.64224  -0.06713
   7   23368.4    427.9   0.613588179   8.64417   1.53051  -2.44542  -0.56714
   8   24541.6    407.5   0.451344474   6.05453   0.10055  -2.45853  -0.00728
   9   25024.2    399.6   0.022743217   0.29920  -0.37981   0.29326   0.26257
  10   25990.8    384.8   0.028396853   0.35969   0.54399   0.22321  -0.11808
  11   26608.4    375.8   0.073836480   0.91354   0.22699   0.92727   0.04671
  12   26720.1    374.3   0.125019144   1.54033   0.46484   1.14741  -0.08779
  13   27463.4    364.1   0.009167353   0.10989   0.16738  -0.12329  -0.25822
  14   28154.1    355.2   0.316836683   3.70484   1.66683   0.25871  -0.92715
  15   29388.3    340.3   0.361315102   4.04750   0.97767   1.70036   0.44771
  16   30945.9    323.1   0.010016210   0.10656  -0.07062  -0.05293   0.31427
  17   31661.8    315.8   0.122029538   1.26883   0.70245   0.84553  -0.24592
  18   32343.4    309.2   0.549238756   5.59051  -0.83288   2.20051   0.23363
  19   32793.7    304.9   0.009093159   0.09129  -0.08068  -0.28259  -0.07013
  20   32855.0    304.4   0.023919805   0.23968   0.03803  -0.37421  -0.31337
  21   33007.9    303.0   0.012937074   0.12903  -0.28995   0.17000   0.12673
  22   33556.7    298.0   0.002162127   0.02121  -0.09132  -0.10556  -0.04158
  23   34100.6    293.2   0.021977032   0.21217  -0.30222  -0.34760  -0.00228
  24   34419.0    290.5   0.007671266   0.07337  -0.21138   0.04040   0.16451
  25   34626.4    288.8   0.146468912   1.39256   0.73451   0.92139  -0.06403
  26   35113.1    284.8   0.262669318   2.46272   0.26221   1.54703  -0.02582
  27   35751.9    279.7   0.008520914   0.07846   0.02588   0.27653  -0.03639
  28   36148.8    276.6   0.040867085   0.37218  -0.29321   0.49618   0.20002
  29   36410.8    274.6   0.011753072   0.10627  -0.20173   0.23460   0.10264
  30   36679.0    272.6   0.025359585   0.22761  -0.41390   0.20087   0.12632
  31   37149.6    269.2   0.100273481   0.88860  -0.54683  -0.74562   0.18337
  32   38008.0    263.1   0.012780358   0.11070   0.25184   0.15584  -0.15163
  33   38315.9    261.0   0.041300705   0.35486  -0.14518  -0.48765   0.30980
  34   38482.0    259.9   0.014135335   0.12093   0.06776  -0.33527  -0.06271
  35   39250.8    254.8   0.016228823   0.13612   0.25682  -0.22798  -0.13485
  36   39512.6    253.1   0.030737873   0.25610   0.37179  -0.22390  -0.26028
  37   39958.2    250.3   0.040671499   0.33509   0.09701   0.50952   0.25703

FINAL SINGLE POINT ENERGY     -5065.692277722570

DIPOLE MOMENT
-------------
                                X             Y             Z
Electronic contribution:    -13.38215      43.07296       7.47904
Nuclear contribution   :     13.79823     -42.75567      -7.51369
                        -----------------------------------------
Total Dipole Moment    :      0.41609       0.31730      -0.03465
                        -----------------------------------------
Magnitude (a.u.)       :      0.52441
Magnitude (Debye)      :      1.33294

Rotational constants in cm-1:     0.000691     0.000290     0.000206
Rotational constants in MHz :    20.710395     8.681453     6.175467

                             ****ORCA TERMINATED NORMALLY****
TOTAL RUN TIME: 0 days 0 hours 7 minutes 22 seconds 471 msec
