                         Program Version 4.2.0 -  RELEASE  -
|  1> # ORCA input file
|  2> # SCF done       -115.219432953718          0.000260793224
|  3> ! CAM-B3LYP def2-SVP def2/J RIJCOSX Grid4 TightSCF
|  4> %maxcore 5000
|  5> %tddft
|  6>     Mode sTDDFT
|  7>     Ethresh 5.0
|  8>     maxcore 5000
|  9> end
| 10>
| 11> %pal
| 12>   nprocs 6
| 13>   end
| 14> * xyz 0 1
| 15>    C        0.18926         1.58755        -3.32093
| 16>    S        1.06341         2.81619        -2.47896
| 17>    C        2.20006         1.64252        -1.88469
| 18>    O        3.24992         2.01627        -1.12584
| 19>    C        1.89757         0.36905        -2.30492
| 20>    C        0.74040         0.37020        -3.14432
| 21>    C        2.64699        -0.82929        -2.02378
| 22>    C        3.32585        -1.23020        -0.87431
| 23>    C        3.96028        -2.50454        -1.02793
| 24>    C        4.68324        -3.05523         0.04902
| 25>    C        4.74891        -2.37754         1.23174
| 26>    C        4.09310        -1.14009         1.39598
| 27>    C        3.39170        -0.57217         0.37399
| 28>    C        3.75442        -3.07732        -2.29105
| 29>    S        2.77170        -2.02644        -3.26487
| 30>    C        4.23265        -4.31827        -2.76038
| 31>    C        4.00353        -4.80815        -4.00457
| 32>    C        4.45372        -6.05234        -4.54238
| 33>    C        4.13291        -6.36263        -5.86476
| 34>    C        4.52364        -7.53115        -6.49210
| 35>    C        5.28464        -8.49553        -5.83668
| 36>    C        5.58462        -8.24950        -4.46163
| 37>    N        6.25484        -9.19225        -3.78501
| 38>    C        6.53789        -8.98762        -2.52480
| 39>    C        6.15522        -7.79942        -1.88882
| 40>    N        5.50371        -6.85692        -2.52166
| 41>    C        5.19190        -7.03925        -3.81649
| 42>    C        5.71674        -9.71246        -6.44447
| 43>    C        5.92139       -10.01676        -7.80071
| 44>    C        6.23345       -11.39599        -8.01378
| 45>    C        6.45593       -11.86761        -9.32096
| 46>    C        6.40778       -10.99759       -10.37327
| 47>    C        6.17077        -9.62807       -10.15920
| 48>    C        5.93635        -9.13930        -8.90458
| 49>    C        6.28835       -12.13225        -6.81800
| 50>    S        6.01267       -11.09887        -5.45374
| 51>    C        6.55585       -13.51178        -6.67480
| 52>    C        6.59527       -14.16065        -5.48373
| 53>    C        6.85341       -15.54587        -5.31545
| 54>    S        6.84311       -16.22269        -3.69800
| 55>    C        7.20438       -17.80608        -4.31444
| 56>    O        7.33893       -18.87674        -3.50901
| 57>    C        7.32402       -17.80450        -5.67417
| 58>    C        7.12561       -16.53179        -6.23365
| 59>    H       -0.67929         1.86137        -3.88450
| 60>    H        3.31537         2.97713        -1.08440
| 61>    H        0.34843        -0.53125        -3.57991
| 62>    H        5.17176        -4.01001        -0.07034
| 63>    H        5.29978        -2.79198         2.06328
| 64>    H        4.14876        -0.64305         2.35330
| 65>    H        2.88465         0.36835         0.50687
| 66>    H        4.81842        -4.90553        -2.07065
| 67>    H        3.41965        -4.20074        -4.68885
| 68>    H        3.53854        -5.65355        -6.42417
| 69>    H        4.18827        -7.71534        -7.50012
| 70>    H        7.07734        -9.77084        -2.01031
| 71>    H        6.38498        -7.61249        -0.84791
| 72>    H        6.67578       -12.91180        -9.48349
| 73>    H        6.57801       -11.35168       -11.37921
| 74>    H        6.18699        -8.95481       -11.00373
| 75>    H        5.80307        -8.07998        -8.75441
| 76>    H        6.72904       -14.06636        -7.58593
| 77>    H        6.41703       -13.59366        -4.57936
| 78>    H        7.21917       -18.62809        -2.58559
| 79>    H        7.54626       -18.69096        -6.23815
| 80>    H        7.18339       -16.34500        -7.29016
| 81> *
| 82>
| 83>                          ****END OF INPUT****

CARTESIAN COORDINATES (ANGSTROEM)
---------------------------------
  C      0.189260    1.587550   -3.320930
  S      1.063410    2.816190   -2.478960
  C      2.200060    1.642520   -1.884690
  O      3.249920    2.016270   -1.125840
  C      1.897570    0.369050   -2.304920
  C      0.740400    0.370200   -3.144320
  C      2.646990   -0.829290   -2.023780
  C      3.325850   -1.230200   -0.874310
  C      3.960280   -2.504540   -1.027930
  C      4.683240   -3.055230    0.049020
  C      4.748910   -2.377540    1.231740
  C      4.093100   -1.140090    1.395980
  C      3.391700   -0.572170    0.373990
  C      3.754420   -3.077320   -2.291050
  S      2.771700   -2.026440   -3.264870
  C      4.232650   -4.318270   -2.760380
  C      4.003530   -4.808150   -4.004570
  C      4.453720   -6.052340   -4.542380
  C      4.132910   -6.362630   -5.864760
  C      4.523640   -7.531150   -6.492100
  C      5.284640   -8.495530   -5.836680
  C      5.584620   -8.249500   -4.461630
  N      6.254840   -9.192250   -3.785010
  C      6.537890   -8.987620   -2.524800
  C      6.155220   -7.799420   -1.888820
  N      5.503710   -6.856920   -2.521660
  C      5.191900   -7.039250   -3.816490
  C      5.716740   -9.712460   -6.444470
  C      5.921390  -10.016760   -7.800710
  C      6.233450  -11.395990   -8.013780
  C      6.455930  -11.867610   -9.320960
  C      6.407780  -10.997590  -10.373270
  C      6.170770   -9.628070  -10.159200
  C      5.936350   -9.139300   -8.904580
  C      6.288350  -12.132250   -6.818000
  S      6.012670  -11.098870   -5.453740
  C      6.555850  -13.511780   -6.674800
  C      6.595270  -14.160650   -5.483730
  C      6.853410  -15.545870   -5.315450
  S      6.843110  -16.222690   -3.698000
  C      7.204380  -17.806080   -4.314440
  O      7.338930  -18.876740   -3.509010
  C      7.324020  -17.804500   -5.674170
  C      7.125610  -16.531790   -6.233650
  H     -0.679290    1.861370   -3.884500
  H      3.315370    2.977130   -1.084400
  H      0.348430   -0.531250   -3.579910
  H      5.171760   -4.010010   -0.070340
  H      5.299780   -2.791980    2.063280
  H      4.148760   -0.643050    2.353300
  H      2.884650    0.368350    0.506870
  H      4.818420   -4.905530   -2.070650
  H      3.419650   -4.200740   -4.688850
  H      3.538540   -5.653550   -6.424170
  H      4.188270   -7.715340   -7.500120
  H      7.077340   -9.770840   -2.010310
  H      6.384980   -7.612490   -0.847910
  H      6.675780  -12.911800   -9.483490
  H      6.578010  -11.351680  -11.379210
  H      6.186990   -8.954810  -11.003730
  H      5.803070   -8.079980   -8.754410
  H      6.729040  -14.066360   -7.585930
  H      6.417030  -13.593660   -4.579360
  H      7.219170  -18.628090   -2.585590
  H      7.546260  -18.690960   -6.238150
  H      7.183390  -16.345000   -7.290160

 Total Charge           Charge          ....    0
 Multiplicity           Mult            ....    1
 Number of Electrons    NEL             ....  332
 Basis Dimension        Dim             ....  742

ORBITAL ENERGIES
----------------

  NO   OCC          E(Eh)            E(eV)
   0   2.0000     -88.954221     -2420.5674
   1   2.0000     -88.947199     -2420.3763
   2   2.0000     -88.946699     -2420.3627
   3   2.0000     -88.942228     -2420.2411
   4   2.0000     -19.263745      -524.1931
   5   2.0000     -19.256150      -523.9865
   6   2.0000     -14.420261      -392.3952
   7   2.0000     -14.418251      -392.3406
   8   2.0000     -10.353555      -281.7346
   9   2.0000     -10.347193      -281.5614
  10   2.0000     -10.313889      -280.6552
  11   2.0000     -10.312929      -280.6291
  12   2.0000     -10.309680      -280.5406
  13   2.0000     -10.309110      -280.5252
  14   2.0000     -10.292053      -280.0610
  15   2.0000     -10.286430      -279.9080
  16   2.0000     -10.285768      -279.8900
  17   2.0000     -10.282937      -279.8129
  18   2.0000     -10.281540      -279.7749
  19   2.0000     -10.280458      -279.7455
  20   2.0000     -10.279236      -279.7122
  21   2.0000     -10.274906      -279.5944
  22   2.0000     -10.273408      -279.5537
  23   2.0000     -10.270588      -279.4769
  24   2.0000     -10.269766      -279.4545
  25   2.0000     -10.269721      -279.4533
  26   2.0000     -10.269148      -279.4377
  27   2.0000     -10.265673      -279.3432
  28   2.0000     -10.264791      -279.3192
  29   2.0000     -10.263565      -279.2858
  30   2.0000     -10.263042      -279.2716
  31   2.0000     -10.262002      -279.2433
  32   2.0000     -10.260752      -279.2093
  33   2.0000     -10.260010      -279.1891
  34   2.0000     -10.258419      -279.1458
  35   2.0000     -10.257621      -279.1241
  36   2.0000     -10.257215      -279.1130
  37   2.0000     -10.257140      -279.1110
  38   2.0000     -10.256451      -279.0922
  39   2.0000     -10.256171      -279.0846
  40   2.0000     -10.255693      -279.0716
  41   2.0000     -10.255029      -279.0535
  42   2.0000     -10.254301      -279.0337
  43   2.0000     -10.253414      -279.0096
  44   2.0000      -8.051232      -219.0852
  45   2.0000      -8.043543      -218.8759
  46   2.0000      -8.042105      -218.8368
  47   2.0000      -8.035680      -218.6620
  48   2.0000      -6.020659      -163.8305
  49   2.0000      -6.016475      -163.7166
  50   2.0000      -6.012929      -163.6201
  51   2.0000      -6.012792      -163.6164
  52   2.0000      -6.010954      -163.5664
  53   2.0000      -6.009018      -163.5137
  54   2.0000      -6.007035      -163.4597
  55   2.0000      -6.005223      -163.4104
  56   2.0000      -6.005106      -163.4072
  57   2.0000      -6.004799      -163.3989
  58   2.0000      -6.000337      -163.2775
  59   2.0000      -5.998676      -163.2323
  60   2.0000      -1.159532       -31.5525
  61   2.0000      -1.152060       -31.3491
  62   2.0000      -1.076265       -29.2866
  63   2.0000      -1.000618       -27.2282
  64   2.0000      -0.982233       -26.7279
  65   2.0000      -0.975512       -26.5450
  66   2.0000      -0.965686       -26.2777
  67   2.0000      -0.964664       -26.2498
  68   2.0000      -0.944077       -25.6896
  69   2.0000      -0.911890       -24.8138
  70   2.0000      -0.910601       -24.7787
  71   2.0000      -0.892336       -24.2817
  72   2.0000      -0.879153       -23.9230
  73   2.0000      -0.861130       -23.4325
  74   2.0000      -0.850961       -23.1558
  75   2.0000      -0.840536       -22.8721
  76   2.0000      -0.826631       -22.4938
  77   2.0000      -0.820869       -22.3370
  78   2.0000      -0.817702       -22.2508
  79   2.0000      -0.809615       -22.0308
  80   2.0000      -0.808173       -21.9915
  81   2.0000      -0.802289       -21.8314
  82   2.0000      -0.797398       -21.6983
  83   2.0000      -0.769718       -20.9451
  84   2.0000      -0.750754       -20.4291
  85   2.0000      -0.748497       -20.3676
  86   2.0000      -0.738032       -20.0829
  87   2.0000      -0.718563       -19.5531
  88   2.0000      -0.694454       -18.8970
  89   2.0000      -0.690902       -18.8004
  90   2.0000      -0.687816       -18.7164
  91   2.0000      -0.686133       -18.6706
  92   2.0000      -0.673377       -18.3235
  93   2.0000      -0.661110       -17.9897
  94   2.0000      -0.653208       -17.7747
  95   2.0000      -0.642487       -17.4830
  96   2.0000      -0.638137       -17.3646
  97   2.0000      -0.634167       -17.2566
  98   2.0000      -0.621173       -16.9030
  99   2.0000      -0.615171       -16.7396
 100   2.0000      -0.612744       -16.6736
 101   2.0000      -0.604321       -16.4444
 102   2.0000      -0.596980       -16.2446
 103   2.0000      -0.589828       -16.0500
 104   2.0000      -0.586441       -15.9579
 105   2.0000      -0.567564       -15.4442
 106   2.0000      -0.562465       -15.3055
 107   2.0000      -0.551850       -15.0166
 108   2.0000      -0.547510       -14.8985
 109   2.0000      -0.542560       -14.7638
 110   2.0000      -0.533941       -14.5293
 111   2.0000      -0.532185       -14.4815
 112   2.0000      -0.528998       -14.3948
 113   2.0000      -0.525257       -14.2930
 114   2.0000      -0.520981       -14.1766
 115   2.0000      -0.516894       -14.0654
 116   2.0000      -0.513064       -13.9612
 117   2.0000      -0.509344       -13.8600
 118   2.0000      -0.506639       -13.7864
 119   2.0000      -0.504893       -13.7388
 120   2.0000      -0.503219       -13.6933
 121   2.0000      -0.497820       -13.5464
 122   2.0000      -0.495076       -13.4717
 123   2.0000      -0.485703       -13.2166
 124   2.0000      -0.483453       -13.1554
 125   2.0000      -0.481686       -13.1073
 126   2.0000      -0.479624       -13.0512
 127   2.0000      -0.475296       -12.9335
 128   2.0000      -0.470525       -12.8036
 129   2.0000      -0.467876       -12.7316
 130   2.0000      -0.454178       -12.3588
 131   2.0000      -0.446180       -12.1412
 132   2.0000      -0.441672       -12.0185
 133   2.0000      -0.437470       -11.9042
 134   2.0000      -0.436275       -11.8716
 135   2.0000      -0.436010       -11.8644
 136   2.0000      -0.432382       -11.7657
 137   2.0000      -0.429058       -11.6753
 138   2.0000      -0.428859       -11.6698
 139   2.0000      -0.427012       -11.6196
 140   2.0000      -0.421734       -11.4760
 141   2.0000      -0.417171       -11.3518
 142   2.0000      -0.413933       -11.2637
 143   2.0000      -0.411386       -11.1944
 144   2.0000      -0.410118       -11.1599
 145   2.0000      -0.404096       -10.9960
 146   2.0000      -0.402411       -10.9502
 147   2.0000      -0.399855       -10.8806
 148   2.0000      -0.396482       -10.7888
 149   2.0000      -0.391744       -10.6599
 150   2.0000      -0.379070       -10.3150
 151   2.0000      -0.370047       -10.0695
 152   2.0000      -0.356101        -9.6900
 153   2.0000      -0.339516        -9.2387
 154   2.0000      -0.328477        -8.9383
 155   2.0000      -0.323491        -8.8026
 156   2.0000      -0.316661        -8.6168
 157   2.0000      -0.316072        -8.6008
 158   2.0000      -0.311198        -8.4681
 159   2.0000      -0.298341        -8.1183
 160   2.0000      -0.293773        -7.9940
 161   2.0000      -0.290172        -7.8960
 162   2.0000      -0.282730        -7.6935
 163   2.0000      -0.266600        -7.2546
 164   2.0000      -0.223789        -6.0896
 165   2.0000      -0.196870        -5.3571
 166   0.0000      -0.064290        -1.7494
 167   0.0000      -0.028837        -0.7847
 168   0.0000      -0.019944        -0.5427
 169   0.0000       0.011800         0.3211
 170   0.0000       0.019824         0.5394

MULLIKEN ATOMIC CHARGES
-----------------------
   0 C :   -0.083609
   1 S :    0.052177
   2 C :   -0.048417
   3 O :   -0.167433
   4 C :    0.042044
   5 C :    0.037648
   6 C :   -0.132014
   7 C :    0.119469
   8 C :    0.094398
   9 C :   -0.032107
  10 C :    0.026384
  11 C :    0.015884
  12 C :   -0.012290
  13 C :   -0.091491
  14 S :    0.132830
  15 C :    0.020308
  16 C :   -0.085157
  17 C :    0.127339
  18 C :   -0.044126
  19 C :   -0.058658
  20 C :    0.114863
  21 C :   -0.037233
  22 N :   -0.055570
  23 C :    0.036250
  24 C :    0.032018
  25 N :   -0.024384
  26 C :   -0.018959
  27 C :   -0.152713
  28 C :    0.130482
  29 C :    0.088983
  30 C :   -0.030337
  31 C :    0.019790
  32 C :    0.022238
  33 C :   -0.051089
  34 C :   -0.074251
  35 S :    0.164283
  36 C :   -0.019208
  37 C :    0.065955
  38 C :   -0.102685
  39 S :    0.054192
  40 C :    0.036654
  41 O :   -0.172091
  42 C :   -0.001467
  43 C :    0.014698
  44 H :    0.026479
  45 H :    0.192792
  46 H :   -0.006821
  47 H :   -0.031375
  48 H :   -0.023421
  49 H :   -0.024536
  50 H :   -0.030624
  51 H :    0.000944
  52 H :   -0.034340
  53 H :   -0.024305
  54 H :   -0.017562
  55 H :    0.008091
  56 H :    0.007015
  57 H :   -0.034886
  58 H :   -0.023045
  59 H :   -0.020117
  60 H :   -0.028127
  61 H :   -0.025597
  62 H :   -0.019825
  63 H :    0.190486
  64 H :   -0.017638
  65 H :   -0.017188
Sum of atomic charges:    0.0000000

LOEWDIN ATOMIC CHARGES
----------------------
   0 C :   -0.195468
   1 S :    0.381047
   2 C :   -0.101752
   3 O :   -0.039878
   4 C :   -0.131572
   5 C :   -0.049143
   6 C :   -0.164116
   7 C :   -0.050249
   8 C :   -0.038499
   9 C :   -0.019607
  10 C :   -0.028932
  11 C :   -0.037103
  12 C :   -0.007827
  13 C :   -0.186684
  14 S :    0.469240
  15 C :   -0.024788
  16 C :   -0.049985
  17 C :   -0.025650
  18 C :   -0.013955
  19 C :   -0.018767
  20 C :   -0.041369
  21 C :   -0.006358
  22 N :   -0.049258
  23 C :    0.004304
  24 C :    0.002240
  25 N :   -0.026903
  26 C :    0.000451
  27 C :   -0.183541
  28 C :   -0.040207
  29 C :   -0.051238
  30 C :   -0.015059
  31 C :   -0.036214
  32 C :   -0.029250
  33 C :   -0.024957
  34 C :   -0.180369
  35 S :    0.513376
  36 C :   -0.045779
  37 C :   -0.046930
  38 C :   -0.185122
  39 S :    0.371391
  40 C :   -0.099924
  41 O :   -0.049936
  42 C :   -0.110422
  43 C :   -0.045449
  44 H :    0.023667
  45 H :    0.097258
  46 H :    0.027911
  47 H :    0.027155
  48 H :    0.025318
  49 H :    0.024823
  50 H :    0.024656
  51 H :    0.028521
  52 H :    0.015813
  53 H :    0.029567
  54 H :    0.032144
  55 H :    0.025410
  56 H :    0.024189
  57 H :    0.024485
  58 H :    0.025489
  59 H :    0.026364
  60 H :    0.025762
  61 H :    0.027660
  62 H :    0.018511
  63 H :    0.095904
  64 H :    0.031548
  65 H :    0.028054

  Mayer bond orders larger than 0.100000
B(  0-C ,  1-S ) :   1.1103 B(  0-C ,  5-C ) :   1.6202 B(  0-C , 44-H ) :   0.9719
B(  1-S ,  2-C ) :   1.1133 B(  2-C ,  3-O ) :   1.1969 B(  2-C ,  4-C ) :   1.5061
B(  3-O , 45-H ) :   0.9519 B(  4-C ,  5-C ) :   1.2212 B(  4-C ,  6-C ) :   1.0208
B(  5-C , 46-H ) :   0.9955 B(  6-C ,  7-C ) :   1.4085 B(  6-C , 13-C ) :   0.1191
B(  6-C , 14-S ) :   1.1794 B(  7-C ,  8-C ) :   1.1911 B(  7-C , 12-C ) :   1.2024
B(  8-C ,  9-C ) :   1.2112 B(  8-C , 13-C ) :   1.3325 B(  9-C , 10-C ) :   1.5568
B(  9-C , 47-H ) :   0.9918 B( 10-C , 11-C ) :   1.1995 B( 10-C , 48-H ) :   0.9841
B( 11-C , 12-C ) :   1.5673 B( 11-C , 49-H ) :   0.9847 B( 12-C , 50-H ) :   0.9844
B( 13-C , 14-S ) :   1.1155 B( 13-C , 15-C ) :   1.1763 B( 15-C , 16-C ) :   1.6265
B( 15-C , 51-H ) :   0.9414 B( 16-C , 17-C ) :   1.1464 B( 16-C , 52-H ) :   0.9679
B( 17-C , 18-C ) :   1.3700 B( 17-C , 20-C ) :   0.1048 B( 17-C , 26-C ) :   1.1764
B( 18-C , 19-C ) :   1.2750 B( 18-C , 53-H ) :   0.9993 B( 19-C , 20-C ) :   1.3851
B( 19-C , 54-H ) :   0.9961 B( 20-C , 21-C ) :   1.1961 B( 20-C , 27-C ) :   1.1127
B( 21-C , 22-N ) :   1.4488 B( 21-C , 26-C ) :   1.2258 B( 22-N , 23-C ) :   1.6157
B( 23-C , 24-C ) :   1.2538 B( 23-C , 55-H ) :   0.9741 B( 24-C , 25-N ) :   1.6260
B( 24-C , 56-H ) :   0.9744 B( 25-N , 26-C ) :   1.4725 B( 27-C , 28-C ) :   1.3416
B( 27-C , 34-C ) :   0.1098 B( 27-C , 35-S ) :   1.1593 B( 28-C , 29-C ) :   1.2127
B( 28-C , 33-C ) :   1.2001 B( 29-C , 30-C ) :   1.2196 B( 29-C , 34-C ) :   1.3039
B( 30-C , 31-C ) :   1.5426 B( 30-C , 57-H ) :   0.9900 B( 31-C , 32-C ) :   1.2185
B( 31-C , 58-H ) :   0.9853 B( 32-C , 33-C ) :   1.5441 B( 32-C , 59-H ) :   0.9856
B( 33-C , 60-H ) :   0.9899 B( 34-C , 35-S ) :   1.1284 B( 34-C , 36-C ) :   1.1964
B( 36-C , 37-C ) :   1.6679 B( 36-C , 61-H ) :   0.9700 B( 37-C , 38-C ) :   1.1295
B( 37-C , 62-H ) :   0.9585 B( 38-C , 39-S ) :   1.0727 B( 38-C , 43-C ) :   1.5365
B( 39-S , 40-C ) :   1.1133 B( 40-C , 41-O ) :   1.1916 B( 40-C , 42-C ) :   1.5180
B( 41-O , 63-H ) :   0.9571 B( 42-C , 43-C ) :   1.2389 B( 42-C , 64-H ) :   1.0014
B( 43-C , 65-H ) :   0.9926

-----------------------------------------------------------------------------
         ABSORPTION SPECTRUM VIA TRANSITION ELECTRIC DIPOLE MOMENTS
-----------------------------------------------------------------------------
State   Energy  Wavelength   fosc         T2         TX        TY        TZ
        (cm-1)    (nm)                  (au**2)     (au)      (au)      (au)
-----------------------------------------------------------------------------
   0   13949.6    716.9   1.183213270  27.92386  -1.27596   4.82544   1.73519
   1   20300.9    492.6   0.049270786   0.79900   0.32509  -0.46626  -0.68987
   2   22092.7    452.6   0.489610972   7.29588  -0.50650   2.63104  -0.34200
   3   22930.0    436.1   0.194926796   2.79862  -0.64083   1.25768   0.89789
   4   27849.7    359.1   0.002212999   0.02616  -0.15593   0.02577   0.03436
   5   28250.4    354.0   0.020817166   0.24259   0.08495  -0.15726   0.45896
   6   28817.0    347.0   0.076714904   0.87641  -0.00969   0.43371  -0.82958
   7   29593.7    337.9   0.052385955   0.58276   0.20826  -0.46063   0.57202
   8   30012.1    333.2   0.092165224   1.01099   0.06237  -0.55605   0.83541
   9   31214.6    320.4   0.226063690   2.38423  -0.13817   1.29491  -0.82967
  10   32198.4    310.6   0.063845372   0.65278   0.05405   0.24621  -0.76762
  11   33172.2    301.5   0.042611086   0.42289  -0.11589   0.52306   0.36861
  12   33668.9    297.0   0.131620745   1.28698   0.01884   0.33900  -1.08245
  13   34795.8    287.4   0.072767356   0.68847  -0.22853   0.59385   0.53253
  14   35010.2    285.6   0.007315767   0.06879  -0.05193   0.17918   0.18436
  15   35567.8    281.2   0.015826948   0.14649   0.31642  -0.18890   0.10336
  16   35845.5    279.0   0.096642242   0.88758  -0.18956   0.92253   0.02437
  17   36296.4    275.5   0.232521031   2.10899  -0.04163   0.57292   1.33380
  18   37620.5    265.8   0.009328702   0.08163   0.02807  -0.02697   0.28305
  19   37714.4    265.2   0.026557974   0.23183   0.05761  -0.47255   0.07213
  20   37921.1    263.7   0.052582110   0.45649   0.24856  -0.43700   0.45137
  21   38587.6    259.2   0.233728574   1.99406  -0.42712   0.22023  -1.32783
  22   39209.3    255.0   0.050158403   0.42114   0.01697   0.03999   0.64750
  23   39319.6    254.3   0.061505993   0.51497  -0.09618  -0.26265  -0.66086
  24   40279.2    248.3   0.032028650   0.26178  -0.11968   0.09064  -0.48912

FINAL SINGLE POINT ENERGY     -3235.172681468996

DIPOLE MOMENT
-------------
                                X             Y             Z
Electronic contribution:     -4.16805       6.95980       6.47409
Nuclear contribution   :      3.98659      -6.06417      -5.75438
                        -----------------------------------------
Total Dipole Moment    :     -0.18145       0.89563       0.71971
                        -----------------------------------------
Magnitude (a.u.)       :      1.16321
Magnitude (Debye)      :      2.95665

Rotational constants in cm-1:     0.004941     0.000582     0.000531
Rotational constants in MHz :   148.112875    17.442235    15.917129

                             ****ORCA TERMINATED NORMALLY****
TOTAL RUN TIME: 0 days 0 hours 4 minutes 18 seconds 447 msec
