                         Program Version 4.2.0 -  RELEASE  -
|  1> # ORCA input file
|  2> # SCF done       -193.173219345742          0.000800426706
|  3> ! CAM-B3LYP def2-SVP def2/J RIJCOSX Grid4 TightSCF
|  4> %maxcore 5000
|  5> %tddft
|  6>     Mode sTDDFT
|  7>     Ethresh 5.0
|  8>     maxcore 5000
|  9> end
| 10>
| 11> %pal
| 12>   nprocs 6
| 13>   end
| 14> * xyz 0 1
| 15>    C        0.11547         1.27193        -2.23301
| 16>    C        1.35025         0.95834        -1.84736
| 17>    C        2.50948         0.78314        -2.69852
| 18>    C        2.46089         0.63509        -4.10124
| 19>    N        1.26934         0.54368        -4.73753
| 20>    C        1.25995         0.45687        -6.03463
| 21>    C        2.45336         0.45571        -6.79474
| 22>    N        3.62018         0.49335        -6.22592
| 23>    C        3.66851         0.57091        -4.87407
| 24>    C        4.92828         0.62110        -4.25804
| 25>    C        6.14511         0.71638        -5.07056
| 26>    C        6.75917         1.92971        -5.27129
| 27>    C        6.44865         3.24102        -4.80066
| 28>    C        5.31496         3.64753        -4.18870
| 29>    C        5.07645         4.96228        -3.70050
| 30>    C        5.87678         6.10491        -3.73394
| 31>    C        5.15677         7.09850        -3.06873
| 32>    N        5.20022         8.39496        -2.64922
| 33>    C        4.04524         8.65823        -1.94789
| 34>    C        3.87281         9.90385        -1.20151
| 35>    C        4.09203         9.88735         0.16242
| 36>    C        4.52873         8.74710         0.88455
| 37>    C        4.79192         8.69675         2.20934
| 38>    C        5.27791         7.54913         2.91417
| 39>    C        5.43428         7.65822         4.32049
| 40>    N        5.12442         8.82890         4.92219
| 41>    C        5.26877         8.91346         6.21327
| 42>    C        5.73462         7.82507         6.98819
| 43>    N        6.04716         6.68321         6.45229
| 44>    C        5.90951         6.55931         5.10666
| 45>    C        6.23672         5.35130         4.50117
| 46>    C        6.10711         5.22156         3.12236
| 47>    N        6.44998         4.03833         2.54985
| 48>    C        6.33858         3.92952         1.25981
| 49>    C        5.87520         4.99761         0.46010
| 50>    N        5.53640         6.14290         0.97816
| 51>    C        5.63039         6.31078         2.31601
| 52>    S        3.85126        11.45226         0.89797
| 53>    C        3.45404        12.15041        -0.65220
| 54>    C        3.11874        13.47901        -0.83727
| 55>    C        3.05193        14.43504         0.31569
| 56>    C        1.62969        14.50705         0.87443
| 57>    C        2.79157        13.86263        -2.14130
| 58>    C        2.38825        15.14560        -2.61948
| 59>    C        2.12685        15.15689        -3.94180
| 60>    S        2.35145        13.62211        -4.70591
| 61>    C        2.82251        12.90497        -3.18281
| 62>    C        3.16860        11.57624        -3.00563
| 63>    C        3.18897        10.64399        -4.17944
| 64>    C        4.48066        10.80101        -4.98478
| 65>    C        3.50368        11.18919        -1.69894
| 66>    C        3.23920         7.53435        -1.91876
| 67>    C        3.93215         6.54971        -2.63829
| 68>    N        3.89578         5.25302        -3.04035
| 69>    S        8.15213         1.78859        -6.32138
| 70>    C        7.90245         0.07584        -6.50114
| 71>    C        8.70399        -0.74481        -7.27308
| 72>    C        9.88280        -0.20111        -8.02403
| 73>    C       11.15659        -0.30653        -7.18378
| 74>    C        8.38571        -2.10496        -7.26856
| 75>    C        9.03414        -3.17829        -7.95156
| 76>    C        8.47569        -4.37788        -7.69799
| 77>    S        7.12884        -4.29865        -6.61411
| 78>    C        7.30040        -2.56238        -6.48572
| 79>    C        6.48955        -1.74147        -5.71944
| 80>    C        5.43672        -2.35964        -4.84891
| 81>    C        6.00817        -2.64666        -3.45858
| 82>    C        6.78615        -0.37040        -5.74558
| 83>    C        4.98405         0.67898        -2.85993
| 84>    N        6.19606         0.66378        -2.25290
| 85>    C        6.22581         0.73868        -0.95607
| 86>    C        5.04105         0.83514        -0.18624
| 87>    N        3.86312         0.84377        -0.73574
| 88>    C        3.78237         0.76141        -2.08627
| 89>    H       -0.67465         1.38119        -1.50903
| 90>    H       -0.13971         1.42314        -3.26641
| 91>    H        1.57763         0.84844        -0.79504
| 92>    H        0.29115         0.36663        -6.50824
| 93>    H        2.43670         0.39712        -7.87456
| 94>    H        7.22148         3.97543        -4.98379
| 95>    H        4.50184         2.95174        -4.03706
| 96>    H        6.84612         6.18156        -4.18269
| 97>    H        5.96981         9.03360        -2.74615
| 98>    H        4.67233         7.85565         0.29270
| 99>    H        4.63345         9.57202         2.82673
|100>    H        5.01642         9.86155         6.66949
|101>    H        5.84930         7.90964         8.06090
|102>    H        6.59144         4.52388         5.09298
|103>    H        6.62510         2.98471         0.81748
|104>    H        5.79183         4.90701        -0.61534
|105>    H        3.37190        15.42793        -0.00435
|106>    H        3.72929        14.09453         1.10195
|107>    H        0.93422        14.83692         0.10573
|108>    H        1.58573        15.20382         1.70781
|109>    H        1.31532        13.52692         1.22512
|110>    H        2.29665        16.01428        -1.99313
|111>    H        1.80772        15.98508        -4.54441
|112>    H        2.34173        10.87903        -4.82896
|113>    H        3.08688         9.61386        -3.84034
|114>    H        4.53731        11.79644        -5.41886
|115>    H        4.51304        10.06956        -5.78815
|116>    H        5.35070        10.65704        -4.34860
|117>    H        2.28118         7.46467        -1.44411
|118>    H        3.15943         4.58847        -2.87404
|119>    H        9.69853         0.84826        -8.26531
|120>    H       10.01326        -0.74867        -8.95885
|121>    H       11.04422         0.25997        -6.26248
|122>    H       12.00669         0.09032        -7.73363
|123>    H       11.35931        -1.34418        -6.92772
|124>    H        9.88160        -3.04775        -8.60003
|125>    H        8.76811        -5.33732        -8.07856
|126>    H        5.10703        -3.29848        -5.30116
|127>    H        4.57111        -1.70670        -4.76196
|128>    H        5.23899        -3.06237        -2.81114
|129>    H        6.39021        -1.73243        -3.00974
|130>    H        6.82524        -3.36097        -3.52950
|131>    H        7.20100         0.70304        -0.48812
|132>    H        5.07310         0.88966         0.89416
|133> *
|134>
|135>                          ****END OF INPUT****

CARTESIAN COORDINATES (ANGSTROEM)
---------------------------------
  C      0.115470    1.271930   -2.233010
  C      1.350250    0.958340   -1.847360
  C      2.509480    0.783140   -2.698520
  C      2.460890    0.635090   -4.101240
  N      1.269340    0.543680   -4.737530
  C      1.259950    0.456870   -6.034630
  C      2.453360    0.455710   -6.794740
  N      3.620180    0.493350   -6.225920
  C      3.668510    0.570910   -4.874070
  C      4.928280    0.621100   -4.258040
  C      6.145110    0.716380   -5.070560
  C      6.759170    1.929710   -5.271290
  C      6.448650    3.241020   -4.800660
  C      5.314960    3.647530   -4.188700
  C      5.076450    4.962280   -3.700500
  C      5.876780    6.104910   -3.733940
  C      5.156770    7.098500   -3.068730
  N      5.200220    8.394960   -2.649220
  C      4.045240    8.658230   -1.947890
  C      3.872810    9.903850   -1.201510
  C      4.092030    9.887350    0.162420
  C      4.528730    8.747100    0.884550
  C      4.791920    8.696750    2.209340
  C      5.277910    7.549130    2.914170
  C      5.434280    7.658220    4.320490
  N      5.124420    8.828900    4.922190
  C      5.268770    8.913460    6.213270
  C      5.734620    7.825070    6.988190
  N      6.047160    6.683210    6.452290
  C      5.909510    6.559310    5.106660
  C      6.236720    5.351300    4.501170
  C      6.107110    5.221560    3.122360
  N      6.449980    4.038330    2.549850
  C      6.338580    3.929520    1.259810
  C      5.875200    4.997610    0.460100
  N      5.536400    6.142900    0.978160
  C      5.630390    6.310780    2.316010
  S      3.851260   11.452260    0.897970
  C      3.454040   12.150410   -0.652200
  C      3.118740   13.479010   -0.837270
  C      3.051930   14.435040    0.315690
  C      1.629690   14.507050    0.874430
  C      2.791570   13.862630   -2.141300
  C      2.388250   15.145600   -2.619480
  C      2.126850   15.156890   -3.941800
  S      2.351450   13.622110   -4.705910
  C      2.822510   12.904970   -3.182810
  C      3.168600   11.576240   -3.005630
  C      3.188970   10.643990   -4.179440
  C      4.480660   10.801010   -4.984780
  C      3.503680   11.189190   -1.698940
  C      3.239200    7.534350   -1.918760
  C      3.932150    6.549710   -2.638290
  N      3.895780    5.253020   -3.040350
  S      8.152130    1.788590   -6.321380
  C      7.902450    0.075840   -6.501140
  C      8.703990   -0.744810   -7.273080
  C      9.882800   -0.201110   -8.024030
  C     11.156590   -0.306530   -7.183780
  C      8.385710   -2.104960   -7.268560
  C      9.034140   -3.178290   -7.951560
  C      8.475690   -4.377880   -7.697990
  S      7.128840   -4.298650   -6.614110
  C      7.300400   -2.562380   -6.485720
  C      6.489550   -1.741470   -5.719440
  C      5.436720   -2.359640   -4.848910
  C      6.008170   -2.646660   -3.458580
  C      6.786150   -0.370400   -5.745580
  C      4.984050    0.678980   -2.859930
  N      6.196060    0.663780   -2.252900
  C      6.225810    0.738680   -0.956070
  C      5.041050    0.835140   -0.186240
  N      3.863120    0.843770   -0.735740
  C      3.782370    0.761410   -2.086270
  H     -0.674650    1.381190   -1.509030
  H     -0.139710    1.423140   -3.266410
  H      1.577630    0.848440   -0.795040
  H      0.291150    0.366630   -6.508240
  H      2.436700    0.397120   -7.874560
  H      7.221480    3.975430   -4.983790
  H      4.501840    2.951740   -4.037060
  H      6.846120    6.181560   -4.182690
  H      5.969810    9.033600   -2.746150
  H      4.672330    7.855650    0.292700
  H      4.633450    9.572020    2.826730
  H      5.016420    9.861550    6.669490
  H      5.849300    7.909640    8.060900
  H      6.591440    4.523880    5.092980
  H      6.625100    2.984710    0.817480
  H      5.791830    4.907010   -0.615340
  H      3.371900   15.427930   -0.004350
  H      3.729290   14.094530    1.101950
  H      0.934220   14.836920    0.105730
  H      1.585730   15.203820    1.707810
  H      1.315320   13.526920    1.225120
  H      2.296650   16.014280   -1.993130
  H      1.807720   15.985080   -4.544410
  H      2.341730   10.879030   -4.828960
  H      3.086880    9.613860   -3.840340
  H      4.537310   11.796440   -5.418860
  H      4.513040   10.069560   -5.788150
  H      5.350700   10.657040   -4.348600
  H      2.281180    7.464670   -1.444110
  H      3.159430    4.588470   -2.874040
  H      9.698530    0.848260   -8.265310
  H     10.013260   -0.748670   -8.958850
  H     11.044220    0.259970   -6.262480
  H     12.006690    0.090320   -7.733630
  H     11.359310   -1.344180   -6.927720
  H      9.881600   -3.047750   -8.600030
  H      8.768110   -5.337320   -8.078560
  H      5.107030   -3.298480   -5.301160
  H      4.571110   -1.706700   -4.761960
  H      5.238990   -3.062370   -2.811140
  H      6.390210   -1.732430   -3.009740
  H      6.825240   -3.360970   -3.529500
  H      7.201000    0.703040   -0.488120
  H      5.073100    0.889660    0.894160

 Total Charge           Charge          ....    0
 Multiplicity           Mult            ....    1
 Number of Electrons    NEL             ....  538
 Basis Dimension        Dim             .... 1272

ORBITAL ENERGIES
----------------

  NO   OCC          E(Eh)            E(eV)
   0   2.0000     -88.938091     -2420.1285
   1   2.0000     -88.935659     -2420.0623
   2   2.0000     -88.931078     -2419.9377
   3   2.0000     -88.928448     -2419.8661
   4   2.0000     -14.445809      -393.0904
   5   2.0000     -14.444404      -393.0522
   6   2.0000     -14.428400      -392.6167
   7   2.0000     -14.426992      -392.5784
   8   2.0000     -14.426652      -392.5692
   9   2.0000     -14.425269      -392.5315
  10   2.0000     -14.421481      -392.4284
  11   2.0000     -14.421017      -392.4158
  12   2.0000     -14.420038      -392.3892
  13   2.0000     -14.419085      -392.3633
  14   2.0000     -10.324569      -280.9458
  15   2.0000     -10.324125      -280.9337
  16   2.0000     -10.323442      -280.9151
  17   2.0000     -10.322329      -280.8849
  18   2.0000     -10.322070      -280.8778
  19   2.0000     -10.321605      -280.8652
  20   2.0000     -10.319386      -280.8048
  21   2.0000     -10.319349      -280.8038
  22   2.0000     -10.317383      -280.7503
  23   2.0000     -10.316620      -280.7295
  24   2.0000     -10.316243      -280.7192
  25   2.0000     -10.316115      -280.7158
  26   2.0000     -10.314691      -280.6770
  27   2.0000     -10.313342      -280.6403
  28   2.0000     -10.313139      -280.6348
  29   2.0000     -10.312305      -280.6121
  30   2.0000     -10.294564      -280.1293
  31   2.0000     -10.292841      -280.0824
  32   2.0000     -10.291944      -280.0580
  33   2.0000     -10.291287      -280.0402
  34   2.0000     -10.289701      -279.9970
  35   2.0000     -10.289342      -279.9872
  36   2.0000     -10.288165      -279.9552
  37   2.0000     -10.287980      -279.9502
  38   2.0000     -10.285625      -279.8861
  39   2.0000     -10.283199      -279.8201
  40   2.0000     -10.281220      -279.7662
  41   2.0000     -10.276948      -279.6500
  42   2.0000     -10.276282      -279.6319
  43   2.0000     -10.276276      -279.6317
  44   2.0000     -10.275174      -279.6017
  45   2.0000     -10.274677      -279.5882
  46   2.0000     -10.271967      -279.5144
  47   2.0000     -10.271537      -279.5027
  48   2.0000     -10.271189      -279.4933
  49   2.0000     -10.271092      -279.4906
  50   2.0000     -10.269621      -279.4506
  51   2.0000     -10.267990      -279.4062
  52   2.0000     -10.266908      -279.3768
  53   2.0000     -10.266094      -279.3546
  54   2.0000     -10.265044      -279.3260
  55   2.0000     -10.264241      -279.3042
  56   2.0000     -10.263947      -279.2962
  57   2.0000     -10.263713      -279.2898
  58   2.0000     -10.263541      -279.2852
  59   2.0000     -10.262574      -279.2588
  60   2.0000     -10.259798      -279.1833
  61   2.0000     -10.259619      -279.1784
  62   2.0000     -10.258906      -279.1590
  63   2.0000     -10.258787      -279.1558
  64   2.0000     -10.258392      -279.1450
  65   2.0000     -10.256804      -279.1018
  66   2.0000     -10.256597      -279.0962
  67   2.0000     -10.254748      -279.0459
  68   2.0000     -10.251104      -278.9467
  69   2.0000     -10.250753      -278.9372
  70   2.0000     -10.249433      -278.9013
  71   2.0000     -10.248081      -278.8645
  72   2.0000     -10.246451      -278.8201
  73   2.0000     -10.241790      -278.6933
  74   2.0000      -8.033828      -218.6116
  75   2.0000      -8.031018      -218.5351
  76   2.0000      -8.026812      -218.4206
  77   2.0000      -8.024327      -218.3530
  78   2.0000      -6.003444      -163.3620
  79   2.0000      -6.000452      -163.2806
  80   2.0000      -5.999187      -163.2462
  81   2.0000      -5.996639      -163.1768
  82   2.0000      -5.996429      -163.1711
  83   2.0000      -5.995408      -163.1433
  84   2.0000      -5.993832      -163.1005
  85   2.0000      -5.992533      -163.0651
  86   2.0000      -5.992213      -163.0564
  87   2.0000      -5.989963      -162.9952
  88   2.0000      -5.988368      -162.9518
  89   2.0000      -5.985683      -162.8787
  90   2.0000      -1.086955       -29.5776
  91   2.0000      -1.079508       -29.3749
  92   2.0000      -1.078982       -29.3606
  93   2.0000      -1.075802       -29.2741
  94   2.0000      -1.072146       -29.1746
  95   2.0000      -1.040061       -28.3015
  96   2.0000      -1.010864       -27.5070
  97   2.0000      -1.003877       -27.3169
  98   2.0000      -1.002054       -27.2673
  99   2.0000      -0.996668       -27.1207
 100   2.0000      -0.988683       -26.9034
 101   2.0000      -0.982714       -26.7410
 102   2.0000      -0.962698       -26.1963
 103   2.0000      -0.960522       -26.1371
 104   2.0000      -0.947492       -25.7826
 105   2.0000      -0.941697       -25.6249
 106   2.0000      -0.907152       -24.6849
 107   2.0000      -0.904155       -24.6033
 108   2.0000      -0.898998       -24.4630
 109   2.0000      -0.895098       -24.3569
 110   2.0000      -0.881460       -23.9857
 111   2.0000      -0.876403       -23.8481
 112   2.0000      -0.875691       -23.8288
 113   2.0000      -0.866096       -23.5677
 114   2.0000      -0.858627       -23.3644
 115   2.0000      -0.858157       -23.3516
 116   2.0000      -0.849065       -23.1042
 117   2.0000      -0.842724       -22.9317
 118   2.0000      -0.836601       -22.7651
 119   2.0000      -0.834904       -22.7189
 120   2.0000      -0.830041       -22.5866
 121   2.0000      -0.825307       -22.4577
 122   2.0000      -0.813840       -22.1457
 123   2.0000      -0.808610       -22.0034
 124   2.0000      -0.800144       -21.7730
 125   2.0000      -0.796778       -21.6814
 126   2.0000      -0.791250       -21.5310
 127   2.0000      -0.787460       -21.4279
 128   2.0000      -0.779866       -21.2212
 129   2.0000      -0.771398       -20.9908
 130   2.0000      -0.764021       -20.7901
 131   2.0000      -0.757900       -20.6235
 132   2.0000      -0.755829       -20.5671
 133   2.0000      -0.751896       -20.4601
 134   2.0000      -0.728953       -19.8358
 135   2.0000      -0.727230       -19.7889
 136   2.0000      -0.723610       -19.6904
 137   2.0000      -0.720223       -19.5983
 138   2.0000      -0.715924       -19.4813
 139   2.0000      -0.708300       -19.2738
 140   2.0000      -0.702950       -19.1282
 141   2.0000      -0.686222       -18.6730
 142   2.0000      -0.680902       -18.5283
 143   2.0000      -0.679763       -18.4973
 144   2.0000      -0.677581       -18.4379
 145   2.0000      -0.675999       -18.3949
 146   2.0000      -0.673831       -18.3359
 147   2.0000      -0.671958       -18.2849
 148   2.0000      -0.657310       -17.8863
 149   2.0000      -0.651057       -17.7162
 150   2.0000      -0.649530       -17.6746
 151   2.0000      -0.648898       -17.6574
 152   2.0000      -0.639907       -17.4127
 153   2.0000      -0.636747       -17.3268
 154   2.0000      -0.628750       -17.1092
 155   2.0000      -0.626673       -17.0526
 156   2.0000      -0.623439       -16.9646
 157   2.0000      -0.618934       -16.8420
 158   2.0000      -0.616908       -16.7869
 159   2.0000      -0.613434       -16.6924
 160   2.0000      -0.612451       -16.6656
 161   2.0000      -0.594396       -16.1743
 162   2.0000      -0.593328       -16.1453
 163   2.0000      -0.591583       -16.0978
 164   2.0000      -0.586739       -15.9660
 165   2.0000      -0.583276       -15.8718
 166   2.0000      -0.582336       -15.8462
 167   2.0000      -0.578594       -15.7443
 168   2.0000      -0.569133       -15.4869
 169   2.0000      -0.565894       -15.3988
 170   2.0000      -0.561895       -15.2899
 171   2.0000      -0.550654       -14.9840
 172   2.0000      -0.548459       -14.9243
 173   2.0000      -0.548309       -14.9202
 174   2.0000      -0.544162       -14.8074
 175   2.0000      -0.540611       -14.7108
 176   2.0000      -0.535064       -14.5598
 177   2.0000      -0.532027       -14.4772
 178   2.0000      -0.529847       -14.4179
 179   2.0000      -0.527188       -14.3455
 180   2.0000      -0.523074       -14.2336
 181   2.0000      -0.520501       -14.1636
 182   2.0000      -0.519555       -14.1378
 183   2.0000      -0.517028       -14.0690
 184   2.0000      -0.515142       -14.0177
 185   2.0000      -0.512964       -13.9585
 186   2.0000      -0.512461       -13.9448
 187   2.0000      -0.511218       -13.9109
 188   2.0000      -0.508878       -13.8473
 189   2.0000      -0.508389       -13.8340
 190   2.0000      -0.507659       -13.8141
 191   2.0000      -0.505795       -13.7634
 192   2.0000      -0.505371       -13.7518
 193   2.0000      -0.502841       -13.6830
 194   2.0000      -0.501060       -13.6345
 195   2.0000      -0.496577       -13.5125
 196   2.0000      -0.494440       -13.4544
 197   2.0000      -0.493008       -13.4154
 198   2.0000      -0.488110       -13.2821
 199   2.0000      -0.486851       -13.2479
 200   2.0000      -0.484872       -13.1940
 201   2.0000      -0.479886       -13.0584
 202   2.0000      -0.474793       -12.9198
 203   2.0000      -0.473260       -12.8781
 204   2.0000      -0.471991       -12.8435
 205   2.0000      -0.464575       -12.6417
 206   2.0000      -0.462948       -12.5974
 207   2.0000      -0.458618       -12.4796
 208   2.0000      -0.457321       -12.4443
 209   2.0000      -0.453339       -12.3360
 210   2.0000      -0.450263       -12.2523
 211   2.0000      -0.448425       -12.2023
 212   2.0000      -0.446600       -12.1526
 213   2.0000      -0.445665       -12.1272
 214   2.0000      -0.443330       -12.0636
 215   2.0000      -0.443127       -12.0581
 216   2.0000      -0.442603       -12.0438
 217   2.0000      -0.438844       -11.9416
 218   2.0000      -0.436487       -11.8774
 219   2.0000      -0.435487       -11.8502
 220   2.0000      -0.434860       -11.8331
 221   2.0000      -0.433980       -11.8092
 222   2.0000      -0.432314       -11.7639
 223   2.0000      -0.428478       -11.6595
 224   2.0000      -0.427596       -11.6355
 225   2.0000      -0.424578       -11.5534
 226   2.0000      -0.422822       -11.5056
 227   2.0000      -0.421430       -11.4677
 228   2.0000      -0.418131       -11.3779
 229   2.0000      -0.415450       -11.3050
 230   2.0000      -0.414720       -11.2851
 231   2.0000      -0.410027       -11.1574
 232   2.0000      -0.408802       -11.1241
 233   2.0000      -0.407927       -11.1003
 234   2.0000      -0.406879       -11.0717
 235   2.0000      -0.403617       -10.9830
 236   2.0000      -0.400969       -10.9109
 237   2.0000      -0.399436       -10.8692
 238   2.0000      -0.392294       -10.6749
 239   2.0000      -0.387355       -10.5405
 240   2.0000      -0.385009       -10.4766
 241   2.0000      -0.384030       -10.4500
 242   2.0000      -0.381609       -10.3841
 243   2.0000      -0.381396       -10.3783
 244   2.0000      -0.378536       -10.3005
 245   2.0000      -0.371834       -10.1181
 246   2.0000      -0.371530       -10.1099
 247   2.0000      -0.353289        -9.6135
 248   2.0000      -0.351101        -9.5540
 249   2.0000      -0.347475        -9.4553
 250   2.0000      -0.341016        -9.2795
 251   2.0000      -0.338083        -9.1997
 252   2.0000      -0.332983        -9.0609
 253   2.0000      -0.325178        -8.8485
 254   2.0000      -0.324449        -8.8287
 255   2.0000      -0.322321        -8.7708
 256   2.0000      -0.319475        -8.6934
 257   2.0000      -0.316969        -8.6252
 258   2.0000      -0.311196        -8.4681
 259   2.0000      -0.310483        -8.4487
 260   2.0000      -0.300083        -8.1657
 261   2.0000      -0.292832        -7.9684
 262   2.0000      -0.278352        -7.5743
 263   2.0000      -0.273599        -7.4450
 264   2.0000      -0.271425        -7.3858
 265   2.0000      -0.256662        -6.9841
 266   2.0000      -0.241592        -6.5740
 267   2.0000      -0.234253        -6.3743
 268   2.0000      -0.211993        -5.7686
 269   0.0000      -0.080634        -2.1942
 270   0.0000      -0.077077        -2.0974
 271   0.0000      -0.026535        -0.7221
 272   0.0000      -0.019683        -0.5356
 273   0.0000      -0.010853        -0.2953

MULLIKEN ATOMIC CHARGES
-----------------------
   0 C :    0.024863
   1 C :   -0.082374
   2 C :    0.032809
   3 C :   -0.047245
   4 N :   -0.021245
   5 C :    0.028763
   6 C :    0.028267
   7 N :    0.029217
   8 C :   -0.031499
   9 C :   -0.118441
  10 C :    0.030910
  11 C :   -0.083076
  12 C :    0.019933
  13 C :    0.036508
  14 C :    0.074437
  15 C :   -0.177875
  16 C :    0.108287
  17 N :   -0.023447
  18 C :   -0.069932
  19 C :    0.014640
  20 C :   -0.044933
  21 C :   -0.002204
  22 C :   -0.092326
  23 C :    0.115837
  24 C :   -0.055793
  25 N :   -0.015498
  26 C :    0.023098
  27 C :    0.020049
  28 N :   -0.017652
  29 C :    0.034041
  30 C :   -0.079803
  31 C :    0.035523
  32 N :   -0.021984
  33 C :    0.027996
  34 C :    0.035155
  35 N :   -0.025080
  36 C :   -0.045915
  37 S :    0.088788
  38 C :   -0.119410
  39 C :   -0.106010
  40 C :    0.034387
  41 C :    0.036985
  42 C :    0.084013
  43 C :    0.000398
  44 C :   -0.050045
  45 S :    0.085570
  46 C :   -0.138662
  47 C :   -0.145464
  48 C :    0.037486
  49 C :    0.048109
  50 C :    0.156326
  51 C :   -0.126082
  52 C :    0.092320
  53 N :   -0.041114
  54 S :    0.078444
  55 C :   -0.125666
  56 C :   -0.103639
  57 C :    0.034587
  58 C :    0.038501
  59 C :    0.087736
  60 C :   -0.006268
  61 C :   -0.047127
  62 S :    0.074243
  63 C :   -0.150739
  64 C :   -0.154702
  65 C :    0.062417
  66 C :    0.039646
  67 C :    0.173698
  68 C :   -0.040802
  69 N :    0.021866
  70 C :    0.027287
  71 C :    0.003472
  72 N :   -0.010051
  73 C :   -0.050834
  74 H :    0.017586
  75 H :    0.025684
  76 H :    0.004677
  77 H :    0.014224
  78 H :    0.019473
  79 H :   -0.030379
  80 H :   -0.039321
  81 H :   -0.038798
  82 H :    0.123565
  83 H :    0.051474
  84 H :   -0.006501
  85 H :    0.011230
  86 H :    0.014083
  87 H :   -0.039903
  88 H :   -0.011233
  89 H :    0.022902
  90 H :    0.005891
  91 H :    0.010470
  92 H :    0.010184
  93 H :    0.014803
  94 H :    0.014049
  95 H :   -0.020746
  96 H :    0.022143
  97 H :    0.007078
  98 H :    0.029178
  99 H :    0.011377
 100 H :    0.019587
 101 H :   -0.021687
 102 H :   -0.042994
 103 H :    0.122609
 104 H :    0.008356
 105 H :    0.003479
 106 H :    0.011755
 107 H :    0.011994
 108 H :    0.010647
 109 H :   -0.022838
 110 H :    0.019062
 111 H :    0.002342
 112 H :   -0.000501
 113 H :    0.007859
 114 H :    0.014914
 115 H :    0.007510
 116 H :    0.024103
 117 H :    0.026940
Sum of atomic charges:   -0.0000000

LOEWDIN ATOMIC CHARGES
----------------------
   0 C :   -0.016942
   1 C :   -0.034839
   2 C :   -0.017641
   3 C :   -0.012167
   4 N :   -0.025669
   5 C :    0.010440
   6 C :    0.009997
   7 N :   -0.020962
   8 C :   -0.016984
   9 C :   -0.014072
  10 C :   -0.047523
  11 C :   -0.138795
  12 C :   -0.054996
  13 C :   -0.028302
  14 C :   -0.019408
  15 C :   -0.095204
  16 C :   -0.035699
  17 N :    0.073896
  18 C :   -0.002469
  19 C :   -0.063044
  20 C :   -0.146298
  21 C :   -0.016691
  22 C :   -0.034605
  23 C :   -0.005905
  24 C :   -0.011589
  25 N :   -0.030925
  26 C :    0.003417
  27 C :    0.004990
  28 N :   -0.037230
  29 C :   -0.013850
  30 C :   -0.011764
  31 C :   -0.011414
  32 N :   -0.037058
  33 C :    0.001283
  34 C :    0.012919
  35 N :   -0.019962
  36 C :   -0.010189
  37 S :    0.394732
  38 C :   -0.149143
  39 C :   -0.041280
  40 C :   -0.032395
  41 C :   -0.048610
  42 C :   -0.046687
  43 C :   -0.066131
  44 C :   -0.163305
  45 S :    0.392117
  46 C :   -0.155183
  47 C :   -0.033381
  48 C :   -0.035872
  49 C :   -0.049265
  50 C :   -0.044851
  51 C :   -0.098990
  52 C :   -0.032849
  53 N :    0.069218
  54 S :    0.390063
  55 C :   -0.151267
  56 C :   -0.041184
  57 C :   -0.032250
  58 C :   -0.049100
  59 C :   -0.051286
  60 C :   -0.066584
  61 C :   -0.166820
  62 S :    0.383107
  63 C :   -0.153395
  64 C :   -0.035049
  65 C :   -0.034530
  66 C :   -0.053138
  67 C :   -0.029095
  68 C :   -0.013012
  69 N :   -0.019190
  70 C :    0.003274
  71 C :    0.004967
  72 N :   -0.031410
  73 C :   -0.013159
  74 H :    0.022544
  75 H :    0.018473
  76 H :    0.030946
  77 H :    0.026853
  78 H :    0.029357
  79 H :    0.025052
  80 H :    0.026761
  81 H :    0.021550
  82 H :    0.085848
  83 H :    0.034415
  84 H :    0.022471
  85 H :    0.025879
  86 H :    0.026469
  87 H :    0.039807
  88 H :    0.020248
  89 H :    0.031261
  90 H :    0.027003
  91 H :    0.021483
  92 H :    0.023118
  93 H :    0.023120
  94 H :    0.024741
  95 H :    0.027617
  96 H :    0.023318
  97 H :    0.023433
  98 H :    0.035890
  99 H :    0.017804
 100 H :    0.026002
 101 H :    0.011821
 102 H :    0.024374
 103 H :    0.087558
 104 H :    0.020604
 105 H :    0.026392
 106 H :    0.023804
 107 H :    0.022100
 108 H :    0.023142
 109 H :    0.026635
 110 H :    0.021754
 111 H :    0.018441
 112 H :    0.026277
 113 H :    0.020877
 114 H :    0.021277
 115 H :    0.022660
 116 H :    0.027877
 117 H :    0.029134

  Mayer bond orders larger than 0.100000
B(  0-C ,  1-C ) :   1.9089 B(  0-C , 74-H ) :   0.9447 B(  0-C , 75-H ) :   0.9345
B(  1-C ,  2-C ) :   1.1465 B(  1-C , 76-H ) :   0.9468 B(  2-C ,  3-C ) :   1.2367
B(  2-C ,  9-C ) :   0.1570 B(  2-C , 73-C ) :   1.2527 B(  3-C ,  4-N ) :   1.4380
B(  3-C ,  8-C ) :   1.1499 B(  4-N ,  5-C ) :   1.6984 B(  5-C ,  6-C ) :   1.1729
B(  5-C , 77-H ) :   0.9726 B(  6-C ,  7-N ) :   1.7024 B(  6-C , 78-H ) :   0.9744
B(  7-N ,  8-C ) :   1.4864 B(  8-C ,  9-C ) :   1.3543 B(  9-C , 10-C ) :   0.9206
B(  9-C , 68-C ) :   1.3519 B( 10-C , 11-C ) :   1.6209 B( 10-C , 67-C ) :   1.1994
B( 11-C , 12-C ) :   1.1085 B( 11-C , 54-S ) :   1.0510 B( 12-C , 13-C ) :   1.7065
B( 12-C , 79-H ) :   0.9456 B( 13-C , 14-C ) :   1.1023 B( 13-C , 80-H ) :   0.9490
B( 14-C , 15-C ) :   1.4217 B( 14-C , 53-N ) :   1.1691 B( 15-C , 16-C ) :   1.2414
B( 15-C , 81-H ) :   1.0300 B( 16-C , 17-N ) :   1.1416 B( 16-C , 52-C ) :   1.3538
B( 17-N , 18-C ) :   1.2360 B( 17-N , 82-H ) :   0.9311 B( 18-C , 19-C ) :   0.9128
B( 18-C , 51-C ) :   1.4874 B( 19-C , 20-C ) :   1.5719 B( 19-C , 50-C ) :   1.1812
B( 20-C , 21-C ) :   1.1507 B( 20-C , 37-S ) :   1.0436 B( 21-C , 22-C ) :   1.5874
B( 21-C , 83-H ) :   0.9376 B( 22-C , 23-C ) :   1.1705 B( 22-C , 84-H ) :   0.9677
B( 23-C , 24-C ) :   1.2433 B( 23-C , 30-C ) :   0.1399 B( 23-C , 36-C ) :   1.2286
B( 24-C , 25-N ) :   1.4527 B( 24-C , 29-C ) :   1.1730 B( 25-N , 26-C ) :   1.7046
B( 26-C , 27-C ) :   1.1777 B( 26-C , 85-H ) :   0.9740 B( 27-C , 28-N ) :   1.7229
B( 27-C , 86-H ) :   0.9736 B( 28-N , 29-C ) :   1.3723 B( 29-C , 30-C ) :   1.2457
B( 30-C , 31-C ) :   1.2422 B( 30-C , 87-H ) :   1.0528 B( 31-C , 32-N ) :   1.3708
B( 31-C , 36-C ) :   1.1762 B( 32-N , 33-C ) :   1.7156 B( 33-C , 34-C ) :   1.1850
B( 33-C , 88-H ) :   0.9695 B( 34-C , 35-N ) :   1.6771 B( 34-C , 89-H ) :   0.9732
B( 35-N , 36-C ) :   1.4344 B( 35-N , 83-H ) :   0.1055 B( 37-S , 38-C ) :   1.0413
B( 38-C , 39-C ) :   1.4524 B( 38-C , 50-C ) :   1.2569 B( 39-C , 40-C ) :   1.0725
B( 39-C , 42-C ) :   1.3435 B( 40-C , 41-C ) :   1.1077 B( 40-C , 90-H ) :   0.9181
B( 40-C , 91-H ) :   0.9209 B( 41-C , 92-H ) :   0.9694 B( 41-C , 93-H ) :   0.9677
B( 41-C , 94-H ) :   0.9650 B( 42-C , 43-C ) :   1.1741 B( 42-C , 46-C ) :   1.2921
B( 43-C , 44-C ) :   1.6443 B( 43-C , 95-H ) :   0.9891 B( 44-C , 45-S ) :   1.1108
B( 44-C , 96-H ) :   0.9673 B( 45-S , 46-C ) :   1.0508 B( 46-C , 47-C ) :   1.4309
B( 47-C , 48-C ) :   1.0773 B( 47-C , 50-C ) :   1.3462 B( 48-C , 49-C ) :   1.1122
B( 48-C , 97-H ) :   0.9138 B( 48-C , 98-H ) :   0.9080 B( 49-C , 99-H ) :   0.9642
B( 49-C ,100-H ) :   0.9672 B( 49-C ,101-H ) :   0.9588 B( 51-C , 52-C ) :   1.2039
B( 51-C ,102-H ) :   1.0501 B( 52-C , 53-N ) :   1.1662 B( 53-N ,103-H ) :   0.9329
B( 54-S , 55-C ) :   1.0423 B( 55-C , 56-C ) :   1.4429 B( 55-C , 67-C ) :   1.2702
B( 56-C , 57-C ) :   1.0715 B( 56-C , 59-C ) :   1.3486 B( 57-C , 58-C ) :   1.1078
B( 57-C ,104-H ) :   0.9214 B( 57-C ,105-H ) :   0.9179 B( 58-C ,106-H ) :   0.9651
B( 58-C ,107-H ) :   0.9678 B( 58-C ,108-H ) :   0.9689 B( 59-C , 60-C ) :   1.1662
B( 59-C , 63-C ) :   1.2913 B( 60-C , 61-C ) :   1.6506 B( 60-C ,109-H ) :   0.9896
B( 61-C , 62-S ) :   1.1044 B( 61-C ,110-H ) :   0.9670 B( 62-S , 63-C ) :   1.0460
B( 63-C , 64-C ) :   1.4409 B( 64-C , 65-C ) :   1.0820 B( 64-C , 67-C ) :   1.3421
B( 65-C , 66-C ) :   1.1177 B( 65-C ,111-H ) :   0.9108 B( 65-C ,112-H ) :   0.9031
B( 66-C ,113-H ) :   0.9652 B( 66-C ,114-H ) :   0.9567 B( 66-C ,115-H ) :   0.9594
B( 68-C , 69-N ) :   1.4382 B( 68-C , 73-C ) :   1.1471 B( 69-N , 70-C ) :   1.6920
B( 70-C , 71-C ) :   1.1580 B( 70-C ,116-H ) :   0.9703 B( 71-C , 72-N ) :   1.7157
B( 71-C ,117-H ) :   0.9734 B( 72-N , 73-C ) :   1.4518

-----------------------------------------------------------------------------
         ABSORPTION SPECTRUM VIA TRANSITION ELECTRIC DIPOLE MOMENTS
-----------------------------------------------------------------------------
State   Energy  Wavelength   fosc         T2         TX        TY        TZ
        (cm-1)    (nm)                  (au**2)     (au)      (au)      (au)
-----------------------------------------------------------------------------
   0   11207.4    892.3   0.004214234   0.12379   0.22983   0.19595  -0.18048
   1   14861.8    672.9   0.060473094   1.33957  -0.18672   0.02871  -1.14188
   2   18618.9    537.1   0.006011049   0.10628   0.15276   0.00110  -0.28801
   3   18839.5    530.8   0.435381440   7.60809  -0.83424   1.73206  -1.97790
   4   23190.9    431.2   0.002566847   0.03644   0.02352   0.06960  -0.17619
   5   23747.6    421.1   0.223090833   3.09269   0.80746   1.56105   0.06181
   6   24297.2    411.6   0.012336393   0.16715   0.10199  -0.39577  -0.01068
   7   24872.1    402.1   0.882715488  11.68381   1.07740  -2.95627  -1.33547
   8   25010.9    399.8   0.409049478   5.38422  -0.86717   1.89438   1.02156
   9   25289.1    395.4   0.050473329   0.65706  -0.03481   0.79892   0.13258
  10   25620.6    390.3   0.045622712   0.58623   0.35461  -0.65467  -0.17858
  11   25806.8    387.5   0.047473322   0.60561  -0.51680   0.34594   0.46781
  12   26338.9    379.7   0.007563353   0.09454  -0.08003   0.08949  -0.28306
  13   26940.2    371.2   0.013413149   0.16391   0.18296  -0.31893   0.16946
  14   26962.7    370.9   0.009882588   0.12067  -0.00690   0.33611   0.08746
  15   27048.2    369.7   0.104301792   1.26949  -0.28221   1.08005   0.15273
  16   27270.7    366.7   0.001820950   0.02198   0.14259   0.03681   0.01719
  17   27604.4    362.3   0.207664790   2.47662   0.50838  -1.46745  -0.25449
  18   27707.6    360.9   0.052351953   0.62203  -0.21078   0.74183   0.16519
  19   29053.3    344.2   0.001037284   0.01175   0.00945  -0.10725  -0.01274
  20   30169.2    331.5   0.098950637   1.07977  -0.81506  -0.22774   0.60298
  21   30580.9    327.0   0.177674866   1.91272  -0.27668   0.57293  -1.22798
  22   30672.5    326.0   0.008160730   0.08759   0.20990  -0.07600  -0.19431
  23   30927.9    323.3   0.072017811   0.76659   0.41215  -0.61082   0.47289
  24   31218.2    320.3   0.627711385   6.61954  -0.71272   1.96635  -1.49834
  25   31737.3    315.1   0.199091419   2.06518  -0.69732   0.21230  -1.23849
  26   31814.3    314.3   0.012435270   0.12868   0.08644  -0.31781   0.14214
  27   32170.7    310.8   0.040787555   0.41739   0.11081  -0.53102  -0.35090
  28   32440.3    308.3   0.021483676   0.21802  -0.02600  -0.08120  -0.45908
  29   32779.3    305.1   0.015937558   0.16007  -0.05764   0.37789   0.11809
  30   33230.5    300.9   0.039912255   0.39541   0.02685  -0.00565   0.62822
  31   33692.1    296.8   0.048898999   0.47780   0.48596  -0.36978  -0.32389
  32   33931.4    294.7   0.096758454   0.93878   0.18979  -0.93207  -0.18442
  33   34008.5    294.0   0.047739535   0.46213  -0.28513   0.56498  -0.24826
  34   34477.3    290.0   0.008491504   0.08108  -0.00261   0.06281   0.27772
  35   34671.1    288.4   0.003666116   0.03481  -0.06844  -0.12306  -0.12240
  36   34930.3    286.3   0.016467058   0.15520   0.13306  -0.22554  -0.29432
  37   36107.6    277.0   0.029848367   0.27214   0.07134  -0.13835  -0.49791
  38   36140.2    276.7   0.027660479   0.25197   0.13954   0.23210   0.42264
  39   36311.5    275.4   0.000150639   0.00137  -0.01451  -0.02434  -0.02372
  40   36569.2    273.5   0.181912499   1.63765   0.81211  -0.54432  -0.82574
  41   36897.9    271.0   0.002540066   0.02266   0.07653   0.06016   0.11483
  42   37361.1    267.7   0.018502831   0.16304  -0.20121  -0.09972   0.33557
  43   37454.6    267.0   0.212957219   1.87181   0.24154   0.38632   1.29005
  44   37534.3    266.4   0.505276922   4.43176   0.09834   0.93587   1.88314
  45   37906.7    263.8   0.049107671   0.42649  -0.33398   0.40409   0.38943
  46   38415.9    260.3   0.061712322   0.52886  -0.17534   0.21477   0.67230
  47   38670.5    258.6   0.025551508   0.21753  -0.01741  -0.28287  -0.37042
  48   38710.0    258.3   0.014118724   0.12007  -0.19005   0.21884   0.18990
  49   38973.2    256.6   0.005063513   0.04277  -0.02774   0.19965   0.04630
  50   39067.6    256.0   0.004515834   0.03805   0.12719   0.07928  -0.12487
  51   39182.1    255.2   0.012100386   0.10167   0.16091   0.23023  -0.15090
  52   39384.0    253.9   0.031372986   0.26225  -0.42742   0.28196  -0.00788
  53   39460.4    253.4   0.012130051   0.10120   0.17299  -0.20303  -0.17336
  54   39720.6    251.8   0.000570559   0.00473  -0.00705  -0.03044  -0.06126
  55   40158.3    249.0   0.035469074   0.29077  -0.29509   0.38646   0.23310

FINAL SINGLE POINT ENERGY     -4449.036454687126

DIPOLE MOMENT
-------------
                                X             Y             Z
Electronic contribution:     -1.99950      -5.43564      13.77534
Nuclear contribution   :      1.59604       6.13516     -13.84088
                        -----------------------------------------
Total Dipole Moment    :     -0.40345       0.69952      -0.06553
                        -----------------------------------------
Magnitude (a.u.)       :      0.81018
Magnitude (Debye)      :      2.05932

Rotational constants in cm-1:     0.001273     0.000414     0.000357
Rotational constants in MHz :    38.174782    12.413119    10.705294

                             ****ORCA TERMINATED NORMALLY****
TOTAL RUN TIME: 0 days 0 hours 13 minutes 9 seconds 783 msec
