                         Program Version 4.2.0 -  RELEASE  -
|  1> # ORCA input file
|  2> # SCF done       -182.079007079199          0.000543495526
|  3> ! CAM-B3LYP def2-SVP def2/J RIJCOSX Grid4 TightSCF
|  4> %maxcore 5000
|  5> %tddft
|  6>     Mode sTDDFT
|  7>     Ethresh 5.0
|  8>     maxcore 5000
|  9> end
| 10>
| 11> %pal
| 12>   nprocs 6
| 13>   end
| 14> * xyz 0 1
| 15>    N        2.84880         1.72078        -2.75886
| 16>    C        4.07893         0.93969        -2.85697
| 17>    C        4.27214         0.41162        -4.27087
| 18>    C        5.59739        -0.34337        -4.38999
| 19>    N        5.61993        -1.07784        -5.64784
| 20>    S        5.37095        -2.73979        -5.27558
| 21>    N        6.16155        -2.65460        -3.76338
| 22>    C        5.78669        -1.36515        -3.20881
| 23>    C        4.48852        -1.54882        -2.42690
| 24>    C        4.01710        -0.22997        -1.82831
| 25>    N        2.61260        -0.29240        -1.44563
| 26>    S        2.14951         1.38167        -1.24506
| 27>    C        2.23268        -1.24930        -0.48560
| 28>    C        2.39232        -0.99333         0.87481
| 29>    C        2.07197        -1.98720         1.77476
| 30>    C        1.62176        -3.23468         1.32857
| 31>    C        1.38745        -4.08838         2.51767
| 32>    O        1.00157        -5.22897         2.58091
| 33>    N        1.70298        -3.29285         3.60785
| 34>    C        2.13169        -2.01890         3.25073
| 35>    O        2.46524        -1.16198         4.03045
| 36>    C        1.63553        -3.75349         4.97771
| 37>    C        2.93978        -4.41860         5.40358
| 38>    C        1.44805        -3.49346        -0.00941
| 39>    C        1.71626        -2.48146        -0.94473
| 40>    C        1.44973        -2.74349        -2.34481
| 41>    C        1.00978        -1.81839        -3.22379
| 42>    C        0.76069        -2.01514        -4.60957
| 43>    N        1.10041        -3.16031        -5.30283
| 44>    C        0.73692        -2.99985        -6.60189
| 45>    C        0.73075        -3.61502        -7.85421
| 46>    C        0.12472        -2.71087        -8.72673
| 47>    N       -0.22575        -1.57192        -8.03291
| 48>    C        0.14164        -1.72347        -6.73286
| 49>    C        0.16559        -1.10322        -5.48529
| 50>    C       -0.10732        -2.80660       -10.13386
| 51>    C        0.31206        -3.82437       -10.90412
| 52>    C        0.14072        -3.90122       -12.34694
| 53>    C       -1.08955        -3.54612       -12.90582
| 54>    C       -1.26829        -3.66759       -14.26585
| 55>    C       -0.23091        -4.14086       -15.08108
| 56>    C       -0.73143        -4.19394       -16.47255
| 57>    O       -0.17084        -4.54834       -17.48082
| 58>    N       -2.04343        -3.74970       -16.40808
| 59>    C       -2.44129        -3.40653       -15.11943
| 60>    O       -3.53779        -2.99455       -14.82730
| 61>    C       -2.89907        -3.62081       -17.56667
| 62>    C       -2.75357        -2.24780       -18.21378
| 63>    C        0.99557        -4.46818       -14.55962
| 64>    C        1.21021        -4.33545       -13.17702
| 65>    C        2.49905        -4.56266       -12.58216
| 66>    C        3.66661        -4.77848       -13.22309
| 67>    N        4.84811        -5.00814       -12.59777
| 68>    C        5.04503        -4.96792       -11.16393
| 69>    C        5.03837        -3.53636       -10.62910
| 70>    C        5.29326        -3.51279        -9.12418
| 71>    N        5.51374        -2.13758        -8.70623
| 72>    S        7.20512        -1.93992        -8.47965
| 73>    N        7.44681        -3.55459        -7.94062
| 74>    C        6.56332        -4.36711        -8.75639
| 75>    C        7.31367        -4.80707       -10.01303
| 76>    C        6.42047        -5.66004       -10.91149
| 77>    N        7.08022        -5.89182       -12.19459
| 78>    S        6.40079        -4.83520       -13.33251
| 79>    H        2.20542         1.46674        -3.50385
| 80>    H        4.90999         1.60605        -2.59412
| 81>    H        4.27165         1.24006        -4.98035
| 82>    H        3.45104        -0.25815        -4.53505
| 83>    H        6.42097         0.37855        -4.38459
| 84>    H        6.48447        -0.94415        -6.16650
| 85>    H        7.16683        -2.76138        -3.86623
| 86>    H        6.57709        -1.02400        -2.53359
| 87>    H        4.65434        -2.28055        -1.63474
| 88>    H        3.72675        -1.95099        -3.09395
| 89>    H        4.65298         0.01888        -0.96148
| 90>    H        2.75865        -0.03323         1.20714
| 91>    H        0.80770        -4.46369         5.04474
| 92>    H        1.43050        -2.88171         5.60376
| 93>    H        3.14624        -5.27815         4.76997
| 94>    H        2.86300        -4.75344         6.43411
| 95>    H        3.76393        -3.71325         5.32462
| 96>    H        1.07670        -4.45235        -0.33844
| 97>    H        1.55929        -3.77678        -2.64913
| 98>    H        0.79916        -0.82215        -2.86539
| 99>    H        1.56758        -3.95474        -4.90374
|100>    H        1.09813        -4.58882        -8.10786
|101>    H       -0.68111        -0.77426        -8.44167
|102>    H       -0.20503        -0.13393        -5.21649
|103>    H       -0.60628        -1.96206       -10.59242
|104>    H        0.83009        -4.64678       -10.43161
|105>    H       -1.89856        -3.21357       -12.27360
|106>    H       -3.92762        -3.77624       -17.23157
|107>    H       -2.61451        -4.40509       -18.27269
|108>    H       -3.02938        -1.46916       -17.50625
|109>    H       -3.40253        -2.17855       -19.08231
|110>    H       -1.72501        -2.09076       -18.53065
|111>    H        1.77800        -4.82395       -15.21013
|112>    H        2.52503        -4.50360       -11.50765
|113>    H        3.74630        -4.80027       -14.29953
|114>    H        4.24592        -5.54852       -10.69064
|115>    H        4.07844        -3.06198       -10.83417
|116>    H        5.80510        -2.94944       -11.13555
|117>    H        4.41613        -3.90697        -8.59941
|118>    H        5.00553        -1.89528        -7.86116
|119>    H        7.21752        -3.63683        -6.95295
|120>    H        6.26885        -5.25193        -8.18301
|121>    H        8.18970        -5.38534        -9.72027
|122>    H        7.66850        -3.93228       -10.55643
|123>    H        6.25899        -6.62954       -10.42873
|124>    H        7.00471        -6.85637       -12.49927
|125> *
|126>
|127>                          ****END OF INPUT****

CARTESIAN COORDINATES (ANGSTROEM)
---------------------------------
  N      2.848800    1.720780   -2.758860
  C      4.078930    0.939690   -2.856970
  C      4.272140    0.411620   -4.270870
  C      5.597390   -0.343370   -4.389990
  N      5.619930   -1.077840   -5.647840
  S      5.370950   -2.739790   -5.275580
  N      6.161550   -2.654600   -3.763380
  C      5.786690   -1.365150   -3.208810
  C      4.488520   -1.548820   -2.426900
  C      4.017100   -0.229970   -1.828310
  N      2.612600   -0.292400   -1.445630
  S      2.149510    1.381670   -1.245060
  C      2.232680   -1.249300   -0.485600
  C      2.392320   -0.993330    0.874810
  C      2.071970   -1.987200    1.774760
  C      1.621760   -3.234680    1.328570
  C      1.387450   -4.088380    2.517670
  O      1.001570   -5.228970    2.580910
  N      1.702980   -3.292850    3.607850
  C      2.131690   -2.018900    3.250730
  O      2.465240   -1.161980    4.030450
  C      1.635530   -3.753490    4.977710
  C      2.939780   -4.418600    5.403580
  C      1.448050   -3.493460   -0.009410
  C      1.716260   -2.481460   -0.944730
  C      1.449730   -2.743490   -2.344810
  C      1.009780   -1.818390   -3.223790
  C      0.760690   -2.015140   -4.609570
  N      1.100410   -3.160310   -5.302830
  C      0.736920   -2.999850   -6.601890
  C      0.730750   -3.615020   -7.854210
  C      0.124720   -2.710870   -8.726730
  N     -0.225750   -1.571920   -8.032910
  C      0.141640   -1.723470   -6.732860
  C      0.165590   -1.103220   -5.485290
  C     -0.107320   -2.806600  -10.133860
  C      0.312060   -3.824370  -10.904120
  C      0.140720   -3.901220  -12.346940
  C     -1.089550   -3.546120  -12.905820
  C     -1.268290   -3.667590  -14.265850
  C     -0.230910   -4.140860  -15.081080
  C     -0.731430   -4.193940  -16.472550
  O     -0.170840   -4.548340  -17.480820
  N     -2.043430   -3.749700  -16.408080
  C     -2.441290   -3.406530  -15.119430
  O     -3.537790   -2.994550  -14.827300
  C     -2.899070   -3.620810  -17.566670
  C     -2.753570   -2.247800  -18.213780
  C      0.995570   -4.468180  -14.559620
  C      1.210210   -4.335450  -13.177020
  C      2.499050   -4.562660  -12.582160
  C      3.666610   -4.778480  -13.223090
  N      4.848110   -5.008140  -12.597770
  C      5.045030   -4.967920  -11.163930
  C      5.038370   -3.536360  -10.629100
  C      5.293260   -3.512790   -9.124180
  N      5.513740   -2.137580   -8.706230
  S      7.205120   -1.939920   -8.479650
  N      7.446810   -3.554590   -7.940620
  C      6.563320   -4.367110   -8.756390
  C      7.313670   -4.807070  -10.013030
  C      6.420470   -5.660040  -10.911490
  N      7.080220   -5.891820  -12.194590
  S      6.400790   -4.835200  -13.332510
  H      2.205420    1.466740   -3.503850
  H      4.909990    1.606050   -2.594120
  H      4.271650    1.240060   -4.980350
  H      3.451040   -0.258150   -4.535050
  H      6.420970    0.378550   -4.384590
  H      6.484470   -0.944150   -6.166500
  H      7.166830   -2.761380   -3.866230
  H      6.577090   -1.024000   -2.533590
  H      4.654340   -2.280550   -1.634740
  H      3.726750   -1.950990   -3.093950
  H      4.652980    0.018880   -0.961480
  H      2.758650   -0.033230    1.207140
  H      0.807700   -4.463690    5.044740
  H      1.430500   -2.881710    5.603760
  H      3.146240   -5.278150    4.769970
  H      2.863000   -4.753440    6.434110
  H      3.763930   -3.713250    5.324620
  H      1.076700   -4.452350   -0.338440
  H      1.559290   -3.776780   -2.649130
  H      0.799160   -0.822150   -2.865390
  H      1.567580   -3.954740   -4.903740
  H      1.098130   -4.588820   -8.107860
  H     -0.681110   -0.774260   -8.441670
  H     -0.205030   -0.133930   -5.216490
  H     -0.606280   -1.962060  -10.592420
  H      0.830090   -4.646780  -10.431610
  H     -1.898560   -3.213570  -12.273600
  H     -3.927620   -3.776240  -17.231570
  H     -2.614510   -4.405090  -18.272690
  H     -3.029380   -1.469160  -17.506250
  H     -3.402530   -2.178550  -19.082310
  H     -1.725010   -2.090760  -18.530650
  H      1.778000   -4.823950  -15.210130
  H      2.525030   -4.503600  -11.507650
  H      3.746300   -4.800270  -14.299530
  H      4.245920   -5.548520  -10.690640
  H      4.078440   -3.061980  -10.834170
  H      5.805100   -2.949440  -11.135550
  H      4.416130   -3.906970   -8.599410
  H      5.005530   -1.895280   -7.861160
  H      7.217520   -3.636830   -6.952950
  H      6.268850   -5.251930   -8.183010
  H      8.189700   -5.385340   -9.720270
  H      7.668500   -3.932280  -10.556430
  H      6.258990   -6.629540  -10.428730
  H      7.004710   -6.856370  -12.499270

 Total Charge           Charge          ....    0
 Multiplicity           Mult            ....    1
 Number of Electrons    NEL             ....  490
 Basis Dimension        Dim             .... 1142

ORBITAL ENERGIES
----------------

  NO   OCC          E(Eh)            E(eV)
   0   2.0000     -88.975722     -2421.1525
   1   2.0000     -88.975278     -2421.1404
   2   2.0000     -88.960702     -2420.7438
   3   2.0000     -88.959106     -2420.7003
   4   2.0000     -19.203305      -522.5485
   5   2.0000     -19.202970      -522.5394
   6   2.0000     -19.194817      -522.3175
   7   2.0000     -19.193275      -522.2756
   8   2.0000     -14.456397      -393.3786
   9   2.0000     -14.453854      -393.3094
  10   2.0000     -14.449940      -393.2029
  11   2.0000     -14.443955      -393.0400
  12   2.0000     -14.435255      -392.8033
  13   2.0000     -14.431815      -392.7097
  14   2.0000     -14.429019      -392.6336
  15   2.0000     -14.426443      -392.5635
  16   2.0000     -14.420225      -392.3943
  17   2.0000     -14.420064      -392.3899
  18   2.0000     -14.413637      -392.2150
  19   2.0000     -14.410894      -392.1404
  20   2.0000     -10.382968      -282.5349
  21   2.0000     -10.382742      -282.5288
  22   2.0000     -10.374073      -282.2929
  23   2.0000     -10.373014      -282.2641
  24   2.0000     -10.319311      -280.8027
  25   2.0000     -10.319300      -280.8024
  26   2.0000     -10.316065      -280.7144
  27   2.0000     -10.315830      -280.7080
  28   2.0000     -10.314862      -280.6817
  29   2.0000     -10.314531      -280.6727
  30   2.0000     -10.305339      -280.4225
  31   2.0000     -10.305134      -280.4170
  32   2.0000     -10.304632      -280.4033
  33   2.0000     -10.304017      -280.3866
  34   2.0000     -10.303633      -280.3761
  35   2.0000     -10.300081      -280.2794
  36   2.0000     -10.299323      -280.2588
  37   2.0000     -10.294394      -280.1247
  38   2.0000     -10.292635      -280.0768
  39   2.0000     -10.290617      -280.0219
  40   2.0000     -10.288531      -279.9652
  41   2.0000     -10.287502      -279.9372
  42   2.0000     -10.287457      -279.9359
  43   2.0000     -10.287354      -279.9331
  44   2.0000     -10.285839      -279.8919
  45   2.0000     -10.284825      -279.8643
  46   2.0000     -10.280537      -279.7476
  47   2.0000     -10.280325      -279.7419
  48   2.0000     -10.278666      -279.6967
  49   2.0000     -10.277607      -279.6679
  50   2.0000     -10.275532      -279.6114
  51   2.0000     -10.274885      -279.5938
  52   2.0000     -10.272535      -279.5299
  53   2.0000     -10.270994      -279.4879
  54   2.0000     -10.270095      -279.4635
  55   2.0000     -10.269993      -279.4607
  56   2.0000     -10.265064      -279.3266
  57   2.0000     -10.263720      -279.2900
  58   2.0000     -10.260596      -279.2050
  59   2.0000     -10.260565      -279.2042
  60   2.0000     -10.259668      -279.1798
  61   2.0000     -10.253938      -279.0238
  62   2.0000     -10.253339      -279.0075
  63   2.0000     -10.248122      -278.8656
  64   2.0000      -8.066968      -219.5134
  65   2.0000      -8.066431      -219.4987
  66   2.0000      -8.051574      -219.0945
  67   2.0000      -8.050415      -219.0629
  68   2.0000      -6.039832      -164.3522
  69   2.0000      -6.039326      -164.3384
  70   2.0000      -6.034264      -164.2007
  71   2.0000      -6.033062      -164.1680
  72   2.0000      -6.024136      -163.9251
  73   2.0000      -6.023980      -163.9208
  74   2.0000      -6.023730      -163.9140
  75   2.0000      -6.023416      -163.9055
  76   2.0000      -6.019056      -163.7869
  77   2.0000      -6.017062      -163.7326
  78   2.0000      -6.008597      -163.5022
  79   2.0000      -6.007804      -163.4806
  80   2.0000      -1.148801       -31.2605
  81   2.0000      -1.139381       -31.0041
  82   2.0000      -1.125156       -30.6170
  83   2.0000      -1.115533       -30.3552
  84   2.0000      -1.086594       -29.5677
  85   2.0000      -1.084843       -29.5201
  86   2.0000      -1.072864       -29.1941
  87   2.0000      -1.066403       -29.0183
  88   2.0000      -1.054605       -28.6973
  89   2.0000      -1.050281       -28.5796
  90   2.0000      -1.039613       -28.2893
  91   2.0000      -1.030237       -28.0342
  92   2.0000      -0.997211       -27.1355
  93   2.0000      -0.994142       -27.0520
  94   2.0000      -0.967870       -26.3371
  95   2.0000      -0.962083       -26.1796
  96   2.0000      -0.952829       -25.9278
  97   2.0000      -0.952270       -25.9126
  98   2.0000      -0.916408       -24.9367
  99   2.0000      -0.913819       -24.8663
 100   2.0000      -0.906937       -24.6790
 101   2.0000      -0.906374       -24.6637
 102   2.0000      -0.888428       -24.1754
 103   2.0000      -0.878178       -23.8964
 104   2.0000      -0.866563       -23.5804
 105   2.0000      -0.860047       -23.4031
 106   2.0000      -0.855347       -23.2752
 107   2.0000      -0.846502       -23.0345
 108   2.0000      -0.836247       -22.7554
 109   2.0000      -0.835100       -22.7242
 110   2.0000      -0.832660       -22.6578
 111   2.0000      -0.828840       -22.5539
 112   2.0000      -0.823099       -22.3977
 113   2.0000      -0.814608       -22.1666
 114   2.0000      -0.807920       -21.9846
 115   2.0000      -0.781612       -21.2687
 116   2.0000      -0.765902       -20.8412
 117   2.0000      -0.761560       -20.7231
 118   2.0000      -0.757945       -20.6247
 119   2.0000      -0.754995       -20.5445
 120   2.0000      -0.750890       -20.4328
 121   2.0000      -0.735962       -20.0265
 122   2.0000      -0.724247       -19.7078
 123   2.0000      -0.719636       -19.5823
 124   2.0000      -0.710762       -19.3408
 125   2.0000      -0.705754       -19.2045
 126   2.0000      -0.704027       -19.1575
 127   2.0000      -0.695423       -18.9234
 128   2.0000      -0.693500       -18.8711
 129   2.0000      -0.690468       -18.7886
 130   2.0000      -0.688597       -18.7377
 131   2.0000      -0.687176       -18.6990
 132   2.0000      -0.685799       -18.6615
 133   2.0000      -0.680092       -18.5062
 134   2.0000      -0.669538       -18.2191
 135   2.0000      -0.657669       -17.8961
 136   2.0000      -0.650465       -17.7001
 137   2.0000      -0.640025       -17.4160
 138   2.0000      -0.637084       -17.3359
 139   2.0000      -0.633793       -17.2464
 140   2.0000      -0.630957       -17.1692
 141   2.0000      -0.625046       -17.0084
 142   2.0000      -0.624152       -16.9840
 143   2.0000      -0.619176       -16.8486
 144   2.0000      -0.609398       -16.5826
 145   2.0000      -0.602128       -16.3847
 146   2.0000      -0.597930       -16.2705
 147   2.0000      -0.590919       -16.0797
 148   2.0000      -0.587464       -15.9857
 149   2.0000      -0.585838       -15.9415
 150   2.0000      -0.579679       -15.7739
 151   2.0000      -0.576483       -15.6869
 152   2.0000      -0.573536       -15.6067
 153   2.0000      -0.567143       -15.4327
 154   2.0000      -0.565894       -15.3987
 155   2.0000      -0.561887       -15.2897
 156   2.0000      -0.559182       -15.2161
 157   2.0000      -0.554870       -15.0988
 158   2.0000      -0.552125       -15.0241
 159   2.0000      -0.547848       -14.9077
 160   2.0000      -0.546476       -14.8704
 161   2.0000      -0.540762       -14.7149
 162   2.0000      -0.539287       -14.6748
 163   2.0000      -0.538660       -14.6577
 164   2.0000      -0.534636       -14.5482
 165   2.0000      -0.531761       -14.4699
 166   2.0000      -0.529455       -14.4072
 167   2.0000      -0.526668       -14.3314
 168   2.0000      -0.524901       -14.2833
 169   2.0000      -0.523632       -14.2488
 170   2.0000      -0.522257       -14.2113
 171   2.0000      -0.519562       -14.1380
 172   2.0000      -0.517559       -14.0835
 173   2.0000      -0.515598       -14.0301
 174   2.0000      -0.509036       -13.8516
 175   2.0000      -0.508197       -13.8288
 176   2.0000      -0.502766       -13.6810
 177   2.0000      -0.499897       -13.6029
 178   2.0000      -0.499653       -13.5962
 179   2.0000      -0.495610       -13.4862
 180   2.0000      -0.492319       -13.3967
 181   2.0000      -0.491270       -13.3681
 182   2.0000      -0.486374       -13.2349
 183   2.0000      -0.483254       -13.1500
 184   2.0000      -0.481250       -13.0955
 185   2.0000      -0.477558       -12.9950
 186   2.0000      -0.475265       -12.9326
 187   2.0000      -0.473925       -12.8961
 188   2.0000      -0.473076       -12.8730
 189   2.0000      -0.471863       -12.8400
 190   2.0000      -0.470229       -12.7956
 191   2.0000      -0.467140       -12.7115
 192   2.0000      -0.466697       -12.6995
 193   2.0000      -0.463699       -12.6179
 194   2.0000      -0.462990       -12.5986
 195   2.0000      -0.462071       -12.5736
 196   2.0000      -0.459616       -12.5068
 197   2.0000      -0.457522       -12.4498
 198   2.0000      -0.453625       -12.3438
 199   2.0000      -0.451244       -12.2790
 200   2.0000      -0.448698       -12.2097
 201   2.0000      -0.443999       -12.0818
 202   2.0000      -0.442505       -12.0412
 203   2.0000      -0.441031       -12.0011
 204   2.0000      -0.437125       -11.8948
 205   2.0000      -0.436346       -11.8736
 206   2.0000      -0.432983       -11.7821
 207   2.0000      -0.428495       -11.6599
 208   2.0000      -0.421520       -11.4701
 209   2.0000      -0.420590       -11.4448
 210   2.0000      -0.419212       -11.4073
 211   2.0000      -0.418438       -11.3863
 212   2.0000      -0.413705       -11.2575
 213   2.0000      -0.410255       -11.1636
 214   2.0000      -0.408563       -11.1176
 215   2.0000      -0.403211       -10.9719
 216   2.0000      -0.403010       -10.9665
 217   2.0000      -0.397101       -10.8057
 218   2.0000      -0.384083       -10.4514
 219   2.0000      -0.381258       -10.3746
 220   2.0000      -0.380589       -10.3563
 221   2.0000      -0.369133       -10.0446
 222   2.0000      -0.361060        -9.8249
 223   2.0000      -0.358954        -9.7676
 224   2.0000      -0.356653        -9.7050
 225   2.0000      -0.349879        -9.5207
 226   2.0000      -0.348323        -9.4784
 227   2.0000      -0.347397        -9.4532
 228   2.0000      -0.342749        -9.3267
 229   2.0000      -0.336007        -9.1432
 230   2.0000      -0.334640        -9.1060
 231   2.0000      -0.331304        -9.0152
 232   2.0000      -0.329804        -8.9744
 233   2.0000      -0.326297        -8.8790
 234   2.0000      -0.324369        -8.8265
 235   2.0000      -0.318951        -8.6791
 236   2.0000      -0.313835        -8.5399
 237   2.0000      -0.306561        -8.3419
 238   2.0000      -0.304731        -8.2921
 239   2.0000      -0.292586        -7.9617
 240   2.0000      -0.287461        -7.8222
 241   2.0000      -0.281746        -7.6667
 242   2.0000      -0.267007        -7.2656
 243   2.0000      -0.244336        -6.6487
 244   2.0000      -0.221004        -6.0138
 245   0.0000      -0.052102        -1.4178
 246   0.0000      -0.036802        -1.0014
 247   0.0000      -0.015207        -0.4138
 248   0.0000      -0.002235        -0.0608
 249   0.0000       0.009423         0.2564

MULLIKEN ATOMIC CHARGES
-----------------------
   0 N :   -0.300496
   1 C :    0.018038
   2 C :    0.223703
   3 C :    0.002214
   4 N :   -0.336188
   5 S :    0.193024
   6 N :   -0.287417
   7 C :   -0.074061
   8 C :    0.226234
   9 C :    0.102620
  10 N :   -0.470663
  11 S :    0.245940
  12 C :    0.117018
  13 C :   -0.062717
  14 C :   -0.004882
  15 C :    0.025163
  16 C :    0.185217
  17 O :   -0.162206
  18 N :   -0.303410
  19 C :    0.186879
  20 O :   -0.161660
  21 C :    0.132682
  22 C :   -0.008771
  23 C :   -0.116038
  24 C :    0.104562
  25 C :   -0.081036
  26 C :    0.093770
  27 C :    0.068862
  28 N :   -0.033211
  29 C :    0.111781
  30 C :   -0.189787
  31 C :    0.095949
  32 N :   -0.030632
  33 C :    0.111736
  34 C :   -0.172874
  35 C :    0.027922
  36 C :   -0.053944
  37 C :    0.051377
  38 C :   -0.093914
  39 C :    0.000148
  40 C :    0.022649
  41 C :    0.180867
  42 O :   -0.168961
  43 N :   -0.302994
  44 C :    0.180822
  45 O :   -0.168329
  46 C :    0.134845
  47 C :   -0.007550
  48 C :   -0.120669
  49 C :    0.146751
  50 C :   -0.082477
  51 C :    0.135880
  52 N :   -0.369142
  53 C :   -0.012689
  54 C :    0.267767
  55 C :   -0.002304
  56 N :   -0.319161
  57 S :    0.199548
  58 N :   -0.295943
  59 C :   -0.066322
  60 C :    0.276962
  61 C :    0.006926
  62 N :   -0.304609
  63 S :    0.285978
  64 H :    0.132172
  65 H :   -0.004455
  66 H :    0.018273
  67 H :   -0.019444
  68 H :    0.008454
  69 H :    0.133486
  70 H :    0.127604
  71 H :    0.009642
  72 H :    0.013957
  73 H :   -0.010129
  74 H :   -0.019033
  75 H :   -0.012712
  76 H :    0.029635
  77 H :    0.031181
  78 H :    0.026369
  79 H :    0.020255
  80 H :    0.025042
  81 H :   -0.017161
  82 H :   -0.030312
  83 H :   -0.014846
  84 H :    0.120594
  85 H :   -0.043978
  86 H :    0.120551
  87 H :   -0.040125
  88 H :   -0.024374
  89 H :    0.010131
  90 H :   -0.018230
  91 H :    0.027839
  92 H :    0.027635
  93 H :    0.024064
  94 H :    0.018111
  95 H :    0.024691
  96 H :   -0.024607
  97 H :   -0.026193
  98 H :    0.002964
  99 H :    0.008282
 100 H :    0.012948
 101 H :   -0.022562
 102 H :   -0.003413
 103 H :    0.124528
 104 H :    0.114073
 105 H :   -0.003706
 106 H :    0.005481
 107 H :   -0.020565
 108 H :    0.001077
 109 H :    0.138027
Sum of atomic charges:   -0.0000000

LOEWDIN ATOMIC CHARGES
----------------------
   0 N :   -0.215950
   1 C :   -0.000995
   2 C :   -0.033610
   3 C :   -0.003192
   4 N :   -0.228582
   5 S :    0.370856
   6 N :   -0.220046
   7 C :   -0.008376
   8 C :   -0.036973
   9 C :    0.005354
  10 N :   -0.227331
  11 S :    0.368770
  12 C :    0.002398
  13 C :   -0.004454
  14 C :   -0.059931
  15 C :   -0.052292
  16 C :    0.088048
  17 O :   -0.163839
  18 N :   -0.038668
  19 C :    0.088060
  20 O :   -0.163196
  21 C :    0.043688
  22 C :   -0.060570
  23 C :    0.010442
  24 C :   -0.004123
  25 C :   -0.065069
  26 C :   -0.002058
  27 C :   -0.014955
  28 N :    0.069005
  29 C :   -0.016975
  30 C :   -0.107181
  31 C :   -0.000553
  32 N :    0.072676
  33 C :   -0.032816
  34 C :   -0.088388
  35 C :   -0.029380
  36 C :   -0.022416
  37 C :   -0.023581
  38 C :    0.014262
  39 C :   -0.073176
  40 C :   -0.051335
  41 C :    0.087717
  42 O :   -0.169648
  43 N :   -0.039977
  44 C :    0.088001
  45 O :   -0.171208
  46 C :    0.043088
  47 C :   -0.060734
  48 C :   -0.000537
  49 C :    0.009727
  50 C :   -0.130315
  51 C :    0.038881
  52 N :   -0.165189
  53 C :    0.001235
  54 C :   -0.036339
  55 C :   -0.007539
  56 N :   -0.226043
  57 S :    0.372498
  58 N :   -0.226913
  59 C :   -0.014564
  60 C :   -0.030941
  61 C :    0.004359
  62 N :   -0.214683
  63 S :    0.395950
  64 H :    0.048228
  65 H :    0.018158
  66 H :    0.030342
  67 H :    0.027903
  68 H :    0.022981
  69 H :    0.022659
  70 H :    0.048894
  71 H :    0.023727
  72 H :    0.029468
  73 H :    0.022036
  74 H :    0.000323
  75 H :    0.035809
  76 H :    0.031363
  77 H :    0.031796
  78 H :    0.027610
  79 H :    0.029198
  80 H :    0.027411
  81 H :    0.036276
  82 H :    0.017649
  83 H :    0.032049
  84 H :    0.084882
  85 H :    0.018803
  86 H :    0.089168
  87 H :    0.023018
  88 H :    0.027693
  89 H :    0.026102
  90 H :    0.034515
  91 H :    0.030525
  92 H :    0.030418
  93 H :    0.027162
  94 H :    0.028064
  95 H :    0.027209
  96 H :    0.030902
  97 H :    0.019127
  98 H :    0.023803
  99 H :    0.023089
 100 H :    0.029141
 101 H :    0.024412
 102 H :    0.017782
 103 H :    0.028466
 104 H :    0.014717
 105 H :    0.018854
 106 H :    0.028710
 107 H :    0.023280
 108 H :    0.022775
 109 H :    0.053132

  Mayer bond orders larger than 0.100000
B(  0-N ,  1-C ) :   1.0416 B(  0-N , 11-S ) :   1.0401 B(  0-N , 64-H ) :   0.9347
B(  1-C ,  2-C ) :   1.1051 B(  1-C ,  9-C ) :   0.9745 B(  1-C , 65-H ) :   0.9047
B(  2-C ,  3-C ) :   1.0903 B(  2-C ,  8-C ) :   0.1221 B(  2-C , 66-H ) :   0.9341
B(  2-C , 67-H ) :   0.8467 B(  3-C ,  4-N ) :   1.0291 B(  3-C ,  7-C ) :   0.9692
B(  3-C , 68-H ) :   0.9221 B(  4-N ,  5-S ) :   0.9777 B(  4-N , 69-H ) :   0.9035
B(  5-S ,  6-N ) :   1.0001 B(  6-N ,  7-C ) :   1.0560 B(  6-N , 70-H ) :   0.9465
B(  7-C ,  8-C ) :   1.0885 B(  7-C , 71-H ) :   0.9120 B(  8-C ,  9-C ) :   1.1008
B(  8-C , 72-H ) :   0.9221 B(  8-C , 73-H ) :   0.8460 B(  9-C , 10-N ) :   0.9081
B(  9-C , 74-H ) :   0.8964 B( 10-N , 11-S ) :   0.9113 B( 10-N , 12-C ) :   0.9703
B( 12-C , 13-C ) :   1.3514 B( 12-C , 24-C ) :   1.4075 B( 13-C , 14-C ) :   1.3344
B( 13-C , 75-H ) :   1.0101 B( 14-C , 15-C ) :   1.3626 B( 14-C , 19-C ) :   0.8830
B( 15-C , 16-C ) :   0.8779 B( 15-C , 23-C ) :   1.3838 B( 16-C , 17-O ) :   2.2259
B( 16-C , 18-N ) :   1.0667 B( 18-N , 19-C ) :   1.0562 B( 18-N , 21-C ) :   0.9219
B( 19-C , 20-O ) :   2.2262 B( 21-C , 22-C ) :   1.1241 B( 21-C , 76-H ) :   0.9432
B( 21-C , 77-H ) :   0.9421 B( 22-C , 78-H ) :   0.9696 B( 22-C , 79-H ) :   0.9701
B( 22-C , 80-H ) :   0.9695 B( 23-C , 24-C ) :   1.2815 B( 23-C , 81-H ) :   1.0173
B( 24-C , 25-C ) :   1.0674 B( 25-C , 26-C ) :   1.6639 B( 25-C , 82-H ) :   0.9657
B( 26-C , 27-C ) :   1.1481 B( 26-C , 83-H ) :   0.9540 B( 27-C , 28-N ) :   1.1950
B( 27-C , 34-C ) :   1.3640 B( 28-N , 29-C ) :   1.1698 B( 28-N , 84-H ) :   0.9320
B( 29-C , 30-C ) :   1.2465 B( 29-C , 33-C ) :   1.3313 B( 30-C , 31-C ) :   1.4208
B( 30-C , 85-H ) :   1.0282 B( 31-C , 32-N ) :   1.1858 B( 31-C , 35-C ) :   1.0859
B( 32-N , 33-C ) :   1.1592 B( 32-N , 86-H ) :   0.9369 B( 33-C , 34-C ) :   1.2362
B( 34-C , 87-H ) :   1.0414 B( 35-C , 36-C ) :   1.7796 B( 35-C , 88-H ) :   0.9634
B( 36-C , 37-C ) :   1.0137 B( 36-C , 89-H ) :   0.9418 B( 37-C , 38-C ) :   1.3396
B( 37-C , 49-C ) :   1.3251 B( 38-C , 39-C ) :   1.3733 B( 38-C , 90-H ) :   1.0095
B( 39-C , 40-C ) :   1.3380 B( 39-C , 44-C ) :   0.8887 B( 40-C , 41-C ) :   0.8804
B( 40-C , 48-C ) :   1.4217 B( 41-C , 42-O ) :   2.2161 B( 41-C , 43-N ) :   1.0678
B( 43-N , 44-C ) :   1.0520 B( 43-N , 46-C ) :   0.9238 B( 44-C , 45-O ) :   2.2210
B( 46-C , 47-C ) :   1.1249 B( 46-C , 91-H ) :   0.9423 B( 46-C , 92-H ) :   0.9427
B( 47-C , 93-H ) :   0.9696 B( 47-C , 94-H ) :   0.9698 B( 47-C , 95-H ) :   0.9696
B( 48-C , 49-C ) :   1.2802 B( 48-C , 96-H ) :   1.0024 B( 49-C , 50-C ) :   1.1241
B( 50-C , 51-C ) :   1.6416 B( 50-C , 97-H ) :   0.9408 B( 51-C , 52-N ) :   1.1440
B( 51-C , 98-H ) :   0.9555 B( 52-N , 53-C ) :   0.9442 B( 52-N , 63-S ) :   0.8853
B( 53-C , 54-C ) :   1.1021 B( 53-C , 61-C ) :   0.9660 B( 53-C , 99-H ) :   0.8980
B( 54-C , 55-C ) :   1.0928 B( 54-C , 60-C ) :   0.1301 B( 54-C ,100-H ) :   0.9263
B( 54-C ,101-H ) :   0.8366 B( 55-C , 56-N ) :   1.0397 B( 55-C , 59-C ) :   0.9564
B( 55-C ,102-H ) :   0.9172 B( 56-N , 57-S ) :   0.9901 B( 56-N ,103-H ) :   0.9315
B( 57-S , 58-N ) :   0.9877 B( 58-N , 59-C ) :   1.0557 B( 58-N ,104-H ) :   0.9391
B( 59-C , 60-C ) :   1.0746 B( 59-C ,105-H ) :   0.9119 B( 60-C , 61-C ) :   1.0788
B( 60-C ,106-H ) :   0.9335 B( 60-C ,107-H ) :   0.8476 B( 61-C , 62-N ) :   1.0292
B( 61-C ,108-H ) :   0.9126 B( 62-N , 63-S ) :   1.0322 B( 62-N ,109-H ) :   0.9400

-----------------------------------------------------------------------------
         ABSORPTION SPECTRUM VIA TRANSITION ELECTRIC DIPOLE MOMENTS
-----------------------------------------------------------------------------
State   Energy  Wavelength   fosc         T2         TX        TY        TZ
        (cm-1)    (nm)                  (au**2)     (au)      (au)      (au)
-----------------------------------------------------------------------------
   0   21814.1    458.4   1.249798755  18.86161  -0.22410  -0.61521  -4.29336
   1   25242.9    396.2   0.214529794   2.79784   1.40864  -0.46239  -0.77444
   2   27125.2    368.7   0.088708253   1.07663   0.52678  -0.06456   0.89161
   3   27575.2    362.6   0.187258261   2.23562  -1.04793   0.10432  -1.06140
   4   29623.0    337.6   0.672424167   7.47291  -1.25205   0.24583  -2.41761
   5   31832.6    314.1   0.232938135   2.40904  -1.34728  -0.14284  -0.75728
   6   32425.0    308.4   0.018098803   0.18376  -0.10317   0.12200   0.39778
   7   34519.4    289.7   0.185635904   1.77041   1.11963  -0.38510  -0.60707
   8   35244.0    283.7   0.060693027   0.56693  -0.50119   0.56069   0.03697
   9   35362.1    282.8   0.031860568   0.29661   0.25940   0.47020   0.09074
  10   35802.2    279.3   0.003917713   0.03602   0.05942  -0.08482   0.15906
  11   36616.4    273.1   0.068103421   0.61231   0.40636  -0.24193   0.62341
  12   37049.9    269.9   0.009351104   0.08309  -0.07237  -0.11781   0.25293
  13   37346.8    267.8   0.010862957   0.09576  -0.00853  -0.07345   0.30048
  14   38026.0    263.0   0.041127077   0.35606  -0.17507   0.50462   0.26602
  15   39153.0    255.4   0.119628204   1.00588  -0.90376  -0.21114  -0.38014
  16   39745.2    251.6   0.022232361   0.18415  -0.41278  -0.11597   0.01783
  17   40191.3    248.8   0.152676102   1.25059  -0.38693   0.56002  -0.88727

FINAL SINGLE POINT ENERGY     -4251.232297045000

DIPOLE MOMENT
-------------
                                X             Y             Z
Electronic contribution:     -9.24501       2.91307      -0.15653
Nuclear contribution   :     11.32058      -3.36112       0.70159
                        -----------------------------------------
Total Dipole Moment    :      2.07558      -0.44805       0.54506
                        -----------------------------------------
Magnitude (a.u.)       :      2.19223
Magnitude (Debye)      :      5.57219

Rotational constants in cm-1:     0.001719     0.000420     0.000372
Rotational constants in MHz :    51.534696    12.586865    11.159781

                             ****ORCA TERMINATED NORMALLY****
TOTAL RUN TIME: 0 days 0 hours 10 minutes 1 seconds 578 msec
