                         Program Version 4.2.0 -  RELEASE  -
|  1> # ORCA input file
|  2> # SCF done       -189.005437048044          0.000260737708
|  3> ! CAM-B3LYP def2-SVP def2/J RIJCOSX Grid4 TightSCF
|  4> %maxcore 5000
|  5> %tddft
|  6>     Mode sTDDFT
|  7>     Ethresh 5.0
|  8>     maxcore 5000
|  9> end
| 10>
| 11> %pal
| 12>   nprocs 6
| 13>   end
| 14> * xyz 0 1
| 15>    C        2.49567        -0.15096        -3.05638
| 16>    S        2.33862         0.44733        -1.46635
| 17>    C        2.71861         2.06585        -2.00826
| 18>    C        2.96899         2.08378        -3.37526
| 19>    C        2.82980         0.81165        -3.96605
| 20>    C        3.03089         0.57212        -5.42795
| 21>    C        2.84932         1.86671        -6.21220
| 22>    F        3.22057         1.64348        -7.52066
| 23>    C        3.72803         2.96443        -5.61239
| 24>    F        3.60570         4.11468        -6.36126
| 25>    C        3.31764         3.29492        -4.17637
| 26>    C        2.70846         3.15220        -1.09309
| 27>    S        3.01101         4.80028        -1.59754
| 28>    C        2.77726         5.45981         0.00754
| 29>    C        2.48120         4.42831         0.88509
| 30>    C        2.44892         3.14690         0.26915
| 31>    C        2.14653         2.11414         1.24786
| 32>    O        2.03416         0.92200         1.07087
| 33>    C        1.99222         2.82485         2.58176
| 34>    C        2.19079         4.30758         2.31087
| 35>    O        2.10655         5.18032         3.14562
| 36>    C        2.90898         6.86034         0.15973
| 37>    C        2.66122         7.53943         1.31120
| 38>    C        2.78352         8.94686         1.39347
| 39>    N        2.44860         9.67411         2.51132
| 40>    C        1.88514         9.15646         3.73498
| 41>    C        0.39585         8.85469         3.59137
| 42>    C        2.64978        11.05618         2.32447
| 43>    O        2.42481        11.89338         3.17228
| 44>    C        3.16430        11.15357         0.97592
| 45>    C        3.24038         9.85151         0.43290
| 46>    C        3.79258         9.97013        -0.89681
| 47>    O        4.03349         9.13864        -1.75212
| 48>    N        4.03788        11.34652        -1.06457
| 49>    C        4.52818        11.83052        -2.33409
| 50>    C        3.43673        12.52445        -3.14379
| 51>    C        3.65088        12.06855         0.04387
| 52>    C        3.69183        13.46359         0.28604
| 53>    C        4.30050        14.44054        -0.43242
| 54>    C        4.25173        15.81182        -0.08069
| 55>    S        3.19003        16.38866         1.16777
| 56>    C        4.97754        16.85860        -0.63211
| 57>    C        5.97912        16.65288        -1.69569
| 58>    O        6.20577        15.57491        -2.22636
| 59>    C        6.68192        17.87159        -2.04618
| 60>    C        7.70330        18.08253        -2.94708
| 61>    N        8.04437        19.39243        -2.91163
| 62>    C        9.03206        20.01785        -3.75442
| 63>    C        8.40419        20.52829        -5.04973
| 64>    C        7.25892        20.04181        -2.02030
| 65>    C        6.39650        19.13013        -1.45073
| 66>    C        5.36248        19.34528        -0.45611
| 67>    O        5.12116        20.46272        -0.01441
| 68>    C        4.66654        18.12565        -0.04941
| 69>    C        3.68747        18.04814         0.94944
| 70>    C        3.04007        19.05329         1.72777
| 71>    S        3.20021        20.75941         1.37006
| 72>    C        2.04390        21.15481         2.55683
| 73>    C        1.58224        20.07059         3.24679
| 74>    C        2.14186        18.86469         2.78134
| 75>    C        1.75330        17.55801         3.39567
| 76>    C        1.00275        17.71852         4.71817
| 77>    F        0.40939        16.51160         5.01484
| 78>    C       -0.06527        18.80549         4.62004
| 79>    F       -0.77238        18.87350         5.80204
| 80>    C        0.60262        20.15157         4.37464
| 81>    H        2.33442        -1.19308        -3.25074
| 82>    H        2.33404        -0.18408        -5.79275
| 83>    H        4.04449         0.20172        -5.61255
| 84>    H        1.80218         2.19224        -6.24015
| 85>    H        4.78183         2.66701        -5.68286
| 86>    H        2.45355         3.96720        -4.22493
| 87>    H        4.12767         3.85418        -3.70126
| 88>    H        2.72822         2.46133         3.30235
| 89>    H        1.00946         2.63377         3.01797
| 90>    H        3.21460         7.40399        -0.72545
| 91>    H        2.35102         7.00174         2.19452
| 92>    H        2.03127         9.93680         4.48711
| 93>    H        2.42926         8.25893         4.03951
| 94>    H       -0.14189         9.75558         3.30546
| 95>    H        0.00267         8.49940         4.53944
| 96>    H        0.22719         8.09014         2.83661
| 97>    H        4.86970        10.94052        -2.87175
| 98>    H        5.38504        12.49003        -2.18041
| 99>    H        2.62794        11.82780        -3.35192
|100>    H        3.84957        12.87245        -4.08621
|101>    H        3.03154        13.37774        -2.60544
|102>    H        3.17934        13.74014         1.20168
|103>    H        4.89216        14.22926        -1.30872
|104>    H        8.19865        17.38117        -3.58864
|105>    H        9.81073        19.28469        -3.97945
|106>    H        9.48207        20.84860        -3.20478
|107>    H        7.95610        19.70643        -5.60283
|108>    H        9.16280        20.99507        -5.67131
|109>    H        7.63082        21.26096        -4.83239
|110>    H        7.35612        21.09235        -1.83154
|111>    H        1.77617        22.18038         2.72007
|112>    H        2.62967        16.93002         3.57404
|113>    H        1.09531        17.00556         2.71526
|114>    H        1.67882        17.93988         5.55337
|115>    H       -0.79381        18.55122         3.84062
|116>    H        1.11911        20.44477         5.29464
|117>    H       -0.15287        20.91159         4.16831
|118> *
|119>
|120>                          ****END OF INPUT****

CARTESIAN COORDINATES (ANGSTROEM)
---------------------------------
  C      2.495670   -0.150960   -3.056380
  S      2.338620    0.447330   -1.466350
  C      2.718610    2.065850   -2.008260
  C      2.968990    2.083780   -3.375260
  C      2.829800    0.811650   -3.966050
  C      3.030890    0.572120   -5.427950
  C      2.849320    1.866710   -6.212200
  F      3.220570    1.643480   -7.520660
  C      3.728030    2.964430   -5.612390
  F      3.605700    4.114680   -6.361260
  C      3.317640    3.294920   -4.176370
  C      2.708460    3.152200   -1.093090
  S      3.011010    4.800280   -1.597540
  C      2.777260    5.459810    0.007540
  C      2.481200    4.428310    0.885090
  C      2.448920    3.146900    0.269150
  C      2.146530    2.114140    1.247860
  O      2.034160    0.922000    1.070870
  C      1.992220    2.824850    2.581760
  C      2.190790    4.307580    2.310870
  O      2.106550    5.180320    3.145620
  C      2.908980    6.860340    0.159730
  C      2.661220    7.539430    1.311200
  C      2.783520    8.946860    1.393470
  N      2.448600    9.674110    2.511320
  C      1.885140    9.156460    3.734980
  C      0.395850    8.854690    3.591370
  C      2.649780   11.056180    2.324470
  O      2.424810   11.893380    3.172280
  C      3.164300   11.153570    0.975920
  C      3.240380    9.851510    0.432900
  C      3.792580    9.970130   -0.896810
  O      4.033490    9.138640   -1.752120
  N      4.037880   11.346520   -1.064570
  C      4.528180   11.830520   -2.334090
  C      3.436730   12.524450   -3.143790
  C      3.650880   12.068550    0.043870
  C      3.691830   13.463590    0.286040
  C      4.300500   14.440540   -0.432420
  C      4.251730   15.811820   -0.080690
  S      3.190030   16.388660    1.167770
  C      4.977540   16.858600   -0.632110
  C      5.979120   16.652880   -1.695690
  O      6.205770   15.574910   -2.226360
  C      6.681920   17.871590   -2.046180
  C      7.703300   18.082530   -2.947080
  N      8.044370   19.392430   -2.911630
  C      9.032060   20.017850   -3.754420
  C      8.404190   20.528290   -5.049730
  C      7.258920   20.041810   -2.020300
  C      6.396500   19.130130   -1.450730
  C      5.362480   19.345280   -0.456110
  O      5.121160   20.462720   -0.014410
  C      4.666540   18.125650   -0.049410
  C      3.687470   18.048140    0.949440
  C      3.040070   19.053290    1.727770
  S      3.200210   20.759410    1.370060
  C      2.043900   21.154810    2.556830
  C      1.582240   20.070590    3.246790
  C      2.141860   18.864690    2.781340
  C      1.753300   17.558010    3.395670
  C      1.002750   17.718520    4.718170
  F      0.409390   16.511600    5.014840
  C     -0.065270   18.805490    4.620040
  F     -0.772380   18.873500    5.802040
  C      0.602620   20.151570    4.374640
  H      2.334420   -1.193080   -3.250740
  H      2.334040   -0.184080   -5.792750
  H      4.044490    0.201720   -5.612550
  H      1.802180    2.192240   -6.240150
  H      4.781830    2.667010   -5.682860
  H      2.453550    3.967200   -4.224930
  H      4.127670    3.854180   -3.701260
  H      2.728220    2.461330    3.302350
  H      1.009460    2.633770    3.017970
  H      3.214600    7.403990   -0.725450
  H      2.351020    7.001740    2.194520
  H      2.031270    9.936800    4.487110
  H      2.429260    8.258930    4.039510
  H     -0.141890    9.755580    3.305460
  H      0.002670    8.499400    4.539440
  H      0.227190    8.090140    2.836610
  H      4.869700   10.940520   -2.871750
  H      5.385040   12.490030   -2.180410
  H      2.627940   11.827800   -3.351920
  H      3.849570   12.872450   -4.086210
  H      3.031540   13.377740   -2.605440
  H      3.179340   13.740140    1.201680
  H      4.892160   14.229260   -1.308720
  H      8.198650   17.381170   -3.588640
  H      9.810730   19.284690   -3.979450
  H      9.482070   20.848600   -3.204780
  H      7.956100   19.706430   -5.602830
  H      9.162800   20.995070   -5.671310
  H      7.630820   21.260960   -4.832390
  H      7.356120   21.092350   -1.831540
  H      1.776170   22.180380    2.720070
  H      2.629670   16.930020    3.574040
  H      1.095310   17.005560    2.715260
  H      1.678820   17.939880    5.553370
  H     -0.793810   18.551220    3.840620
  H      1.119110   20.444770    5.294640
  H     -0.152870   20.911590    4.168310

 Total Charge           Charge          ....    0
 Multiplicity           Mult            ....    1
 Number of Electrons    NEL             ....  500
 Basis Dimension        Dim             .... 1125

ORBITAL ENERGIES
----------------

  NO   OCC          E(Eh)            E(eV)
   0   2.0000     -88.979716     -2421.2612
   1   2.0000     -88.965683     -2420.8793
   2   2.0000     -88.955962     -2420.6148
   3   2.0000     -88.945381     -2420.3269
   4   2.0000     -24.747089      -673.4025
   5   2.0000     -24.746549      -673.3878
   6   2.0000     -24.739093      -673.1849
   7   2.0000     -24.738330      -673.1642
   8   2.0000     -19.218952      -522.9743
   9   2.0000     -19.213799      -522.8341
  10   2.0000     -19.198006      -522.4043
  11   2.0000     -19.197850      -522.4001
  12   2.0000     -19.183437      -522.0078
  13   2.0000     -19.179382      -521.8975
  14   2.0000     -14.486390      -394.1947
  15   2.0000     -14.444074      -393.0432
  16   2.0000     -14.442526      -393.0011
  17   2.0000     -10.371887      -282.2334
  18   2.0000     -10.367977      -282.1270
  19   2.0000     -10.365547      -282.0609
  20   2.0000     -10.363279      -281.9992
  21   2.0000     -10.358173      -281.8602
  22   2.0000     -10.356830      -281.8237
  23   2.0000     -10.349236      -281.6170
  24   2.0000     -10.347112      -281.5592
  25   2.0000     -10.339970      -281.3649
  26   2.0000     -10.338762      -281.3320
  27   2.0000     -10.338393      -281.3220
  28   2.0000     -10.332900      -281.1725
  29   2.0000     -10.330683      -281.1122
  30   2.0000     -10.330066      -281.0954
  31   2.0000     -10.327818      -281.0342
  32   2.0000     -10.325944      -280.9832
  33   2.0000     -10.311526      -280.5909
  34   2.0000     -10.311501      -280.5902
  35   2.0000     -10.310500      -280.5630
  36   2.0000     -10.309540      -280.5369
  37   2.0000     -10.302220      -280.3377
  38   2.0000     -10.295056      -280.1427
  39   2.0000     -10.293770      -280.1077
  40   2.0000     -10.292117      -280.0627
  41   2.0000     -10.291966      -280.0586
  42   2.0000     -10.291726      -280.0521
  43   2.0000     -10.290855      -280.0284
  44   2.0000     -10.289069      -279.9798
  45   2.0000     -10.287019      -279.9240
  46   2.0000     -10.285669      -279.8873
  47   2.0000     -10.284724      -279.8616
  48   2.0000     -10.284071      -279.8438
  49   2.0000     -10.282866      -279.8110
  50   2.0000     -10.282730      -279.8073
  51   2.0000     -10.282221      -279.7935
  52   2.0000     -10.282100      -279.7902
  53   2.0000     -10.282015      -279.7879
  54   2.0000     -10.281685      -279.7789
  55   2.0000     -10.281554      -279.7753
  56   2.0000     -10.277527      -279.6657
  57   2.0000     -10.276678      -279.6426
  58   2.0000     -10.273674      -279.5609
  59   2.0000     -10.270791      -279.4824
  60   2.0000     -10.266176      -279.3569
  61   2.0000     -10.265897      -279.3493
  62   2.0000     -10.252617      -278.9879
  63   2.0000     -10.252290      -278.9790
  64   2.0000     -10.251090      -278.9463
  65   2.0000     -10.250677      -278.9351
  66   2.0000      -8.074237      -219.7112
  67   2.0000      -8.060584      -219.3396
  68   2.0000      -8.050539      -219.0663
  69   2.0000      -8.039044      -218.7535
  70   2.0000      -6.043546      -164.4532
  71   2.0000      -6.039056      -164.3311
  72   2.0000      -6.036670      -164.2661
  73   2.0000      -6.029848      -164.0805
  74   2.0000      -6.025521      -163.9628
  75   2.0000      -6.022870      -163.8906
  76   2.0000      -6.019900      -163.8098
  77   2.0000      -6.015294      -163.6845
  78   2.0000      -6.012818      -163.6171
  79   2.0000      -6.008456      -163.4984
  80   2.0000      -6.003746      -163.3702
  81   2.0000      -6.001412      -163.3067
  82   2.0000      -1.267104       -34.4797
  83   2.0000      -1.258911       -34.2567
  84   2.0000      -1.252205       -34.0742
  85   2.0000      -1.244045       -33.8522
  86   2.0000      -1.135550       -30.8999
  87   2.0000      -1.130129       -30.7524
  88   2.0000      -1.123752       -30.5789
  89   2.0000      -1.118728       -30.4421
  90   2.0000      -1.116638       -30.3853
  91   2.0000      -1.113549       -30.3012
  92   2.0000      -1.105680       -30.0871
  93   2.0000      -1.053203       -28.6591
  94   2.0000      -1.044301       -28.4169
  95   2.0000      -1.012753       -27.5584
  96   2.0000      -0.999414       -27.1954
  97   2.0000      -0.989107       -26.9150
  98   2.0000      -0.976652       -26.5761
  99   2.0000      -0.935972       -25.4691
 100   2.0000      -0.926709       -25.2170
 101   2.0000      -0.920818       -25.0567
 102   2.0000      -0.917915       -24.9777
 103   2.0000      -0.911307       -24.7979
 104   2.0000      -0.906772       -24.6745
 105   2.0000      -0.902047       -24.5460
 106   2.0000      -0.884190       -24.0600
 107   2.0000      -0.875096       -23.8126
 108   2.0000      -0.864804       -23.5325
 109   2.0000      -0.857897       -23.3446
 110   2.0000      -0.847381       -23.0584
 111   2.0000      -0.841227       -22.8909
 112   2.0000      -0.837481       -22.7890
 113   2.0000      -0.832543       -22.6546
 114   2.0000      -0.826934       -22.5020
 115   2.0000      -0.817792       -22.2533
 116   2.0000      -0.813027       -22.1236
 117   2.0000      -0.809039       -22.0151
 118   2.0000      -0.802959       -21.8496
 119   2.0000      -0.792994       -21.5785
 120   2.0000      -0.779779       -21.2189
 121   2.0000      -0.768900       -20.9228
 122   2.0000      -0.763472       -20.7751
 123   2.0000      -0.749053       -20.3828
 124   2.0000      -0.740704       -20.1556
 125   2.0000      -0.735604       -20.0168
 126   2.0000      -0.724888       -19.7252
 127   2.0000      -0.722523       -19.6609
 128   2.0000      -0.710487       -19.3333
 129   2.0000      -0.706831       -19.2338
 130   2.0000      -0.698430       -19.0053
 131   2.0000      -0.695634       -18.9292
 132   2.0000      -0.694959       -18.9108
 133   2.0000      -0.687463       -18.7068
 134   2.0000      -0.683064       -18.5871
 135   2.0000      -0.679898       -18.5010
 136   2.0000      -0.676565       -18.4103
 137   2.0000      -0.658073       -17.9071
 138   2.0000      -0.649200       -17.6656
 139   2.0000      -0.640720       -17.4349
 140   2.0000      -0.637051       -17.3350
 141   2.0000      -0.631085       -17.1727
 142   2.0000      -0.627954       -17.0875
 143   2.0000      -0.619144       -16.8478
 144   2.0000      -0.617307       -16.7978
 145   2.0000      -0.608506       -16.5583
 146   2.0000      -0.601110       -16.3570
 147   2.0000      -0.597705       -16.2644
 148   2.0000      -0.595787       -16.2122
 149   2.0000      -0.588504       -16.0140
 150   2.0000      -0.583961       -15.8904
 151   2.0000      -0.577713       -15.7204
 152   2.0000      -0.575607       -15.6631
 153   2.0000      -0.574708       -15.6386
 154   2.0000      -0.570202       -15.5160
 155   2.0000      -0.568286       -15.4638
 156   2.0000      -0.566376       -15.4119
 157   2.0000      -0.565350       -15.3839
 158   2.0000      -0.563751       -15.3404
 159   2.0000      -0.562561       -15.3081
 160   2.0000      -0.559420       -15.2226
 161   2.0000      -0.556591       -15.1456
 162   2.0000      -0.552861       -15.0441
 163   2.0000      -0.547308       -14.8930
 164   2.0000      -0.545127       -14.8336
 165   2.0000      -0.540793       -14.7157
 166   2.0000      -0.538286       -14.6475
 167   2.0000      -0.537446       -14.6247
 168   2.0000      -0.535942       -14.5837
 169   2.0000      -0.530077       -14.4241
 170   2.0000      -0.527628       -14.3575
 171   2.0000      -0.525558       -14.3012
 172   2.0000      -0.523402       -14.2425
 173   2.0000      -0.522758       -14.2250
 174   2.0000      -0.519210       -14.1284
 175   2.0000      -0.517713       -14.0877
 176   2.0000      -0.515378       -14.0242
 177   2.0000      -0.513002       -13.9595
 178   2.0000      -0.512217       -13.9381
 179   2.0000      -0.509053       -13.8520
 180   2.0000      -0.506398       -13.7798
 181   2.0000      -0.504817       -13.7368
 182   2.0000      -0.501634       -13.6501
 183   2.0000      -0.500039       -13.6067
 184   2.0000      -0.498859       -13.5747
 185   2.0000      -0.495319       -13.4783
 186   2.0000      -0.494486       -13.4556
 187   2.0000      -0.492611       -13.4046
 188   2.0000      -0.489301       -13.3146
 189   2.0000      -0.485908       -13.2222
 190   2.0000      -0.485677       -13.2160
 191   2.0000      -0.483416       -13.1544
 192   2.0000      -0.481752       -13.1091
 193   2.0000      -0.481241       -13.0952
 194   2.0000      -0.477011       -12.9801
 195   2.0000      -0.474811       -12.9203
 196   2.0000      -0.472644       -12.8613
 197   2.0000      -0.471163       -12.8210
 198   2.0000      -0.469135       -12.7658
 199   2.0000      -0.464998       -12.6532
 200   2.0000      -0.464067       -12.6279
 201   2.0000      -0.460673       -12.5355
 202   2.0000      -0.459025       -12.4907
 203   2.0000      -0.454986       -12.3808
 204   2.0000      -0.454590       -12.3700
 205   2.0000      -0.451567       -12.2878
 206   2.0000      -0.450518       -12.2592
 207   2.0000      -0.449763       -12.2387
 208   2.0000      -0.444718       -12.1014
 209   2.0000      -0.444096       -12.0845
 210   2.0000      -0.443032       -12.0555
 211   2.0000      -0.442340       -12.0367
 212   2.0000      -0.441161       -12.0046
 213   2.0000      -0.438934       -11.9440
 214   2.0000      -0.434901       -11.8343
 215   2.0000      -0.433748       -11.8029
 216   2.0000      -0.431736       -11.7481
 217   2.0000      -0.427209       -11.6250
 218   2.0000      -0.424263       -11.5448
 219   2.0000      -0.421314       -11.4645
 220   2.0000      -0.420667       -11.4469
 221   2.0000      -0.414558       -11.2807
 222   2.0000      -0.412833       -11.2338
 223   2.0000      -0.409259       -11.1365
 224   2.0000      -0.407640       -11.0924
 225   2.0000      -0.402965       -10.9652
 226   2.0000      -0.399540       -10.8720
 227   2.0000      -0.389196       -10.5905
 228   2.0000      -0.384762       -10.4699
 229   2.0000      -0.381118       -10.3707
 230   2.0000      -0.374769       -10.1980
 231   2.0000      -0.372144       -10.1266
 232   2.0000      -0.346276        -9.4226
 233   2.0000      -0.344207        -9.3664
 234   2.0000      -0.339144        -9.2286
 235   2.0000      -0.337997        -9.1974
 236   2.0000      -0.329465        -8.9652
 237   2.0000      -0.325976        -8.8703
 238   2.0000      -0.322249        -8.7689
 239   2.0000      -0.321790        -8.7563
 240   2.0000      -0.321141        -8.7387
 241   2.0000      -0.320230        -8.7139
 242   2.0000      -0.319331        -8.6894
 243   2.0000      -0.312903        -8.5145
 244   2.0000      -0.306099        -8.3294
 245   2.0000      -0.303187        -8.2501
 246   2.0000      -0.297343        -8.0911
 247   2.0000      -0.274580        -7.4717
 248   2.0000      -0.263594        -7.1728
 249   2.0000      -0.222963        -6.0671
 250   0.0000      -0.091766        -2.4971
 251   0.0000      -0.053433        -1.4540
 252   0.0000      -0.046570        -1.2672
 253   0.0000      -0.041057        -1.1172
 254   0.0000      -0.008203        -0.2232

MULLIKEN ATOMIC CHARGES
-----------------------
   0 C :   -0.106707
   1 S :    0.190694
   2 C :   -0.131658
   3 C :   -0.097456
   4 C :   -0.091580
   5 C :    0.161467
   6 C :    0.184077
   7 F :   -0.246385
   8 C :    0.215278
   9 F :   -0.244544
  10 C :    0.107170
  11 C :   -0.107191
  12 S :    0.146228
  13 C :   -0.121996
  14 C :    0.027273
  15 C :   -0.006355
  16 C :    0.018879
  17 O :   -0.165027
  18 C :    0.076588
  19 C :    0.027935
  20 O :   -0.160419
  21 C :    0.062741
  22 C :   -0.030420
  23 C :    0.134019
  24 N :   -0.264573
  25 C :    0.097683
  26 C :    0.008268
  27 C :    0.145014
  28 O :   -0.191531
  29 C :   -0.037280
  30 C :   -0.061156
  31 C :    0.160965
  32 O :   -0.217903
  33 N :   -0.265275
  34 C :    0.095245
  35 C :    0.004739
  36 C :    0.113992
  37 C :   -0.038060
  38 C :    0.007710
  39 C :   -0.114544
  40 S :    0.093977
  41 C :    0.016638
  42 C :    0.135678
  43 O :   -0.180098
  44 C :   -0.019287
  45 C :    0.008401
  46 N :   -0.134668
  47 C :    0.090609
  48 C :    0.001027
  49 C :    0.005531
  50 C :   -0.003707
  51 C :    0.142272
  52 O :   -0.198985
  53 C :   -0.001366
  54 C :   -0.115296
  55 C :   -0.122613
  56 S :    0.197697
  57 C :   -0.106862
  58 C :   -0.099831
  59 C :   -0.095640
  60 C :    0.103617
  61 C :    0.221183
  62 F :   -0.242576
  63 C :    0.187672
  64 F :   -0.248155
  65 C :    0.158984
  66 H :    0.015597
  67 H :    0.020155
  68 H :    0.028064
  69 H :    0.007730
  70 H :    0.006925
  71 H :    0.042370
  72 H :    0.044457
  73 H :    0.068039
  74 H :    0.065040
  75 H :   -0.000399
  76 H :   -0.010897
  77 H :    0.039990
  78 H :    0.037294
  79 H :    0.024530
  80 H :    0.022053
  81 H :    0.015370
  82 H :    0.039468
  83 H :    0.041545
  84 H :    0.019260
  85 H :    0.021898
  86 H :    0.022684
  87 H :    0.011804
  88 H :    0.016700
  89 H :    0.005104
  90 H :    0.033756
  91 H :    0.033290
  92 H :    0.030385
  93 H :    0.030740
  94 H :    0.031978
  95 H :    0.006198
  96 H :    0.008666
  97 H :    0.043040
  98 H :    0.043133
  99 H :    0.005215
 100 H :    0.004811
 101 H :    0.026516
 102 H :    0.017389
Sum of atomic charges:   -0.0000000

LOEWDIN ATOMIC CHARGES
----------------------
   0 C :   -0.184621
   1 S :    0.509456
   2 C :   -0.204422
   3 C :   -0.054098
   4 C :   -0.077027
   5 C :   -0.033449
   6 C :    0.093205
   7 F :   -0.124441
   8 C :    0.097841
   9 F :   -0.122548
  10 C :   -0.054493
  11 C :   -0.136289
  12 S :    0.503110
  13 C :   -0.139081
  14 C :   -0.091420
  15 C :   -0.112146
  16 C :    0.072027
  17 O :   -0.150750
  18 C :   -0.064635
  19 C :    0.083640
  20 O :   -0.140819
  21 C :   -0.008307
  22 C :   -0.024388
  23 C :    0.076724
  24 N :   -0.001579
  25 C :    0.036825
  26 C :   -0.059587
  27 C :    0.077502
  28 O :   -0.195721
  29 C :   -0.109863
  30 C :   -0.123018
  31 C :    0.081433
  32 O :   -0.205992
  33 N :   -0.001610
  34 C :    0.035307
  35 C :   -0.061388
  36 C :    0.069134
  37 C :   -0.034073
  38 C :   -0.022664
  39 C :   -0.140969
  40 S :    0.497054
  41 C :   -0.080079
  42 C :    0.082948
  43 O :   -0.174959
  44 C :   -0.101906
  45 C :    0.029261
  46 N :    0.089843
  47 C :    0.044056
  48 C :   -0.057540
  49 C :    0.028579
  50 C :   -0.098365
  51 C :    0.078692
  52 O :   -0.189469
  53 C :   -0.107987
  54 C :   -0.120499
  55 C :   -0.209138
  56 S :    0.519669
  57 C :   -0.193028
  58 C :   -0.081707
  59 C :   -0.055442
  60 C :   -0.059648
  61 C :    0.096932
  62 F :   -0.121195
  63 C :    0.092697
  64 F :   -0.126304
  65 C :   -0.034533
  66 H :    0.024191
  67 H :    0.039106
  68 H :    0.039335
  69 H :    0.020301
  70 H :    0.020809
  71 H :    0.039876
  72 H :    0.032173
  73 H :    0.063555
  74 H :    0.061836
  75 H :    0.034432
  76 H :    0.029439
  77 H :    0.036549
  78 H :    0.028641
  79 H :    0.029642
  80 H :    0.030879
  81 H :    0.022521
  82 H :    0.035756
  83 H :    0.027257
  84 H :    0.028322
  85 H :    0.031488
  86 H :    0.022892
  87 H :    0.035659
  88 H :    0.035847
  89 H :    0.028837
  90 H :    0.033771
  91 H :    0.033596
  92 H :    0.030652
  93 H :    0.033074
  94 H :    0.030812
  95 H :    0.029118
  96 H :    0.021114
  97 H :    0.032512
  98 H :    0.035823
  99 H :    0.019943
 100 H :    0.019310
 101 H :    0.038698
 102 H :    0.037492

  Mayer bond orders larger than 0.100000
B(  0-C ,  1-S ) :   1.1704 B(  0-C ,  4-C ) :   1.5427 B(  0-C , 66-H ) :   0.9708
B(  1-S ,  2-C ) :   1.1559 B(  2-C ,  3-C ) :   1.4681 B(  2-C , 11-C ) :   1.1893
B(  3-C ,  4-C ) :   1.3304 B(  3-C , 10-C ) :   1.0223 B(  4-C ,  5-C ) :   0.9901
B(  5-C ,  6-C ) :   1.0345 B(  5-C , 67-H ) :   0.9177 B(  5-C , 68-H ) :   0.9086
B(  6-C ,  7-F ) :   1.0311 B(  6-C ,  8-C ) :   1.0207 B(  6-C , 69-H ) :   0.9417
B(  8-C ,  9-F ) :   1.0330 B(  8-C , 10-C ) :   1.0162 B(  8-C , 70-H ) :   0.9316
B( 10-C , 71-H ) :   0.9013 B( 10-C , 72-H ) :   0.9013 B( 11-C , 12-S ) :   1.1459
B( 11-C , 15-C ) :   1.4434 B( 12-S , 13-C ) :   1.1247 B( 13-C , 14-C ) :   1.4328
B( 13-C , 21-C ) :   1.1635 B( 14-C , 15-C ) :   1.2041 B( 14-C , 19-C ) :   0.9617
B( 15-C , 16-C ) :   0.9618 B( 16-C , 17-O ) :   2.1641 B( 16-C , 18-C ) :   1.0059
B( 18-C , 19-C ) :   1.0043 B( 18-C , 73-H ) :   0.8941 B( 18-C , 74-H ) :   0.8969
B( 19-C , 20-O ) :   2.1335 B( 20-O , 76-H ) :   0.1114 B( 21-C , 22-C ) :   1.5973
B( 21-C , 75-H ) :   0.9284 B( 22-C , 23-C ) :   1.1658 B( 22-C , 76-H ) :   0.9375
B( 23-C , 24-N ) :   1.1686 B( 23-C , 30-C ) :   1.3143 B( 24-N , 25-C ) :   0.9421
B( 24-N , 27-C ) :   1.0371 B( 25-C , 26-C ) :   1.1237 B( 25-C , 77-H ) :   0.9280
B( 25-C , 78-H ) :   0.9485 B( 26-C , 79-H ) :   0.9643 B( 26-C , 80-H ) :   0.9677
B( 26-C , 81-H ) :   0.9676 B( 27-C , 28-O ) :   2.1333 B( 27-C , 29-C ) :   0.9735
B( 29-C , 30-C ) :   1.2491 B( 29-C , 36-C ) :   1.3436 B( 30-C , 31-C ) :   0.9900
B( 31-C , 32-O ) :   2.0122 B( 31-C , 33-N ) :   1.0685 B( 32-O , 75-H ) :   0.1131
B( 33-N , 34-C ) :   0.9394 B( 33-N , 36-C ) :   1.1625 B( 34-C , 35-C ) :   1.1201
B( 34-C , 82-H ) :   0.9221 B( 34-C , 83-H ) :   0.9514 B( 35-C , 84-H ) :   0.9621
B( 35-C , 85-H ) :   0.9673 B( 35-C , 86-H ) :   0.9674 B( 36-C , 37-C ) :   1.1989
B( 37-C , 38-C ) :   1.5230 B( 37-C , 87-H ) :   0.9445 B( 38-C , 39-C ) :   1.1849
B( 38-C , 88-H ) :   0.9534 B( 39-C , 40-S ) :   1.0936 B( 39-C , 41-C ) :   1.4791
B( 40-S , 54-C ) :   1.1474 B( 41-C , 42-C ) :   0.9443 B( 41-C , 53-C ) :   1.1737
B( 42-C , 43-O ) :   2.1706 B( 42-C , 44-C ) :   1.0036 B( 44-C , 45-C ) :   1.4188
B( 44-C , 50-C ) :   1.2944 B( 45-C , 46-N ) :   1.2367 B( 45-C , 89-H ) :   0.9931
B( 46-N , 47-C ) :   0.9528 B( 46-N , 49-C ) :   1.2310 B( 47-C , 48-C ) :   1.1095
B( 47-C , 90-H ) :   0.9511 B( 47-C , 91-H ) :   0.9514 B( 48-C , 92-H ) :   0.9676
B( 48-C , 93-H ) :   0.9684 B( 48-C , 94-H ) :   0.9677 B( 49-C , 50-C ) :   1.4264
B( 49-C , 95-H ) :   0.9932 B( 50-C , 51-C ) :   1.0106 B( 51-C , 52-O ) :   2.1214
B( 51-C , 53-C ) :   0.9736 B( 53-C , 54-C ) :   1.4513 B( 54-C , 55-C ) :   1.1787
B( 55-C , 56-S ) :   1.1534 B( 55-C , 59-C ) :   1.4534 B( 56-S , 57-C ) :   1.1775
B( 57-C , 58-C ) :   1.5276 B( 57-C , 96-H ) :   0.9704 B( 58-C , 59-C ) :   1.3489
B( 58-C , 65-C ) :   0.9908 B( 59-C , 60-C ) :   1.0167 B( 60-C , 61-C ) :   1.0124
B( 60-C , 97-H ) :   0.9028 B( 60-C , 98-H ) :   0.8984 B( 61-C , 62-F ) :   1.0383
B( 61-C , 63-C ) :   1.0187 B( 61-C , 99-H ) :   0.9336 B( 63-C , 64-F ) :   1.0295
B( 63-C , 65-C ) :   1.0344 B( 63-C ,100-H ) :   0.9401 B( 65-C ,101-H ) :   0.9090
B( 65-C ,102-H ) :   0.9178

-----------------------------------------------------------------------------
         ABSORPTION SPECTRUM VIA TRANSITION ELECTRIC DIPOLE MOMENTS
-----------------------------------------------------------------------------
State   Energy  Wavelength   fosc         T2         TX        TY        TZ
        (cm-1)    (nm)                  (au**2)     (au)      (au)      (au)
-----------------------------------------------------------------------------
   0   13475.5    742.1   1.092255148  26.68423   0.94210   5.04971  -0.54511
   1   21806.1    458.6   0.070219917   1.06013   0.39480   0.75467  -0.57856
   2   23308.3    429.0   0.064303291   0.90823   0.23247   0.90765  -0.17422
   3   24456.5    408.9   0.620543077   8.35320   0.66374  -2.28699  -1.63778
   4   24478.8    408.5   0.081468669   1.09566  -0.87004  -0.57433   0.09394
   5   25819.8    387.3   0.073795669   0.94092   0.15642  -0.35306  -0.88983
   6   26108.5    383.0   0.073373241   0.92519  -0.16090   0.49363   0.80971
   7   28019.8    356.9   0.000668018   0.00785   0.06862   0.05498   0.01080
   8   29056.7    344.2   0.000559776   0.00634   0.00424  -0.07908  -0.00841
   9   29435.6    339.7   0.073715740   0.82445  -0.44954   0.56330   0.55231
  10   29615.5    337.7   0.000144504   0.00161   0.02598  -0.00014   0.03052
  11   30628.8    326.5   0.064764102   0.69611   0.06073   0.64655   0.52383
  12   30862.0    324.0   0.279964729   2.98644   0.93692  -0.89358  -1.14461
  13   31589.2    316.6   0.001698594   0.01770   0.04122   0.06737  -0.10707
  14   31921.3    313.3   0.075543002   0.77909  -0.57619   0.12932   0.65603
  15   32078.8    311.7   0.003581319   0.03675   0.02722  -0.11352  -0.15207
  16   32427.7    308.4   0.139322807   1.41443  -0.08132   0.42275   1.10865
  17   32788.4    305.0   0.041626384   0.41795   0.23551   0.60122   0.03191
  18   33456.0    298.9   0.029740461   0.29265  -0.47885  -0.08161   0.23811
  19   34403.5    290.7   0.044449239   0.42534   0.20885  -0.52645  -0.32337
  20   34699.4    288.2   0.030296945   0.28744   0.04493   0.03552  -0.53307
  21   34850.0    286.9   0.231075422   2.18287   0.51298   1.37127  -0.19831
  22   35304.5    283.2   0.013758936   0.12830   0.06150  -0.30584  -0.17602
  23   35411.2    282.4   0.028390885   0.26395  -0.27082   0.03701   0.43501
  24   35873.5    278.8   0.014490453   0.13298   0.18388  -0.31330  -0.03180
  25   36047.7    277.4   0.030820937   0.28148  -0.04324  -0.40247   0.34297
  26   36227.6    276.0   0.000745890   0.00678   0.01778   0.07534   0.02804
  27   37170.3    269.0   0.094192623   0.83425   0.52317   0.60803  -0.43685
  28   37963.0    263.4   0.036528320   0.31677   0.25838   0.36400  -0.34280
  29   38042.6    262.9   0.003869723   0.03349  -0.11935  -0.07527   0.11652
  30   38255.3    261.4   0.067290995   0.57908   0.30320   0.36679  -0.59382
  31   38595.4    259.1   0.055065088   0.46970  -0.43018  -0.53046   0.05698
  32   39604.5    252.5   0.009946723   0.08268   0.19687   0.14104   0.15503
  33   39706.2    251.8   0.088092492   0.73039  -0.35617   0.07970   0.77278
  34   39947.3    250.3   0.019012563   0.15669   0.08796  -0.26910   0.27665

FINAL SINGLE POINT ENERGY     -4493.275723230487

DIPOLE MOMENT
-------------
                                X             Y             Z
Electronic contribution:    -11.37454     -24.19800      10.79747
Nuclear contribution   :     13.09630      25.40719     -12.50843
                        -----------------------------------------
Total Dipole Moment    :      1.72177       1.20919      -1.71096
                        -----------------------------------------
Magnitude (a.u.)       :      2.71183
Magnitude (Debye)      :      6.89292

Rotational constants in cm-1:     0.001528     0.000329     0.000279
Rotational constants in MHz :    45.803132     9.861787     8.354782

                             ****ORCA TERMINATED NORMALLY****
TOTAL RUN TIME: 0 days 0 hours 8 minutes 47 seconds 9 msec
