                         Program Version 4.2.0 -  RELEASE  -
|  1> # ORCA input file
|  2> # SCF done       -214.047204545320          0.000645137233
|  3> ! CAM-B3LYP def2-SVP def2/J RIJCOSX Grid4 TightSCF
|  4> %maxcore 5000
|  5> %tddft
|  6>     Mode sTDDFT
|  7>     Ethresh 5.0
|  8>     maxcore 5000
|  9> end
| 10>
| 11> %pal
| 12>   nprocs 6
| 13>   end
| 14> * xyz 0 1
| 15>    C       -9.68126         0.32122         7.23824
| 16>    C      -10.73427        -0.07454         8.01411
| 17>    F      -11.19439         0.72640         8.98406
| 18>    C      -11.34890        -1.32569         7.80539
| 19>    F      -12.37985        -1.68713         8.58085
| 20>    C      -10.90188        -2.16370         6.82245
| 21>    C       -9.82037        -1.78340         6.00464
| 22>    C       -9.19676        -0.51930         6.21545
| 23>    C       -8.10827        -0.11685         5.40896
| 24>    C       -7.65879        -0.95031         4.41758
| 25>    C       -8.29832        -2.20295         4.20568
| 26>    C       -9.34497        -2.62355         4.97365
| 27>    C       -7.66005        -2.89993         3.07341
| 28>    O       -7.97761        -3.98106         2.62885
| 29>    C       -6.57402        -1.99880         2.61109
| 30>    C       -6.56764        -0.81517         3.45989
| 31>    C       -5.65023         0.20320         3.44534
| 32>    C       -5.64381         1.26545         4.37506
| 33>    N       -5.56800         2.14505         5.10870
| 34>    C       -4.55905         0.34609         2.56285
| 35>    N       -3.64194         0.55812         1.90221
| 36>    C       -5.61678        -2.27577         1.69327
| 37>    C       -5.37977        -3.46913         0.91228
| 38>    C       -4.00048        -3.82307         0.73664
| 39>    C       -3.64987        -4.85522        -0.09643
| 40>    C       -4.64557        -5.60194        -0.75332
| 41>    C       -6.01800        -5.27069        -0.55673
| 42>    C       -6.36315        -4.19210         0.27644
| 43>    N       -6.99147        -5.96940        -1.17999
| 44>    C       -6.61992        -6.95305        -1.95183
| 45>    C       -5.26025        -7.28680        -2.14006
| 46>    N       -4.29620        -6.62849        -1.55810
| 47>    C       -2.98458        -3.05021         1.44456
| 48>    C       -2.03269        -2.28818         0.84460
| 49>    C       -1.33170        -1.52870         1.84791
| 50>    O       -0.30056        -0.69490         1.62987
| 51>    C       -0.08899        -0.25556         0.30385
| 52>    C       -1.87091        -1.81009         3.09546
| 53>    C       -2.95201        -2.74795         2.88558
| 54>    C       -3.87704        -3.18902         3.79989
| 55>    C       -4.72891        -4.33970         3.70515
| 56>    C       -5.56190        -4.33946         4.78386
| 57>    O       -6.50537        -5.19781         5.17343
| 58>    C       -6.75973        -6.30011         4.32547
| 59>    C       -5.29406        -3.14333         5.58822
| 60>    C       -4.26782        -2.48442         5.02740
| 61>    C       -1.39826        -1.39129         4.38270
| 62>    C       -0.48120        -0.43758         4.61202
| 63>    C       -0.08043        -0.04112         5.94790
| 64>    C       -0.95334         0.06138         6.99388
| 65>    S       -0.21573         0.60941         8.44737
| 66>    C        1.29804         0.70691         7.68190
| 67>    C        1.24575         0.33573         6.36080
| 68>    C        2.47173         0.24457         5.58024
| 69>    O        3.57374         0.57097         5.94051
| 70>    O        2.23773        -0.31115         4.34860
| 71>    C        3.26143        -0.63673         3.55158
| 72>    C        3.00000        -1.19983         2.35505
| 73>    C        4.01468        -1.59292         1.45239
| 74>    C        3.84841        -2.23527         0.26343
| 75>    C        4.95008        -2.22530        -0.73631
| 76>    O        6.10735        -1.93909        -0.53840
| 77>    C        4.30930        -2.57373        -2.02186
| 78>    C        4.85034        -2.57678        -3.27470
| 79>    C        4.02764        -2.89728        -4.37780
| 80>    C        2.65395        -3.20563        -4.15774
| 81>    C        1.83476        -3.51195        -5.26304
| 82>    C        2.35554        -3.51395        -6.52643
| 83>    C        3.71497        -3.21086        -6.74276
| 84>    C        4.53495        -2.90957        -5.69164
| 85>    F        4.19733        -3.21897        -7.99227
| 86>    F        1.57493        -3.80378        -7.57539
| 87>    C        2.12462        -3.20430        -2.84690
| 88>    C        2.94216        -2.89876        -1.79144
| 89>    C        2.68572        -2.83920        -0.35224
| 90>    C        1.62432        -3.43455         0.27727
| 91>    C        1.48432        -3.61348         1.67129
| 92>    N        1.31630        -3.85251         2.78073
| 93>    C        0.55281        -4.04272        -0.40807
| 94>    N       -0.36353        -4.52165        -0.90739
| 95>    H       -9.22155         1.28162         7.41211
| 96>    H      -11.38346        -3.11756         6.67465
| 97>    H       -7.66016         0.84565         5.59450
| 98>    H       -9.80473        -3.58332         4.79401
| 99>    H       -4.85481        -1.52119         1.54482
|100>    H       -2.61482        -5.11626        -0.25490
|101>    H       -7.40522        -3.93588         0.36962
|102>    H       -7.40659        -7.50769        -2.44569
|103>    H       -4.96961        -8.10893        -2.78064
|104>    H       -1.86394        -2.23773        -0.21462
|105>    H        0.72314         0.46866         0.35369
|106>    H       -0.98628         0.22837        -0.08961
|107>    H        0.20025        -1.07715        -0.35931
|108>    H       -4.65209        -5.08965         2.94400
|109>    H       -7.53087        -6.88812         4.81886
|110>    H       -5.85980        -6.90616         4.19164
|111>    H       -7.11922        -5.95637         3.35174
|112>    H       -5.85591        -2.88286         6.46521
|113>    H       -3.87302        -1.53448         5.33129
|114>    H       -1.79948        -1.93697         5.22520
|115>    H       -0.01731         0.07786         3.78759
|116>    H       -2.00844        -0.12500         6.98353
|117>    H        2.17279         1.01141         8.22180
|118>    H        4.26029        -0.45132         3.93518
|119>    H        1.96134        -1.33064         2.09355
|120>    H        5.03066        -1.28914         1.68030
|121>    H        5.89145        -2.33396        -3.42288
|122>    H        0.79304        -3.75054        -5.11543
|123>    H        5.57300        -2.67943        -5.87359
|124>    H        1.08010        -3.43734        -2.71438
|125> *
|126>
|127>                          ****END OF INPUT****

CARTESIAN COORDINATES (ANGSTROEM)
---------------------------------
  C     -9.681260    0.321220    7.238240
  C    -10.734270   -0.074540    8.014110
  F    -11.194390    0.726400    8.984060
  C    -11.348900   -1.325690    7.805390
  F    -12.379850   -1.687130    8.580850
  C    -10.901880   -2.163700    6.822450
  C     -9.820370   -1.783400    6.004640
  C     -9.196760   -0.519300    6.215450
  C     -8.108270   -0.116850    5.408960
  C     -7.658790   -0.950310    4.417580
  C     -8.298320   -2.202950    4.205680
  C     -9.344970   -2.623550    4.973650
  C     -7.660050   -2.899930    3.073410
  O     -7.977610   -3.981060    2.628850
  C     -6.574020   -1.998800    2.611090
  C     -6.567640   -0.815170    3.459890
  C     -5.650230    0.203200    3.445340
  C     -5.643810    1.265450    4.375060
  N     -5.568000    2.145050    5.108700
  C     -4.559050    0.346090    2.562850
  N     -3.641940    0.558120    1.902210
  C     -5.616780   -2.275770    1.693270
  C     -5.379770   -3.469130    0.912280
  C     -4.000480   -3.823070    0.736640
  C     -3.649870   -4.855220   -0.096430
  C     -4.645570   -5.601940   -0.753320
  C     -6.018000   -5.270690   -0.556730
  C     -6.363150   -4.192100    0.276440
  N     -6.991470   -5.969400   -1.179990
  C     -6.619920   -6.953050   -1.951830
  C     -5.260250   -7.286800   -2.140060
  N     -4.296200   -6.628490   -1.558100
  C     -2.984580   -3.050210    1.444560
  C     -2.032690   -2.288180    0.844600
  C     -1.331700   -1.528700    1.847910
  O     -0.300560   -0.694900    1.629870
  C     -0.088990   -0.255560    0.303850
  C     -1.870910   -1.810090    3.095460
  C     -2.952010   -2.747950    2.885580
  C     -3.877040   -3.189020    3.799890
  C     -4.728910   -4.339700    3.705150
  C     -5.561900   -4.339460    4.783860
  O     -6.505370   -5.197810    5.173430
  C     -6.759730   -6.300110    4.325470
  C     -5.294060   -3.143330    5.588220
  C     -4.267820   -2.484420    5.027400
  C     -1.398260   -1.391290    4.382700
  C     -0.481200   -0.437580    4.612020
  C     -0.080430   -0.041120    5.947900
  C     -0.953340    0.061380    6.993880
  S     -0.215730    0.609410    8.447370
  C      1.298040    0.706910    7.681900
  C      1.245750    0.335730    6.360800
  C      2.471730    0.244570    5.580240
  O      3.573740    0.570970    5.940510
  O      2.237730   -0.311150    4.348600
  C      3.261430   -0.636730    3.551580
  C      3.000000   -1.199830    2.355050
  C      4.014680   -1.592920    1.452390
  C      3.848410   -2.235270    0.263430
  C      4.950080   -2.225300   -0.736310
  O      6.107350   -1.939090   -0.538400
  C      4.309300   -2.573730   -2.021860
  C      4.850340   -2.576780   -3.274700
  C      4.027640   -2.897280   -4.377800
  C      2.653950   -3.205630   -4.157740
  C      1.834760   -3.511950   -5.263040
  C      2.355540   -3.513950   -6.526430
  C      3.714970   -3.210860   -6.742760
  C      4.534950   -2.909570   -5.691640
  F      4.197330   -3.218970   -7.992270
  F      1.574930   -3.803780   -7.575390
  C      2.124620   -3.204300   -2.846900
  C      2.942160   -2.898760   -1.791440
  C      2.685720   -2.839200   -0.352240
  C      1.624320   -3.434550    0.277270
  C      1.484320   -3.613480    1.671290
  N      1.316300   -3.852510    2.780730
  C      0.552810   -4.042720   -0.408070
  N     -0.363530   -4.521650   -0.907390
  H     -9.221550    1.281620    7.412110
  H    -11.383460   -3.117560    6.674650
  H     -7.660160    0.845650    5.594500
  H     -9.804730   -3.583320    4.794010
  H     -4.854810   -1.521190    1.544820
  H     -2.614820   -5.116260   -0.254900
  H     -7.405220   -3.935880    0.369620
  H     -7.406590   -7.507690   -2.445690
  H     -4.969610   -8.108930   -2.780640
  H     -1.863940   -2.237730   -0.214620
  H      0.723140    0.468660    0.353690
  H     -0.986280    0.228370   -0.089610
  H      0.200250   -1.077150   -0.359310
  H     -4.652090   -5.089650    2.944000
  H     -7.530870   -6.888120    4.818860
  H     -5.859800   -6.906160    4.191640
  H     -7.119220   -5.956370    3.351740
  H     -5.855910   -2.882860    6.465210
  H     -3.873020   -1.534480    5.331290
  H     -1.799480   -1.936970    5.225200
  H     -0.017310    0.077860    3.787590
  H     -2.008440   -0.125000    6.983530
  H      2.172790    1.011410    8.221800
  H      4.260290   -0.451320    3.935180
  H      1.961340   -1.330640    2.093550
  H      5.030660   -1.289140    1.680300
  H      5.891450   -2.333960   -3.422880
  H      0.793040   -3.750540   -5.115430
  H      5.573000   -2.679430   -5.873590
  H      1.080100   -3.437340   -2.714380

 Total Charge           Charge          ....    0
 Multiplicity           Mult            ....    1
 Number of Electrons    NEL             ....  550
 Basis Dimension        Dim             .... 1274

ORBITAL ENERGIES
----------------

  NO   OCC          E(Eh)            E(eV)
   0   2.0000     -88.963999     -2420.8335
   1   2.0000     -24.800283      -674.8500
   2   2.0000     -24.799829      -674.8377
   3   2.0000     -24.799034      -674.8160
   4   2.0000     -24.798263      -674.7951
   5   2.0000     -19.293648      -525.0069
   6   2.0000     -19.262927      -524.1709
   7   2.0000     -19.258240      -524.0434
   8   2.0000     -19.219064      -522.9773
   9   2.0000     -19.218604      -522.9648
  10   2.0000     -19.215577      -522.8824
  11   2.0000     -14.425555      -392.5393
  12   2.0000     -14.419431      -392.3727
  13   2.0000     -14.418510      -392.3476
  14   2.0000     -14.416548      -392.2942
  15   2.0000     -14.416513      -392.2933
  16   2.0000     -14.413290      -392.2056
  17   2.0000     -10.418146      -283.4922
  18   2.0000     -10.383557      -282.5510
  19   2.0000     -10.383145      -282.5397
  20   2.0000     -10.382146      -282.5125
  21   2.0000     -10.381425      -282.4929
  22   2.0000     -10.370125      -282.1854
  23   2.0000     -10.367074      -282.1024
  24   2.0000     -10.365538      -282.0606
  25   2.0000     -10.347783      -281.5775
  26   2.0000     -10.346462      -281.5415
  27   2.0000     -10.342366      -281.4301
  28   2.0000     -10.341575      -281.4086
  29   2.0000     -10.335673      -281.2479
  30   2.0000     -10.332786      -281.1694
  31   2.0000     -10.330428      -281.1052
  32   2.0000     -10.329142      -281.0703
  33   2.0000     -10.321632      -280.8659
  34   2.0000     -10.320776      -280.8426
  35   2.0000     -10.319867      -280.8179
  36   2.0000     -10.315401      -280.6963
  37   2.0000     -10.315208      -280.6911
  38   2.0000     -10.314711      -280.6775
  39   2.0000     -10.313466      -280.6437
  40   2.0000     -10.313157      -280.6353
  41   2.0000     -10.312613      -280.6205
  42   2.0000     -10.311952      -280.6025
  43   2.0000     -10.311190      -280.5817
  44   2.0000     -10.310963      -280.5756
  45   2.0000     -10.310906      -280.5740
  46   2.0000     -10.310684      -280.5680
  47   2.0000     -10.309387      -280.5327
  48   2.0000     -10.307128      -280.4712
  49   2.0000     -10.306178      -280.4454
  50   2.0000     -10.305942      -280.4389
  51   2.0000     -10.304639      -280.4035
  52   2.0000     -10.303276      -280.3664
  53   2.0000     -10.302945      -280.3574
  54   2.0000     -10.302341      -280.3409
  55   2.0000     -10.302191      -280.3369
  56   2.0000     -10.301714      -280.3239
  57   2.0000     -10.301071      -280.3064
  58   2.0000     -10.296722      -280.1881
  59   2.0000     -10.296537      -280.1830
  60   2.0000     -10.295932      -280.1665
  61   2.0000     -10.295528      -280.1556
  62   2.0000     -10.293946      -280.1125
  63   2.0000     -10.292293      -280.0675
  64   2.0000     -10.292125      -280.0630
  65   2.0000     -10.290954      -280.0311
  66   2.0000     -10.288938      -279.9762
  67   2.0000     -10.286109      -279.8992
  68   2.0000     -10.285729      -279.8889
  69   2.0000     -10.283315      -279.8232
  70   2.0000     -10.280811      -279.7551
  71   2.0000     -10.280350      -279.7425
  72   2.0000     -10.277325      -279.6602
  73   2.0000     -10.275088      -279.5994
  74   2.0000     -10.274535      -279.5843
  75   2.0000     -10.269504      -279.4474
  76   2.0000     -10.260942      -279.2144
  77   2.0000     -10.256198      -279.0853
  78   2.0000     -10.253805      -279.0202
  79   2.0000     -10.248510      -278.8761
  80   2.0000      -8.060345      -219.3331
  81   2.0000      -6.029337      -164.0666
  82   2.0000      -6.024986      -163.9482
  83   2.0000      -6.023174      -163.8989
  84   2.0000      -1.323099       -36.0034
  85   2.0000      -1.321630       -35.9634
  86   2.0000      -1.308236       -35.5989
  87   2.0000      -1.306758       -35.5587
  88   2.0000      -1.223373       -33.2897
  89   2.0000      -1.164139       -31.6778
  90   2.0000      -1.161431       -31.6041
  91   2.0000      -1.134169       -30.8623
  92   2.0000      -1.131396       -30.7869
  93   2.0000      -1.122366       -30.5411
  94   2.0000      -1.072833       -29.1933
  95   2.0000      -1.024225       -27.8706
  96   2.0000      -1.021121       -27.7861
  97   2.0000      -1.008110       -27.4321
  98   2.0000      -1.005294       -27.3554
  99   2.0000      -0.996756       -27.1231
 100   2.0000      -0.996393       -27.1132
 101   2.0000      -0.995771       -27.0963
 102   2.0000      -0.988658       -26.9028
 103   2.0000      -0.987348       -26.8671
 104   2.0000      -0.983366       -26.7588
 105   2.0000      -0.979918       -26.6649
 106   2.0000      -0.961059       -26.1518
 107   2.0000      -0.949829       -25.8462
 108   2.0000      -0.937405       -25.5081
 109   2.0000      -0.930575       -25.3222
 110   2.0000      -0.920899       -25.0589
 111   2.0000      -0.902629       -24.5618
 112   2.0000      -0.899429       -24.4747
 113   2.0000      -0.893757       -24.3204
 114   2.0000      -0.892839       -24.2954
 115   2.0000      -0.886930       -24.1346
 116   2.0000      -0.881658       -23.9911
 117   2.0000      -0.870320       -23.6826
 118   2.0000      -0.859702       -23.3937
 119   2.0000      -0.847397       -23.0589
 120   2.0000      -0.843214       -22.9450
 121   2.0000      -0.841588       -22.9008
 122   2.0000      -0.840993       -22.8846
 123   2.0000      -0.838966       -22.8294
 124   2.0000      -0.826203       -22.4821
 125   2.0000      -0.811691       -22.0872
 126   2.0000      -0.805696       -21.9241
 127   2.0000      -0.803872       -21.8745
 128   2.0000      -0.797477       -21.7005
 129   2.0000      -0.786397       -21.3990
 130   2.0000      -0.773261       -21.0415
 131   2.0000      -0.770314       -20.9613
 132   2.0000      -0.768212       -20.9041
 133   2.0000      -0.758028       -20.6270
 134   2.0000      -0.753072       -20.4921
 135   2.0000      -0.738632       -20.0992
 136   2.0000      -0.732779       -19.9399
 137   2.0000      -0.728815       -19.8321
 138   2.0000      -0.720470       -19.6050
 139   2.0000      -0.717543       -19.5253
 140   2.0000      -0.714204       -19.4345
 141   2.0000      -0.704083       -19.1591
 142   2.0000      -0.695635       -18.9292
 143   2.0000      -0.691320       -18.8118
 144   2.0000      -0.688877       -18.7453
 145   2.0000      -0.687605       -18.7107
 146   2.0000      -0.677818       -18.4444
 147   2.0000      -0.671952       -18.2847
 148   2.0000      -0.664470       -18.0812
 149   2.0000      -0.662131       -18.0175
 150   2.0000      -0.658572       -17.9206
 151   2.0000      -0.655946       -17.8492
 152   2.0000      -0.650975       -17.7139
 153   2.0000      -0.648354       -17.6426
 154   2.0000      -0.645763       -17.5721
 155   2.0000      -0.644990       -17.5511
 156   2.0000      -0.641767       -17.4634
 157   2.0000      -0.633546       -17.2397
 158   2.0000      -0.629032       -17.1168
 159   2.0000      -0.623625       -16.9697
 160   2.0000      -0.620420       -16.8825
 161   2.0000      -0.617585       -16.8053
 162   2.0000      -0.610950       -16.6248
 163   2.0000      -0.605108       -16.4658
 164   2.0000      -0.603265       -16.4157
 165   2.0000      -0.597027       -16.2459
 166   2.0000      -0.595827       -16.2133
 167   2.0000      -0.590315       -16.0633
 168   2.0000      -0.587752       -15.9935
 169   2.0000      -0.587609       -15.9896
 170   2.0000      -0.586119       -15.9491
 171   2.0000      -0.585336       -15.9278
 172   2.0000      -0.577352       -15.7106
 173   2.0000      -0.574177       -15.6241
 174   2.0000      -0.573256       -15.5991
 175   2.0000      -0.569596       -15.4995
 176   2.0000      -0.567462       -15.4414
 177   2.0000      -0.566645       -15.4192
 178   2.0000      -0.564457       -15.3597
 179   2.0000      -0.562729       -15.3126
 180   2.0000      -0.557091       -15.1592
 181   2.0000      -0.554682       -15.0937
 182   2.0000      -0.549624       -14.9560
 183   2.0000      -0.549282       -14.9467
 184   2.0000      -0.547786       -14.9060
 185   2.0000      -0.547410       -14.8958
 186   2.0000      -0.539311       -14.6754
 187   2.0000      -0.537913       -14.6374
 188   2.0000      -0.536474       -14.5982
 189   2.0000      -0.534904       -14.5555
 190   2.0000      -0.534757       -14.5515
 191   2.0000      -0.534121       -14.5342
 192   2.0000      -0.530562       -14.4373
 193   2.0000      -0.529719       -14.4144
 194   2.0000      -0.525468       -14.2987
 195   2.0000      -0.523183       -14.2365
 196   2.0000      -0.521536       -14.1917
 197   2.0000      -0.520029       -14.1507
 198   2.0000      -0.516323       -14.0499
 199   2.0000      -0.514988       -14.0135
 200   2.0000      -0.512987       -13.9591
 201   2.0000      -0.511361       -13.9148
 202   2.0000      -0.510940       -13.9034
 203   2.0000      -0.506945       -13.7947
 204   2.0000      -0.506379       -13.7793
 205   2.0000      -0.502693       -13.6790
 206   2.0000      -0.500038       -13.6067
 207   2.0000      -0.499028       -13.5792
 208   2.0000      -0.496464       -13.5095
 209   2.0000      -0.491623       -13.3777
 210   2.0000      -0.487623       -13.2689
 211   2.0000      -0.486459       -13.2372
 212   2.0000      -0.484354       -13.1799
 213   2.0000      -0.481595       -13.1049
 214   2.0000      -0.478193       -13.0123
 215   2.0000      -0.475183       -12.9304
 216   2.0000      -0.474535       -12.9128
 217   2.0000      -0.470674       -12.8077
 218   2.0000      -0.468318       -12.7436
 219   2.0000      -0.467288       -12.7155
 220   2.0000      -0.464955       -12.6521
 221   2.0000      -0.464520       -12.6402
 222   2.0000      -0.463467       -12.6116
 223   2.0000      -0.461767       -12.5653
 224   2.0000      -0.461160       -12.5488
 225   2.0000      -0.456990       -12.4353
 226   2.0000      -0.456151       -12.4125
 227   2.0000      -0.451153       -12.2765
 228   2.0000      -0.449628       -12.2350
 229   2.0000      -0.448326       -12.1996
 230   2.0000      -0.447359       -12.1733
 231   2.0000      -0.445778       -12.1302
 232   2.0000      -0.442897       -12.0518
 233   2.0000      -0.442208       -12.0331
 234   2.0000      -0.439765       -11.9666
 235   2.0000      -0.436938       -11.8897
 236   2.0000      -0.432212       -11.7611
 237   2.0000      -0.430934       -11.7263
 238   2.0000      -0.429132       -11.6773
 239   2.0000      -0.427313       -11.6278
 240   2.0000      -0.426951       -11.6179
 241   2.0000      -0.426668       -11.6102
 242   2.0000      -0.424462       -11.5502
 243   2.0000      -0.419461       -11.4141
 244   2.0000      -0.418358       -11.3841
 245   2.0000      -0.416192       -11.3251
 246   2.0000      -0.413350       -11.2478
 247   2.0000      -0.409020       -11.1300
 248   2.0000      -0.407113       -11.0781
 249   2.0000      -0.404636       -11.0107
 250   2.0000      -0.400058       -10.8861
 251   2.0000      -0.391380       -10.6500
 252   2.0000      -0.389303       -10.5935
 253   2.0000      -0.384626       -10.4662
 254   2.0000      -0.379600       -10.3294
 255   2.0000      -0.377219       -10.2646
 256   2.0000      -0.372947       -10.1484
 257   2.0000      -0.368056       -10.0153
 258   2.0000      -0.366478        -9.9724
 259   2.0000      -0.353318        -9.6143
 260   2.0000      -0.339761        -9.2454
 261   2.0000      -0.338597        -9.2137
 262   2.0000      -0.326808        -8.8929
 263   2.0000      -0.320207        -8.7133
 264   2.0000      -0.319358        -8.6902
 265   2.0000      -0.317305        -8.6343
 266   2.0000      -0.314797        -8.5661
 267   2.0000      -0.306734        -8.3467
 268   2.0000      -0.306343        -8.3360
 269   2.0000      -0.303545        -8.2599
 270   2.0000      -0.296733        -8.0745
 271   2.0000      -0.293609        -7.9895
 272   2.0000      -0.292432        -7.9575
 273   2.0000      -0.270209        -7.3528
 274   2.0000      -0.235367        -6.4047
 275   0.0000      -0.093093        -2.5332
 276   0.0000      -0.090151        -2.4531
 277   0.0000      -0.081580        -2.2199
 278   0.0000      -0.059668        -1.6236
 279   0.0000      -0.058903        -1.6028

MULLIKEN ATOMIC CHARGES
-----------------------
   0 C :   -0.107351
   1 C :    0.241607
   2 F :   -0.171391
   3 C :    0.236467
   4 F :   -0.171693
   5 C :   -0.102570
   6 C :    0.114132
   7 C :    0.113790
   8 C :   -0.093754
   9 C :    0.050877
  10 C :   -0.008955
  11 C :   -0.078084
  12 C :    0.172237
  13 O :   -0.153744
  14 C :   -0.056713
  15 C :    0.336768
  16 C :   -0.370822
  17 C :   -0.194832
  18 N :    0.152871
  19 C :   -0.174765
  20 N :    0.152604
  21 C :   -0.030240
  22 C :    0.079435
  23 C :    0.045685
  24 C :   -0.052831
  25 C :    0.000175
  26 C :   -0.037643
  27 C :   -0.012484
  28 N :   -0.009510
  29 C :    0.017771
  30 C :    0.020562
  31 N :   -0.005056
  32 C :    0.023396
  33 C :   -0.068317
  34 C :    0.171942
  35 O :   -0.304455
  36 C :    0.174722
  37 C :    0.037448
  38 C :    0.079110
  39 C :   -0.043139
  40 C :   -0.138494
  41 C :    0.216933
  42 O :   -0.282219
  43 C :    0.166996
  44 C :   -0.018992
  45 C :    0.029471
  46 C :   -0.047462
  47 C :    0.012042
  48 C :    0.119040
  49 C :   -0.147401
  50 S :    0.146454
  51 C :   -0.090422
  52 C :   -0.019662
  53 C :    0.199381
  54 O :   -0.182167
  55 O :   -0.227385
  56 C :    0.178530
  57 C :   -0.013995
  58 C :    0.039265
  59 C :   -0.125214
  60 C :    0.141640
  61 O :   -0.139852
  62 C :    0.004054
  63 C :   -0.079112
  64 C :    0.112361
  65 C :    0.112750
  66 C :   -0.106181
  67 C :    0.240175
  68 C :    0.238435
  69 C :   -0.103804
  70 F :   -0.171568
  71 F :   -0.170459
  72 C :   -0.085821
  73 C :    0.041074
  74 C :    0.290799
  75 C :   -0.366643
  76 C :   -0.221300
  77 N :    0.200501
  78 C :   -0.158548
  79 N :    0.149314
  80 H :    0.005640
  81 H :   -0.000891
  82 H :   -0.009306
  83 H :   -0.014743
  84 H :    0.040106
  85 H :   -0.034752
  86 H :   -0.023655
  87 H :    0.009632
  88 H :    0.011568
  89 H :   -0.024176
  90 H :    0.042740
  91 H :    0.049178
  92 H :    0.021670
  93 H :   -0.014925
  94 H :    0.032677
  95 H :    0.025646
  96 H :    0.051835
  97 H :   -0.016851
  98 H :   -0.009502
  99 H :   -0.014846
 100 H :    0.005164
 101 H :    0.023488
 102 H :    0.041043
 103 H :    0.042231
 104 H :    0.039105
 105 H :    0.018222
 106 H :   -0.008149
 107 H :    0.004379
 108 H :    0.001218
 109 H :   -0.009513
Sum of atomic charges:    0.0000000

LOEWDIN ATOMIC CHARGES
----------------------
   0 C :   -0.030021
   1 C :    0.066132
   2 F :   -0.049132
   3 C :    0.066980
   4 F :   -0.049382
   5 C :   -0.032989
   6 C :   -0.009398
   7 C :   -0.007403
   8 C :    0.014520
   9 C :   -0.021167
  10 C :   -0.051509
  11 C :    0.031954
  12 C :    0.089679
  13 O :   -0.135221
  14 C :   -0.089610
  15 C :    0.082327
  16 C :   -0.140698
  17 C :   -0.017530
  18 N :   -0.058149
  19 C :   -0.015638
  20 N :   -0.052023
  21 C :    0.094330
  22 C :   -0.031453
  23 C :   -0.005072
  24 C :   -0.005455
  25 C :   -0.007777
  26 C :   -0.023086
  27 C :    0.025183
  28 N :   -0.036269
  29 C :   -0.003618
  30 C :    0.004164
  31 N :   -0.038087
  32 C :   -0.019735
  33 C :   -0.028261
  34 C :    0.070615
  35 O :   -0.069708
  36 C :    0.078851
  37 C :   -0.086156
  38 C :    0.020669
  39 C :    0.027504
  40 C :   -0.129973
  41 C :    0.057271
  42 O :   -0.071250
  43 C :    0.079877
  44 C :   -0.021069
  45 C :   -0.022931
  46 C :   -0.014028
  47 C :   -0.033372
  48 C :   -0.036214
  49 C :   -0.189607
  50 S :    0.475612
  51 C :   -0.139400
  52 C :   -0.121147
  53 C :    0.114002
  54 O :   -0.160774
  55 O :   -0.014759
  56 C :    0.129310
  57 C :   -0.073028
  58 C :    0.082359
  59 C :   -0.105661
  60 C :    0.081294
  61 O :   -0.142472
  62 C :   -0.052903
  63 C :    0.030499
  64 C :   -0.009182
  65 C :   -0.006587
  66 C :   -0.030809
  67 C :    0.066599
  68 C :    0.067155
  69 C :   -0.032517
  70 F :   -0.048956
  71 F :   -0.048743
  72 C :    0.009724
  73 C :   -0.021576
  74 C :    0.071476
  75 C :   -0.143451
  76 C :   -0.028793
  77 N :   -0.034619
  78 C :   -0.005433
  79 N :   -0.054076
  80 H :    0.047147
  81 H :    0.044707
  82 H :    0.038971
  83 H :    0.039322
  84 H :    0.046573
  85 H :    0.037290
  86 H :    0.036940
  87 H :    0.024791
  88 H :    0.025648
  89 H :    0.025919
  90 H :    0.029863
  91 H :    0.027524
  92 H :    0.010144
  93 H :    0.025110
  94 H :    0.026523
  95 H :    0.017538
  96 H :    0.021671
  97 H :    0.028871
  98 H :    0.024618
  99 H :    0.027321
 100 H :    0.022551
 101 H :    0.022462
 102 H :    0.033203
 103 H :    0.031907
 104 H :    0.037409
 105 H :    0.045634
 106 H :    0.040996
 107 H :    0.046676
 108 H :    0.045290
 109 H :    0.037173

  Mayer bond orders larger than 0.100000
B(  0-C ,  1-C ) :   1.4403 B(  0-C ,  5-C ) :   0.1085 B(  0-C ,  7-C ) :   1.1883
B(  0-C , 80-H ) :   1.0068 B(  1-C ,  2-F ) :   1.1338 B(  1-C ,  3-C ) :   1.1913
B(  3-C ,  4-F ) :   1.1336 B(  3-C ,  5-C ) :   1.4442 B(  5-C ,  6-C ) :   1.1900
B(  5-C , 81-H ) :   1.0068 B(  6-C ,  7-C ) :   1.2536 B(  6-C , 11-C ) :   1.1869
B(  7-C ,  8-C ) :   1.2142 B(  8-C ,  9-C ) :   1.4461 B(  8-C , 82-H ) :   0.9923
B(  9-C , 10-C ) :   1.2125 B(  9-C , 15-C ) :   0.9864 B( 10-C , 11-C ) :   1.4724
B( 10-C , 12-C ) :   0.9483 B( 11-C , 83-H ) :   1.0155 B( 12-C , 13-O ) :   2.1659
B( 12-C , 14-C ) :   0.9316 B( 14-C , 15-C ) :   1.0633 B( 14-C , 21-C ) :   1.6593
B( 15-C , 16-C ) :   1.6267 B( 16-C , 17-C ) :   1.1476 B( 16-C , 19-C ) :   1.1545
B( 17-C , 18-N ) :   2.9694 B( 19-C , 20-N ) :   2.9289 B( 21-C , 22-C ) :   1.0630
B( 21-C , 84-H ) :   0.9026 B( 22-C , 23-C ) :   1.2241 B( 22-C , 27-C ) :   1.4081
B( 23-C , 24-C ) :   1.4508 B( 23-C , 32-C ) :   0.9436 B( 24-C , 25-C ) :   1.1972
B( 24-C , 27-C ) :   0.1068 B( 24-C , 85-H ) :   1.0201 B( 25-C , 26-C ) :   1.2294
B( 25-C , 31-N ) :   1.4344 B( 26-C , 27-C ) :   1.2215 B( 26-C , 28-N ) :   1.4278
B( 27-C , 86-H ) :   1.0145 B( 28-N , 29-C ) :   1.6765 B( 29-C , 30-C ) :   1.2200
B( 29-C , 87-H ) :   0.9738 B( 30-C , 31-N ) :   1.6760 B( 30-C , 88-H ) :   0.9739
B( 32-C , 33-C ) :   1.6299 B( 32-C , 38-C ) :   1.0795 B( 33-C , 34-C ) :   1.0579
B( 33-C , 89-H ) :   1.0118 B( 34-C , 35-O ) :   1.1355 B( 34-C , 37-C ) :   1.5091
B( 35-O , 36-C ) :   0.9331 B( 36-C , 90-H ) :   0.9784 B( 36-C , 91-H ) :   0.9720
B( 36-C , 92-H ) :   0.9639 B( 37-C , 38-C ) :   1.0891 B( 37-C , 46-C ) :   1.0976
B( 38-C , 39-C ) :   1.4987 B( 39-C , 40-C ) :   1.0943 B( 39-C , 45-C ) :   1.0753
B( 40-C , 41-C ) :   1.5143 B( 40-C , 93-H ) :   1.0151 B( 41-C , 42-O ) :   1.2049
B( 41-C , 44-C ) :   1.0787 B( 42-O , 43-C ) :   0.9362 B( 43-C , 94-H ) :   0.9800
B( 43-C , 95-H ) :   0.9677 B( 43-C , 96-H ) :   0.9606 B( 44-C , 45-C ) :   1.6593
B( 44-C , 97-H ) :   1.0143 B( 45-C , 98-H ) :   0.9970 B( 46-C , 47-C ) :   1.7580
B( 46-C , 99-H ) :   0.9607 B( 47-C , 48-C ) :   1.0317 B( 47-C ,100-H ) :   0.9510
B( 48-C , 49-C ) :   1.5693 B( 48-C , 52-C ) :   1.2056 B( 49-C , 50-S ) :   1.1486
B( 49-C ,101-H ) :   0.9644 B( 50-S , 51-C ) :   1.2386 B( 51-C , 52-C ) :   1.5068
B( 51-C ,102-H ) :   0.9669 B( 52-C , 53-C ) :   0.9829 B( 53-C , 54-O ) :   2.1578
B( 53-C , 55-O ) :   1.0656 B( 55-O , 56-C ) :   1.0938 B( 56-C , 57-C ) :   1.6546
B( 56-C ,103-H ) :   0.9775 B( 57-C , 58-C ) :   1.1432 B( 57-C ,104-H ) :   0.9366
B( 58-C , 59-C ) :   1.6220 B( 58-C ,105-H ) :   0.9507 B( 59-C , 60-C ) :   0.9432
B( 59-C , 74-C ) :   1.0435 B( 60-C , 61-O ) :   2.2749 B( 60-C , 62-C ) :   0.9155
B( 62-C , 63-C ) :   1.4812 B( 62-C , 73-C ) :   1.2219 B( 63-C , 64-C ) :   1.1923
B( 63-C ,106-H ) :   1.0151 B( 64-C , 65-C ) :   1.2569 B( 64-C , 69-C ) :   1.1945
B( 65-C , 66-C ) :   1.1888 B( 65-C , 72-C ) :   1.2184 B( 66-C , 67-C ) :   1.4436
B( 66-C , 69-C ) :   0.1089 B( 66-C ,107-H ) :   1.0060 B( 67-C , 68-C ) :   1.1916
B( 67-C , 71-F ) :   1.1356 B( 68-C , 69-C ) :   1.4437 B( 68-C , 70-F ) :   1.1337
B( 69-C ,108-H ) :   1.0063 B( 72-C , 73-C ) :   1.4531 B( 72-C ,109-H ) :   0.9917
B( 73-C , 74-C ) :   0.9955 B( 74-C , 75-C ) :   1.6239 B( 75-C , 76-C ) :   1.1610
B( 75-C , 78-C ) :   1.1519 B( 76-C , 77-N ) :   3.0152 B( 78-C , 79-N ) :   2.8879

-----------------------------------------------------------------------------
         ABSORPTION SPECTRUM VIA TRANSITION ELECTRIC DIPOLE MOMENTS
-----------------------------------------------------------------------------
State   Energy  Wavelength   fosc         T2         TX        TY        TZ
        (cm-1)    (nm)                  (au**2)     (au)      (au)      (au)
-----------------------------------------------------------------------------
   0   13531.6    739.0   0.042910452   1.04398  -0.01687   0.08917   1.01771
   1   14488.1    690.2   0.070471979   1.60133  -1.23304   0.28270   0.03223
   2   14607.5    684.6   0.001609876   0.03628  -0.12076  -0.04011   0.14174
   3   19530.9    512.0   0.004720094   0.07956   0.18995   0.16514  -0.12732
   4   20381.4    490.6   0.095757175   1.54672   0.93043   0.45357  -0.68942
   5   22339.0    447.6   0.007530250   0.11097   0.27043   0.02985   0.19223
   6   24394.5    409.9   0.004481625   0.06048  -0.21798   0.03100   0.10956
   7   25157.3    397.5   0.111530746   1.45951  -1.05707   0.48187   0.33154
   8   25307.3    395.1   0.022216430   0.28900   0.35761   0.17007   0.36359
   9   25990.3    384.8   0.050824209   0.64378   0.38694   0.34043   0.61495
  10   26129.8    382.7   0.054804909   0.69049  -0.27414  -0.38490  -0.68351
  11   26218.5    381.4   0.358243496   4.49828   0.07969   1.33920   1.64270
  12   26640.5    375.4   0.101846803   1.25858  -0.00841   0.99480   0.51854
  13   28025.1    356.8   0.136295954   1.60107   0.25643   0.65536   1.05158
  14   28482.7    351.1   0.120879920   1.39717  -0.72084  -0.24695   0.90364
  15   28741.2    347.9   0.123311479   1.41246   0.66156   0.95780  -0.23959
  16   28872.5    346.3   0.143804122   1.63969  -0.04996   0.07957   1.27705
  17   29071.7    344.0   0.056596089   0.64090  -0.58322  -0.53939   0.09905
  18   29431.4    339.8   0.017746478   0.19851  -0.23977   0.34803   0.14105
  19   29448.2    339.6   0.117629636   1.31502  -0.13436   0.95594   0.61899
  20   29889.0    334.6   0.081149800   0.89382  -0.82685  -0.41410  -0.19662
  21   29915.6    334.3   0.041243025   0.45387   0.34813  -0.13878  -0.55983
  22   30069.5    332.6   0.102102507   1.11786  -0.47756   0.28836   0.89813
  23   30373.7    329.2   0.266297021   2.88632   1.41502   0.40301  -0.84949
  24   30571.6    327.1   0.013686117   0.14738   0.02140   0.22146  -0.31285
  25   31006.4    322.5   0.002139068   0.02271  -0.13860  -0.02572   0.05330
  26   31123.1    321.3   0.024839900   0.26275   0.31178  -0.03668  -0.40522
  27   31838.4    314.1   0.006461402   0.06681  -0.07125   0.09697  -0.22876
  28   31921.3    313.3   0.012355271   0.12742   0.20176   0.07276   0.28534
  29   32279.3    309.8   0.048680519   0.49649  -0.58250   0.08340   0.38759
  30   32527.4    307.4   0.283159623   2.86588   1.20993   1.17548   0.14208
  31   32585.7    306.9   0.123609739   1.24882   0.50541   0.88099   0.46609
  32   32789.5    305.0   0.318586152   3.19865   1.02198  -0.26450  -1.44370
  33   32936.0    303.6   0.015691037   0.15684   0.21847   0.30584   0.12478
  34   33162.4    301.5   0.001623220   0.01611  -0.01329  -0.08957  -0.08896
  35   33357.9    299.8   0.979087764   9.66270   0.88149  -0.61945  -2.91581
  36   33546.0    298.1   0.030468514   0.29901  -0.51599  -0.18100  -0.00066
  37   33794.3    295.9   0.056592828   0.55131   0.44466   0.12038  -0.58232
  38   34042.0    293.8   0.033887328   0.32772  -0.38274  -0.11045   0.41113
  39   34172.6    292.6   0.097017681   0.93465   0.80445   0.15096  -0.51450
  40   34367.8    291.0   0.061902029   0.59297  -0.50317  -0.46498   0.35154
  41   34475.2    290.1   0.476026466   4.54569  -1.83676  -0.48803   0.96635
  42   34833.9    287.1   0.007982786   0.07544  -0.10734  -0.06515   0.24429
  43   35132.6    284.6   1.019488455   9.55318  -0.38101   0.33436   3.04897
  44   35156.9    284.4   0.226672892   2.12258  -0.74622  -0.05073   1.25026
  45   35360.7    282.8   0.141137470   1.31401  -0.94045  -0.22583   0.61527
  46   35480.1    281.8   0.134580659   1.24874  -0.84771  -0.72381  -0.07895
  47   35536.4    281.4   0.054547579   0.50533   0.31260  -0.29197  -0.56777
  48   35939.1    278.2   0.002761176   0.02529  -0.04919  -0.14959  -0.02228
  49   36304.3    275.4   0.004268550   0.03871  -0.18199   0.05041   0.05520
  50   36545.8    273.6   0.030212562   0.27216   0.15736  -0.10039  -0.48716
  51   36816.1    271.6   0.001948555   0.01742   0.09835   0.01502  -0.08675
  52   37054.9    269.9   0.005369632   0.04771   0.01893   0.15790  -0.14972
  53   37280.9    268.2   0.007552642   0.06669   0.19586  -0.11081  -0.12671
  54   37500.6    266.7   0.004035764   0.03543   0.05444  -0.06429  -0.16832
  55   37708.8    265.2   0.008633699   0.07538   0.10483   0.13864   0.21252
  56   37799.8    264.6   0.005675440   0.04943  -0.08720   0.10517   0.17540
  57   37933.9    263.6   0.001796041   0.01559  -0.02216  -0.12273  -0.00570
  58   38373.9    260.6   0.028064176   0.24076   0.02589   0.24105  -0.42660
  59   38781.4    257.9   0.006792437   0.05766   0.08980  -0.02950  -0.22074
  60   39018.1    256.3   0.080611207   0.68015  -0.47124   0.55597   0.38599
  61   39322.5    254.3   0.326420319   2.73283   1.06850   1.20684   0.36697
  62   39711.2    251.8   0.088037637   0.72985  -0.71563  -0.23720  -0.40181
  63   39765.2    251.5   0.062186101   0.51483  -0.35023  -0.38487  -0.49401
  64   40283.2    248.2   0.002092525   0.01710  -0.03302   0.02050   0.12486
  65   40319.6    248.0   0.000790641   0.00646   0.06552   0.04651   0.00020

FINAL SINGLE POINT ENERGY     -3991.451516556390

DIPOLE MOMENT
-------------
                                X             Y             Z
Electronic contribution:     -3.69499      11.12550      -6.42639
Nuclear contribution   :      2.94031     -11.61467       5.60077
                        -----------------------------------------
Total Dipole Moment    :     -0.75468      -0.48917      -0.82562
                        -----------------------------------------
Magnitude (a.u.)       :      1.22085
Magnitude (Debye)      :      3.10316

Rotational constants in cm-1:     0.001176     0.000454     0.000356
Rotational constants in MHz :    35.251297    13.623823    10.671556

                             ****ORCA TERMINATED NORMALLY****
TOTAL RUN TIME: 0 days 0 hours 13 minutes 38 seconds 986 msec
