                         Program Version 4.2.0 -  RELEASE  -
|  1> # ORCA input file
|  2> # SCF done       -189.634381920021          0.000397002232
|  3> ! CAM-B3LYP def2-SVP def2/J RIJCOSX Grid4 TightSCF
|  4> %maxcore 5000
|  5> %tddft
|  6>     Mode sTDDFT
|  7>     Ethresh 5.0
|  8>     maxcore 5000
|  9> end
| 10>
| 11> %pal
| 12>   nprocs 6
| 13>   end
| 14> * xyz 0 1
| 15>    C       -4.49500         1.32300         9.30436
| 16>    C       -4.49260         1.32032        10.67089
| 17>    F       -4.43896         2.47571        11.34656
| 18>    C       -4.54544         0.10694        11.38616
| 19>    F       -4.54034         0.13502        12.72577
| 20>    C       -4.60001        -1.08765        10.72450
| 21>    C       -4.60208        -1.11824         9.31635
| 22>    C       -4.54976         0.10802         8.59184
| 23>    C       -4.54951         0.10206         7.17835
| 24>    C       -4.59873        -1.09360         6.51086
| 25>    C       -4.64396        -2.31297         7.24214
| 26>    C       -4.64713        -2.33898         8.60698
| 27>    C       -4.65251        -3.45354         6.30371
| 28>    O       -4.63022        -4.62780         6.59755
| 29>    C       -4.58680        -2.84988         4.94661
| 30>    C       -4.60844        -1.40654         5.08540
| 31>    C       -4.70551        -0.49500         4.06698
| 32>    C       -4.81790        -0.82394         2.69894
| 33>    N       -4.93843        -1.01577         1.57363
| 34>    C       -4.74645         0.90169         4.26043
| 35>    N       -4.77722         2.04500         4.35743
| 36>    C       -4.33411        -3.54945         3.80196
| 37>    C       -4.41301        -4.95463         3.62981
| 38>    C       -3.64454        -5.67626         2.73759
| 39>    C       -3.94450        -7.06239         2.88054
| 40>    C       -5.04159        -7.14324         3.85380
| 41>    C       -5.30924        -5.88686         4.30065
| 42>    C       -5.78887        -8.28211         4.18502
| 43>    N       -6.46476        -9.17404         4.44017
| 44>    C       -3.29307        -8.11981         2.27833
| 45>    C       -3.44575        -9.50038         2.55336
| 46>    C       -2.57341       -10.22769         1.75495
| 47>    C       -1.84484        -9.27735         0.92428
| 48>    C       -2.25127        -8.02064         1.23964
| 49>    C       -1.75065        -6.85712         0.64486
| 50>    N       -1.30617        -5.92897         0.13423
| 51>    C       -2.42405       -11.63237         1.81966
| 52>    N       -1.70244       -12.43372         0.96488
| 53>    C       -1.00215       -12.05564        -0.23282
| 54>    C       -1.75058       -13.78842         1.34231
| 55>    O       -1.18901       -14.67369         0.72824
| 56>    C       -2.56823       -13.80027         2.53207
| 57>    C       -2.97322       -12.47734         2.79667
| 58>    C       -3.76803       -12.48987         4.01327
| 59>    O       -4.29286       -11.61179         4.65787
| 60>    N       -3.81519       -13.85157         4.37764
| 61>    C       -4.53596       -14.29427         5.54081
| 62>    C       -3.09896       -14.64177         3.52121
| 63>    C       -2.95688       -16.03525         3.69291
| 64>    C       -2.16750       -16.80375         2.89131
| 65>    C       -2.01663       -18.19130         3.11101
| 66>    O       -1.15428       -18.91380         2.34288
| 67>    C       -2.59871       -19.05396         4.02817
| 68>    C       -3.54517       -19.14378         5.14533
| 69>    O       -4.21204       -18.29324         5.68203
| 70>    N       -3.51635       -20.48487         5.49565
| 71>    C       -2.65054       -21.28261         4.73777
| 72>    O       -2.48828       -22.46309         4.89671
| 73>    C       -2.06047       -20.33793         3.78890
| 74>    C       -1.16039       -20.21130         2.74046
| 75>    C       -0.31925       -21.17648         2.13655
| 76>    C        0.56817       -20.88204         1.15554
| 77>    C        1.45184       -21.81235         0.56048
| 78>    S        1.50969       -23.50383         0.99241
| 79>    C        2.78300       -23.80286        -0.12290
| 80>    C        3.15353       -22.67710        -0.79660
| 81>    C        2.39558       -21.53426        -0.41269
| 82>    O        2.58737       -20.31196        -0.94266
| 83>    O        4.11741       -22.51430        -1.74569
| 84>    C        4.86296       -23.65862        -2.09203
| 85>    H       -4.45518         2.26066         8.77228
| 86>    H       -4.63936        -2.00776        11.28625
| 87>    H       -4.50197         1.04545         6.65888
| 88>    H       -4.68148        -3.27860         9.13720
| 89>    H       -3.98560        -3.00284         2.93305
| 90>    H       -2.88086        -5.27264         2.10103
| 91>    H       -6.08624        -5.61259         4.98673
| 92>    H       -4.11389        -9.90812         3.28668
| 93>    H       -1.08806        -9.51053         0.20204
| 94>    H       -1.64626       -11.47770        -0.89646
| 95>    H       -0.71421       -12.98409        -0.72880
| 96>    H       -0.09595       -11.49163        -0.00232
| 97>    H       -5.00705       -13.41286         5.97599
| 98>    H       -3.86193       -14.74330         6.27203
| 99>    H       -5.30346       -15.02056         5.27070
|100>    H       -3.49069       -16.49651         4.51218
|101>    H       -1.61635       -16.37236         2.06631
|102>    H       -4.07639       -20.86143         6.24728
|103>    H       -0.40866       -22.18132         2.52365
|104>    H        0.64455       -19.86874         0.78375
|105>    H        3.17664       -24.79511        -0.20822
|106>    H        3.29893       -20.37271        -1.59538
|107>    H        5.57849       -23.33254        -2.84411
|108>    H        4.21804       -24.43671        -2.51037
|109>    H        5.39673       -24.05741        -1.22453
|110> *
|111>
|112>                          ****END OF INPUT****

CARTESIAN COORDINATES (ANGSTROEM)
---------------------------------
  C     -4.495000    1.323000    9.304360
  C     -4.492600    1.320320   10.670890
  F     -4.438960    2.475710   11.346560
  C     -4.545440    0.106940   11.386160
  F     -4.540340    0.135020   12.725770
  C     -4.600010   -1.087650   10.724500
  C     -4.602080   -1.118240    9.316350
  C     -4.549760    0.108020    8.591840
  C     -4.549510    0.102060    7.178350
  C     -4.598730   -1.093600    6.510860
  C     -4.643960   -2.312970    7.242140
  C     -4.647130   -2.338980    8.606980
  C     -4.652510   -3.453540    6.303710
  O     -4.630220   -4.627800    6.597550
  C     -4.586800   -2.849880    4.946610
  C     -4.608440   -1.406540    5.085400
  C     -4.705510   -0.495000    4.066980
  C     -4.817900   -0.823940    2.698940
  N     -4.938430   -1.015770    1.573630
  C     -4.746450    0.901690    4.260430
  N     -4.777220    2.045000    4.357430
  C     -4.334110   -3.549450    3.801960
  C     -4.413010   -4.954630    3.629810
  C     -3.644540   -5.676260    2.737590
  C     -3.944500   -7.062390    2.880540
  C     -5.041590   -7.143240    3.853800
  C     -5.309240   -5.886860    4.300650
  C     -5.788870   -8.282110    4.185020
  N     -6.464760   -9.174040    4.440170
  C     -3.293070   -8.119810    2.278330
  C     -3.445750   -9.500380    2.553360
  C     -2.573410  -10.227690    1.754950
  C     -1.844840   -9.277350    0.924280
  C     -2.251270   -8.020640    1.239640
  C     -1.750650   -6.857120    0.644860
  N     -1.306170   -5.928970    0.134230
  C     -2.424050  -11.632370    1.819660
  N     -1.702440  -12.433720    0.964880
  C     -1.002150  -12.055640   -0.232820
  C     -1.750580  -13.788420    1.342310
  O     -1.189010  -14.673690    0.728240
  C     -2.568230  -13.800270    2.532070
  C     -2.973220  -12.477340    2.796670
  C     -3.768030  -12.489870    4.013270
  O     -4.292860  -11.611790    4.657870
  N     -3.815190  -13.851570    4.377640
  C     -4.535960  -14.294270    5.540810
  C     -3.098960  -14.641770    3.521210
  C     -2.956880  -16.035250    3.692910
  C     -2.167500  -16.803750    2.891310
  C     -2.016630  -18.191300    3.111010
  O     -1.154280  -18.913800    2.342880
  C     -2.598710  -19.053960    4.028170
  C     -3.545170  -19.143780    5.145330
  O     -4.212040  -18.293240    5.682030
  N     -3.516350  -20.484870    5.495650
  C     -2.650540  -21.282610    4.737770
  O     -2.488280  -22.463090    4.896710
  C     -2.060470  -20.337930    3.788900
  C     -1.160390  -20.211300    2.740460
  C     -0.319250  -21.176480    2.136550
  C      0.568170  -20.882040    1.155540
  C      1.451840  -21.812350    0.560480
  S      1.509690  -23.503830    0.992410
  C      2.783000  -23.802860   -0.122900
  C      3.153530  -22.677100   -0.796600
  C      2.395580  -21.534260   -0.412690
  O      2.587370  -20.311960   -0.942660
  O      4.117410  -22.514300   -1.745690
  C      4.862960  -23.658620   -2.092030
  H     -4.455180    2.260660    8.772280
  H     -4.639360   -2.007760   11.286250
  H     -4.501970    1.045450    6.658880
  H     -4.681480   -3.278600    9.137200
  H     -3.985600   -3.002840    2.933050
  H     -2.880860   -5.272640    2.101030
  H     -6.086240   -5.612590    4.986730
  H     -4.113890   -9.908120    3.286680
  H     -1.088060   -9.510530    0.202040
  H     -1.646260  -11.477700   -0.896460
  H     -0.714210  -12.984090   -0.728800
  H     -0.095950  -11.491630   -0.002320
  H     -5.007050  -13.412860    5.975990
  H     -3.861930  -14.743300    6.272030
  H     -5.303460  -15.020560    5.270700
  H     -3.490690  -16.496510    4.512180
  H     -1.616350  -16.372360    2.066310
  H     -4.076390  -20.861430    6.247280
  H     -0.408660  -22.181320    2.523650
  H      0.644550  -19.868740    0.783750
  H      3.176640  -24.795110   -0.208220
  H      3.298930  -20.372710   -1.595380
  H      5.578490  -23.332540   -2.844110
  H      4.218040  -24.436710   -2.510370
  H      5.396730  -24.057410   -1.224530

 Total Charge           Charge          ....    0
 Multiplicity           Mult            ....    1
 Number of Electrons    NEL             ....  484
 Basis Dimension        Dim             .... 1109

ORBITAL ENERGIES
----------------

  NO   OCC          E(Eh)            E(eV)
   0   2.0000     -88.960560     -2420.7399
   1   2.0000     -24.799808      -674.8371
   2   2.0000     -24.798822      -674.8102
   3   2.0000     -19.313074      -525.5355
   4   2.0000     -19.271026      -524.3913
   5   2.0000     -19.264278      -524.2077
   6   2.0000     -19.224068      -523.1135
   7   2.0000     -19.219943      -523.0012
   8   2.0000     -19.212567      -522.8005
   9   2.0000     -19.202401      -522.5239
  10   2.0000     -19.195068      -522.3243
  11   2.0000     -14.463119      -393.5615
  12   2.0000     -14.462325      -393.5399
  13   2.0000     -14.458675      -393.4406
  14   2.0000     -14.419310      -392.3694
  15   2.0000     -14.418133      -392.3373
  16   2.0000     -14.410682      -392.1346
  17   2.0000     -14.392497      -391.6398
  18   2.0000     -10.407227      -283.1950
  19   2.0000     -10.401739      -283.0457
  20   2.0000     -10.383402      -282.5467
  21   2.0000     -10.383248      -282.5425
  22   2.0000     -10.382671      -282.5268
  23   2.0000     -10.378679      -282.4182
  24   2.0000     -10.374823      -282.3133
  25   2.0000     -10.367198      -282.1058
  26   2.0000     -10.362490      -281.9777
  27   2.0000     -10.350141      -281.6416
  28   2.0000     -10.349697      -281.6296
  29   2.0000     -10.348043      -281.5846
  30   2.0000     -10.346700      -281.5480
  31   2.0000     -10.345562      -281.5171
  32   2.0000     -10.344987      -281.5014
  33   2.0000     -10.341553      -281.4080
  34   2.0000     -10.324199      -280.9357
  35   2.0000     -10.322582      -280.8917
  36   2.0000     -10.321622      -280.8656
  37   2.0000     -10.320890      -280.8457
  38   2.0000     -10.320065      -280.8232
  39   2.0000     -10.318370      -280.7771
  40   2.0000     -10.313499      -280.6446
  41   2.0000     -10.312820      -280.6261
  42   2.0000     -10.312571      -280.6193
  43   2.0000     -10.312505      -280.6175
  44   2.0000     -10.312449      -280.6160
  45   2.0000     -10.310432      -280.5611
  46   2.0000     -10.310400      -280.5603
  47   2.0000     -10.306916      -280.4654
  48   2.0000     -10.306145      -280.4445
  49   2.0000     -10.306124      -280.4439
  50   2.0000     -10.305221      -280.4193
  51   2.0000     -10.304845      -280.4091
  52   2.0000     -10.303823      -280.3813
  53   2.0000     -10.303669      -280.3771
  54   2.0000     -10.303340      -280.3681
  55   2.0000     -10.302839      -280.3545
  56   2.0000     -10.302711      -280.3510
  57   2.0000     -10.302049      -280.3330
  58   2.0000     -10.301940      -280.3300
  59   2.0000     -10.301285      -280.3122
  60   2.0000     -10.297761      -280.2163
  61   2.0000     -10.296941      -280.1940
  62   2.0000     -10.296312      -280.1769
  63   2.0000     -10.295578      -280.1569
  64   2.0000     -10.293833      -280.1094
  65   2.0000     -10.290232      -280.0115
  66   2.0000     -10.287885      -279.9476
  67   2.0000     -10.280310      -279.7415
  68   2.0000     -10.277056      -279.6529
  69   2.0000     -10.269560      -279.4489
  70   2.0000      -8.056094      -219.2175
  71   2.0000      -6.025590      -163.9647
  72   2.0000      -6.021680      -163.8582
  73   2.0000      -6.017539      -163.7456
  74   2.0000      -1.322159       -35.9778
  75   2.0000      -1.307275       -35.5728
  76   2.0000      -1.229462       -33.4554
  77   2.0000      -1.178593       -32.0712
  78   2.0000      -1.160444       -31.5773
  79   2.0000      -1.152928       -31.3728
  80   2.0000      -1.142806       -31.0973
  81   2.0000      -1.139795       -31.0154
  82   2.0000      -1.139413       -31.0050
  83   2.0000      -1.134578       -30.8734
  84   2.0000      -1.072113       -29.1737
  85   2.0000      -1.062570       -28.9140
  86   2.0000      -1.047120       -28.4936
  87   2.0000      -1.023091       -27.8397
  88   2.0000      -1.014650       -27.6100
  89   2.0000      -1.006820       -27.3970
  90   2.0000      -0.997787       -27.1512
  91   2.0000      -0.996675       -27.1209
  92   2.0000      -0.987459       -26.8701
  93   2.0000      -0.984850       -26.7991
  94   2.0000      -0.982743       -26.7418
  95   2.0000      -0.971400       -26.4331
  96   2.0000      -0.939067       -25.5533
  97   2.0000      -0.935087       -25.4450
  98   2.0000      -0.928264       -25.2593
  99   2.0000      -0.926894       -25.2221
 100   2.0000      -0.910311       -24.7708
 101   2.0000      -0.907351       -24.6903
 102   2.0000      -0.895717       -24.3737
 103   2.0000      -0.888870       -24.1874
 104   2.0000      -0.878862       -23.9151
 105   2.0000      -0.868320       -23.6282
 106   2.0000      -0.856318       -23.3016
 107   2.0000      -0.848132       -23.0789
 108   2.0000      -0.845556       -23.0088
 109   2.0000      -0.842925       -22.9372
 110   2.0000      -0.840697       -22.8765
 111   2.0000      -0.826680       -22.4951
 112   2.0000      -0.815048       -22.1786
 113   2.0000      -0.798278       -21.7223
 114   2.0000      -0.791939       -21.5497
 115   2.0000      -0.782826       -21.3018
 116   2.0000      -0.771223       -20.9860
 117   2.0000      -0.770398       -20.9636
 118   2.0000      -0.768565       -20.9137
 119   2.0000      -0.768185       -20.9034
 120   2.0000      -0.759692       -20.6723
 121   2.0000      -0.742008       -20.1911
 122   2.0000      -0.731799       -19.9133
 123   2.0000      -0.721891       -19.6436
 124   2.0000      -0.718889       -19.5620
 125   2.0000      -0.710509       -19.3339
 126   2.0000      -0.707368       -19.2485
 127   2.0000      -0.700439       -19.0599
 128   2.0000      -0.690873       -18.7996
 129   2.0000      -0.689219       -18.7546
 130   2.0000      -0.684201       -18.6181
 131   2.0000      -0.676292       -18.4028
 132   2.0000      -0.671408       -18.2700
 133   2.0000      -0.666460       -18.1353
 134   2.0000      -0.661032       -17.9876
 135   2.0000      -0.658217       -17.9110
 136   2.0000      -0.649933       -17.6856
 137   2.0000      -0.645471       -17.5642
 138   2.0000      -0.639704       -17.4072
 139   2.0000      -0.635325       -17.2881
 140   2.0000      -0.630491       -17.1565
 141   2.0000      -0.618539       -16.8313
 142   2.0000      -0.613083       -16.6829
 143   2.0000      -0.604224       -16.4418
 144   2.0000      -0.597878       -16.2691
 145   2.0000      -0.597075       -16.2472
 146   2.0000      -0.594881       -16.1875
 147   2.0000      -0.590298       -16.0628
 148   2.0000      -0.587487       -15.9863
 149   2.0000      -0.586739       -15.9660
 150   2.0000      -0.582691       -15.8558
 151   2.0000      -0.580033       -15.7835
 152   2.0000      -0.579210       -15.7611
 153   2.0000      -0.575834       -15.6692
 154   2.0000      -0.572795       -15.5865
 155   2.0000      -0.570970       -15.5369
 156   2.0000      -0.566639       -15.4190
 157   2.0000      -0.564088       -15.3496
 158   2.0000      -0.561164       -15.2701
 159   2.0000      -0.559121       -15.2145
 160   2.0000      -0.555508       -15.1161
 161   2.0000      -0.550293       -14.9742
 162   2.0000      -0.548264       -14.9190
 163   2.0000      -0.547272       -14.8920
 164   2.0000      -0.542306       -14.7569
 165   2.0000      -0.539174       -14.6717
 166   2.0000      -0.537092       -14.6150
 167   2.0000      -0.534159       -14.5352
 168   2.0000      -0.532458       -14.4889
 169   2.0000      -0.527831       -14.3630
 170   2.0000      -0.525606       -14.3025
 171   2.0000      -0.523325       -14.2404
 172   2.0000      -0.522159       -14.2087
 173   2.0000      -0.520964       -14.1761
 174   2.0000      -0.519946       -14.1485
 175   2.0000      -0.519556       -14.1378
 176   2.0000      -0.516724       -14.0608
 177   2.0000      -0.515480       -14.0269
 178   2.0000      -0.514156       -13.9909
 179   2.0000      -0.507719       -13.8157
 180   2.0000      -0.505322       -13.7505
 181   2.0000      -0.504292       -13.7225
 182   2.0000      -0.500436       -13.6176
 183   2.0000      -0.499378       -13.5888
 184   2.0000      -0.497953       -13.5500
 185   2.0000      -0.489329       -13.3153
 186   2.0000      -0.487343       -13.2613
 187   2.0000      -0.486273       -13.2322
 188   2.0000      -0.485224       -13.2036
 189   2.0000      -0.483495       -13.1566
 190   2.0000      -0.481691       -13.1075
 191   2.0000      -0.477082       -12.9821
 192   2.0000      -0.473361       -12.8808
 193   2.0000      -0.471421       -12.8280
 194   2.0000      -0.471006       -12.8167
 195   2.0000      -0.470439       -12.8013
 196   2.0000      -0.467955       -12.7337
 197   2.0000      -0.464129       -12.6296
 198   2.0000      -0.461105       -12.5473
 199   2.0000      -0.456113       -12.4115
 200   2.0000      -0.453542       -12.3415
 201   2.0000      -0.451732       -12.2923
 202   2.0000      -0.448841       -12.2136
 203   2.0000      -0.448407       -12.2018
 204   2.0000      -0.448036       -12.1917
 205   2.0000      -0.446324       -12.1451
 206   2.0000      -0.445830       -12.1316
 207   2.0000      -0.440250       -11.9798
 208   2.0000      -0.439386       -11.9563
 209   2.0000      -0.433184       -11.7875
 210   2.0000      -0.432542       -11.7701
 211   2.0000      -0.430563       -11.7162
 212   2.0000      -0.426330       -11.6010
 213   2.0000      -0.423941       -11.5360
 214   2.0000      -0.421643       -11.4735
 215   2.0000      -0.421007       -11.4562
 216   2.0000      -0.414311       -11.2740
 217   2.0000      -0.412402       -11.2220
 218   2.0000      -0.411159       -11.1882
 219   2.0000      -0.404955       -11.0194
 220   2.0000      -0.397275       -10.8104
 221   2.0000      -0.390205       -10.6180
 222   2.0000      -0.387178       -10.5357
 223   2.0000      -0.386012       -10.5039
 224   2.0000      -0.374342       -10.1864
 225   2.0000      -0.371578       -10.1111
 226   2.0000      -0.363510        -9.8916
 227   2.0000      -0.357406        -9.7255
 228   2.0000      -0.356085        -9.6896
 229   2.0000      -0.350463        -9.5366
 230   2.0000      -0.349513        -9.5107
 231   2.0000      -0.340183        -9.2568
 232   2.0000      -0.325079        -8.8458
 233   2.0000      -0.322443        -8.7741
 234   2.0000      -0.320291        -8.7156
 235   2.0000      -0.317564        -8.6413
 236   2.0000      -0.313654        -8.5350
 237   2.0000      -0.304691        -8.2911
 238   2.0000      -0.292815        -7.9679
 239   2.0000      -0.291296        -7.9266
 240   2.0000      -0.265794        -7.2326
 241   2.0000      -0.235076        -6.3967
 242   0.0000      -0.136620        -3.7176
 243   0.0000      -0.088992        -2.4216
 244   0.0000      -0.078598        -2.1388
 245   0.0000      -0.061008        -1.6601
 246   0.0000      -0.053253        -1.4491

MULLIKEN ATOMIC CHARGES
-----------------------
   0 C :   -0.104978
   1 C :    0.241500
   2 F :   -0.170159
   3 C :    0.239491
   4 F :   -0.171448
   5 C :   -0.101631
   6 C :    0.113498
   7 C :    0.110468
   8 C :   -0.081097
   9 C :    0.058316
  10 C :   -0.017302
  11 C :   -0.074063
  12 C :    0.144797
  13 O :   -0.137425
  14 C :   -0.090768
  15 C :    0.302361
  16 C :   -0.331307
  17 C :   -0.201272
  18 N :    0.168745
  19 C :   -0.181174
  20 N :    0.150486
  21 C :   -0.022166
  22 C :    0.074180
  23 C :   -0.073452
  24 C :    0.092225
  25 C :   -0.114056
  26 C :    0.072926
  27 C :   -0.189916
  28 N :    0.147615
  29 C :    0.142994
  30 C :   -0.132603
  31 C :    0.054961
  32 C :   -0.037784
  33 C :   -0.090963
  34 C :   -0.184572
  35 N :    0.144085
  36 C :    0.148950
  37 N :   -0.270557
  38 C :    0.117163
  39 C :    0.152995
  40 O :   -0.206448
  41 C :   -0.076064
  42 C :   -0.061096
  43 C :    0.160711
  44 O :   -0.158853
  45 N :   -0.265834
  46 C :    0.116559
  47 C :    0.158276
  48 C :   -0.045579
  49 C :    0.027429
  50 C :    0.119034
  51 O :   -0.197726
  52 C :   -0.077712
  53 C :    0.193760
  54 O :   -0.161648
  55 N :   -0.161771
  56 C :    0.161780
  57 O :   -0.138097
  58 C :   -0.032121
  59 C :    0.103734
  60 C :   -0.055472
  61 C :    0.051414
  62 C :   -0.185933
  63 S :    0.122813
  64 C :   -0.194664
  65 C :    0.213282
  66 C :    0.149634
  67 O :   -0.167771
  68 O :   -0.336740
  69 C :    0.178503
  70 H :    0.008708
  71 H :    0.000612
  72 H :   -0.005281
  73 H :   -0.007541
  74 H :    0.039880
  75 H :    0.012583
  76 H :    0.002248
  77 H :    0.028414
  78 H :   -0.014351
  79 H :    0.038879
  80 H :    0.061947
  81 H :    0.041604
  82 H :    0.067347
  83 H :    0.041664
  84 H :    0.049329
  85 H :   -0.010662
  86 H :    0.016514
  87 H :    0.139267
  88 H :    0.014867
  89 H :    0.023073
  90 H :    0.024780
  91 H :    0.192340
  92 H :    0.043315
  93 H :    0.029329
  94 H :    0.028672
Sum of atomic charges:   -0.0000000

LOEWDIN ATOMIC CHARGES
----------------------
   0 C :   -0.029031
   1 C :    0.067822
   2 F :   -0.048064
   3 C :    0.068524
   4 F :   -0.048762
   5 C :   -0.032020
   6 C :   -0.008423
   7 C :   -0.005690
   8 C :    0.018104
   9 C :   -0.022631
  10 C :   -0.053796
  11 C :    0.032422
  12 C :    0.083647
  13 O :   -0.127718
  14 C :   -0.085507
  15 C :    0.071672
  16 C :   -0.130272
  17 C :   -0.025727
  18 N :   -0.040467
  19 C :   -0.016869
  20 N :   -0.048349
  21 C :    0.077781
  22 C :   -0.031240
  23 C :    0.020443
  24 C :    0.033728
  25 C :   -0.090732
  26 C :    0.073125
  27 C :   -0.035698
  28 N :   -0.051821
  29 C :    0.039245
  30 C :   -0.002049
  31 C :   -0.027648
  32 C :    0.045464
  33 C :   -0.076369
  34 C :   -0.033392
  35 N :   -0.059231
  36 C :    0.060046
  37 N :   -0.007277
  38 C :    0.027700
  39 C :    0.076543
  40 O :   -0.202304
  41 C :   -0.123018
  42 C :   -0.088442
  43 C :    0.085720
  44 O :   -0.154115
  45 N :   -0.000217
  46 C :    0.031489
  47 C :    0.089063
  48 C :   -0.034232
  49 C :    0.024009
  50 C :    0.051288
  51 O :    0.021763
  52 C :   -0.082530
  53 C :    0.088025
  54 O :   -0.166204
  55 N :   -0.003296
  56 C :    0.086515
  57 O :   -0.155981
  58 C :   -0.109841
  59 C :    0.087671
  60 C :   -0.072859
  61 C :    0.019220
  62 C :   -0.221806
  63 S :    0.430218
  64 C :   -0.224656
  65 C :   -0.020811
  66 C :    0.020847
  67 O :   -0.036100
  68 O :   -0.117209
  69 C :    0.083101
  70 H :    0.048111
  71 H :    0.045392
  72 H :    0.040229
  73 H :    0.041320
  74 H :    0.052986
  75 H :    0.038693
  76 H :    0.037033
  77 H :    0.037779
  78 H :    0.034768
  79 H :    0.028214
  80 H :    0.043090
  81 H :    0.025570
  82 H :    0.044818
  83 H :    0.030883
  84 H :    0.033668
  85 H :    0.035130
  86 H :    0.045841
  87 H :    0.095494
  88 H :    0.038829
  89 H :    0.046103
  90 H :    0.025436
  91 H :    0.099949
  92 H :    0.031173
  93 H :    0.018376
  94 H :    0.018323

  Mayer bond orders larger than 0.100000
B(  0-C ,  1-C ) :   1.4423 B(  0-C ,  5-C ) :   0.1079 B(  0-C ,  7-C ) :   1.1870
B(  0-C , 70-H ) :   1.0075 B(  1-C ,  2-F ) :   1.1368 B(  1-C ,  3-C ) :   1.1888
B(  3-C ,  4-F ) :   1.1332 B(  3-C ,  5-C ) :   1.4437 B(  5-C ,  6-C ) :   1.1929
B(  5-C , 71-H ) :   1.0077 B(  6-C ,  7-C ) :   1.2541 B(  6-C , 11-C ) :   1.1902
B(  7-C ,  8-C ) :   1.2195 B(  8-C ,  9-C ) :   1.4471 B(  8-C , 72-H ) :   0.9910
B(  9-C , 10-C ) :   1.2168 B(  9-C , 15-C ) :   0.9925 B( 10-C , 11-C ) :   1.4746
B( 10-C , 12-C ) :   0.9407 B( 11-C , 73-H ) :   1.0168 B( 12-C , 13-O ) :   2.2231
B( 12-C , 14-C ) :   0.9397 B( 14-C , 15-C ) :   1.0517 B( 14-C , 21-C ) :   1.5983
B( 15-C , 16-C ) :   1.6516 B( 16-C , 17-C ) :   1.1380 B( 16-C , 19-C ) :   1.1432
B( 17-C , 18-N ) :   2.9932 B( 19-C , 20-N ) :   2.9643 B( 21-C , 22-C ) :   1.1202
B( 21-C , 74-H ) :   0.9500 B( 22-C , 23-C ) :   1.4946 B( 22-C , 26-C ) :   1.0571
B( 23-C , 24-C ) :   1.1162 B( 23-C , 75-H ) :   1.0064 B( 24-C , 25-C ) :   1.1224
B( 24-C , 29-C ) :   1.3791 B( 25-C , 26-C ) :   1.6628 B( 25-C , 27-C ) :   1.0891
B( 26-C , 76-H ) :   1.0085 B( 27-C , 28-N ) :   2.9994 B( 29-C , 30-C ) :   1.1430
B( 29-C , 33-C ) :   1.0900 B( 30-C , 31-C ) :   1.5081 B( 30-C , 77-H ) :   0.9879
B( 31-C , 32-C ) :   1.0159 B( 31-C , 36-C ) :   1.0901 B( 32-C , 33-C ) :   1.6764
B( 32-C , 78-H ) :   1.0260 B( 33-C , 34-C ) :   1.0814 B( 34-C , 35-N ) :   2.9733
B( 36-C , 37-N ) :   1.1881 B( 36-C , 42-C ) :   1.3502 B( 37-N , 38-C ) :   0.9635
B( 37-N , 39-C ) :   1.0509 B( 38-C , 79-H ) :   0.9706 B( 38-C , 80-H ) :   0.9433
B( 38-C , 81-H ) :   0.9694 B( 39-C , 40-O ) :   2.0442 B( 39-C , 41-C ) :   1.0015
B( 41-C , 42-C ) :   1.2870 B( 41-C , 47-C ) :   1.2600 B( 42-C , 43-C ) :   0.9616
B( 43-C , 44-O ) :   2.0983 B( 43-C , 45-N ) :   1.0391 B( 45-N , 46-C ) :   0.9546
B( 45-N , 47-C ) :   1.1954 B( 46-C , 82-H ) :   0.9511 B( 46-C , 83-H ) :   0.9725
B( 46-C , 84-H ) :   0.9710 B( 47-C , 48-C ) :   1.1940 B( 48-C , 49-C ) :   1.5299
B( 48-C , 85-H ) :   0.9450 B( 49-C , 50-C ) :   1.1787 B( 49-C , 86-H ) :   0.9511
B( 50-C , 51-O ) :   1.1330 B( 50-C , 52-C ) :   1.4020 B( 51-O , 59-C ) :   1.1688
B( 52-C , 53-C ) :   0.8831 B( 52-C , 58-C ) :   1.2928 B( 53-C , 54-O ) :   2.1546
B( 53-C , 55-N ) :   1.1182 B( 55-N , 56-C ) :   1.0588 B( 55-N , 87-H ) :   0.9150
B( 56-C , 57-O ) :   2.2724 B( 56-C , 58-C ) :   0.8879 B( 58-C , 59-C ) :   1.3607
B( 59-C , 60-C ) :   1.2031 B( 60-C , 61-C ) :   1.5775 B( 60-C , 88-H ) :   0.9593
B( 61-C , 62-C ) :   1.1715 B( 61-C , 89-H ) :   0.9898 B( 62-C , 63-S ) :   1.0903
B( 62-C , 66-C ) :   1.4642 B( 63-S , 64-C ) :   1.1168 B( 64-C , 65-C ) :   1.5000
B( 64-C , 90-H ) :   0.9802 B( 65-C , 66-C ) :   1.1973 B( 65-C , 68-O ) :   1.1341
B( 66-C , 67-O ) :   1.2963 B( 67-O , 91-H ) :   0.9445 B( 68-O , 69-C ) :   0.9507
B( 69-C , 92-H ) :   0.9814 B( 69-C , 93-H ) :   0.9704 B( 69-C , 94-H ) :   0.9703

-----------------------------------------------------------------------------
         ABSORPTION SPECTRUM VIA TRANSITION ELECTRIC DIPOLE MOMENTS
-----------------------------------------------------------------------------
State   Energy  Wavelength   fosc         T2         TX        TY        TZ
        (cm-1)    (nm)                  (au**2)     (au)      (au)      (au)
-----------------------------------------------------------------------------
   0    7301.8   1369.5   0.600683263  27.08257  -0.99350   5.08774   0.45872
   1   15769.9    634.1   0.019157097   0.39992   0.16592  -0.33736  -0.50851
   2   16961.0    589.6   0.461472757   8.95714   0.71375  -2.90427   0.11359
   3   18019.5    555.0   0.066822522   1.22083  -0.42367  -0.53044   0.87176
   4   19571.5    510.9   0.005201059   0.08749   0.27933  -0.00877  -0.09689
   5   21704.0    460.7   0.386082378   5.85619  -0.38813   2.24580   0.81360
   6   22377.3    446.9   0.041100625   0.60467   0.48213  -0.55086  -0.26223
   7   23269.4    429.7   0.001526451   0.02160  -0.07850  -0.00566   0.12410
   8   24024.0    416.3   0.127472324   1.74681  -0.38148   0.82742   0.95742
   9   24709.4    404.7   0.105648321   1.40759   0.70380  -0.77903  -0.55260
  10   24846.1    402.5   0.126805597   1.68018   0.70320  -0.83535  -0.69849
  11   26091.3    383.3   0.256186634   3.23248  -1.17904   0.80329   1.09411
  12   26179.6    382.0   0.300228976   3.77541  -1.42044   0.11208   1.32106
  13   26205.7    381.6   0.049703815   0.62441   0.15100  -0.04600  -0.77427
  14   26867.3    372.2   0.070597052   0.86504  -0.31271   0.86449   0.14108
  15   27424.5    364.6   0.515056647   6.18289  -0.39976   2.16403   1.15760
  16   27915.1    358.2   0.080302000   0.94703   0.31281  -0.21917  -0.89506
  17   28899.6    346.0   0.099042950   1.12826   0.50027   0.28242  -0.89344
  18   29441.5    339.7   0.000273695   0.00306   0.04201   0.01966  -0.03016
  19   30348.8    329.5   0.164329596   1.78258   0.73711  -0.80193  -0.77212
  20   30863.2    324.0   0.351779419   3.75236  -1.41687   0.29936   1.28655
  21   31127.5    321.3   0.336709492   3.56113  -0.30904   0.70007   1.72497
  22   31722.1    315.2   0.028062146   0.29123  -0.23516  -0.30493  -0.37808
  23   31813.1    314.3   0.062562140   0.64741   0.12573   0.29245   0.73897
  24   32317.3    309.4   0.110743989   1.12813  -0.14939   0.74628   0.74087
  25   32379.4    308.8   0.052450215   0.53328  -0.10783  -0.62076   0.36920
  26   32648.9    306.3   0.030581174   0.30836   0.16346  -0.29849   0.43880
  27   32756.6    305.3   0.088019051   0.88461   0.35927  -0.01444   0.86910
  28   33306.2    300.2   0.086272253   0.85275   0.18434  -0.80733  -0.40865
  29   33475.6    298.7   0.052655912   0.51784  -0.30063   0.26123   0.59935
  30   33661.9    297.1   0.016911217   0.16539   0.14279   0.37302   0.07654
  31   33808.7    295.8   0.009863629   0.09605  -0.18386  -0.24516  -0.04624
  32   34300.9    291.5   0.059067090   0.56691   0.19577  -0.70349  -0.18355
  33   34380.0    290.9   0.059964883   0.57420   0.18507  -0.71210  -0.18130
  34   34451.1    290.3   0.019876270   0.18994  -0.15476   0.40261   0.06239
  35   35748.8    279.7   0.004822273   0.04441   0.09836  -0.12458   0.13862
  36   35785.2    279.4   0.378312112   3.48035  -0.07373   0.28723   1.84185
  37   36183.4    276.4   0.321403945   2.92427  -0.20373   0.94868  -1.40811
  38   36712.5    272.4   0.208416310   1.86893   0.04444   1.14362  -0.74772
  39   36928.5    270.8   0.017410240   0.15521  -0.06883  -0.32069  -0.21825
  40   37612.3    265.9   0.017671842   0.15468   0.25301  -0.28781  -0.08848
  41   37809.7    264.5   0.129478053   1.12738  -0.06533   0.56954   0.89372
  42   38052.4    262.8   0.002011819   0.01741  -0.04396   0.10625   0.06468
  43   38320.8    261.0   0.026403406   0.22683  -0.01507   0.41102  -0.24013
  44   38467.8    260.0   0.004947669   0.04234   0.06941   0.15128   0.12100
  45   38616.3    259.0   0.018967676   0.16170   0.22291  -0.12277  -0.31136
  46   38950.3    256.7   0.147545845   1.24707   0.00037   0.96739   0.55787
  47   39354.6    254.1   0.022492781   0.18816  -0.35374  -0.13410  -0.21224
  48   39799.8    251.3   0.006007798   0.04969  -0.06204  -0.20816  -0.05015
  49   40133.6    249.2   0.017036186   0.13975  -0.06487  -0.35805   0.08568

FINAL SINGLE POINT ENERGY     -3575.393105352464

DIPOLE MOMENT
-------------
                                X             Y             Z
Electronic contribution:    -24.25800      70.45006      37.10667
Nuclear contribution   :     27.32923     -75.31782     -37.52739
                        -----------------------------------------
Total Dipole Moment    :      3.07123      -4.86776      -0.42071
                        -----------------------------------------
Magnitude (a.u.)       :      5.77100
Magnitude (Debye)      :     14.66873

Rotational constants in cm-1:     0.002033     0.000218     0.000205
Rotational constants in MHz :    60.962039     6.521792     6.160155

                             ****ORCA TERMINATED NORMALLY****
TOTAL RUN TIME: 0 days 0 hours 10 minutes 11 seconds 987 msec
