                         Program Version 4.2.0 -  RELEASE  -
|  1> # ORCA input file
|  2> # SCF done       -192.741965345998          0.000747771725
|  3> ! CAM-B3LYP def2-SVP def2/J RIJCOSX Grid4 TightSCF
|  4> %maxcore 5000
|  5> %tddft
|  6>     Mode sTDDFT
|  7>     Ethresh 5.0
|  8>     maxcore 5000
|  9> end
| 10>
| 11> %pal
| 12>   nprocs 6
| 13>   end
| 14> * xyz 0 1
| 15>    C       -3.41918         3.68435         5.67084
| 16>    C       -4.65280         3.50727         5.16787
| 17>    C       -5.24389         2.32906         5.81172
| 18>    C       -6.54538         1.87807         5.59359
| 19>    N       -7.61670         1.49860         5.41664
| 20>    C       -4.32693         1.78434         6.66052
| 21>    C       -3.13304         2.59783         6.59906
| 22>    C       -1.94656         2.41641         7.25841
| 23>    C       -1.53090         1.24123         8.06993
| 24>    C       -0.45425         1.62635         8.81926
| 25>    C       -0.11043         2.98172         8.46208
| 26>    C       -0.97298         3.43743         7.49466
| 27>    C        0.95939         3.69964         9.01732
| 28>    N        1.84131         4.28347         9.46158
| 29>    C       -2.10038        -0.05495         7.92643
| 30>    C       -2.42892        -1.01739         8.86898
| 31>    N       -2.26759        -0.97001        10.26317
| 32>    O       -1.58729        -0.08033        10.74813
| 33>    O       -2.83034        -1.83211        10.91789
| 34>    C       -3.12596        -2.09357         8.21731
| 35>    C       -3.24286        -1.80997         6.89099
| 36>    C       -2.58633        -0.56980         6.63119
| 37>    C       -2.26740        -0.02079         5.39774
| 38>    C       -1.10005         0.73022         5.09170
| 39>    C       -1.08141         0.97841         3.74857
| 40>    C       -2.25693         0.43780         3.14825
| 41>    N       -2.47268         0.59137         1.77314
| 42>    O       -1.76293         1.39065         1.18358
| 43>    O       -3.33226        -0.07837         1.21346
| 44>    C       -3.03627        -0.17918         4.14755
| 45>    C       -4.36584        -0.61673         4.20736
| 46>    C       -5.26056        -0.80251         3.17991
| 47>    C       -6.59090        -1.16709         3.42570
| 48>    N       -7.50467        -1.43497         2.43859
| 49>    C       -7.21961        -1.51172         1.02479
| 50>    C       -6.34660        -2.71572         0.67999
| 51>    C       -8.78686        -1.68611         2.95076
| 52>    O       -9.74558        -1.95871         2.26193
| 53>    C       -8.62947        -1.54048         4.38992
| 54>    C       -7.27967        -1.25860         4.65216
| 55>    C       -7.12101        -1.12021         6.08789
| 56>    O       -6.14765        -0.91463         6.78579
| 57>    N       -8.41014        -1.32310         6.60108
| 58>    C       -8.67529        -1.14224         8.00819
| 59>    C       -9.28175         0.22993         8.29002
| 60>    C       -9.32691        -1.54981         5.60951
| 61>    C      -10.70256        -1.75039         5.87168
| 62>    C      -11.63886        -1.90458         4.90262
| 63>    C      -13.03096        -2.12758         5.16385
| 64>    C      -13.63053        -2.18232         6.40239
| 65>    S      -15.29767        -2.53839         6.33119
| 66>    C      -15.23990        -2.65191         4.62163
| 67>    C      -13.99589        -2.39858         4.13115
| 68>    C      -13.67564        -2.40232         2.69274
| 69>    O      -12.92119        -1.65344         2.13714
| 70>    O      -14.35581        -3.39627         2.06226
| 71>    C      -14.00631        -3.65976         0.76872
| 72>    C      -14.56645        -4.65805         0.08013
| 73>    C      -14.15307        -4.99529        -1.25495
| 74>    C      -14.94748        -5.45224        -2.25588
| 75>    C      -14.17267        -5.48657        -3.48648
| 76>    C      -14.67903        -5.91708        -4.72069
| 77>    N      -15.10494        -6.27230        -5.72545
| 78>    C      -12.90824        -5.03742        -3.23429
| 79>    C      -12.79874        -4.79513        -1.81775
| 80>    C      -11.61392        -4.64227        -1.15455
| 81>    C      -10.33735        -4.31243        -1.78015
| 82>    C       -9.39354        -4.24620        -0.82761
| 83>    C      -10.00998        -4.59825         0.45935
| 84>    C      -11.33474        -4.82184         0.26034
| 85>    C       -9.30361        -4.71836         1.66155
| 86>    N       -8.69710        -4.83244         2.63048
| 87>    H       -2.71658         4.44694         5.39762
| 88>    H       -5.16040         4.10441         4.43371
| 89>    H       -4.49111         0.94281         7.30541
| 90>    H        0.09422         1.02707         9.51892
| 91>    H       -0.98491         4.42312         7.07142
| 92>    H       -3.47621        -2.96664         8.73414
| 93>    H       -3.64920        -2.46080         6.14243
| 94>    H       -0.30958         0.94988         5.78284
| 95>    H       -0.31451         1.48298         3.19121
| 96>    H       -4.72991        -0.81167         5.20586
| 97>    H       -4.94455        -0.66483         2.15772
| 98>    H       -6.73520        -0.58708         0.69757
| 99>    H       -8.19253        -1.59398         0.53159
|100>    H       -5.34996        -2.60912         1.09878
|101>    H       -6.24939        -2.79633        -0.39953
|102>    H       -6.79032        -3.62756         1.07345
|103>    H       -7.70664        -1.22517         8.50880
|104>    H       -9.32401        -1.94533         8.36857
|105>    H       -8.63359         1.00483         7.88829
|106>    H       -9.38376         0.37576         9.36169
|107>    H      -10.25891         0.33157         7.82406
|108>    H      -10.99796        -1.77790         6.91018
|109>    H      -11.34090        -1.86336         3.86332
|110>    H      -13.17877        -2.02682         7.36137
|111>    H      -16.12912        -2.87400         4.06614
|112>    H      -13.23177        -3.01634         0.36872
|113>    H      -15.39713        -5.20570         0.50246
|114>    H      -15.98910        -5.70624        -2.19560
|115>    H      -12.10277        -4.98236        -3.94041
|116>    H      -10.21341        -4.09464        -2.82291
|117>    H       -8.35545        -4.00145        -0.94564
|118>    H      -12.03849        -5.16032         0.99455
|119> *
|120>
|121>                          ****END OF INPUT****

CARTESIAN COORDINATES (ANGSTROEM)
---------------------------------
  C     -3.419180    3.684350    5.670840
  C     -4.652800    3.507270    5.167870
  C     -5.243890    2.329060    5.811720
  C     -6.545380    1.878070    5.593590
  N     -7.616700    1.498600    5.416640
  C     -4.326930    1.784340    6.660520
  C     -3.133040    2.597830    6.599060
  C     -1.946560    2.416410    7.258410
  C     -1.530900    1.241230    8.069930
  C     -0.454250    1.626350    8.819260
  C     -0.110430    2.981720    8.462080
  C     -0.972980    3.437430    7.494660
  C      0.959390    3.699640    9.017320
  N      1.841310    4.283470    9.461580
  C     -2.100380   -0.054950    7.926430
  C     -2.428920   -1.017390    8.868980
  N     -2.267590   -0.970010   10.263170
  O     -1.587290   -0.080330   10.748130
  O     -2.830340   -1.832110   10.917890
  C     -3.125960   -2.093570    8.217310
  C     -3.242860   -1.809970    6.890990
  C     -2.586330   -0.569800    6.631190
  C     -2.267400   -0.020790    5.397740
  C     -1.100050    0.730220    5.091700
  C     -1.081410    0.978410    3.748570
  C     -2.256930    0.437800    3.148250
  N     -2.472680    0.591370    1.773140
  O     -1.762930    1.390650    1.183580
  O     -3.332260   -0.078370    1.213460
  C     -3.036270   -0.179180    4.147550
  C     -4.365840   -0.616730    4.207360
  C     -5.260560   -0.802510    3.179910
  C     -6.590900   -1.167090    3.425700
  N     -7.504670   -1.434970    2.438590
  C     -7.219610   -1.511720    1.024790
  C     -6.346600   -2.715720    0.679990
  C     -8.786860   -1.686110    2.950760
  O     -9.745580   -1.958710    2.261930
  C     -8.629470   -1.540480    4.389920
  C     -7.279670   -1.258600    4.652160
  C     -7.121010   -1.120210    6.087890
  O     -6.147650   -0.914630    6.785790
  N     -8.410140   -1.323100    6.601080
  C     -8.675290   -1.142240    8.008190
  C     -9.281750    0.229930    8.290020
  C     -9.326910   -1.549810    5.609510
  C    -10.702560   -1.750390    5.871680
  C    -11.638860   -1.904580    4.902620
  C    -13.030960   -2.127580    5.163850
  C    -13.630530   -2.182320    6.402390
  S    -15.297670   -2.538390    6.331190
  C    -15.239900   -2.651910    4.621630
  C    -13.995890   -2.398580    4.131150
  C    -13.675640   -2.402320    2.692740
  O    -12.921190   -1.653440    2.137140
  O    -14.355810   -3.396270    2.062260
  C    -14.006310   -3.659760    0.768720
  C    -14.566450   -4.658050    0.080130
  C    -14.153070   -4.995290   -1.254950
  C    -14.947480   -5.452240   -2.255880
  C    -14.172670   -5.486570   -3.486480
  C    -14.679030   -5.917080   -4.720690
  N    -15.104940   -6.272300   -5.725450
  C    -12.908240   -5.037420   -3.234290
  C    -12.798740   -4.795130   -1.817750
  C    -11.613920   -4.642270   -1.154550
  C    -10.337350   -4.312430   -1.780150
  C     -9.393540   -4.246200   -0.827610
  C    -10.009980   -4.598250    0.459350
  C    -11.334740   -4.821840    0.260340
  C     -9.303610   -4.718360    1.661550
  N     -8.697100   -4.832440    2.630480
  H     -2.716580    4.446940    5.397620
  H     -5.160400    4.104410    4.433710
  H     -4.491110    0.942810    7.305410
  H      0.094220    1.027070    9.518920
  H     -0.984910    4.423120    7.071420
  H     -3.476210   -2.966640    8.734140
  H     -3.649200   -2.460800    6.142430
  H     -0.309580    0.949880    5.782840
  H     -0.314510    1.482980    3.191210
  H     -4.729910   -0.811670    5.205860
  H     -4.944550   -0.664830    2.157720
  H     -6.735200   -0.587080    0.697570
  H     -8.192530   -1.593980    0.531590
  H     -5.349960   -2.609120    1.098780
  H     -6.249390   -2.796330   -0.399530
  H     -6.790320   -3.627560    1.073450
  H     -7.706640   -1.225170    8.508800
  H     -9.324010   -1.945330    8.368570
  H     -8.633590    1.004830    7.888290
  H     -9.383760    0.375760    9.361690
  H    -10.258910    0.331570    7.824060
  H    -10.997960   -1.777900    6.910180
  H    -11.340900   -1.863360    3.863320
  H    -13.178770   -2.026820    7.361370
  H    -16.129120   -2.874000    4.066140
  H    -13.231770   -3.016340    0.368720
  H    -15.397130   -5.205700    0.502460
  H    -15.989100   -5.706240   -2.195600
  H    -12.102770   -4.982360   -3.940410
  H    -10.213410   -4.094640   -2.822910
  H     -8.355450   -4.001450   -0.945640
  H    -12.038490   -5.160320    0.994550

 Total Charge           Charge          ....    0
 Multiplicity           Mult            ....    1
 Number of Electrons    NEL             ....  498
 Basis Dimension        Dim             .... 1172

ORBITAL ENERGIES
----------------

  NO   OCC          E(Eh)            E(eV)
   0   2.0000     -88.991645     -2421.5858
   1   2.0000     -19.299490      -525.1658
   2   2.0000     -19.233523      -523.3708
   3   2.0000     -19.232029      -523.3301
   4   2.0000     -19.230038      -523.2759
   5   2.0000     -19.229969      -523.2741
   6   2.0000     -19.229407      -523.2588
   7   2.0000     -19.217892      -522.9454
   8   2.0000     -19.194645      -522.3129
   9   2.0000     -14.640324      -398.3835
  10   2.0000     -14.639260      -398.3545
  11   2.0000     -14.469888      -393.7457
  12   2.0000     -14.456451      -393.3800
  13   2.0000     -14.418905      -392.3584
  14   2.0000     -14.413843      -392.2206
  15   2.0000     -14.412379      -392.1808
  16   2.0000     -14.411526      -392.1576
  17   2.0000     -10.430262      -283.8219
  18   2.0000     -10.395436      -282.8742
  19   2.0000     -10.379482      -282.4401
  20   2.0000     -10.358986      -281.8823
  21   2.0000     -10.350912      -281.6626
  22   2.0000     -10.342180      -281.4250
  23   2.0000     -10.328068      -281.0410
  24   2.0000     -10.327303      -281.0202
  25   2.0000     -10.326570      -281.0003
  26   2.0000     -10.326045      -280.9860
  27   2.0000     -10.325658      -280.9754
  28   2.0000     -10.325422      -280.9690
  29   2.0000     -10.325023      -280.9582
  30   2.0000     -10.322614      -280.8926
  31   2.0000     -10.322324      -280.8847
  32   2.0000     -10.322111      -280.8789
  33   2.0000     -10.322054      -280.8774
  34   2.0000     -10.320269      -280.8288
  35   2.0000     -10.320193      -280.8267
  36   2.0000     -10.319552      -280.8093
  37   2.0000     -10.319465      -280.8069
  38   2.0000     -10.319253      -280.8012
  39   2.0000     -10.318981      -280.7938
  40   2.0000     -10.316528      -280.7270
  41   2.0000     -10.313583      -280.6469
  42   2.0000     -10.313211      -280.6367
  43   2.0000     -10.312305      -280.6121
  44   2.0000     -10.312251      -280.6106
  45   2.0000     -10.310195      -280.5547
  46   2.0000     -10.309697      -280.5411
  47   2.0000     -10.309364      -280.5321
  48   2.0000     -10.304774      -280.4072
  49   2.0000     -10.303716      -280.3784
  50   2.0000     -10.302941      -280.3573
  51   2.0000     -10.302506      -280.3454
  52   2.0000     -10.302044      -280.3329
  53   2.0000     -10.302027      -280.3324
  54   2.0000     -10.301864      -280.3280
  55   2.0000     -10.300530      -280.2917
  56   2.0000     -10.300131      -280.2808
  57   2.0000     -10.299782      -280.2713
  58   2.0000     -10.298002      -280.2229
  59   2.0000     -10.296925      -280.1936
  60   2.0000     -10.296427      -280.1800
  61   2.0000     -10.295763      -280.1619
  62   2.0000     -10.295711      -280.1605
  63   2.0000     -10.291265      -280.0396
  64   2.0000     -10.288662      -279.9687
  65   2.0000     -10.288572      -279.9663
  66   2.0000     -10.285258      -279.8761
  67   2.0000     -10.279576      -279.7215
  68   2.0000     -10.278655      -279.6964
  69   2.0000     -10.274599      -279.5860
  70   2.0000     -10.268802      -279.4283
  71   2.0000     -10.263571      -279.2860
  72   2.0000      -8.087863      -220.0819
  73   2.0000      -6.056960      -164.8183
  74   2.0000      -6.052414      -164.6946
  75   2.0000      -6.050662      -164.6469
  76   2.0000      -1.309166       -35.6242
  77   2.0000      -1.309152       -35.6238
  78   2.0000      -1.228806       -33.4375
  79   2.0000      -1.154254       -31.4088
  80   2.0000      -1.135346       -30.8943
  81   2.0000      -1.133782       -30.8518
  82   2.0000      -1.126145       -30.6440
  83   2.0000      -1.125179       -30.6177
  84   2.0000      -1.080977       -29.4149
  85   2.0000      -1.064365       -28.9628
  86   2.0000      -1.021853       -27.8060
  87   2.0000      -1.016773       -27.6678
  88   2.0000      -1.015675       -27.6379
  89   2.0000      -1.008849       -27.4522
  90   2.0000      -1.004640       -27.3376
  91   2.0000      -1.003310       -27.3015
  92   2.0000      -0.992414       -27.0050
  93   2.0000      -0.991352       -26.9760
  94   2.0000      -0.989546       -26.9269
  95   2.0000      -0.979104       -26.6428
  96   2.0000      -0.977120       -26.5888
  97   2.0000      -0.939643       -25.5690
  98   2.0000      -0.926121       -25.2010
  99   2.0000      -0.914794       -24.8928
 100   2.0000      -0.914612       -24.8879
 101   2.0000      -0.906505       -24.6673
 102   2.0000      -0.883807       -24.0496
 103   2.0000      -0.882089       -24.0029
 104   2.0000      -0.879522       -23.9330
 105   2.0000      -0.876697       -23.8561
 106   2.0000      -0.875822       -23.8323
 107   2.0000      -0.866849       -23.5881
 108   2.0000      -0.859150       -23.3787
 109   2.0000      -0.845130       -22.9972
 110   2.0000      -0.836613       -22.7654
 111   2.0000      -0.833600       -22.6834
 112   2.0000      -0.829274       -22.5657
 113   2.0000      -0.827882       -22.5278
 114   2.0000      -0.814101       -22.1528
 115   2.0000      -0.799618       -21.7587
 116   2.0000      -0.799100       -21.7446
 117   2.0000      -0.792839       -21.5742
 118   2.0000      -0.782650       -21.2970
 119   2.0000      -0.767407       -20.8822
 120   2.0000      -0.766181       -20.8488
 121   2.0000      -0.761138       -20.7116
 122   2.0000      -0.729141       -19.8409
 123   2.0000      -0.728009       -19.8101
 124   2.0000      -0.727425       -19.7942
 125   2.0000      -0.723776       -19.6949
 126   2.0000      -0.716445       -19.4955
 127   2.0000      -0.706745       -19.2315
 128   2.0000      -0.702672       -19.1207
 129   2.0000      -0.699230       -19.0270
 130   2.0000      -0.695096       -18.9145
 131   2.0000      -0.684725       -18.6323
 132   2.0000      -0.680009       -18.5040
 133   2.0000      -0.673041       -18.3144
 134   2.0000      -0.669788       -18.2259
 135   2.0000      -0.667139       -18.1538
 136   2.0000      -0.658764       -17.9259
 137   2.0000      -0.652894       -17.7661
 138   2.0000      -0.651408       -17.7257
 139   2.0000      -0.646970       -17.6049
 140   2.0000      -0.641039       -17.4436
 141   2.0000      -0.638929       -17.3862
 142   2.0000      -0.628429       -17.1004
 143   2.0000      -0.625799       -17.0289
 144   2.0000      -0.622556       -16.9406
 145   2.0000      -0.621486       -16.9115
 146   2.0000      -0.619626       -16.8609
 147   2.0000      -0.614816       -16.7300
 148   2.0000      -0.606275       -16.4976
 149   2.0000      -0.603445       -16.4206
 150   2.0000      -0.598694       -16.2913
 151   2.0000      -0.597325       -16.2540
 152   2.0000      -0.594348       -16.1730
 153   2.0000      -0.589929       -16.0528
 154   2.0000      -0.585947       -15.9444
 155   2.0000      -0.584286       -15.8992
 156   2.0000      -0.579809       -15.7774
 157   2.0000      -0.577669       -15.7192
 158   2.0000      -0.575747       -15.6669
 159   2.0000      -0.573539       -15.6068
 160   2.0000      -0.565863       -15.3979
 161   2.0000      -0.561879       -15.2895
 162   2.0000      -0.550637       -14.9836
 163   2.0000      -0.545376       -14.8404
 164   2.0000      -0.541338       -14.7305
 165   2.0000      -0.538570       -14.6552
 166   2.0000      -0.536004       -14.5854
 167   2.0000      -0.534341       -14.5401
 168   2.0000      -0.531995       -14.4763
 169   2.0000      -0.529141       -14.3986
 170   2.0000      -0.528912       -14.3924
 171   2.0000      -0.527988       -14.3673
 172   2.0000      -0.522067       -14.2062
 173   2.0000      -0.517322       -14.0771
 174   2.0000      -0.517219       -14.0742
 175   2.0000      -0.515876       -14.0377
 176   2.0000      -0.514620       -14.0035
 177   2.0000      -0.514395       -13.9974
 178   2.0000      -0.512735       -13.9522
 179   2.0000      -0.508836       -13.8461
 180   2.0000      -0.507993       -13.8232
 181   2.0000      -0.506794       -13.7906
 182   2.0000      -0.503711       -13.7067
 183   2.0000      -0.502600       -13.6764
 184   2.0000      -0.499792       -13.6000
 185   2.0000      -0.498438       -13.5632
 186   2.0000      -0.495764       -13.4904
 187   2.0000      -0.494805       -13.4643
 188   2.0000      -0.493740       -13.4353
 189   2.0000      -0.490933       -13.3590
 190   2.0000      -0.489439       -13.3183
 191   2.0000      -0.488337       -13.2883
 192   2.0000      -0.484109       -13.1733
 193   2.0000      -0.482001       -13.1159
 194   2.0000      -0.481474       -13.1016
 195   2.0000      -0.480373       -13.0716
 196   2.0000      -0.474484       -12.9114
 197   2.0000      -0.471273       -12.8240
 198   2.0000      -0.467058       -12.7093
 199   2.0000      -0.465751       -12.6737
 200   2.0000      -0.463262       -12.6060
 201   2.0000      -0.461706       -12.5637
 202   2.0000      -0.456629       -12.4255
 203   2.0000      -0.455924       -12.4063
 204   2.0000      -0.453141       -12.3306
 205   2.0000      -0.451370       -12.2824
 206   2.0000      -0.450059       -12.2467
 207   2.0000      -0.448470       -12.2035
 208   2.0000      -0.447713       -12.1829
 209   2.0000      -0.446941       -12.1619
 210   2.0000      -0.443975       -12.0812
 211   2.0000      -0.442635       -12.0447
 212   2.0000      -0.440744       -11.9932
 213   2.0000      -0.439696       -11.9647
 214   2.0000      -0.438150       -11.9227
 215   2.0000      -0.434155       -11.8140
 216   2.0000      -0.431953       -11.7540
 217   2.0000      -0.425309       -11.5733
 218   2.0000      -0.414744       -11.2858
 219   2.0000      -0.413635       -11.2556
 220   2.0000      -0.412955       -11.2371
 221   2.0000      -0.412364       -11.2210
 222   2.0000      -0.410340       -11.1659
 223   2.0000      -0.408479       -11.1153
 224   2.0000      -0.396500       -10.7893
 225   2.0000      -0.383354       -10.4316
 226   2.0000      -0.382069       -10.3966
 227   2.0000      -0.380761       -10.3610
 228   2.0000      -0.377767       -10.2796
 229   2.0000      -0.371677       -10.1138
 230   2.0000      -0.369773       -10.0620
 231   2.0000      -0.366901        -9.9839
 232   2.0000      -0.366117        -9.9626
 233   2.0000      -0.358712        -9.7611
 234   2.0000      -0.356258        -9.6943
 235   2.0000      -0.346685        -9.4338
 236   2.0000      -0.343406        -9.3445
 237   2.0000      -0.341619        -9.2959
 238   2.0000      -0.339215        -9.2305
 239   2.0000      -0.329683        -8.9711
 240   2.0000      -0.327028        -8.8989
 241   2.0000      -0.323063        -8.7910
 242   2.0000      -0.319577        -8.6961
 243   2.0000      -0.317807        -8.6480
 244   2.0000      -0.309778        -8.4295
 245   2.0000      -0.295815        -8.0495
 246   2.0000      -0.288264        -7.8441
 247   2.0000      -0.278701        -7.5838
 248   2.0000      -0.238274        -6.4838
 249   0.0000      -0.141134        -3.8405
 250   0.0000      -0.118945        -3.2367
 251   0.0000      -0.117349        -3.1932
 252   0.0000      -0.085426        -2.3245
 253   0.0000      -0.045078        -1.2266

MULLIKEN ATOMIC CHARGES
-----------------------
   0 C :    0.005162
   1 C :    0.063626
   2 C :   -0.163035
   3 C :   -0.052395
   4 N :    0.087564
   5 C :    0.005727
   6 C :    0.051925
   7 C :    0.030227
   8 C :   -0.025166
   9 C :    0.039253
  10 C :   -0.098439
  11 C :   -0.023973
  12 C :   -0.133947
  13 N :    0.152113
  14 C :    0.058302
  15 C :    0.074313
  16 N :    0.267398
  17 O :   -0.255809
  18 O :   -0.252727
  19 C :    0.002971
  20 C :    0.050266
  21 C :   -0.030483
  22 C :    0.002492
  23 C :    0.031696
  24 C :    0.017358
  25 C :    0.043911
  26 N :    0.284294
  27 O :   -0.259790
  28 O :   -0.272413
  29 C :    0.117697
  30 C :   -0.084068
  31 C :   -0.003230
  32 C :    0.134477
  33 N :   -0.254888
  34 C :    0.101953
  35 C :   -0.015977
  36 C :    0.188565
  37 O :   -0.206576
  38 C :   -0.051526
  39 C :   -0.019111
  40 C :    0.174516
  41 O :   -0.195309
  42 N :   -0.240209
  43 C :    0.089901
  44 C :    0.010359
  45 C :    0.161109
  46 C :   -0.015862
  47 C :    0.017652
  48 C :    0.108854
  49 C :   -0.142330
  50 S :    0.165448
  51 C :   -0.090353
  52 C :    0.019498
  53 C :    0.192245
  54 O :   -0.165606
  55 O :   -0.248183
  56 C :    0.127523
  57 C :   -0.014661
  58 C :    0.063298
  59 C :   -0.005644
  60 C :   -0.102853
  61 C :   -0.131628
  62 N :    0.140984
  63 C :   -0.020160
  64 C :    0.056559
  65 C :    0.027277
  66 C :   -0.007038
  67 C :    0.074535
  68 C :   -0.106782
  69 C :   -0.014492
  70 C :   -0.086591
  71 N :    0.103570
  72 H :   -0.008666
  73 H :   -0.004151
  74 H :    0.025471
  75 H :    0.004305
  76 H :   -0.003746
  77 H :   -0.003491
  78 H :   -0.007282
  79 H :   -0.005669
  80 H :    0.001770
  81 H :    0.012143
  82 H :    0.002190
  83 H :    0.036850
  84 H :    0.035040
  85 H :    0.025043
  86 H :    0.030297
  87 H :    0.030369
  88 H :    0.046392
  89 H :    0.026142
  90 H :    0.035004
  91 H :    0.024322
  92 H :    0.013887
  93 H :   -0.038975
  94 H :    0.047283
  95 H :    0.038561
  96 H :    0.038980
  97 H :    0.063591
  98 H :    0.008985
  99 H :   -0.012150
 100 H :   -0.002969
 101 H :   -0.006764
 102 H :   -0.023180
 103 H :    0.017049
Sum of atomic charges:    0.0000000

LOEWDIN ATOMIC CHARGES
----------------------
   0 C :   -0.028301
   1 C :    0.018844
   2 C :   -0.072422
   3 C :   -0.007026
   4 N :   -0.068208
   5 C :    0.015904
   6 C :    0.031616
   7 C :    0.039091
   8 C :   -0.036382
   9 C :    0.034354
  10 C :   -0.051315
  11 C :    0.003793
  12 C :   -0.030263
  13 N :   -0.037969
  14 C :    0.004350
  15 C :   -0.051652
  16 N :    0.284533
  17 O :   -0.215594
  18 O :   -0.217627
  19 C :    0.013287
  20 C :   -0.034562
  21 C :    0.028528
  22 C :    0.046811
  23 C :   -0.056771
  24 C :    0.030734
  25 C :   -0.071343
  26 N :    0.288093
  27 O :   -0.222965
  28 O :   -0.234034
  29 C :    0.009699
  30 C :    0.000644
  31 C :    0.005970
  32 C :    0.059887
  33 N :    0.006264
  34 C :    0.038583
  35 C :   -0.065020
  36 C :    0.087786
  37 O :   -0.190769
  38 C :   -0.103841
  39 C :   -0.068333
  40 C :    0.093072
  41 O :   -0.178229
  42 N :    0.016112
  43 C :    0.037209
  44 C :   -0.060187
  45 C :    0.108897
  46 C :   -0.048348
  47 C :    0.059027
  48 C :   -0.056197
  49 C :   -0.166667
  50 S :    0.491574
  51 C :   -0.154494
  52 C :   -0.091543
  53 C :    0.102419
  54 O :   -0.127016
  55 O :   -0.045948
  56 C :    0.071729
  57 C :   -0.055461
  58 C :   -0.023302
  59 C :   -0.003149
  60 C :   -0.051837
  61 C :   -0.031317
  62 N :   -0.042245
  63 C :    0.000356
  64 C :    0.034043
  65 C :    0.032562
  66 C :   -0.029022
  67 C :    0.020832
  68 C :   -0.050423
  69 C :    0.008033
  70 C :   -0.019070
  71 N :   -0.061879
  72 H :    0.029685
  73 H :    0.034685
  74 H :    0.039276
  75 H :    0.036485
  76 H :    0.035198
  77 H :    0.036229
  78 H :    0.030462
  79 H :    0.032055
  80 H :    0.038109
  81 H :    0.035731
  82 H :    0.029441
  83 H :    0.029072
  84 H :    0.033048
  85 H :    0.028806
  86 H :    0.028631
  87 H :    0.027892
  88 H :    0.038676
  89 H :    0.023183
  90 H :    0.033707
  91 H :    0.030527
  92 H :    0.022195
  93 H :    0.026689
  94 H :    0.043885
  95 H :    0.025964
  96 H :    0.032494
  97 H :    0.029647
  98 H :    0.040059
  99 H :    0.032547
 100 H :    0.034287
 101 H :    0.029803
 102 H :    0.032456
 103 H :    0.035171

  Mayer bond orders larger than 0.100000
B(  0-C ,  1-C ) :   1.6763 B(  0-C ,  6-C ) :   1.0886 B(  0-C , 72-H ) :   1.0064
B(  1-C ,  2-C ) :   1.0609 B(  1-C , 73-H ) :   1.0146 B(  2-C ,  3-C ) :   1.0979
B(  2-C ,  5-C ) :   1.6594 B(  3-C ,  4-N ) :   2.8757 B(  5-C ,  6-C ) :   1.0644
B(  5-C , 74-H ) :   1.0079 B(  6-C ,  7-C ) :   1.4624 B(  7-C ,  8-C ) :   1.0528
B(  7-C , 11-C ) :   1.1020 B(  8-C ,  9-C ) :   1.6099 B(  8-C , 14-C ) :   1.0153
B(  9-C , 10-C ) :   1.0976 B(  9-C , 75-H ) :   1.0190 B( 10-C , 11-C ) :   1.5851
B( 10-C , 12-C ) :   1.0620 B( 11-C , 76-H ) :   1.0231 B( 12-C , 13-N ) :   3.0460
B( 14-C , 15-C ) :   1.5325 B( 14-C , 21-C ) :   1.0770 B( 15-C , 16-N ) :   0.9506
B( 15-C , 19-C ) :   1.1357 B( 16-N , 17-O ) :   1.4986 B( 16-N , 18-O ) :   1.5282
B( 17-O , 18-O ) :   0.2579 B( 19-C , 20-C ) :   1.5490 B( 19-C , 77-H ) :   1.0110
B( 20-C , 21-C ) :   1.1605 B( 20-C , 78-H ) :   1.0047 B( 21-C , 22-C ) :   1.4098
B( 22-C , 23-C ) :   1.1995 B( 22-C , 29-C ) :   1.0268 B( 23-C , 24-C ) :   1.4924
B( 23-C , 79-H ) :   0.9927 B( 24-C , 25-C ) :   1.1867 B( 24-C , 80-H ) :   1.0103
B( 25-C , 26-N ) :   0.9813 B( 25-C , 29-C ) :   1.3523 B( 26-N , 27-O ) :   1.5278
B( 26-N , 28-O ) :   1.4472 B( 27-O , 28-O ) :   0.2370 B( 28-O , 82-H ) :   0.1071
B( 29-C , 30-C ) :   1.2573 B( 30-C , 31-C ) :   1.4509 B( 30-C , 81-H ) :   0.9395
B( 31-C , 32-C ) :   1.2138 B( 31-C , 82-H ) :   0.9458 B( 32-C , 33-N ) :   1.1549
B( 32-C , 39-C ) :   1.2622 B( 33-N , 34-C ) :   0.9435 B( 33-N , 36-C ) :   1.0666
B( 34-C , 35-C ) :   1.1228 B( 34-C , 83-H ) :   0.9465 B( 34-C , 84-H ) :   0.9277
B( 35-C , 85-H ) :   0.9581 B( 35-C , 86-H ) :   0.9596 B( 35-C , 87-H ) :   0.9557
B( 36-C , 37-O ) :   2.0160 B( 36-C , 38-C ) :   0.9753 B( 38-C , 39-C ) :   1.3429
B( 38-C , 45-C ) :   1.2750 B( 39-C , 40-C ) :   0.9674 B( 40-C , 41-O ) :   1.9858
B( 40-C , 42-N ) :   1.0714 B( 42-N , 43-C ) :   0.9430 B( 42-N , 45-C ) :   1.1821
B( 43-C , 44-C ) :   1.1236 B( 43-C , 88-H ) :   0.9270 B( 43-C , 89-H ) :   0.9486
B( 44-C , 90-H ) :   0.9570 B( 44-C , 91-H ) :   0.9658 B( 44-C , 92-H ) :   0.9665
B( 45-C , 46-C ) :   1.1675 B( 46-C , 47-C ) :   1.6036 B( 46-C , 93-H ) :   0.9555
B( 47-C , 48-C ) :   1.1067 B( 47-C , 94-H ) :   0.9524 B( 48-C , 49-C ) :   1.4983
B( 48-C , 52-C ) :   1.2392 B( 49-C , 50-S ) :   1.2063 B( 49-C , 95-H ) :   0.9532
B( 50-S , 51-C ) :   1.1886 B( 51-C , 52-C ) :   1.5615 B( 51-C , 96-H ) :   0.9706
B( 52-C , 53-C ) :   0.9227 B( 53-C , 54-O ) :   2.1101 B( 53-C , 55-O ) :   1.1216
B( 55-O , 56-C ) :   1.0225 B( 56-C , 57-C ) :   1.7302 B( 56-C , 97-H ) :   0.9657
B( 57-C , 58-C ) :   1.0775 B( 57-C , 98-H ) :   0.9665 B( 58-C , 59-C ) :   1.6238
B( 58-C , 64-C ) :   1.0437 B( 59-C , 60-C ) :   1.0926 B( 59-C , 99-H ) :   1.0207
B( 60-C , 61-C ) :   1.0642 B( 60-C , 63-C ) :   1.6355 B( 61-C , 62-N ) :   3.0428
B( 63-C , 64-C ) :   1.0841 B( 63-C ,100-H ) :   1.0197 B( 64-C , 65-C ) :   1.4985
B( 65-C , 66-C ) :   1.0780 B( 65-C , 69-C ) :   1.0678 B( 66-C , 67-C ) :   1.6859
B( 66-C ,101-H ) :   1.0068 B( 67-C , 68-C ) :   1.0716 B( 67-C ,102-H ) :   1.0062
B( 68-C , 69-C ) :   1.6777 B( 68-C , 70-C ) :   1.0879 B( 69-C ,103-H ) :   1.0039
B( 70-C , 71-N ) :   2.9251

-----------------------------------------------------------------------------
         ABSORPTION SPECTRUM VIA TRANSITION ELECTRIC DIPOLE MOMENTS
-----------------------------------------------------------------------------
State   Energy  Wavelength   fosc         T2         TX        TY        TZ
        (cm-1)    (nm)                  (au**2)     (au)      (au)      (au)
-----------------------------------------------------------------------------
   0    4917.6   2033.5   0.157199137  10.52377  -3.05528  -0.97533  -0.48762
   1    9577.7   1044.1   0.020160748   0.69298   0.08072  -0.68886  -0.46036
   2   11515.3    868.4   0.036438976   1.04175  -0.33822   0.74670   0.60812
   3   13897.1    719.6   0.008752203   0.20733   0.10834   0.19454   0.39718
   4   14256.7    701.4   0.013989727   0.32305   0.37959  -0.41703   0.07107
   5   15099.5    662.3   0.063240892   1.37883   0.87222   0.05780  -0.78404
   6   15894.5    629.1   0.015037172   0.31145   0.48993  -0.16593  -0.20949
   7   16782.3    595.9   0.193039367   3.78677  -1.63278  -0.05194   1.05741
   8   18228.3    548.6   0.100665453   1.81807   0.44658   0.16510  -1.26150
   9   19415.5    515.1   0.022102106   0.37477  -0.57534   0.15032  -0.14543
  10   21275.6    470.0   0.091558059   1.41674   0.02950  -0.56835   1.04540
  11   21603.2    462.9   0.030043865   0.45784   0.66240   0.11623  -0.07456
  12   22078.1    452.9   0.049595215   0.73953  -0.22782   0.46428  -0.68707
  13   22174.6    451.0   0.001377785   0.02046  -0.07715  -0.05628  -0.10647
  14   22647.4    441.6   0.003894907   0.05662   0.15638   0.11413   0.13833
  15   23522.9    425.1   0.009862825   0.13803  -0.18210  -0.28256   0.15821
  16   24007.5    416.5   0.037076629   0.50843  -0.23126  -0.11902   0.66391
  17   24893.5    401.7   0.209150847   2.76598   1.53676   0.49100   0.40404
  18   25363.6    394.3   0.098824192   1.28271  -0.62124   0.01798   0.94681
  19   25777.5    387.9   0.024311088   0.31048   0.35069   0.36392  -0.23466
  20   26124.6    382.8   0.185545900   2.33818   1.10964   0.74109   0.74677
  21   26250.2    380.9   0.058244638   0.73047  -0.80041   0.29563   0.04919
  22   26404.3    378.7   0.046995070   0.58594  -0.32459   0.15433  -0.67584
  23   26730.7    374.1   0.004868083   0.05995  -0.00717  -0.18368   0.16176
  24   27322.1    366.0   0.008569072   0.10325  -0.16470  -0.17364  -0.21442
  25   27548.2    363.0   0.040321967   0.48186   0.35818  -0.18144   0.56626
  26   27562.6    362.8   0.006604180   0.07888  -0.16391   0.12628  -0.18992
  27   28053.9    356.5   0.003469536   0.04071   0.18245   0.08453  -0.01685
  28   28626.5    349.3   0.023746966   0.27310  -0.47514  -0.19908   0.08777
  29   29203.3    342.4   0.454217016   5.12044  -2.12869  -0.76748  -0.01098
  30   29576.5    338.1   0.002236987   0.02490   0.15645   0.02045  -0.00226
  31   29645.6    337.3   0.020059858   0.22276  -0.23352  -0.15542   0.37957
  32   30138.3    331.8   0.634819267   6.93437  -1.96746  -0.31125  -1.72238
  33   30605.3    326.7   0.004074166   0.04382  -0.09930  -0.04969   0.17747
  34   30666.0    326.1   0.107156441   1.15037  -0.26817   0.26798  -1.00332
  35   31048.0    322.1   0.062271138   0.66028  -0.80039  -0.10077  -0.09745
  36   31107.1    321.5   0.079237588   0.83858  -0.88770   0.03100  -0.22272
  37   31211.8    320.4   0.005969794   0.06297   0.23172  -0.08456   0.04608
  38   31342.4    319.1   0.151180037   1.58796   0.79072   0.00494   0.98117
  39   31361.4    318.9   0.046530213   0.48845   0.20876   0.28670  -0.60222
  40   31385.9    318.6   0.003969332   0.04164  -0.19444  -0.06154  -0.00651
  41   31445.1    318.0   0.011692930   0.12242  -0.32460  -0.11902  -0.05373
  42   31758.0    314.9   0.144745434   1.50047  -0.88012   0.07485  -0.84867
  43   31927.9    313.2   0.000374549   0.00386  -0.04510   0.01863   0.03848
  44   32061.7    311.9   0.157391057   1.61610   0.08658  -0.51946   1.15705
  45   32223.9    310.3   0.053078318   0.54227   0.64988   0.14463   0.31465
  46   32566.3    307.1   0.037587199   0.37997  -0.13554  -0.30464  -0.51845
  47   32666.0    306.1   0.011404654   0.11494  -0.15341  -0.21518   0.21237
  48   32756.2    305.3   0.015515506   0.15594  -0.27455  -0.09435   0.26769
  49   32929.3    303.7   0.032779894   0.32772   0.04586  -0.38838   0.41806
  50   33073.3    302.4   0.102115253   1.01646  -0.99025   0.18068   0.05680
  51   33183.0    301.4   0.031740073   0.31490  -0.52872  -0.10472   0.15617
  52   33212.2    301.1   0.243929898   2.41793  -0.68772   0.46109  -1.31619
  53   33621.3    297.4   0.002199643   0.02154  -0.07468  -0.04467   0.11817
  54   33693.2    296.8   0.039776102   0.38865  -0.55286  -0.27557  -0.08400
  55   33854.9    295.4   0.044560347   0.43331  -0.23135  -0.39932   0.46940
  56   33979.3    294.3   0.057564912   0.55772  -0.66497  -0.25718   0.22225
  57   34413.6    290.6   0.046624726   0.44603  -0.07070   0.22551  -0.62464
  58   35038.5    285.4   0.009087359   0.08538   0.27778   0.08656   0.02694
  59   35118.8    284.7   0.364818648   3.41990  -1.70182  -0.67022   0.27300
  60   35320.0    283.1   0.069536214   0.64814  -0.65385   0.26144  -0.39021
  61   35670.6    280.3   0.000923253   0.00852  -0.05464  -0.06081   0.04287
  62   36266.7    275.7   0.000346930   0.00315  -0.01628  -0.05063   0.01792
  63   36322.7    275.3   0.000964595   0.00874  -0.05519   0.03747  -0.06552
  64   36826.2    271.5   0.032887158   0.29400  -0.03081   0.11975  -0.52793
  65   37330.5    267.9   0.036483909   0.32175  -0.24596   0.26542  -0.43681
  66   37460.9    266.9   0.001624626   0.01428  -0.07010   0.01243   0.09596
  67   37634.4    265.7   0.047194731   0.41284   0.61175   0.19646  -0.00231
  68   37674.6    265.4   0.035361749   0.30900   0.35697   0.20239  -0.37499
  69   37833.6    264.3   0.036726235   0.31958   0.46227  -0.03005   0.32400
  70   38055.7    262.8   0.031612945   0.27348   0.28680  -0.12279   0.41969
  71   38183.3    261.9   0.023515372   0.20275  -0.41840   0.06203  -0.15440
  72   38387.8    260.5   0.006232868   0.05345   0.02703  -0.00690   0.22951
  73   38497.8    259.8   0.005429993   0.04643  -0.02924   0.04330  -0.20906
  74   38563.2    259.3   0.004684631   0.03999   0.15977  -0.10109   0.06517
  75   38949.6    256.7   0.021627491   0.18280   0.21560   0.30586  -0.20681
  76   39371.7    254.0   0.013310558   0.11130  -0.22563  -0.13368  -0.20620
  77   39463.6    253.4   0.001491349   0.01244   0.07704  -0.06763   0.04396
  78   39515.7    253.1   0.444764691   3.70541   0.74291   0.72433   1.62137
  79   39567.2    252.7   0.052386559   0.43587   0.11055   0.15156   0.63299
  80   39594.2    252.6   0.223933614   1.86193   0.62103   0.65283   1.02473
  81   39734.0    251.7   0.011913419   0.09871  -0.19120   0.01819   0.24864
  82   39880.2    250.8   0.038925817   0.32133  -0.24322  -0.18066  -0.47911
  83   40057.1    249.6   0.003222580   0.02648  -0.05766   0.04690   0.14478
  84   40258.0    248.4   0.041578085   0.34001   0.45709   0.04719   0.35895

FINAL SINGLE POINT ENERGY     -3548.585189770593

DIPOLE MOMENT
-------------
                                X             Y             Z
Electronic contribution:      4.51751       1.61504       6.70796
Nuclear contribution   :     -8.32086      -2.20118      -6.55537
                        -----------------------------------------
Total Dipole Moment    :     -3.80335      -0.58614       0.15258
                        -----------------------------------------
Magnitude (a.u.)       :      3.85127
Magnitude (Debye)      :      9.78916

Rotational constants in cm-1:     0.001918     0.000456     0.000399
Rotational constants in MHz :    57.498582    13.662771    11.959231

                             ****ORCA TERMINATED NORMALLY****
TOTAL RUN TIME: 0 days 0 hours 14 minutes 50 seconds 959 msec
