                         Program Version 4.2.0 -  RELEASE  -
|  1> # ORCA input file
|  2> # SCF done       -179.534694658754          0.000740574431
|  3> ! CAM-B3LYP def2-SVP def2/J RIJCOSX Grid4 TightSCF
|  4> %maxcore 5000
|  5> %tddft
|  6>     Mode sTDDFT
|  7>     Ethresh 5.0
|  8>     maxcore 5000
|  9> end
| 10>
| 11> %pal
| 12>   nprocs 6
| 13>   end
| 14> * xyz 0 1
| 15>    C        1.58660         2.07232        -6.05396
| 16>    C        2.83586         1.87594        -6.50871
| 17>    C        3.76447         2.78719        -5.85728
| 18>    C        3.09573         3.57264        -4.97640
| 19>    C        1.61915         3.14819        -5.04518
| 20>    O        0.69732         3.63321        -4.44325
| 21>    C        3.49607         4.66981        -4.17536
| 22>    C        4.35827         5.72569        -4.44886
| 23>    N        5.23916         5.88715        -5.53201
| 24>    O        5.68418         7.00395        -5.72622
| 25>    O        5.52120         4.91119        -6.20846
| 26>    C        4.15907         6.76250        -3.47406
| 27>    C        3.17938         6.38050        -2.61212
| 28>    C        2.74962         5.06329        -2.96662
| 29>    C        1.93210         4.21776        -2.24080
| 30>    C        2.12606         2.80616        -2.09353
| 31>    C        1.37680         2.36565        -1.04443
| 32>    C        0.60696         3.45787        -0.53315
| 33>    N       -0.32336         3.31499         0.50949
| 34>    O       -0.43337         2.21282         1.01609
| 35>    O       -0.95998         4.29718         0.86344
| 36>    C        0.89339         4.60900        -1.27349
| 37>    C        0.19687         5.82904        -1.25359
| 38>    C        0.21346         6.69929        -2.31260
| 39>    C       -0.36056         7.97198        -2.45327
| 40>    N       -1.12518         8.73179        -1.60382
| 41>    C       -1.67937         8.35524        -0.32290
| 42>    C       -2.86637         7.40813        -0.47056
| 43>    C       -1.44813         9.98575        -2.17045
| 44>    O       -2.13114        10.82106        -1.62288
| 45>    C       -0.78226         9.97883        -3.46015
| 46>    C       -0.14555         8.74637        -3.60972
| 47>    C        0.53092         8.74166        -4.89216
| 48>    O        1.23525         7.91810        -5.43010
| 49>    N        0.21195        10.00002        -5.45883
| 50>    C        0.73543        10.34649        -6.76175
| 51>    C       -0.25409        10.01131        -7.87517
| 52>    C       -0.57305        10.74715        -4.62070
| 53>    C       -1.13986        12.02991        -4.77348
| 54>    C       -1.20429        12.81080        -5.89023
| 55>    C       -1.75217        14.11665        -5.90654
| 56>    C       -1.21587        15.17096        -6.64553
| 57>    N       -0.15734        15.12919        -7.57235
| 58>    O        0.16398        16.17912        -8.09679
| 59>    O        0.37867        14.05550        -7.80931
| 60>    C       -1.80221        16.40704        -6.21287
| 61>    C       -2.73537        16.13487        -5.26881
| 62>    C       -2.85116        14.70419        -5.11212
| 63>    C       -3.89649        14.03069        -4.51888
| 64>    C       -4.02257        12.61006        -4.32329
| 65>    C       -4.90680        12.37953        -3.32198
| 66>    C       -5.46430        13.63419        -2.89704
| 67>    N       -6.46731        13.71086        -1.91310
| 68>    O       -6.88634        14.80943        -1.58176
| 69>    O       -6.85964        12.66078        -1.43766
| 70>    C       -4.97335        14.65424        -3.70731
| 71>    C       -5.54448        15.94150        -3.81596
| 72>    C       -5.63093        16.65159        -4.98013
| 73>    C       -6.28825        17.89245        -5.11411
| 74>    C       -6.92896        18.69375        -4.21743
| 75>    C       -7.42826        19.87810        -4.89323
| 76>    C       -7.11694        19.84082        -6.20142
| 77>    C       -6.37069        18.58703        -6.46334
| 78>    O       -5.91253        18.18150        -7.49927
| 79>    H        0.67950         1.58129        -6.35001
| 80>    H        3.14626         1.15641        -7.24539
| 81>    H        4.82076         2.79609        -6.04574
| 82>    H        4.72305         7.67579        -3.46456
| 83>    H        2.84931         6.91400        -1.74203
| 84>    H        2.84052         2.23176        -2.65267
| 85>    H        1.33787         1.37151        -0.64025
| 86>    H       -0.42291         6.00156        -0.38593
| 87>    H        0.73467         6.38868        -3.20944
| 88>    H       -2.01217         9.28716         0.14322
| 89>    H       -0.89661         7.91476         0.29850
| 90>    H       -3.67866         7.90660        -0.99381
| 91>    H       -3.21620         7.10860         0.51262
| 92>    H       -2.59246         6.51377        -1.02448
| 93>    H        1.63869         9.74389        -6.89469
| 94>    H        1.01527        11.40127        -6.77931
| 95>    H       -0.41300         8.93659        -7.91934
| 96>    H        0.14745        10.34466        -8.82734
| 97>    H       -1.21453        10.49559        -7.71251
| 98>    H       -1.56848        12.40462        -3.85171
| 99>    H       -0.70873        12.51016        -6.80039
|100>    H       -1.49878        17.36795        -6.58180
|101>    H       -3.30619        16.86007        -4.72596
|102>    H       -3.48249        11.86077        -4.86409
|103>    H       -5.18487        11.43476        -2.89590
|104>    H       -6.07778        16.29961        -2.94576
|105>    H       -5.22103        16.24705        -5.89811
|106>    H       -7.07152        18.50607        -3.16859
|107>    H       -7.96950        20.65644        -4.38477
|108>    H       -7.34222        20.56453        -6.96089
|109> *
|110>
|111>                          ****END OF INPUT****

CARTESIAN COORDINATES (ANGSTROEM)
---------------------------------
  C      1.586600    2.072320   -6.053960
  C      2.835860    1.875940   -6.508710
  C      3.764470    2.787190   -5.857280
  C      3.095730    3.572640   -4.976400
  C      1.619150    3.148190   -5.045180
  O      0.697320    3.633210   -4.443250
  C      3.496070    4.669810   -4.175360
  C      4.358270    5.725690   -4.448860
  N      5.239160    5.887150   -5.532010
  O      5.684180    7.003950   -5.726220
  O      5.521200    4.911190   -6.208460
  C      4.159070    6.762500   -3.474060
  C      3.179380    6.380500   -2.612120
  C      2.749620    5.063290   -2.966620
  C      1.932100    4.217760   -2.240800
  C      2.126060    2.806160   -2.093530
  C      1.376800    2.365650   -1.044430
  C      0.606960    3.457870   -0.533150
  N     -0.323360    3.314990    0.509490
  O     -0.433370    2.212820    1.016090
  O     -0.959980    4.297180    0.863440
  C      0.893390    4.609000   -1.273490
  C      0.196870    5.829040   -1.253590
  C      0.213460    6.699290   -2.312600
  C     -0.360560    7.971980   -2.453270
  N     -1.125180    8.731790   -1.603820
  C     -1.679370    8.355240   -0.322900
  C     -2.866370    7.408130   -0.470560
  C     -1.448130    9.985750   -2.170450
  O     -2.131140   10.821060   -1.622880
  C     -0.782260    9.978830   -3.460150
  C     -0.145550    8.746370   -3.609720
  C      0.530920    8.741660   -4.892160
  O      1.235250    7.918100   -5.430100
  N      0.211950   10.000020   -5.458830
  C      0.735430   10.346490   -6.761750
  C     -0.254090   10.011310   -7.875170
  C     -0.573050   10.747150   -4.620700
  C     -1.139860   12.029910   -4.773480
  C     -1.204290   12.810800   -5.890230
  C     -1.752170   14.116650   -5.906540
  C     -1.215870   15.170960   -6.645530
  N     -0.157340   15.129190   -7.572350
  O      0.163980   16.179120   -8.096790
  O      0.378670   14.055500   -7.809310
  C     -1.802210   16.407040   -6.212870
  C     -2.735370   16.134870   -5.268810
  C     -2.851160   14.704190   -5.112120
  C     -3.896490   14.030690   -4.518880
  C     -4.022570   12.610060   -4.323290
  C     -4.906800   12.379530   -3.321980
  C     -5.464300   13.634190   -2.897040
  N     -6.467310   13.710860   -1.913100
  O     -6.886340   14.809430   -1.581760
  O     -6.859640   12.660780   -1.437660
  C     -4.973350   14.654240   -3.707310
  C     -5.544480   15.941500   -3.815960
  C     -5.630930   16.651590   -4.980130
  C     -6.288250   17.892450   -5.114110
  C     -6.928960   18.693750   -4.217430
  C     -7.428260   19.878100   -4.893230
  C     -7.116940   19.840820   -6.201420
  C     -6.370690   18.587030   -6.463340
  O     -5.912530   18.181500   -7.499270
  H      0.679500    1.581290   -6.350010
  H      3.146260    1.156410   -7.245390
  H      4.820760    2.796090   -6.045740
  H      4.723050    7.675790   -3.464560
  H      2.849310    6.914000   -1.742030
  H      2.840520    2.231760   -2.652670
  H      1.337870    1.371510   -0.640250
  H     -0.422910    6.001560   -0.385930
  H      0.734670    6.388680   -3.209440
  H     -2.012170    9.287160    0.143220
  H     -0.896610    7.914760    0.298500
  H     -3.678660    7.906600   -0.993810
  H     -3.216200    7.108600    0.512620
  H     -2.592460    6.513770   -1.024480
  H      1.638690    9.743890   -6.894690
  H      1.015270   11.401270   -6.779310
  H     -0.413000    8.936590   -7.919340
  H      0.147450   10.344660   -8.827340
  H     -1.214530   10.495590   -7.712510
  H     -1.568480   12.404620   -3.851710
  H     -0.708730   12.510160   -6.800390
  H     -1.498780   17.367950   -6.581800
  H     -3.306190   16.860070   -4.725960
  H     -3.482490   11.860770   -4.864090
  H     -5.184870   11.434760   -2.895900
  H     -6.077780   16.299610   -2.945760
  H     -5.221030   16.247050   -5.898110
  H     -7.071520   18.506070   -3.168590
  H     -7.969500   20.656440   -4.384770
  H     -7.342220   20.564530   -6.960890

 Total Charge           Charge          ....    0
 Multiplicity           Mult            ....    1
 Number of Electrons    NEL             ....  444
 Basis Dimension        Dim             .... 1046

ORBITAL ENERGIES
----------------

  NO   OCC          E(Eh)            E(eV)
   0   2.0000     -19.245448      -523.6953
   1   2.0000     -19.244544      -523.6707
   2   2.0000     -19.243301      -523.6368
   3   2.0000     -19.243058      -523.6302
   4   2.0000     -19.236514      -523.4521
   5   2.0000     -19.235622      -523.4279
   6   2.0000     -19.235423      -523.4225
   7   2.0000     -19.234519      -523.3979
   8   2.0000     -19.233266      -523.3638
   9   2.0000     -19.231865      -523.3256
  10   2.0000     -19.205464      -522.6072
  11   2.0000     -19.201969      -522.5122
  12   2.0000     -14.652466      -398.7139
  13   2.0000     -14.645204      -398.5163
  14   2.0000     -14.644418      -398.4949
  15   2.0000     -14.641236      -398.4083
  16   2.0000     -14.466199      -393.6453
  17   2.0000     -14.463241      -393.5648
  18   2.0000     -10.387423      -282.6561
  19   2.0000     -10.385930      -282.6155
  20   2.0000     -10.381851      -282.5045
  21   2.0000     -10.377439      -282.3845
  22   2.0000     -10.355608      -281.7904
  23   2.0000     -10.350469      -281.6506
  24   2.0000     -10.336476      -281.2698
  25   2.0000     -10.335742      -281.2498
  26   2.0000     -10.332867      -281.1716
  27   2.0000     -10.329008      -281.0666
  28   2.0000     -10.328485      -281.0524
  29   2.0000     -10.327084      -281.0142
  30   2.0000     -10.326940      -281.0103
  31   2.0000     -10.326366      -280.9947
  32   2.0000     -10.325774      -280.9786
  33   2.0000     -10.321387      -280.8592
  34   2.0000     -10.319727      -280.8140
  35   2.0000     -10.317016      -280.7403
  36   2.0000     -10.311044      -280.5778
  37   2.0000     -10.310918      -280.5744
  38   2.0000     -10.310908      -280.5741
  39   2.0000     -10.310334      -280.5585
  40   2.0000     -10.309908      -280.5469
  41   2.0000     -10.309222      -280.5282
  42   2.0000     -10.309135      -280.5258
  43   2.0000     -10.306253      -280.4474
  44   2.0000     -10.305969      -280.4397
  45   2.0000     -10.304786      -280.4075
  46   2.0000     -10.302566      -280.3471
  47   2.0000     -10.300072      -280.2792
  48   2.0000     -10.299095      -280.2526
  49   2.0000     -10.298667      -280.2410
  50   2.0000     -10.298241      -280.2294
  51   2.0000     -10.297698      -280.2146
  52   2.0000     -10.297030      -280.1964
  53   2.0000     -10.290246      -280.0118
  54   2.0000     -10.289908      -280.0026
  55   2.0000     -10.289219      -279.9839
  56   2.0000     -10.289162      -279.9823
  57   2.0000     -10.287350      -279.9330
  58   2.0000     -10.284364      -279.8518
  59   2.0000     -10.282149      -279.7915
  60   2.0000     -10.278350      -279.6881
  61   2.0000     -10.276764      -279.6450
  62   2.0000     -10.265356      -279.3345
  63   2.0000     -10.261719      -279.2356
  64   2.0000      -1.322637       -35.9908
  65   2.0000      -1.315389       -35.7936
  66   2.0000      -1.314051       -35.7572
  67   2.0000      -1.312097       -35.7040
  68   2.0000      -1.157607       -31.5001
  69   2.0000      -1.152986       -31.3743
  70   2.0000      -1.145690       -31.1758
  71   2.0000      -1.139877       -31.0176
  72   2.0000      -1.138769       -30.9875
  73   2.0000      -1.132554       -30.8184
  74   2.0000      -1.131367       -30.7861
  75   2.0000      -1.129264       -30.7288
  76   2.0000      -1.075460       -29.2648
  77   2.0000      -1.065506       -28.9939
  78   2.0000      -1.020623       -27.7726
  79   2.0000      -1.015926       -27.6447
  80   2.0000      -1.000240       -27.2179
  81   2.0000      -0.996028       -27.1033
  82   2.0000      -0.981915       -26.7193
  83   2.0000      -0.973979       -26.5033
  84   2.0000      -0.939431       -25.5632
  85   2.0000      -0.924249       -25.1501
  86   2.0000      -0.918866       -25.0036
  87   2.0000      -0.915520       -24.9126
  88   2.0000      -0.910934       -24.7878
  89   2.0000      -0.907509       -24.6946
  90   2.0000      -0.883532       -24.0421
  91   2.0000      -0.880903       -23.9706
  92   2.0000      -0.877989       -23.8913
  93   2.0000      -0.864707       -23.5299
  94   2.0000      -0.852964       -23.2103
  95   2.0000      -0.850287       -23.1375
  96   2.0000      -0.843780       -22.9604
  97   2.0000      -0.826384       -22.4870
  98   2.0000      -0.818538       -22.2735
  99   2.0000      -0.814429       -22.1617
 100   2.0000      -0.791241       -21.5308
 101   2.0000      -0.789282       -21.4775
 102   2.0000      -0.779412       -21.2089
 103   2.0000      -0.770912       -20.9776
 104   2.0000      -0.765106       -20.8196
 105   2.0000      -0.763401       -20.7732
 106   2.0000      -0.760938       -20.7062
 107   2.0000      -0.731375       -19.9017
 108   2.0000      -0.728290       -19.8178
 109   2.0000      -0.719979       -19.5916
 110   2.0000      -0.716117       -19.4865
 111   2.0000      -0.707606       -19.2549
 112   2.0000      -0.701985       -19.1020
 113   2.0000      -0.694729       -18.9045
 114   2.0000      -0.679101       -18.4793
 115   2.0000      -0.675284       -18.3754
 116   2.0000      -0.671489       -18.2721
 117   2.0000      -0.662437       -18.0258
 118   2.0000      -0.661637       -18.0041
 119   2.0000      -0.659786       -17.9537
 120   2.0000      -0.654454       -17.8086
 121   2.0000      -0.644679       -17.5426
 122   2.0000      -0.640186       -17.4203
 123   2.0000      -0.634342       -17.2613
 124   2.0000      -0.633536       -17.2394
 125   2.0000      -0.626740       -17.0545
 126   2.0000      -0.625851       -17.0303
 127   2.0000      -0.625064       -17.0088
 128   2.0000      -0.624038       -16.9809
 129   2.0000      -0.622353       -16.9351
 130   2.0000      -0.616456       -16.7746
 131   2.0000      -0.614486       -16.7210
 132   2.0000      -0.611500       -16.6398
 133   2.0000      -0.611375       -16.6364
 134   2.0000      -0.600059       -16.3284
 135   2.0000      -0.597959       -16.2713
 136   2.0000      -0.594922       -16.1886
 137   2.0000      -0.591524       -16.0962
 138   2.0000      -0.587695       -15.9920
 139   2.0000      -0.585687       -15.9374
 140   2.0000      -0.584378       -15.9017
 141   2.0000      -0.581382       -15.8202
 142   2.0000      -0.575647       -15.6641
 143   2.0000      -0.574028       -15.6201
 144   2.0000      -0.563886       -15.3441
 145   2.0000      -0.558556       -15.1991
 146   2.0000      -0.552968       -15.0470
 147   2.0000      -0.552262       -15.0278
 148   2.0000      -0.548518       -14.9259
 149   2.0000      -0.544186       -14.8080
 150   2.0000      -0.541260       -14.7284
 151   2.0000      -0.539867       -14.6905
 152   2.0000      -0.537417       -14.6239
 153   2.0000      -0.533917       -14.5286
 154   2.0000      -0.530334       -14.4311
 155   2.0000      -0.526803       -14.3350
 156   2.0000      -0.525707       -14.3052
 157   2.0000      -0.524281       -14.2664
 158   2.0000      -0.521952       -14.2030
 159   2.0000      -0.520894       -14.1743
 160   2.0000      -0.518461       -14.1080
 161   2.0000      -0.517939       -14.0938
 162   2.0000      -0.517222       -14.0743
 163   2.0000      -0.512110       -13.9352
 164   2.0000      -0.509924       -13.8757
 165   2.0000      -0.504201       -13.7200
 166   2.0000      -0.500379       -13.6160
 167   2.0000      -0.498801       -13.5731
 168   2.0000      -0.495043       -13.4708
 169   2.0000      -0.493950       -13.4411
 170   2.0000      -0.489485       -13.3196
 171   2.0000      -0.486031       -13.2256
 172   2.0000      -0.484621       -13.1872
 173   2.0000      -0.483074       -13.1451
 174   2.0000      -0.480323       -13.0703
 175   2.0000      -0.479035       -13.0352
 176   2.0000      -0.478756       -13.0276
 177   2.0000      -0.476417       -12.9640
 178   2.0000      -0.474254       -12.9051
 179   2.0000      -0.470528       -12.8037
 180   2.0000      -0.465281       -12.6609
 181   2.0000      -0.461810       -12.5665
 182   2.0000      -0.460652       -12.5350
 183   2.0000      -0.457394       -12.4463
 184   2.0000      -0.453239       -12.3333
 185   2.0000      -0.447772       -12.1845
 186   2.0000      -0.442137       -12.0312
 187   2.0000      -0.440165       -11.9775
 188   2.0000      -0.439404       -11.9568
 189   2.0000      -0.431404       -11.7391
 190   2.0000      -0.428052       -11.6479
 191   2.0000      -0.424104       -11.5404
 192   2.0000      -0.419703       -11.4207
 193   2.0000      -0.400457       -10.8970
 194   2.0000      -0.391187       -10.6447
 195   2.0000      -0.386034       -10.5045
 196   2.0000      -0.384746       -10.4695
 197   2.0000      -0.382283       -10.4025
 198   2.0000      -0.381266       -10.3748
 199   2.0000      -0.379808       -10.3351
 200   2.0000      -0.376308       -10.2399
 201   2.0000      -0.374114       -10.1802
 202   2.0000      -0.373553       -10.1649
 203   2.0000      -0.372138       -10.1264
 204   2.0000      -0.367154        -9.9908
 205   2.0000      -0.363227        -9.8839
 206   2.0000      -0.363083        -9.8800
 207   2.0000      -0.362197        -9.8559
 208   2.0000      -0.360206        -9.8017
 209   2.0000      -0.359831        -9.7915
 210   2.0000      -0.351544        -9.5660
 211   2.0000      -0.347549        -9.4573
 212   2.0000      -0.344720        -9.3803
 213   2.0000      -0.343309        -9.3419
 214   2.0000      -0.331977        -9.0336
 215   2.0000      -0.328806        -8.9473
 216   2.0000      -0.321520        -8.7490
 217   2.0000      -0.309921        -8.4334
 218   2.0000      -0.303258        -8.2521
 219   2.0000      -0.280687        -7.6379
 220   2.0000      -0.272190        -7.4067
 221   2.0000      -0.242052        -6.5866
 222   0.0000      -0.141721        -3.8564
 223   0.0000      -0.126021        -3.4292
 224   0.0000      -0.098725        -2.6864
 225   0.0000      -0.087453        -2.3797
 226   0.0000      -0.078183        -2.1275

MULLIKEN ATOMIC CHARGES
-----------------------
   0 C :   -0.018965
   1 C :    0.066047
   2 C :    0.019410
   3 C :   -0.132249
   4 C :    0.138638
   5 O :   -0.109279
   6 C :    0.105973
   7 C :    0.080934
   8 N :    0.274086
   9 O :   -0.247694
  10 O :   -0.262696
  11 C :    0.022101
  12 C :    0.012260
  13 C :   -0.000723
  14 C :    0.034368
  15 C :    0.017768
  16 C :    0.016186
  17 C :    0.084762
  18 N :    0.277647
  19 O :   -0.247525
  20 O :   -0.263205
  21 C :    0.039044
  22 C :   -0.030532
  23 C :   -0.044061
  24 C :    0.123019
  25 N :   -0.264185
  26 C :    0.096805
  27 C :    0.007678
  28 C :    0.144787
  29 O :   -0.186391
  30 C :   -0.041965
  31 C :   -0.030861
  32 C :    0.153526
  33 O :   -0.179913
  34 N :   -0.263524
  35 C :    0.094003
  36 C :    0.005171
  37 C :    0.120379
  38 C :   -0.061668
  39 C :   -0.030940
  40 C :    0.021695
  41 C :    0.084428
  42 N :    0.278682
  43 O :   -0.236684
  44 O :   -0.261084
  45 C :    0.019767
  46 C :   -0.009337
  47 C :    0.044431
  48 C :    0.048770
  49 C :   -0.022453
  50 C :    0.054257
  51 C :    0.080384
  52 N :    0.274209
  53 O :   -0.259262
  54 O :   -0.244157
  55 C :    0.014517
  56 C :   -0.037742
  57 C :    0.023909
  58 C :   -0.049480
  59 C :   -0.003122
  60 C :    0.058281
  61 C :   -0.022908
  62 C :    0.135794
  63 O :   -0.111121
  64 H :    0.003289
  65 H :    0.012963
  66 H :    0.023174
  67 H :   -0.001420
  68 H :   -0.005855
  69 H :   -0.002859
  70 H :    0.003427
  71 H :    0.016574
  72 H :    0.040205
  73 H :    0.044455
  74 H :    0.030754
  75 H :    0.022346
  76 H :    0.033348
  77 H :    0.024453
  78 H :    0.044807
  79 H :    0.043082
  80 H :    0.028225
  81 H :    0.032455
  82 H :    0.013865
  83 H :    0.041860
  84 H :    0.033535
  85 H :    0.005111
  86 H :    0.012954
  87 H :    0.007779
  88 H :    0.007813
  89 H :    0.024421
  90 H :    0.025809
  91 H :    0.016451
  92 H :    0.012945
  93 H :    0.004041
Sum of atomic charges:   -0.0000000

LOEWDIN ATOMIC CHARGES
----------------------
   0 C :   -0.052002
   1 C :    0.031375
   2 C :    0.032677
   3 C :   -0.073704
   4 C :    0.104600
   5 O :   -0.081700
   6 C :    0.008099
   7 C :   -0.033218
   8 N :    0.285819
   9 O :   -0.211753
  10 O :   -0.216672
  11 C :    0.010822
  12 C :   -0.037460
  13 C :    0.036512
  14 C :    0.058160
  15 C :   -0.038955
  16 C :    0.019496
  17 C :   -0.049436
  18 N :    0.285986
  19 O :   -0.212225
  20 O :   -0.228048
  21 C :    0.013111
  22 C :   -0.001572
  23 C :   -0.001646
  24 C :    0.067816
  25 N :   -0.002970
  26 C :    0.036572
  27 C :   -0.059423
  28 C :    0.080381
  29 O :   -0.187708
  30 C :   -0.110663
  31 C :   -0.096710
  32 C :    0.084356
  33 O :   -0.178227
  34 N :    0.000185
  35 C :    0.037117
  36 C :   -0.061034
  37 C :    0.076304
  38 C :   -0.017024
  39 C :   -0.001740
  40 C :    0.009238
  41 C :   -0.035463
  42 N :    0.286809
  43 O :   -0.200939
  44 O :   -0.223119
  45 C :    0.002394
  46 C :   -0.028535
  47 C :    0.027748
  48 C :    0.049885
  49 C :   -0.044149
  50 C :    0.033403
  51 C :   -0.047087
  52 N :    0.285373
  53 O :   -0.222716
  54 O :   -0.208266
  55 C :    0.021579
  56 C :   -0.015925
  57 C :    0.015038
  58 C :   -0.072561
  59 C :    0.027045
  60 C :    0.022070
  61 C :   -0.049579
  62 C :    0.093444
  63 O :   -0.087249
  64 H :    0.034761
  65 H :    0.036011
  66 H :    0.034541
  67 H :    0.036829
  68 H :    0.029873
  69 H :    0.030770
  70 H :    0.038941
  71 H :    0.035889
  72 H :    0.050580
  73 H :    0.038198
  74 H :    0.025044
  75 H :    0.029892
  76 H :    0.036737
  77 H :    0.024219
  78 H :    0.039294
  79 H :    0.030225
  80 H :    0.031883
  81 H :    0.035770
  82 H :    0.019538
  83 H :    0.049313
  84 H :    0.035974
  85 H :    0.038830
  86 H :    0.033435
  87 H :    0.031710
  88 H :    0.040564
  89 H :    0.035742
  90 H :    0.037284
  91 H :    0.034835
  92 H :    0.035080
  93 H :    0.034299

  Mayer bond orders larger than 0.100000
B(  0-C ,  1-C ) :   1.6973 B(  0-C ,  4-C ) :   1.0004 B(  0-C , 64-H ) :   1.0149
B(  1-C ,  2-C ) :   1.0029 B(  1-C , 65-H ) :   1.0014 B(  2-C ,  3-C ) :   1.6982
B(  2-C , 66-H ) :   0.9992 B(  3-C ,  4-C ) :   0.8896 B(  3-C ,  6-C ) :   1.0804
B(  4-C ,  5-O ) :   2.1616 B(  6-C ,  7-C ) :   1.5415 B(  6-C , 13-C ) :   1.0491
B(  7-C ,  8-N ) :   0.9524 B(  7-C , 11-C ) :   1.1425 B(  8-N ,  9-O ) :   1.5359
B(  8-N , 10-O ) :   1.4888 B(  9-O , 10-O ) :   0.2587 B( 11-C , 12-C ) :   1.5648
B( 11-C , 67-H ) :   1.0069 B( 12-C , 13-C ) :   1.1529 B( 12-C , 68-H ) :   0.9985
B( 13-C , 14-C ) :   1.4501 B( 14-C , 15-C ) :   1.1585 B( 14-C , 21-C ) :   1.0110
B( 15-C , 16-C ) :   1.5515 B( 15-C , 69-H ) :   0.9961 B( 16-C , 17-C ) :   1.1516
B( 16-C , 70-H ) :   1.0120 B( 17-C , 18-N ) :   0.9608 B( 17-C , 21-C ) :   1.4546
B( 18-N , 19-O ) :   1.5323 B( 18-N , 20-O ) :   1.4856 B( 19-O , 20-O ) :   0.2541
B( 21-C , 22-C ) :   1.2301 B( 22-C , 23-C ) :   1.4469 B( 22-C , 71-H ) :   0.9563
B( 23-C , 24-C ) :   1.2431 B( 23-C , 72-H ) :   0.9297 B( 24-C , 25-N ) :   1.1768
B( 24-C , 31-C ) :   1.3004 B( 25-N , 26-C ) :   0.9329 B( 25-N , 28-C ) :   1.0403
B( 26-C , 27-C ) :   1.1204 B( 26-C , 73-H ) :   0.9253 B( 26-C , 74-H ) :   0.9508
B( 27-C , 75-H ) :   0.9617 B( 27-C , 76-H ) :   0.9674 B( 27-C , 77-H ) :   0.9671
B( 28-C , 29-O ) :   2.1243 B( 28-C , 30-C ) :   0.9698 B( 30-C , 31-C ) :   1.2792
B( 30-C , 37-C ) :   1.2968 B( 31-C , 32-C ) :   0.9709 B( 32-C , 33-O ) :   2.1213
B( 32-C , 34-N ) :   1.0332 B( 34-N , 35-C ) :   0.9277 B( 34-N , 37-C ) :   1.1949
B( 35-C , 36-C ) :   1.1182 B( 35-C , 78-H ) :   0.9266 B( 35-C , 79-H ) :   0.9502
B( 36-C , 80-H ) :   0.9612 B( 36-C , 81-H ) :   0.9688 B( 36-C , 82-H ) :   0.9673
B( 37-C , 38-C ) :   1.2198 B( 38-C , 39-C ) :   1.5450 B( 38-C , 83-H ) :   0.9410
B( 39-C , 40-C ) :   1.1593 B( 39-C , 84-H ) :   0.9383 B( 40-C , 41-C ) :   1.5275
B( 40-C , 47-C ) :   1.0160 B( 41-C , 42-N ) :   0.9511 B( 41-C , 45-C ) :   1.1306
B( 42-N , 43-O ) :   1.5425 B( 42-N , 44-O ) :   1.4740 B( 43-O , 44-O ) :   0.2582
B( 45-C , 46-C ) :   1.5926 B( 45-C , 85-H ) :   1.0145 B( 46-C , 47-C ) :   1.1008
B( 46-C , 86-H ) :   0.9916 B( 47-C , 48-C ) :   1.5739 B( 48-C , 49-C ) :   1.1080
B( 48-C , 55-C ) :   0.9886 B( 49-C , 50-C ) :   1.5900 B( 49-C , 87-H ) :   0.9959
B( 50-C , 51-C ) :   1.1217 B( 50-C , 88-H ) :   1.0102 B( 51-C , 52-N ) :   0.9550
B( 51-C , 55-C ) :   1.5324 B( 52-N , 53-O ) :   1.4888 B( 52-N , 54-O ) :   1.5396
B( 53-O , 54-O ) :   0.2578 B( 55-C , 56-C ) :   1.1868 B( 56-C , 57-C ) :   1.5633
B( 56-C , 89-H ) :   0.9521 B( 57-C , 58-C ) :   1.1651 B( 57-C , 90-H ) :   0.9623
B( 58-C , 59-C ) :   1.6592 B( 58-C , 62-C ) :   0.8971 B( 59-C , 60-C ) :   1.0302
B( 59-C , 91-H ) :   1.0019 B( 60-C , 61-C ) :   1.7101 B( 60-C , 92-H ) :   0.9995
B( 61-C , 62-C ) :   0.9804 B( 61-C , 93-H ) :   1.0147 B( 62-C , 63-O ) :   2.2196

-----------------------------------------------------------------------------
         ABSORPTION SPECTRUM VIA TRANSITION ELECTRIC DIPOLE MOMENTS
-----------------------------------------------------------------------------
State   Energy  Wavelength   fosc         T2         TX        TY        TZ
        (cm-1)    (nm)                  (au**2)     (au)      (au)      (au)
-----------------------------------------------------------------------------
   0    6517.1   1534.4   0.346719859  17.51468  -1.65889   3.64698  -1.20927
   1    9777.7   1022.7   0.024552287   0.82667  -0.37637   0.67674  -0.47649
   2   12167.1    821.9   0.031058130   0.84036   0.72642  -0.55821   0.03272
   3   12448.4    803.3   0.025148403   0.66508  -0.11145   0.27223   0.76063
   4   16837.7    593.9   0.190608125   3.72679  -0.18176  -1.03350   1.62038
   5   17998.1    555.6   0.010481003   0.19171  -0.32262   0.28574  -0.07736
   6   18288.1    546.8   0.006484860   0.11674  -0.20410  -0.16801  -0.21645
   7   19050.4    524.9   0.000974624   0.01684   0.02514  -0.04382  -0.11954
   8   19440.5    514.4   0.189389982   3.20720  -0.45615   1.50170  -0.86257
   9   20465.9    488.6   0.047414950   0.76271   0.59648  -0.63655   0.04164
  10   21053.4    475.0   0.107863130   1.68665   0.02041   0.47153  -1.20992
  11   21572.1    463.6   0.099126564   1.51277  -0.55820  -0.97725   0.49615
  12   22237.1    449.7   0.059509037   0.88101   0.48467   0.78971  -0.14987
  13   22483.5    444.8   0.046092745   0.67491  -0.60645  -0.03524   0.55307
  14   22755.6    439.5   0.007513326   0.10870  -0.26133   0.05076   0.19449
  15   24026.1    416.2   0.066434009   0.91030   0.22702  -0.84680   0.37640
  16   24145.1    414.2   0.060056711   0.81886   0.14239  -0.79579   0.40658
  17   24385.9    410.1   0.025617891   0.34584   0.24379  -0.48721   0.22145
  18   24949.8    400.8   0.038773407   0.51161  -0.34564  -0.49854   0.37896
  19   25108.9    398.3   0.175060003   2.29528  -0.26484   1.48812  -0.10314
  20   25477.3    392.5   0.121030338   1.56393   0.93915  -0.81859  -0.10879
  21   25834.7    387.1   0.026282224   0.33491  -0.09360  -0.57004   0.03483
  22   26156.9    382.3   0.059863001   0.75344   0.39602   0.63589  -0.43846
  23   26871.0    372.1   0.008777675   0.10754  -0.15500  -0.27456   0.09017
  24   26933.3    371.3   0.015631828   0.19107   0.35884  -0.24156  -0.06287
  25   27212.4    367.5   0.008862619   0.10722   0.22464   0.17828  -0.15802
  26   27229.7    367.2   0.010075000   0.12181  -0.24856  -0.05472   0.23881
  27   27374.7    365.3   0.002318249   0.02788   0.15683  -0.00416  -0.05716
  28   27590.5    362.4   0.005290191   0.06312  -0.01437  -0.23761   0.08035
  29   27753.3    360.3   0.060459548   0.71718   0.42727   0.72575  -0.08892
  30   28223.6    354.3   0.004837722   0.05643  -0.14705  -0.18548   0.02007
  31   28793.3    347.3   0.050616400   0.57873  -0.74756  -0.06860   0.12321
  32   28899.6    346.0   0.056935676   0.64859   0.36498   0.00349  -0.71789
  33   29260.1    341.8   0.135164322   1.52076   0.41253   0.19834  -1.14510
  34   30171.2    331.4   0.008633605   0.09421   0.24728  -0.12138  -0.13536
  35   30282.5    330.2   0.023440230   0.25483  -0.44843   0.00017   0.23182
  36   30634.9    326.4   0.014598457   0.15688   0.30146  -0.18840  -0.17466
  37   31075.6    321.8   0.021404047   0.22675  -0.08595   0.32224  -0.33990
  38   31204.3    320.5   0.002625764   0.02770  -0.07021   0.09170  -0.11985
  39   31393.0    318.5   0.230729824   2.41962  -0.12204  -1.35958   0.74582
  40   31578.6    316.7   0.087290989   0.91002   0.38806   0.68669  -0.53656
  41   31678.6    315.7   0.046409191   0.48230   0.58012  -0.05639  -0.37759
  42   31753.4    314.9   0.000534881   0.00555  -0.02891   0.04660  -0.05038
  43   31888.7    313.6   0.184056174   1.90016  -0.35355  -0.99990   0.88055
  44   31939.6    313.1   0.023275894   0.23991  -0.36276   0.21079   0.25275
  45   32076.0    311.8   0.180969318   1.85738   0.77144   0.69343  -0.88397
  46   32117.0    311.4   0.068057230   0.69761   0.70383  -0.31532  -0.32065
  47   32544.6    307.3   0.191903740   1.94125  -0.91107  -0.62736   0.84713
  48   32779.0    305.1   0.014434965   0.14498   0.00449  -0.37568   0.06178
  49   32976.0    303.3   0.192919674   1.92599   0.32683   1.13862  -0.72300
  50   33037.2    302.7   0.027250525   0.27155   0.21789  -0.44565  -0.15959
  51   33235.3    300.9   0.024882509   0.24647  -0.42781  -0.13814   0.21064
  52   33514.9    298.4   0.044225321   0.43442   0.00756  -0.54326   0.37313
  53   33643.8    297.2   0.012228637   0.11966   0.09518   0.16867  -0.28662
  54   33769.4    296.1   0.015748620   0.15353  -0.11157   0.35791  -0.11393
  55   33832.9    295.6   0.098674011   0.96015  -0.37370  -0.77864   0.46284
  56   34099.5    293.3   0.029435701   0.28419  -0.44912  -0.09104   0.27238
  57   34398.1    290.7   0.018554598   0.17758  -0.19161   0.37364  -0.03545
  58   34452.5    290.3   0.095508174   0.91263   0.35142   0.74297  -0.48696
  59   34674.0    288.4   0.067595912   0.64179  -0.35943  -0.55994   0.44617
  60   35016.9    285.6   0.017664173   0.16607  -0.36575  -0.05416   0.17135
  61   35192.9    284.1   0.113541467   1.06212  -0.69915  -0.66594   0.36033
  62   35271.1    283.5   0.013208620   0.12329  -0.13789   0.28655   0.14886
  63   35676.8    280.3   0.019386555   0.17889  -0.22316  -0.32636   0.15027
  64   35839.2    279.0   0.109481092   1.00567   0.75097   0.14955  -0.64758
  65   35999.5    277.8   0.042571922   0.38932   0.44078   0.24943  -0.36443
  66   36242.0    275.9   0.042119916   0.38260   0.40128   0.24273  -0.40331
  67   36608.6    273.2   0.004797869   0.04315   0.19735   0.04008  -0.05091
  68   36663.1    272.8   0.033756961   0.30312  -0.05062  -0.49937  -0.22625
  69   37041.2    270.0   0.022910035   0.20362   0.36274  -0.06731  -0.25982
  70   37104.8    269.5   0.073077286   0.64838  -0.48650  -0.58590   0.26157
  71   37846.4    264.2   0.030874844   0.26857  -0.16129  -0.39212   0.29799
  72   37967.2    263.4   0.067063218   0.58150  -0.51769  -0.31076   0.46576
  73   38179.0    261.9   0.134424774   1.15912  -0.90923  -0.22561   0.53059
  74   38310.4    261.0   0.001964148   0.01688  -0.05544  -0.10527   0.05218
  75   38458.5    260.0   0.033543813   0.28714  -0.38904  -0.14647   0.33813
  76   38756.7    258.0   0.035405846   0.30075  -0.22759  -0.35914   0.34637
  77   38777.9    257.9   0.000889931   0.00756  -0.05838  -0.05523   0.03311
  78   38976.7    256.6   0.006919973   0.05845  -0.19159  -0.10922   0.09905
  79   39118.1    255.6   0.001873454   0.01577  -0.05807   0.10763  -0.02847
  80   39567.8    252.7   0.034869964   0.29012   0.19642   0.16174  -0.47474
  81   39655.5    252.2   0.000201630   0.00167  -0.00690   0.03994   0.00554
  82   39802.3    251.2   0.001704764   0.01410   0.01221   0.11558   0.02433
  83   39908.8    250.6   0.038154941   0.31474  -0.05651  -0.52817   0.18051
  84   39970.9    250.2   0.028891901   0.23796  -0.39814  -0.10375   0.26207
  85   40107.3    249.3   0.038583458   0.31670  -0.34542  -0.09894   0.43313
  86   40168.2    249.0   0.026656169   0.21847  -0.27366  -0.06275   0.37369

FINAL SINGLE POINT ENERGY     -2997.830675352847

DIPOLE MOMENT
-------------
                                X             Y             Z
Electronic contribution:      9.58833      -2.79570       2.75946
Nuclear contribution   :    -10.26804       3.41326      -3.25667
                        -----------------------------------------
Total Dipole Moment    :     -0.67971       0.61757      -0.49721
                        -----------------------------------------
Magnitude (a.u.)       :      1.04433
Magnitude (Debye)      :      2.65447

Rotational constants in cm-1:     0.002223     0.000524     0.000445
Rotational constants in MHz :    66.641388    15.703165    13.339005

                             ****ORCA TERMINATED NORMALLY****
TOTAL RUN TIME: 0 days 0 hours 10 minutes 27 seconds 536 msec
