                         Program Version 4.2.0 -  RELEASE  -
|  1> # ORCA input file
|  2> # SCF done       -157.701690833325          0.000482405809
|  3> ! CAM-B3LYP def2-SVP def2/J RIJCOSX Grid4 TightSCF
|  4> %maxcore 5000
|  5> %tddft
|  6>     Mode sTDDFT
|  7>     Ethresh 5.0
|  8>     maxcore 5000
|  9> end
| 10>
| 11> %pal
| 12>   nprocs 6
| 13>   end
| 14> * xyz 0 1
| 15>    C        2.56178         1.75526        -4.63239
| 16>    O        2.44260         0.69532        -5.44214
| 17>    C        3.68549         0.32339        -5.79746
| 18>    C        4.61069         1.13228        -5.22444
| 19>    C        3.88388         2.08853        -4.44896
| 20>    C        4.45905         3.14445        -3.66522
| 21>    C        3.76555         4.03691        -2.92866
| 22>    C        4.38773         5.04828        -2.14311
| 23>    C        3.70000         5.92869        -1.37796
| 24>    C        4.26956         6.96275        -0.58027
| 25>    C        3.64404         8.15543        -0.32118
| 26>    C        4.58043         9.04343         0.29082
| 27>    O        4.39966        10.32809         0.65306
| 28>    C        3.08705        10.84179         0.58558
| 29>    C        5.80036         8.40212         0.42523
| 30>    C        5.63404         7.04117        -0.01615
| 31>    C        6.45093         5.98344         0.29375
| 32>    C        6.12570         4.58107         0.26343
| 33>    C        7.21503         3.88604         0.68526
| 34>    O        7.40842         2.56770         0.84020
| 35>    C        6.31919         1.72982         0.52734
| 36>    C        8.29212         4.82868         0.99183
| 37>    C        7.82779         6.07165         0.78870
| 38>    C        6.92973         9.05096         1.05270
| 39>    S        8.35802         9.55775         0.16567
| 40>    C        9.05515        10.41362         1.51557
| 41>    C        8.22440        10.27685         2.61509
| 42>    C        7.02688         9.54660         2.32210
| 43>    O        6.22583         9.48550         3.41206
| 44>    C        6.89277        10.17158         4.38108
| 45>    N        6.28208        10.28712         5.64705
| 46>    O        6.90643        10.89945         6.49738
| 47>    O        5.18976         9.78197         5.80635
| 48>    C        8.09911        10.67555         3.96853
| 49>    C       10.32061        11.06952         1.42910
| 50>    C       11.32645        10.99868         2.34699
| 51>    C       12.49621        11.64247         1.80614
| 52>    O       13.58361        11.72483         2.58268
| 53>    C       14.74359        12.37024         2.10954
| 54>    C       12.21989        12.08643         0.52658
| 55>    C       10.82717        11.80660         0.26374
| 56>    C       10.06819        12.24456        -0.79254
| 57>    C        8.64050        12.39882        -0.81737
| 58>    C        8.28725        12.85655        -2.04921
| 59>    O        7.08688        13.16689        -2.55134
| 60>    C        5.97798        12.97879        -1.69917
| 61>    C        9.49204        12.97404        -2.87449
| 62>    C       10.55119        12.64867        -2.11557
| 63>    C       13.05645        12.87580        -0.35922
| 64>    S       12.72354        14.56943        -0.58747
| 65>    C       14.04458        14.71766        -1.71399
| 66>    C       14.39742        15.97212        -2.38755
| 67>    O       15.33477        16.05596        -3.13576
| 68>    O       13.61810        17.03887        -2.12869
| 69>    C       14.68826        13.51875        -1.87687
| 70>    C       14.12744        12.48266        -1.11506
| 71>    H        1.65553         2.18347        -4.25347
| 72>    H        3.77638        -0.52009        -6.45261
| 73>    H        5.67469         1.07439        -5.32851
| 74>    H        5.54008         3.20177        -3.68142
| 75>    H        2.68543         3.98508        -2.90279
| 76>    H        5.46747         5.09999        -2.17344
| 77>    H        2.61703         5.92317        -1.42871
| 78>    H        2.63953         8.40713        -0.60632
| 79>    H        3.13848        11.84911         0.99503
| 80>    H        2.39586        10.24125         1.18261
| 81>    H        2.73231        10.88792        -0.44870
| 82>    H        5.16127         4.18629         0.01902
| 83>    H        6.66544         0.70907         0.67785
| 84>    H        6.00471         1.86553        -0.51231
| 85>    H        5.46825         1.93092         1.18471
| 86>    H        9.26368         4.52669         1.33247
| 87>    H        8.37397         6.98407         0.91188
| 88>    H        8.77901        11.24715         4.56562
| 89>    H       11.30655        10.51084         3.30175
| 90>    H       15.44336        12.36599         2.94390
| 91>    H       14.53502        13.40178         1.81555
| 92>    H       15.18075        11.83523         1.26290
| 93>    H        8.00187        12.27866         0.03410
| 94>    H        5.09579        13.21579        -2.29093
| 95>    H        6.03131        13.64738        -0.83497
| 96>    H        5.92389        11.94470        -1.34594
| 97>    H        9.47807        13.27412        -3.90435
| 98>    H       11.57216        12.57904        -2.43616
| 99>    H       12.89483        16.83729        -1.51961
|100>    H       15.52927        13.40738        -2.53650
|101>    H       14.48081        11.46663        -1.13447
|102> *
|103>
|104>                          ****END OF INPUT****

CARTESIAN COORDINATES (ANGSTROEM)
---------------------------------
  C      2.561780    1.755260   -4.632390
  O      2.442600    0.695320   -5.442140
  C      3.685490    0.323390   -5.797460
  C      4.610690    1.132280   -5.224440
  C      3.883880    2.088530   -4.448960
  C      4.459050    3.144450   -3.665220
  C      3.765550    4.036910   -2.928660
  C      4.387730    5.048280   -2.143110
  C      3.700000    5.928690   -1.377960
  C      4.269560    6.962750   -0.580270
  C      3.644040    8.155430   -0.321180
  C      4.580430    9.043430    0.290820
  O      4.399660   10.328090    0.653060
  C      3.087050   10.841790    0.585580
  C      5.800360    8.402120    0.425230
  C      5.634040    7.041170   -0.016150
  C      6.450930    5.983440    0.293750
  C      6.125700    4.581070    0.263430
  C      7.215030    3.886040    0.685260
  O      7.408420    2.567700    0.840200
  C      6.319190    1.729820    0.527340
  C      8.292120    4.828680    0.991830
  C      7.827790    6.071650    0.788700
  C      6.929730    9.050960    1.052700
  S      8.358020    9.557750    0.165670
  C      9.055150   10.413620    1.515570
  C      8.224400   10.276850    2.615090
  C      7.026880    9.546600    2.322100
  O      6.225830    9.485500    3.412060
  C      6.892770   10.171580    4.381080
  N      6.282080   10.287120    5.647050
  O      6.906430   10.899450    6.497380
  O      5.189760    9.781970    5.806350
  C      8.099110   10.675550    3.968530
  C     10.320610   11.069520    1.429100
  C     11.326450   10.998680    2.346990
  C     12.496210   11.642470    1.806140
  O     13.583610   11.724830    2.582680
  C     14.743590   12.370240    2.109540
  C     12.219890   12.086430    0.526580
  C     10.827170   11.806600    0.263740
  C     10.068190   12.244560   -0.792540
  C      8.640500   12.398820   -0.817370
  C      8.287250   12.856550   -2.049210
  O      7.086880   13.166890   -2.551340
  C      5.977980   12.978790   -1.699170
  C      9.492040   12.974040   -2.874490
  C     10.551190   12.648670   -2.115570
  C     13.056450   12.875800   -0.359220
  S     12.723540   14.569430   -0.587470
  C     14.044580   14.717660   -1.713990
  C     14.397420   15.972120   -2.387550
  O     15.334770   16.055960   -3.135760
  O     13.618100   17.038870   -2.128690
  C     14.688260   13.518750   -1.876870
  C     14.127440   12.482660   -1.115060
  H      1.655530    2.183470   -4.253470
  H      3.776380   -0.520090   -6.452610
  H      5.674690    1.074390   -5.328510
  H      5.540080    3.201770   -3.681420
  H      2.685430    3.985080   -2.902790
  H      5.467470    5.099990   -2.173440
  H      2.617030    5.923170   -1.428710
  H      2.639530    8.407130   -0.606320
  H      3.138480   11.849110    0.995030
  H      2.395860   10.241250    1.182610
  H      2.732310   10.887920   -0.448700
  H      5.161270    4.186290    0.019020
  H      6.665440    0.709070    0.677850
  H      6.004710    1.865530   -0.512310
  H      5.468250    1.930920    1.184710
  H      9.263680    4.526690    1.332470
  H      8.373970    6.984070    0.911880
  H      8.779010   11.247150    4.565620
  H     11.306550   10.510840    3.301750
  H     15.443360   12.365990    2.943900
  H     14.535020   13.401780    1.815550
  H     15.180750   11.835230    1.262900
  H      8.001870   12.278660    0.034100
  H      5.095790   13.215790   -2.290930
  H      6.031310   13.647380   -0.834970
  H      5.923890   11.944700   -1.345940
  H      9.478070   13.274120   -3.904350
  H     11.572160   12.579040   -2.436160
  H     12.894830   16.837290   -1.519610
  H     15.529270   13.407380   -2.536500
  H     14.480810   11.466630   -1.134470

 Total Charge           Charge          ....    0
 Multiplicity           Mult            ....    1
 Number of Electrons    NEL             ....  408
 Basis Dimension        Dim             ....  947

ORBITAL ENERGIES
----------------

  NO   OCC          E(Eh)            E(eV)
   0   2.0000     -88.967225     -2420.9213
   1   2.0000     -88.962787     -2420.8005
   2   2.0000     -19.295057      -525.0452
   3   2.0000     -19.288782      -524.8744
   4   2.0000     -19.261820      -524.1408
   5   2.0000     -19.258236      -524.0432
   6   2.0000     -19.255591      -523.9713
   7   2.0000     -19.253928      -523.9260
   8   2.0000     -19.252601      -523.8899
   9   2.0000     -19.235604      -523.4274
  10   2.0000     -19.233132      -523.3601
  11   2.0000     -19.188258      -522.1390
  12   2.0000     -14.646740      -398.5581
  13   2.0000     -10.398695      -282.9629
  14   2.0000     -10.377677      -282.3909
  15   2.0000     -10.344566      -281.4899
  16   2.0000     -10.333652      -281.1930
  17   2.0000     -10.333348      -281.1847
  18   2.0000     -10.330538      -281.1082
  19   2.0000     -10.330250      -281.1004
  20   2.0000     -10.326554      -280.9998
  21   2.0000     -10.325855      -280.9808
  22   2.0000     -10.322374      -280.8861
  23   2.0000     -10.321036      -280.8497
  24   2.0000     -10.318618      -280.7839
  25   2.0000     -10.317417      -280.7512
  26   2.0000     -10.317260      -280.7469
  27   2.0000     -10.311866      -280.6001
  28   2.0000     -10.304180      -280.3910
  29   2.0000     -10.303067      -280.3607
  30   2.0000     -10.303012      -280.3592
  31   2.0000     -10.295376      -280.1514
  32   2.0000     -10.293650      -280.1045
  33   2.0000     -10.290820      -280.0275
  34   2.0000     -10.290114      -280.0082
  35   2.0000     -10.287764      -279.9443
  36   2.0000     -10.287211      -279.9292
  37   2.0000     -10.285352      -279.8787
  38   2.0000     -10.280685      -279.7517
  39   2.0000     -10.280263      -279.7402
  40   2.0000     -10.278647      -279.6962
  41   2.0000     -10.275117      -279.6001
  42   2.0000     -10.273780      -279.5638
  43   2.0000     -10.273081      -279.5447
  44   2.0000     -10.272567      -279.5308
  45   2.0000     -10.272286      -279.5231
  46   2.0000     -10.272062      -279.5170
  47   2.0000     -10.271210      -279.4938
  48   2.0000     -10.268402      -279.4174
  49   2.0000     -10.267491      -279.3926
  50   2.0000     -10.266725      -279.3718
  51   2.0000     -10.265555      -279.3400
  52   2.0000     -10.261338      -279.2252
  53   2.0000     -10.260597      -279.2050
  54   2.0000     -10.246141      -278.8117
  55   2.0000     -10.241775      -278.6929
  56   2.0000      -8.062471      -219.3910
  57   2.0000      -8.056269      -219.2222
  58   2.0000      -6.031651      -164.1296
  59   2.0000      -6.027566      -164.0184
  60   2.0000      -6.025598      -163.9649
  61   2.0000      -6.024853      -163.9446
  62   2.0000      -6.021331      -163.8487
  63   2.0000      -6.018661      -163.7761
  64   2.0000      -1.317085       -35.8397
  65   2.0000      -1.214790       -33.0561
  66   2.0000      -1.206965       -32.8432
  67   2.0000      -1.175330       -31.9824
  68   2.0000      -1.165570       -31.7168
  69   2.0000      -1.160585       -31.5811
  70   2.0000      -1.159288       -31.5458
  71   2.0000      -1.155768       -31.4500
  72   2.0000      -1.133078       -30.8326
  73   2.0000      -1.088301       -29.6142
  74   2.0000      -0.998458       -27.1694
  75   2.0000      -0.989178       -26.9169
  76   2.0000      -0.977352       -26.5951
  77   2.0000      -0.968461       -26.3532
  78   2.0000      -0.953875       -25.9562
  79   2.0000      -0.948990       -25.8233
  80   2.0000      -0.925481       -25.1836
  81   2.0000      -0.919508       -25.0211
  82   2.0000      -0.892406       -24.2836
  83   2.0000      -0.879638       -23.9362
  84   2.0000      -0.870713       -23.6933
  85   2.0000      -0.858937       -23.3729
  86   2.0000      -0.850919       -23.1547
  87   2.0000      -0.842161       -22.9164
  88   2.0000      -0.839432       -22.8421
  89   2.0000      -0.836616       -22.7655
  90   2.0000      -0.828062       -22.5327
  91   2.0000      -0.815791       -22.1988
  92   2.0000      -0.810917       -22.0662
  93   2.0000      -0.805028       -21.9059
  94   2.0000      -0.801911       -21.8211
  95   2.0000      -0.792621       -21.5683
  96   2.0000      -0.786271       -21.3955
  97   2.0000      -0.780481       -21.2380
  98   2.0000      -0.772272       -21.0146
  99   2.0000      -0.760124       -20.6840
 100   2.0000      -0.735450       -20.0126
 101   2.0000      -0.721563       -19.6347
 102   2.0000      -0.718319       -19.5465
 103   2.0000      -0.706198       -19.2166
 104   2.0000      -0.695158       -18.9162
 105   2.0000      -0.686745       -18.6873
 106   2.0000      -0.675768       -18.3886
 107   2.0000      -0.675603       -18.3841
 108   2.0000      -0.665575       -18.1112
 109   2.0000      -0.659667       -17.9504
 110   2.0000      -0.655826       -17.8459
 111   2.0000      -0.652037       -17.7428
 112   2.0000      -0.647665       -17.6239
 113   2.0000      -0.644744       -17.5444
 114   2.0000      -0.636978       -17.3331
 115   2.0000      -0.633650       -17.2425
 116   2.0000      -0.631500       -17.1840
 117   2.0000      -0.631087       -17.1728
 118   2.0000      -0.625290       -17.0150
 119   2.0000      -0.621699       -16.9173
 120   2.0000      -0.616821       -16.7845
 121   2.0000      -0.611548       -16.6411
 122   2.0000      -0.605866       -16.4865
 123   2.0000      -0.597068       -16.2470
 124   2.0000      -0.594555       -16.1787
 125   2.0000      -0.588946       -16.0260
 126   2.0000      -0.585506       -15.9324
 127   2.0000      -0.576218       -15.6797
 128   2.0000      -0.575132       -15.6501
 129   2.0000      -0.562966       -15.3191
 130   2.0000      -0.561968       -15.2919
 131   2.0000      -0.560891       -15.2626
 132   2.0000      -0.555867       -15.1259
 133   2.0000      -0.554068       -15.0770
 134   2.0000      -0.553336       -15.0570
 135   2.0000      -0.549211       -14.9448
 136   2.0000      -0.545650       -14.8479
 137   2.0000      -0.542426       -14.7602
 138   2.0000      -0.540983       -14.7209
 139   2.0000      -0.536487       -14.5986
 140   2.0000      -0.533833       -14.5263
 141   2.0000      -0.532169       -14.4811
 142   2.0000      -0.529712       -14.4142
 143   2.0000      -0.526174       -14.3179
 144   2.0000      -0.520830       -14.1725
 145   2.0000      -0.516547       -14.0560
 146   2.0000      -0.516064       -14.0428
 147   2.0000      -0.511382       -13.9154
 148   2.0000      -0.509391       -13.8612
 149   2.0000      -0.501690       -13.6517
 150   2.0000      -0.500717       -13.6252
 151   2.0000      -0.491903       -13.3854
 152   2.0000      -0.490650       -13.3513
 153   2.0000      -0.484321       -13.1790
 154   2.0000      -0.482283       -13.1236
 155   2.0000      -0.479057       -13.0358
 156   2.0000      -0.475223       -12.9315
 157   2.0000      -0.474645       -12.9158
 158   2.0000      -0.472904       -12.8684
 159   2.0000      -0.469762       -12.7829
 160   2.0000      -0.467366       -12.7177
 161   2.0000      -0.465528       -12.6677
 162   2.0000      -0.461582       -12.5603
 163   2.0000      -0.460905       -12.5419
 164   2.0000      -0.458603       -12.4792
 165   2.0000      -0.456827       -12.4309
 166   2.0000      -0.450858       -12.2685
 167   2.0000      -0.449955       -12.2439
 168   2.0000      -0.449224       -12.2240
 169   2.0000      -0.444823       -12.1043
 170   2.0000      -0.441294       -12.0082
 171   2.0000      -0.432618       -11.7721
 172   2.0000      -0.430227       -11.7071
 173   2.0000      -0.427221       -11.6253
 174   2.0000      -0.425629       -11.5819
 175   2.0000      -0.422206       -11.4888
 176   2.0000      -0.418280       -11.3820
 177   2.0000      -0.417186       -11.3522
 178   2.0000      -0.414490       -11.2788
 179   2.0000      -0.411596       -11.2001
 180   2.0000      -0.410114       -11.1598
 181   2.0000      -0.406602       -11.0642
 182   2.0000      -0.403022       -10.9668
 183   2.0000      -0.385862       -10.4998
 184   2.0000      -0.385527       -10.4907
 185   2.0000      -0.382910       -10.4195
 186   2.0000      -0.379974       -10.3396
 187   2.0000      -0.378165       -10.2904
 188   2.0000      -0.370790       -10.0897
 189   2.0000      -0.362867        -9.8741
 190   2.0000      -0.358853        -9.7649
 191   2.0000      -0.345885        -9.4120
 192   2.0000      -0.334043        -9.0898
 193   2.0000      -0.325546        -8.8586
 194   2.0000      -0.320285        -8.7154
 195   2.0000      -0.314096        -8.5470
 196   2.0000      -0.302212        -8.2236
 197   2.0000      -0.299536        -8.1508
 198   2.0000      -0.291727        -7.9383
 199   2.0000      -0.283500        -7.7144
 200   2.0000      -0.268277        -7.3002
 201   2.0000      -0.266946        -7.2640
 202   2.0000      -0.248730        -6.7683
 203   2.0000      -0.231605        -6.3023
 204   0.0000      -0.081025        -2.2048
 205   0.0000      -0.075052        -2.0423
 206   0.0000      -0.055940        -1.5222
 207   0.0000      -0.022247        -0.6054
 208   0.0000      -0.016178        -0.4402

MULLIKEN ATOMIC CHARGES
-----------------------
   0 C :    0.068030
   1 O :   -0.176471
   2 C :    0.132425
   3 C :   -0.045086
   4 C :    0.040288
   5 C :    0.025267
   6 C :    0.005078
   7 C :    0.016411
   8 C :   -0.032534
   9 C :    0.086147
  10 C :   -0.130468
  11 C :    0.186453
  12 O :   -0.293706
  13 C :    0.180804
  14 C :   -0.033601
  15 C :    0.104103
  16 C :    0.003971
  17 C :   -0.187538
  18 C :    0.212369
  19 O :   -0.282434
  20 C :    0.179543
  21 C :    0.009642
  22 C :    0.020412
  23 C :   -0.332650
  24 S :    0.206540
  25 C :   -0.224946
  26 C :    0.145109
  27 C :    0.275902
  28 O :   -0.180682
  29 C :    0.233625
  30 N :    0.272907
  31 O :   -0.256880
  32 O :   -0.235232
  33 C :   -0.100340
  34 C :    0.092993
  35 C :   -0.076350
  36 C :    0.163099
  37 O :   -0.275171
  38 C :    0.197463
  39 C :   -0.019891
  40 C :    0.097174
  41 C :   -0.051140
  42 C :   -0.165554
  43 C :    0.206432
  44 O :   -0.279240
  45 C :    0.175831
  46 C :    0.010988
  47 C :    0.027243
  48 C :   -0.252006
  49 S :    0.122553
  50 C :   -0.178966
  51 C :    0.185347
  52 O :   -0.174562
  53 O :   -0.164186
  54 C :    0.017617
  55 C :    0.079801
  56 H :    0.003120
  57 H :    0.010330
  58 H :   -0.012978
  59 H :   -0.016996
  60 H :   -0.019121
  61 H :    0.015199
  62 H :   -0.020877
  63 H :   -0.036688
  64 H :    0.039912
  65 H :    0.034652
  66 H :    0.023445
  67 H :   -0.014574
  68 H :    0.036961
  69 H :    0.024477
  70 H :    0.028078
  71 H :   -0.020290
  72 H :   -0.020568
  73 H :    0.007540
  74 H :   -0.024658
  75 H :    0.039002
  76 H :    0.036481
  77 H :    0.022419
  78 H :   -0.007998
  79 H :    0.033642
  80 H :    0.025353
  81 H :    0.033487
  82 H :   -0.017059
  83 H :   -0.010373
  84 H :    0.177226
  85 H :    0.008468
  86 H :   -0.009542
Sum of atomic charges:   -0.0000000

LOEWDIN ATOMIC CHARGES
----------------------
   0 C :    0.033290
   1 O :    0.027307
   2 C :    0.029703
   3 C :   -0.070343
   4 C :   -0.081921
   5 C :   -0.016116
   6 C :   -0.028786
   7 C :   -0.010590
   8 C :   -0.033085
   9 C :   -0.003253
  10 C :   -0.067216
  11 C :    0.065967
  12 O :   -0.086419
  13 C :    0.080132
  14 C :   -0.130617
  15 C :    0.010511
  16 C :    0.034779
  17 C :   -0.138247
  18 C :    0.055567
  19 O :   -0.080565
  20 C :    0.081397
  21 C :   -0.016741
  22 C :   -0.023357
  23 C :   -0.196517
  24 S :    0.503157
  25 C :   -0.171793
  26 C :   -0.078197
  27 C :    0.026353
  28 O :   -0.000538
  29 C :    0.023853
  30 N :    0.272216
  31 O :   -0.218433
  32 O :   -0.197238
  33 C :   -0.011484
  34 C :   -0.033994
  35 C :   -0.026672
  36 C :    0.069431
  37 O :   -0.076129
  38 C :    0.082623
  39 C :   -0.148891
  40 C :    0.005812
  41 C :    0.021109
  42 C :   -0.147792
  43 C :    0.056595
  44 O :   -0.077295
  45 C :    0.080909
  46 C :   -0.015231
  47 C :   -0.028908
  48 C :   -0.147143
  49 S :    0.430323
  50 C :   -0.245128
  51 C :    0.062518
  52 O :   -0.163399
  53 O :   -0.037432
  54 C :   -0.014901
  55 C :   -0.064379
  56 H :    0.019085
  57 H :    0.022078
  58 H :    0.029474
  59 H :    0.029698
  60 H :    0.024257
  61 H :    0.033293
  62 H :    0.028493
  63 H :    0.021270
  64 H :    0.029447
  65 H :    0.021674
  66 H :    0.015066
  67 H :    0.022205
  68 H :    0.027681
  69 H :    0.017731
  70 H :    0.019378
  71 H :    0.027883
  72 H :    0.015296
  73 H :    0.044485
  74 H :    0.029041
  75 H :    0.029126
  76 H :    0.020508
  77 H :    0.018761
  78 H :    0.018488
  79 H :    0.026407
  80 H :    0.018525
  81 H :    0.020155
  82 H :    0.029415
  83 H :    0.026637
  84 H :    0.076773
  85 H :    0.041272
  86 H :    0.031596

  Mayer bond orders larger than 0.100000
B(  0-C ,  1-O ) :   1.1751 B(  0-C ,  4-C ) :   1.5062 B(  0-C , 56-H ) :   1.0031
B(  1-O ,  2-C ) :   1.1466 B(  2-C ,  3-C ) :   1.5742 B(  2-C , 57-H ) :   1.0017
B(  3-C ,  4-C ) :   1.2095 B(  3-C , 58-H ) :   1.0095 B(  4-C ,  5-C ) :   1.0696
B(  5-C ,  6-C ) :   1.6906 B(  5-C , 59-H ) :   0.9795 B(  6-C ,  7-C ) :   1.1354
B(  6-C , 60-H ) :   0.9830 B(  7-C ,  8-C ) :   1.6403 B(  7-C , 61-H ) :   0.9814
B(  8-C ,  9-C ) :   1.1088 B(  8-C , 62-H ) :   0.9694 B(  9-C , 10-C ) :   1.5349
B(  9-C , 15-C ) :   1.0139 B( 10-C , 11-C ) :   1.0705 B( 10-C , 63-H ) :   1.0216
B( 11-C , 12-O ) :   1.1843 B( 11-C , 14-C ) :   1.5768 B( 12-O , 13-C ) :   0.9489
B( 13-C , 64-H ) :   0.9810 B( 13-C , 65-H ) :   0.9717 B( 13-C , 66-H ) :   0.9710
B( 14-C , 15-C ) :   1.1549 B( 14-C , 23-C ) :   0.9189 B( 15-C , 16-C ) :   1.5386
B( 16-C , 17-C ) :   1.0891 B( 16-C , 22-C ) :   1.0528 B( 17-C , 18-C ) :   1.5356
B( 17-C , 67-H ) :   1.0093 B( 18-C , 19-O ) :   1.1901 B( 18-C , 21-C ) :   1.0720
B( 19-O , 20-C ) :   0.9552 B( 20-C , 68-H ) :   0.9806 B( 20-C , 69-H ) :   0.9668
B( 20-C , 70-H ) :   0.9702 B( 21-C , 22-C ) :   1.6834 B( 21-C , 71-H ) :   1.0144
B( 22-C , 72-H ) :   1.0033 B( 23-C , 24-S ) :   1.1414 B( 23-C , 25-C ) :   0.1344
B( 23-C , 27-C ) :   1.5504 B( 24-S , 25-C ) :   1.1754 B( 25-C , 26-C ) :   1.3960
B( 25-C , 34-C ) :   1.0383 B( 26-C , 27-C ) :   1.1816 B( 26-C , 33-C ) :   1.0754
B( 27-C , 28-O ) :   1.1218 B( 28-O , 29-C ) :   1.1295 B( 29-C , 30-N ) :   0.9233
B( 29-C , 33-C ) :   1.5539 B( 30-N , 31-O ) :   1.5246 B( 30-N , 32-O ) :   1.5102
B( 31-O , 32-O ) :   0.2765 B( 33-C , 73-H ) :   1.0260 B( 34-C , 35-C ) :   1.6001
B( 34-C , 40-C ) :   1.0556 B( 35-C , 36-C ) :   1.0880 B( 35-C , 74-H ) :   1.0294
B( 36-C , 37-O ) :   1.2326 B( 36-C , 39-C ) :   1.5147 B( 37-O , 38-C ) :   0.9348
B( 38-C , 75-H ) :   0.9770 B( 38-C , 76-H ) :   0.9650 B( 38-C , 77-H ) :   0.9677
B( 39-C , 40-C ) :   1.1311 B( 39-C , 48-C ) :   0.9294 B( 40-C , 41-C ) :   1.5282
B( 41-C , 42-C ) :   1.0936 B( 41-C , 47-C ) :   1.0472 B( 42-C , 43-C ) :   1.5353
B( 42-C , 78-H ) :   1.0097 B( 43-C , 44-O ) :   1.1990 B( 43-C , 46-C ) :   1.0690
B( 44-O , 45-C ) :   0.9496 B( 45-C , 79-H ) :   0.9800 B( 45-C , 80-H ) :   0.9698
B( 45-C , 81-H ) :   0.9661 B( 46-C , 47-C ) :   1.6753 B( 46-C , 82-H ) :   1.0161
B( 47-C , 83-H ) :   1.0061 B( 48-C , 49-S ) :   1.1701 B( 48-C , 50-C ) :   0.1098
B( 48-C , 55-C ) :   1.5753 B( 49-S , 50-C ) :   1.0867 B( 50-C , 51-C ) :   0.9366
B( 50-C , 54-C ) :   1.5616 B( 51-C , 52-O ) :   2.2049 B( 51-C , 53-O ) :   1.2324
B( 53-O , 84-H ) :   0.9508 B( 54-C , 55-C ) :   1.2202 B( 54-C , 85-H ) :   1.0032
B( 55-C , 86-H ) :   0.9960

-----------------------------------------------------------------------------
         ABSORPTION SPECTRUM VIA TRANSITION ELECTRIC DIPOLE MOMENTS
-----------------------------------------------------------------------------
State   Energy  Wavelength   fosc         T2         TX        TY        TZ
        (cm-1)    (nm)                  (au**2)     (au)      (au)      (au)
-----------------------------------------------------------------------------
   0   15183.9    658.6   0.138513500   3.00320  -1.27372  -0.56921  -1.02803
   1   16242.8    615.7   0.142925137   2.89683  -0.37918  -1.04684   1.28732
   2   18858.6    530.3   0.049411106   0.86256   0.66247  -0.02197   0.65055
   3   20551.8    486.6   0.030774174   0.49296   0.16946  -0.67689   0.07786
   4   20903.2    478.4   0.011078437   0.17448  -0.40258   0.08289   0.07442
   5   22549.7    443.5   0.087900055   1.28329   0.89391   0.44162  -0.53776
   6   22800.8    438.6   0.026924675   0.38875  -0.12912   0.59762   0.12220
   7   24884.0    401.9   0.049418712   0.65380  -0.62453  -0.29919   0.41742
   8   26494.8    377.4   0.026307019   0.32688  -0.48442   0.25283   0.16820
   9   26631.2    375.5   0.095469434   1.18018   0.96064   0.31598   0.39689
  10   27580.2    362.6   0.069200092   0.82601  -0.57414   0.43992  -0.55031
  11   27968.8    357.5   0.022750966   0.26779  -0.48564  -0.00081   0.17875
  12   28622.6    349.4   0.107325221   1.23443   0.83720  -0.15599  -0.71358
  13   29422.1    339.9   0.677673867   7.58268   0.88256   2.02801   1.64041
  14   29838.3    335.1   0.131735160   1.45346  -0.72076  -0.03397  -0.96582
  15   30412.1    328.8   0.083586747   0.90483  -0.06909  -0.37475   0.87156
  16   30780.3    324.9   0.249061669   2.66385  -0.50886   0.27123  -1.52687
  17   31264.7    319.8   0.036925385   0.38882  -0.02440   0.24477   0.57298
  18   31912.4    313.4   0.024962733   0.25752  -0.32419   0.38389   0.07103
  19   32201.9    310.5   0.037190803   0.38022  -0.30383  -0.00634   0.53653
  20   32342.6    309.2   0.017931126   0.18252  -0.19107   0.00298   0.38210
  21   33284.9    300.4   0.485274224   4.79971   0.18768  -2.17427   0.19250
  22   33759.8    296.2   0.463118223   4.51614   0.66420  -1.74815  -1.00944
  23   34181.3    292.6   0.172379409   1.66025   1.15414  -0.10864   0.56249
  24   35053.4    285.3   0.011158008   0.10479  -0.00534   0.29123  -0.14125
  25   35344.5    282.9   0.031162579   0.29026  -0.00499   0.53062   0.09313
  26   35531.9    281.4   0.159488968   1.47771  -0.83749   0.87181   0.12755
  27   35672.0    280.3   0.008580895   0.07919   0.27867   0.03422  -0.01909
  28   35705.7    280.1   0.029436079   0.27141  -0.50914  -0.05154  -0.09761
  29   35829.2    279.1   0.157923033   1.45106   0.77051   0.28295   0.88165
  30   36223.5    276.1   0.139632689   1.26903   0.51537  -1.00010  -0.05683
  31   36979.8    270.4   0.009051275   0.08058   0.04642  -0.23094  -0.15840
  32   37234.3    268.6   0.087104680   0.77015   0.16561  -0.20984  -0.83588
  33   37415.5    267.3   0.029258685   0.25744   0.34907  -0.11812   0.34877
  34   37450.3    267.0   0.094957193   0.83473   0.57575   0.05361  -0.70737
  35   37914.2    263.8   0.222177329   1.92918   0.53124  -0.29812  -1.24824
  36   38786.5    257.8   0.131827398   1.11892   0.19631  -1.03919   0.02157
  37   40071.7    249.6   0.042586398   0.34987  -0.44070  -0.32946  -0.21705
  38   40311.2    248.1   0.024002637   0.19602   0.32562  -0.02980   0.29851

FINAL SINGLE POINT ENERGY     -3256.993376882484

DIPOLE MOMENT
-------------
                                X             Y             Z
Electronic contribution:     17.27791      25.22260      17.61350
Nuclear contribution   :    -18.64973     -26.99212     -18.59437
                        -----------------------------------------
Total Dipole Moment    :     -1.37182      -1.76952      -0.98086
                        -----------------------------------------
Magnitude (a.u.)       :      2.44442
Magnitude (Debye)      :      6.21323

Rotational constants in cm-1:     0.001934     0.000669     0.000601
Rotational constants in MHz :    57.980282    20.050135    18.016650

                             ****ORCA TERMINATED NORMALLY****
TOTAL RUN TIME: 0 days 0 hours 7 minutes 5 seconds 222 msec
