                         Program Version 4.2.0 -  RELEASE  -
|  1> # ORCA input file
|  2> # SCF done       -140.831209977995          0.000468714953
|  3> ! CAM-B3LYP def2-SVP def2/J RIJCOSX Grid4 TightSCF
|  4> %maxcore 5000
|  5> %tddft
|  6>     Mode sTDDFT
|  7>     Ethresh 5.0
|  8>     maxcore 5000
|  9> end
| 10>
| 11> %pal
| 12>   nprocs 6
| 13>   end
| 14> * xyz 0 1
| 15>    C        4.98198        -0.66979         5.07675
| 16>    S        6.15590        -1.42640         6.09801
| 17>    C        6.48827        -2.60990         4.87467
| 18>    O        7.39829        -3.58632         5.05321
| 19>    C        5.72769        -2.42447         3.73846
| 20>    C        4.86638        -1.29378         3.88749
| 21>    C        5.84259        -3.27900         2.59492
| 22>    C        5.14677        -3.14389         1.44359
| 23>    C        5.29304        -3.98124         0.31236
| 24>    S        6.40556        -5.30979         0.28793
| 25>    C        6.01907        -5.73174        -1.35481
| 26>    C        5.03559        -4.86441        -1.86067
| 27>    C        4.62497        -3.87781        -0.91834
| 28>    C        3.64307        -2.94156        -1.29222
| 29>    C        3.08173        -2.97386        -2.54046
| 30>    C        2.03681        -1.97138        -2.92281
| 31>    C        3.48973        -3.96247        -3.47969
| 32>    C        2.86752        -3.99556        -4.84107
| 33>    C        4.44667        -4.88087        -3.13727
| 34>    C        6.66769        -6.78272        -2.02761
| 35>    C        7.58525        -7.61221        -1.46059
| 36>    C        8.29401        -8.62217        -2.15137
| 37>    O        9.16754        -9.40192        -1.46476
| 38>    C        9.78353       -10.25897        -2.31977
| 39>    C        9.28183       -10.02923        -3.59590
| 40>    C        8.33897        -9.00208        -3.48928
| 41>    F        7.61747        -8.47466        -4.48588
| 42>    F        9.63157       -10.67791        -4.71206
| 43>    C       10.74788       -11.16019        -1.80492
| 44>    C       11.57274       -11.92245        -2.56971
| 45>    C       12.55027       -12.81909        -2.07941
| 46>    S       13.93511       -13.15012        -3.07042
| 47>    C       14.72963       -14.07942        -1.83773
| 48>    C       13.88393       -14.22687        -0.72490
| 49>    C       12.65685       -13.50657        -0.85900
| 50>    C       11.68200       -13.62177         0.14919
| 51>    C       11.90404       -14.38853         1.26203
| 52>    C       10.85139       -14.50065         2.32098
| 53>    C       13.12279       -15.10758         1.39592
| 54>    C       13.34564       -15.97916         2.59321
| 55>    C       14.07455       -15.03217         0.41390
| 56>    C       16.06364       -14.48376        -2.08755
| 57>    C       16.98569       -14.85154        -1.16379
| 58>    C       18.32977       -15.20535        -1.46465
| 59>    S       19.40794       -15.60751        -0.13841
| 60>    C       20.72184       -15.86858        -1.23620
| 61>    O       21.94673       -16.23199        -0.80846
| 62>    C       20.36091       -15.66033        -2.55040
| 63>    C       18.99921       -15.28756        -2.65654
| 64>    C       21.30774       -15.81392        -3.63684
| 65>    C       21.05254       -15.59223        -4.92067
| 66>    H        4.45998         0.19152         5.44157
| 67>    H        7.80629        -3.52095         5.92371
| 68>    H        4.18584        -0.96777         3.12295
| 69>    H        6.56094        -4.08215         2.68922
| 70>    H        4.42898        -2.34266         1.34107
| 71>    H        3.32818        -2.19079        -0.58256
| 72>    H        1.10660        -2.46931        -3.19437
| 73>    H        2.36230        -1.38579        -3.78202
| 74>    H        1.83649        -1.29180        -2.09823
| 75>    H        1.79067        -4.14499        -4.76760
| 76>    H        3.28832        -4.80243        -5.43526
| 77>    H        3.03643        -3.05524        -5.36478
| 78>    H        4.75413        -5.62884        -3.85254
| 79>    H        6.41135        -6.91160        -3.06887
| 80>    H        7.83054        -7.51229        -0.41248
| 81>    H       10.83482       -11.15733        -0.72942
| 82>    H       11.54819       -11.79819        -3.64410
| 83>    H       10.73001       -13.13177         0.02062
| 84>    H       11.23251       -14.14887         3.27921
| 85>    H       10.54152       -15.53732         2.44824
| 86>    H        9.97836       -13.90884         2.05820
| 87>    H       13.28204       -15.39537         3.51073
| 88>    H       14.32461       -16.44972         2.54947
| 89>    H       12.58875       -16.76142         2.64525
| 90>    H       14.96373       -15.63649         0.49406
| 91>    H       16.37156       -14.41640        -3.12280
| 92>    H       16.73246       -14.84481        -0.11479
| 93>    H       21.96388       -16.31404         0.15153
| 94>    H       18.52601       -15.08377        -3.59836
| 95>    H       22.29290       -16.13211        -3.32367
| 96>    H       20.08701       -15.27128        -5.27131
| 97>    H       21.81133       -15.72476        -5.67192
| 98> *
| 99>
|100>                          ****END OF INPUT****

CARTESIAN COORDINATES (ANGSTROEM)
---------------------------------
  C      4.981980   -0.669790    5.076750
  S      6.155900   -1.426400    6.098010
  C      6.488270   -2.609900    4.874670
  O      7.398290   -3.586320    5.053210
  C      5.727690   -2.424470    3.738460
  C      4.866380   -1.293780    3.887490
  C      5.842590   -3.279000    2.594920
  C      5.146770   -3.143890    1.443590
  C      5.293040   -3.981240    0.312360
  S      6.405560   -5.309790    0.287930
  C      6.019070   -5.731740   -1.354810
  C      5.035590   -4.864410   -1.860670
  C      4.624970   -3.877810   -0.918340
  C      3.643070   -2.941560   -1.292220
  C      3.081730   -2.973860   -2.540460
  C      2.036810   -1.971380   -2.922810
  C      3.489730   -3.962470   -3.479690
  C      2.867520   -3.995560   -4.841070
  C      4.446670   -4.880870   -3.137270
  C      6.667690   -6.782720   -2.027610
  C      7.585250   -7.612210   -1.460590
  C      8.294010   -8.622170   -2.151370
  O      9.167540   -9.401920   -1.464760
  C      9.783530  -10.258970   -2.319770
  C      9.281830  -10.029230   -3.595900
  C      8.338970   -9.002080   -3.489280
  F      7.617470   -8.474660   -4.485880
  F      9.631570  -10.677910   -4.712060
  C     10.747880  -11.160190   -1.804920
  C     11.572740  -11.922450   -2.569710
  C     12.550270  -12.819090   -2.079410
  S     13.935110  -13.150120   -3.070420
  C     14.729630  -14.079420   -1.837730
  C     13.883930  -14.226870   -0.724900
  C     12.656850  -13.506570   -0.859000
  C     11.682000  -13.621770    0.149190
  C     11.904040  -14.388530    1.262030
  C     10.851390  -14.500650    2.320980
  C     13.122790  -15.107580    1.395920
  C     13.345640  -15.979160    2.593210
  C     14.074550  -15.032170    0.413900
  C     16.063640  -14.483760   -2.087550
  C     16.985690  -14.851540   -1.163790
  C     18.329770  -15.205350   -1.464650
  S     19.407940  -15.607510   -0.138410
  C     20.721840  -15.868580   -1.236200
  O     21.946730  -16.231990   -0.808460
  C     20.360910  -15.660330   -2.550400
  C     18.999210  -15.287560   -2.656540
  C     21.307740  -15.813920   -3.636840
  C     21.052540  -15.592230   -4.920670
  H      4.459980    0.191520    5.441570
  H      7.806290   -3.520950    5.923710
  H      4.185840   -0.967770    3.122950
  H      6.560940   -4.082150    2.689220
  H      4.428980   -2.342660    1.341070
  H      3.328180   -2.190790   -0.582560
  H      1.106600   -2.469310   -3.194370
  H      2.362300   -1.385790   -3.782020
  H      1.836490   -1.291800   -2.098230
  H      1.790670   -4.144990   -4.767600
  H      3.288320   -4.802430   -5.435260
  H      3.036430   -3.055240   -5.364780
  H      4.754130   -5.628840   -3.852540
  H      6.411350   -6.911600   -3.068870
  H      7.830540   -7.512290   -0.412480
  H     10.834820  -11.157330   -0.729420
  H     11.548190  -11.798190   -3.644100
  H     10.730010  -13.131770    0.020620
  H     11.232510  -14.148870    3.279210
  H     10.541520  -15.537320    2.448240
  H      9.978360  -13.908840    2.058200
  H     13.282040  -15.395370    3.510730
  H     14.324610  -16.449720    2.549470
  H     12.588750  -16.761420    2.645250
  H     14.963730  -15.636490    0.494060
  H     16.371560  -14.416400   -3.122800
  H     16.732460  -14.844810   -0.114790
  H     21.963880  -16.314040    0.151530
  H     18.526010  -15.083770   -3.598360
  H     22.292900  -16.132110   -3.323670
  H     20.087010  -15.271280   -5.271310
  H     21.811330  -15.724760   -5.671920

 Total Charge           Charge          ....    0
 Multiplicity           Mult            ....    1
 Number of Electrons    NEL             ....  390
 Basis Dimension        Dim             ....  890

ORBITAL ENERGIES
----------------

  NO   OCC          E(Eh)            E(eV)
   0   2.0000     -88.953358     -2420.5439
   1   2.0000     -88.949668     -2420.4435
   2   2.0000     -88.949232     -2420.4317
   3   2.0000     -88.945582     -2420.3323
   4   2.0000     -24.789361      -674.5528
   5   2.0000     -24.789139      -674.5468
   6   2.0000     -19.285675      -524.7899
   7   2.0000     -19.263507      -524.1867
   8   2.0000     -19.261804      -524.1403
   9   2.0000     -10.351302      -281.6733
  10   2.0000     -10.350484      -281.6510
  11   2.0000     -10.349189      -281.6158
  12   2.0000     -10.349178      -281.6155
  13   2.0000     -10.327982      -281.0387
  14   2.0000     -10.326518      -280.9988
  15   2.0000     -10.291097      -280.0350
  16   2.0000     -10.289590      -279.9940
  17   2.0000     -10.289299      -279.9861
  18   2.0000     -10.289242      -279.9845
  19   2.0000     -10.286288      -279.9041
  20   2.0000     -10.284690      -279.8607
  21   2.0000     -10.275082      -279.5992
  22   2.0000     -10.273232      -279.5489
  23   2.0000     -10.272641      -279.5328
  24   2.0000     -10.272616      -279.5321
  25   2.0000     -10.271995      -279.5152
  26   2.0000     -10.269813      -279.4558
  27   2.0000     -10.269607      -279.4502
  28   2.0000     -10.267303      -279.3875
  29   2.0000     -10.267032      -279.3801
  30   2.0000     -10.266879      -279.3760
  31   2.0000     -10.266819      -279.3743
  32   2.0000     -10.266556      -279.3672
  33   2.0000     -10.265892      -279.3491
  34   2.0000     -10.265572      -279.3404
  35   2.0000     -10.265231      -279.3311
  36   2.0000     -10.264871      -279.3214
  37   2.0000     -10.264698      -279.3166
  38   2.0000     -10.263378      -279.2807
  39   2.0000     -10.263277      -279.2780
  40   2.0000     -10.261048      -279.2173
  41   2.0000     -10.260087      -279.1912
  42   2.0000     -10.258685      -279.1530
  43   2.0000     -10.258591      -279.1505
  44   2.0000     -10.258313      -279.1429
  45   2.0000     -10.257959      -279.1333
  46   2.0000     -10.257835      -279.1299
  47   2.0000     -10.257042      -279.1083
  48   2.0000     -10.256889      -279.1041
  49   2.0000     -10.256277      -279.0875
  50   2.0000     -10.246676      -278.8262
  51   2.0000      -8.050402      -219.0626
  52   2.0000      -8.046144      -218.9467
  53   2.0000      -8.045174      -218.9203
  54   2.0000      -8.040521      -218.7937
  55   2.0000      -6.019805      -163.8072
  56   2.0000      -6.015685      -163.6951
  57   2.0000      -6.015418      -163.6878
  58   2.0000      -6.014065      -163.6510
  59   2.0000      -6.012083      -163.5971
  60   2.0000      -6.011653      -163.5854
  61   2.0000      -6.010117      -163.5436
  62   2.0000      -6.009428      -163.5249
  63   2.0000      -6.007981      -163.4855
  64   2.0000      -6.007730      -163.4786
  65   2.0000      -6.005616      -163.4211
  66   2.0000      -6.003263      -163.3571
  67   2.0000      -1.304817       -35.5059
  68   2.0000      -1.295644       -35.2563
  69   2.0000      -1.203392       -32.7460
  70   2.0000      -1.159284       -31.5457
  71   2.0000      -1.157076       -31.4856
  72   2.0000      -0.982056       -26.7231
  73   2.0000      -0.979899       -26.6644
  74   2.0000      -0.969587       -26.3838
  75   2.0000      -0.968834       -26.3633
  76   2.0000      -0.929466       -25.2920
  77   2.0000      -0.927860       -25.2483
  78   2.0000      -0.910522       -24.7766
  79   2.0000      -0.901356       -24.5271
  80   2.0000      -0.892376       -24.2828
  81   2.0000      -0.887474       -24.1494
  82   2.0000      -0.875070       -23.8119
  83   2.0000      -0.865360       -23.5476
  84   2.0000      -0.854513       -23.2525
  85   2.0000      -0.847873       -23.0718
  86   2.0000      -0.845943       -23.0193
  87   2.0000      -0.842443       -22.9240
  88   2.0000      -0.833439       -22.6790
  89   2.0000      -0.820024       -22.3140
  90   2.0000      -0.806317       -21.9410
  91   2.0000      -0.802402       -21.8345
  92   2.0000      -0.799651       -21.7596
  93   2.0000      -0.786077       -21.3902
  94   2.0000      -0.778162       -21.1749
  95   2.0000      -0.759178       -20.6583
  96   2.0000      -0.758777       -20.6474
  97   2.0000      -0.757224       -20.6051
  98   2.0000      -0.741791       -20.1852
  99   2.0000      -0.724488       -19.7143
 100   2.0000      -0.712513       -19.3885
 101   2.0000      -0.699214       -19.0266
 102   2.0000      -0.688546       -18.7363
 103   2.0000      -0.681315       -18.5395
 104   2.0000      -0.678723       -18.4690
 105   2.0000      -0.677352       -18.4317
 106   2.0000      -0.676514       -18.4089
 107   2.0000      -0.675656       -18.3855
 108   2.0000      -0.656800       -17.8724
 109   2.0000      -0.646057       -17.5801
 110   2.0000      -0.637210       -17.3394
 111   2.0000      -0.631615       -17.1871
 112   2.0000      -0.625349       -17.0166
 113   2.0000      -0.624492       -16.9933
 114   2.0000      -0.619282       -16.8515
 115   2.0000      -0.609230       -16.5780
 116   2.0000      -0.604499       -16.4493
 117   2.0000      -0.599180       -16.3045
 118   2.0000      -0.586387       -15.9564
 119   2.0000      -0.581775       -15.8309
 120   2.0000      -0.579786       -15.7768
 121   2.0000      -0.570127       -15.5139
 122   2.0000      -0.565373       -15.3846
 123   2.0000      -0.564326       -15.3561
 124   2.0000      -0.554450       -15.0874
 125   2.0000      -0.553904       -15.0725
 126   2.0000      -0.543449       -14.7880
 127   2.0000      -0.538243       -14.6463
 128   2.0000      -0.537414       -14.6238
 129   2.0000      -0.536088       -14.5877
 130   2.0000      -0.532260       -14.4835
 131   2.0000      -0.524941       -14.2844
 132   2.0000      -0.522682       -14.2229
 133   2.0000      -0.518432       -14.1073
 134   2.0000      -0.514337       -13.9958
 135   2.0000      -0.513754       -13.9800
 136   2.0000      -0.512765       -13.9530
 137   2.0000      -0.511329       -13.9140
 138   2.0000      -0.511003       -13.9051
 139   2.0000      -0.509506       -13.8644
 140   2.0000      -0.505933       -13.7671
 141   2.0000      -0.503228       -13.6935
 142   2.0000      -0.502113       -13.6632
 143   2.0000      -0.495073       -13.4716
 144   2.0000      -0.489055       -13.3079
 145   2.0000      -0.486514       -13.2387
 146   2.0000      -0.481788       -13.1101
 147   2.0000      -0.479328       -13.0432
 148   2.0000      -0.477997       -13.0070
 149   2.0000      -0.477493       -12.9933
 150   2.0000      -0.475815       -12.9476
 151   2.0000      -0.471558       -12.8317
 152   2.0000      -0.470048       -12.7906
 153   2.0000      -0.468030       -12.7357
 154   2.0000      -0.463461       -12.6114
 155   2.0000      -0.458625       -12.4798
 156   2.0000      -0.455768       -12.4021
 157   2.0000      -0.454931       -12.3793
 158   2.0000      -0.449574       -12.2335
 159   2.0000      -0.448153       -12.1949
 160   2.0000      -0.443413       -12.0659
 161   2.0000      -0.439249       -11.9526
 162   2.0000      -0.436987       -11.8910
 163   2.0000      -0.430517       -11.7150
 164   2.0000      -0.429526       -11.6880
 165   2.0000      -0.427546       -11.6341
 166   2.0000      -0.422949       -11.5090
 167   2.0000      -0.417279       -11.3547
 168   2.0000      -0.414382       -11.2759
 169   2.0000      -0.412519       -11.2252
 170   2.0000      -0.409513       -11.1434
 171   2.0000      -0.408350       -11.1118
 172   2.0000      -0.407841       -11.0979
 173   2.0000      -0.402781       -10.9602
 174   2.0000      -0.402088       -10.9414
 175   2.0000      -0.398818       -10.8524
 176   2.0000      -0.396316       -10.7843
 177   2.0000      -0.394586       -10.7372
 178   2.0000      -0.391961       -10.6658
 179   2.0000      -0.388519       -10.5721
 180   2.0000      -0.374412       -10.1883
 181   2.0000      -0.364588        -9.9209
 182   2.0000      -0.352161        -9.5828
 183   2.0000      -0.341529        -9.2935
 184   2.0000      -0.332009        -9.0344
 185   2.0000      -0.318866        -8.6768
 186   2.0000      -0.304266        -8.2795
 187   2.0000      -0.295173        -8.0321
 188   2.0000      -0.293279        -7.9805
 189   2.0000      -0.291670        -7.9368
 190   2.0000      -0.283407        -7.7119
 191   2.0000      -0.270302        -7.3553
 192   2.0000      -0.254604        -6.9281
 193   2.0000      -0.216771        -5.8986
 194   2.0000      -0.192356        -5.2343
 195   0.0000      -0.060560        -1.6479
 196   0.0000      -0.039409        -1.0724
 197   0.0000       0.005647         0.1537
 198   0.0000       0.018256         0.4968
 199   0.0000       0.030158         0.8206

MULLIKEN ATOMIC CHARGES
-----------------------
   0 C :   -0.083227
   1 S :    0.056069
   2 C :   -0.050725
   3 O :   -0.169652
   4 C :    0.053697
   5 C :    0.041639
   6 C :    0.004822
   7 C :   -0.011390
   8 C :   -0.081735
   9 S :    0.115918
  10 C :   -0.097729
  11 C :    0.131552
  12 C :    0.120418
  13 C :   -0.097200
  14 C :   -0.075684
  15 C :    0.119611
  16 C :   -0.075234
  17 C :    0.117569
  18 C :   -0.100592
  19 C :   -0.018454
  20 C :   -0.017793
  21 C :    0.118817
  22 O :   -0.205003
  23 C :    0.103298
  24 C :    0.151308
  25 C :    0.143698
  26 F :   -0.175532
  27 F :   -0.173763
  28 C :   -0.015706
  29 C :    0.026287
  30 C :   -0.138889
  31 S :    0.149318
  32 C :   -0.136730
  33 C :    0.121779
  34 C :    0.121960
  35 C :   -0.101189
  36 C :   -0.079799
  37 C :    0.120917
  38 C :   -0.078310
  39 C :    0.121553
  40 C :   -0.104955
  41 C :    0.040070
  42 C :    0.043719
  43 C :   -0.092002
  44 S :    0.059440
  45 C :   -0.034508
  46 O :   -0.168612
  47 C :    0.057791
  48 C :   -0.010320
  49 C :    0.007031
  50 C :   -0.025387
  51 H :    0.023918
  52 H :    0.193621
  53 H :   -0.012161
  54 H :   -0.007245
  55 H :   -0.028867
  56 H :   -0.050947
  57 H :    0.016909
  58 H :    0.017620
  59 H :    0.004136
  60 H :    0.018389
  61 H :    0.008540
  62 H :    0.017343
  63 H :   -0.045230
  64 H :   -0.004804
  65 H :   -0.007704
  66 H :   -0.001833
  67 H :   -0.004457
  68 H :   -0.043258
  69 H :    0.017742
  70 H :    0.018152
  71 H :    0.007621
  72 H :    0.016157
  73 H :    0.004972
  74 H :    0.020178
  75 H :   -0.044313
  76 H :   -0.023046
  77 H :   -0.020464
  78 H :    0.192324
  79 H :   -0.023736
  80 H :   -0.009730
  81 H :    0.004234
  82 H :    0.017778
Sum of atomic charges:   -0.0000000

LOEWDIN ATOMIC CHARGES
----------------------
   0 C :   -0.193552
   1 S :    0.378047
   2 C :   -0.100623
   3 O :   -0.046191
   4 C :   -0.115431
   5 C :   -0.042271
   6 C :   -0.015264
   7 C :   -0.056094
   8 C :   -0.165379
   9 S :    0.459828
  10 C :   -0.185051
  11 C :   -0.039480
  12 C :   -0.050344
  13 C :   -0.026110
  14 C :   -0.027296
  15 C :   -0.043594
  16 C :   -0.022468
  17 C :   -0.043621
  18 C :   -0.027498
  19 C :   -0.029526
  20 C :   -0.064026
  21 C :    0.004231
  22 O :    0.012635
  23 C :   -0.002202
  24 C :    0.016477
  25 C :    0.012730
  26 F :   -0.050288
  27 F :   -0.048207
  28 C :   -0.051449
  29 C :   -0.039085
  30 C :   -0.183634
  31 S :    0.468687
  32 C :   -0.176456
  33 C :   -0.046375
  34 C :   -0.042945
  35 C :   -0.026627
  36 C :   -0.024345
  37 C :   -0.043531
  38 C :   -0.024039
  39 C :   -0.043518
  40 C :   -0.028600
  41 C :   -0.047057
  42 C :   -0.050955
  43 C :   -0.175915
  44 S :    0.374886
  45 C :   -0.098758
  46 O :   -0.046159
  47 C :   -0.110802
  48 C :   -0.037116
  49 C :   -0.014954
  50 C :   -0.060941
  51 H :    0.022773
  52 H :    0.098392
  53 H :    0.029466
  54 H :    0.024026
  55 H :    0.026905
  56 H :    0.021058
  57 H :    0.032108
  58 H :    0.032315
  59 H :    0.027864
  60 H :    0.032773
  61 H :    0.029531
  62 H :    0.032547
  63 H :    0.023607
  64 H :    0.031599
  65 H :    0.029451
  66 H :    0.036750
  67 H :    0.028510
  68 H :    0.024327
  69 H :    0.032722
  70 H :    0.032642
  71 H :    0.029487
  72 H :    0.032334
  73 H :    0.028335
  74 H :    0.033204
  75 H :    0.022597
  76 H :    0.025865
  77 H :    0.024323
  78 H :    0.097585
  79 H :    0.027049
  80 H :    0.030509
  81 H :    0.016443
  82 H :    0.023160

  Mayer bond orders larger than 0.100000
B(  0-C ,  1-S ) :   1.1038 B(  0-C ,  5-C ) :   1.6386 B(  0-C , 51-H ) :   0.9687
B(  1-S ,  2-C ) :   1.1211 B(  2-C ,  3-O ) :   1.2115 B(  2-C ,  4-C ) :   1.4527
B(  3-O , 52-H ) :   0.9534 B(  4-C ,  5-C ) :   1.2048 B(  4-C ,  6-C ) :   1.1143
B(  5-C , 53-H ) :   0.9959 B(  6-C ,  7-C ) :   1.6454 B(  6-C , 54-H ) :   0.9793
B(  7-C ,  8-C ) :   1.1819 B(  7-C , 55-H ) :   0.9665 B(  8-C ,  9-S ) :   1.1376
B(  8-C , 10-C ) :   0.1038 B(  8-C , 12-C ) :   1.3239 B(  9-S , 10-C ) :   1.1093
B( 10-C , 11-C ) :   1.3134 B( 10-C , 19-C ) :   1.2173 B( 11-C , 12-C ) :   1.2071
B( 11-C , 18-C ) :   1.1915 B( 12-C , 13-C ) :   1.1834 B( 13-C , 14-C ) :   1.5623
B( 13-C , 56-H ) :   0.9892 B( 14-C , 15-C ) :   1.0900 B( 14-C , 16-C ) :   1.2185
B( 15-C , 57-H ) :   0.9418 B( 15-C , 58-H ) :   0.9423 B( 15-C , 59-H ) :   0.9515
B( 16-C , 17-C ) :   1.0910 B( 16-C , 18-C ) :   1.5548 B( 17-C , 60-H ) :   0.9418
B( 17-C , 61-H ) :   0.9518 B( 17-C , 62-H ) :   0.9416 B( 18-C , 63-H ) :   0.9909
B( 19-C , 20-C ) :   1.5930 B( 19-C , 64-H ) :   0.9643 B( 20-C , 21-C ) :   1.1652
B( 20-C , 65-H ) :   0.9608 B( 21-C , 22-O ) :   1.1174 B( 21-C , 23-C ) :   0.1211
B( 21-C , 25-C ) :   1.3562 B( 22-O , 23-C ) :   1.1110 B( 23-C , 24-C ) :   1.3615
B( 23-C , 28-C ) :   1.1645 B( 24-C , 25-C ) :   1.2369 B( 24-C , 27-F ) :   1.1347
B( 25-C , 26-F ) :   1.1264 B( 28-C , 29-C ) :   1.6377 B( 28-C , 66-H ) :   0.9568
B( 29-C , 30-C ) :   1.1531 B( 29-C , 67-H ) :   0.9515 B( 30-C , 31-S ) :   1.1419
B( 30-C , 32-C ) :   0.1079 B( 30-C , 34-C ) :   1.3215 B( 31-S , 32-C ) :   1.1536
B( 32-C , 33-C ) :   1.3166 B( 32-C , 41-C ) :   1.1569 B( 33-C , 34-C ) :   1.2234
B( 33-C , 40-C ) :   1.1904 B( 34-C , 35-C ) :   1.1934 B( 35-C , 36-C ) :   1.5447
B( 35-C , 68-H ) :   0.9901 B( 36-C , 37-C ) :   1.0905 B( 36-C , 38-C ) :   1.2285
B( 37-C , 69-H ) :   0.9416 B( 37-C , 70-H ) :   0.9412 B( 37-C , 71-H ) :   0.9516
B( 38-C , 39-C ) :   1.0907 B( 38-C , 40-C ) :   1.5458 B( 39-C , 72-H ) :   0.9407
B( 39-C , 73-H ) :   0.9518 B( 39-C , 74-H ) :   0.9422 B( 40-C , 75-H ) :   0.9882
B( 41-C , 42-C ) :   1.6903 B( 41-C , 76-H ) :   0.9463 B( 42-C , 43-C ) :   1.1234
B( 42-C , 77-H ) :   0.9545 B( 43-C , 44-S ) :   1.0669 B( 43-C , 48-C ) :   1.5557
B( 44-S , 45-C ) :   1.1073 B( 45-C , 46-O ) :   1.2119 B( 45-C , 47-C ) :   1.4677
B( 46-O , 78-H ) :   0.9541 B( 47-C , 48-C ) :   1.2225 B( 47-C , 49-C ) :   1.0890
B( 48-C , 79-H ) :   0.9917 B( 49-C , 50-C ) :   1.9443 B( 49-C , 80-H ) :   0.9671
B( 50-C , 81-H ) :   0.9494 B( 50-C , 82-H ) :   0.9511

-----------------------------------------------------------------------------
         ABSORPTION SPECTRUM VIA TRANSITION ELECTRIC DIPOLE MOMENTS
-----------------------------------------------------------------------------
State   Energy  Wavelength   fosc         T2         TX        TY        TZ
        (cm-1)    (nm)                  (au**2)     (au)      (au)      (au)
-----------------------------------------------------------------------------
   0   15013.8    666.1   1.889599762  41.43384  -4.39567   4.50437   1.35003
   1   20226.2    494.4   0.471233118   7.67002   2.12086   0.25722   1.76233
   2   21484.0    465.5   0.076083649   1.16588  -0.88072  -0.03260  -0.62381
   3   26424.9    378.4   0.182579091   2.27464  -0.23037  -0.36095   1.44613
   4   27575.7    362.6   0.035987317   0.42963  -0.00532   0.43878  -0.48690
   5   29572.3    338.2   0.100848633   1.12269  -0.95066   0.46656   0.03546
   6   30218.5    330.9   0.135414179   1.47525   0.15090   0.75068  -0.94285
   7   30945.1    323.2   0.211233692   2.24722   1.44308  -0.40268  -0.05096
   8   32594.8    306.8   0.023128399   0.23360  -0.25643   0.03843  -0.40788
   9   33027.8    302.8   0.300865786   2.99894   1.27852  -0.57770   1.01518
  10   34001.2    294.1   0.120387093   1.16563   0.29712  -0.82968  -0.62369
  11   34940.3    286.2   0.015670139   0.14765   0.37387  -0.02205  -0.08590
  12   35079.2    285.1   0.222069021   2.08408  -0.25991  -0.31533   1.38459
  13   35462.0    282.0   0.256531628   2.38152  -0.68910   0.30129  -1.34755
  14   35846.8    279.0   0.274509867   2.52106  -1.49640   0.16975  -0.50300
  15   36660.7    272.8   0.117784284   1.05770   0.27896  -0.32998   0.93327
  16   36890.1    271.1   0.008033597   0.07169   0.07330   0.15373  -0.20660
  17   37754.9    264.9   0.030533224   0.26624  -0.02030  -0.13954  -0.49634
  18   38322.1    260.9   0.050372753   0.43273  -0.11802  -0.06543   0.64384
  19   38854.9    257.4   0.001579413   0.01338   0.10243   0.00052  -0.05376
  20   39090.2    255.8   0.012816400   0.10794   0.20223   0.09737   0.23991
  21   39331.0    254.3   0.055971345   0.46850  -0.45666   0.12392   0.49458
  22   39558.4    252.8   0.073946214   0.61539   0.04666   0.40111   0.67255

FINAL SINGLE POINT ENERGY     -3634.717300480732

DIPOLE MOMENT
-------------
                                X             Y             Z
Electronic contribution:     10.30291       3.34131      -3.84278
Nuclear contribution   :    -10.63529      -2.69175       5.99260
                        -----------------------------------------
Total Dipole Moment    :     -0.33237       0.64956       2.14982
                        -----------------------------------------
Magnitude (a.u.)       :      2.27027
Magnitude (Debye)      :      5.77057

Rotational constants in cm-1:     0.002171     0.000375     0.000342
Rotational constants in MHz :    65.079081    11.254084    10.247361

                             ****ORCA TERMINATED NORMALLY****
TOTAL RUN TIME: 0 days 0 hours 5 minutes 5 seconds 251 msec
