                         Program Version 4.2.0 -  RELEASE  -
|  1> # ORCA input file
|  2> # SCF done       -183.940043512415          0.000509065436
|  3> ! CAM-B3LYP def2-SVP def2/J RIJCOSX Grid4 TightSCF
|  4> %maxcore 5000
|  5> %tddft
|  6>     Mode sTDDFT
|  7>     Ethresh 5.0
|  8>     maxcore 5000
|  9> end
| 10>
| 11> %pal
| 12>   nprocs 6
| 13>   end
| 14> * xyz 0 1
| 15>    C      -11.74937        -9.11715         5.36133
| 16>    S      -12.72212        -8.51770         4.03387
| 17>    C      -11.29279        -8.53904         3.08243
| 18>    C      -10.21464        -8.99218         3.84269
| 19>    N      -10.50041        -9.30754         5.11282
| 20>    C       -8.95936        -9.01954         3.03186
| 21>    C       -9.46245        -8.52375         1.70801
| 22>    C      -10.83518        -8.25143         1.77479
| 23>    S      -11.46533        -7.68433         0.28981
| 24>    C       -9.87418        -7.80929        -0.44766
| 25>    C       -8.92391        -8.27397         0.45630
| 26>    C       -9.71904        -7.45607        -1.80414
| 27>    C       -8.54356        -7.51579        -2.49040
| 28>    C       -8.39781        -7.17343        -3.84481
| 29>    S       -9.71293        -6.61135        -4.86332
| 30>    C       -8.63675        -6.45236        -6.34016
| 31>    O       -9.06409        -6.08063        -7.40062
| 32>    C       -7.32099        -6.84640        -5.92726
| 33>    C       -7.21567        -7.23361        -4.57168
| 34>    C       -5.89883        -7.63845        -4.16221
| 35>    O       -5.48105        -8.01481        -3.10029
| 36>    S       -4.82381        -7.49123        -5.63651
| 37>    C       -6.13606        -6.92144        -6.65427
| 38>    C       -5.99170        -6.59897        -8.00758
| 39>    C       -4.83773        -6.71733        -8.73202
| 40>    C       -4.76413        -6.39657       -10.09229
| 41>    S       -6.14284        -5.76652       -10.97861
| 42>    C       -5.21818        -5.65435       -12.52956
| 43>    O       -5.74221        -5.19965       -13.52196
| 44>    C       -3.89159        -6.14025       -12.28886
| 45>    C       -3.66913        -6.51290       -10.94077
| 46>    C       -2.33282        -6.94909       -10.63016
| 47>    O       -1.84307        -7.32616        -9.60214
| 48>    S       -1.38439        -6.82533       -12.18153
| 49>    C       -2.76773        -6.26745       -13.11970
| 50>    C       -2.55921        -6.04621       -14.48360
| 51>    C       -3.52527        -5.76349       -15.42216
| 52>    C       -3.22875        -5.59430       -16.78639
| 53>    C       -4.16949        -5.28759       -17.77005
| 54>    O       -3.86658        -5.37651       -19.10860
| 55>    C       -2.58169        -5.68883       -19.43062
| 56>    C       -1.59436        -5.89451       -18.42596
| 57>    C       -0.36983        -6.16724       -18.94098
| 58>    S       -0.40854        -6.17840       -20.66523
| 59>    C       -2.09064        -5.81144       -20.68981
| 60>    O       -1.89950        -5.83139       -17.10461
| 61>    C       -5.52612        -4.89706       -17.60213
| 62>    C       -6.10833        -4.33198       -16.51254
| 63>    C       -7.49384        -4.01139       -16.35685
| 64>    C       -7.91220        -3.64924       -15.08577
| 65>    C       -9.26549        -3.40745       -14.81273
| 66>    C       -9.93609        -3.09075       -13.63238
| 67>    C       -9.44352        -2.95010       -12.23585
| 68>    C       -9.54733        -4.31029       -11.49643
| 69>    N       -9.66260        -4.06459       -10.07981
| 70>    C       -8.02646        -2.37254       -12.11146
| 71>    N       -7.80370        -1.88714       -10.75720
| 72>    C      -11.33756        -2.98432       -13.97551
| 73>    C      -12.41426        -2.72555       -13.20876
| 74>    C      -13.78822        -2.70908       -13.77792
| 75>    C      -13.85012        -2.90318       -15.25995
| 76>    C      -12.76549        -3.16257       -16.01206
| 77>    C      -11.48183        -3.22699       -15.41516
| 78>    C      -10.22249        -3.48984       -15.91220
| 79>    C       -9.76607        -3.81941       -17.21091
| 80>    C       -8.45230        -4.08289       -17.42147
| 81>    C      -14.58767        -3.81111       -13.10762
| 82>    C      -15.67229        -3.60895       -12.38648
| 83>    H      -12.20014        -9.30441         6.31460
| 84>    H       -8.54053       -10.02517         2.96490
| 85>    H       -8.19010        -8.36921         3.45199
| 86>    H       -7.89209        -8.41800         0.19410
| 87>    H      -10.60533        -7.11802        -2.32645
| 88>    H       -7.63638        -7.84567        -2.00358
| 89>    H       -6.88838        -6.23939        -8.49916
| 90>    H       -3.93242        -7.08433        -8.26520
| 91>    H       -1.53276        -6.13008       -14.81431
| 92>    H       -4.55659        -5.72267       -15.12324
| 93>    H        0.54065        -6.35999       -18.41381
| 94>    H       -2.61496        -5.70694       -21.61636
| 95>    H       -6.10205        -5.02232       -18.51002
| 96>    H       -5.50133        -4.10026       -15.65201
| 97>    H       -7.18433        -3.61727       -14.29506
| 98>    H      -10.12077        -2.27247       -11.70394
| 99>    H       -8.67657        -4.92085       -11.78683
|100>    H      -10.44941        -4.83755       -11.82745
|101>    H       -8.85614        -3.53314        -9.76463
|102>    H       -9.71665        -4.92501        -9.54713
|103>    H       -7.89204        -1.58899       -12.87768
|104>    H       -7.28802        -3.15730       -12.28763
|105>    H       -8.41804        -1.10536       -10.55299
|106>    H       -6.84658        -1.57088       -10.64740
|107>    H      -12.33245        -2.56487       -12.14250
|108>    H      -14.26609        -1.75472       -13.51666
|109>    H      -14.83623        -2.85531       -15.69685
|110>    H      -12.85640        -3.31546       -17.07779
|111>    H      -10.47685        -3.86728       -18.02319
|112>    H       -8.11006        -4.33935       -18.41182
|113>    H      -14.20137        -4.80628       -13.27666
|114>    H      -16.06943        -2.62241       -12.21007
|115>    H      -16.21215        -4.42641       -11.93991
|116> *
|117>
|118>                          ****END OF INPUT****

CARTESIAN COORDINATES (ANGSTROEM)
---------------------------------
  C    -11.749370   -9.117150    5.361330
  S    -12.722120   -8.517700    4.033870
  C    -11.292790   -8.539040    3.082430
  C    -10.214640   -8.992180    3.842690
  N    -10.500410   -9.307540    5.112820
  C     -8.959360   -9.019540    3.031860
  C     -9.462450   -8.523750    1.708010
  C    -10.835180   -8.251430    1.774790
  S    -11.465330   -7.684330    0.289810
  C     -9.874180   -7.809290   -0.447660
  C     -8.923910   -8.273970    0.456300
  C     -9.719040   -7.456070   -1.804140
  C     -8.543560   -7.515790   -2.490400
  C     -8.397810   -7.173430   -3.844810
  S     -9.712930   -6.611350   -4.863320
  C     -8.636750   -6.452360   -6.340160
  O     -9.064090   -6.080630   -7.400620
  C     -7.320990   -6.846400   -5.927260
  C     -7.215670   -7.233610   -4.571680
  C     -5.898830   -7.638450   -4.162210
  O     -5.481050   -8.014810   -3.100290
  S     -4.823810   -7.491230   -5.636510
  C     -6.136060   -6.921440   -6.654270
  C     -5.991700   -6.598970   -8.007580
  C     -4.837730   -6.717330   -8.732020
  C     -4.764130   -6.396570  -10.092290
  S     -6.142840   -5.766520  -10.978610
  C     -5.218180   -5.654350  -12.529560
  O     -5.742210   -5.199650  -13.521960
  C     -3.891590   -6.140250  -12.288860
  C     -3.669130   -6.512900  -10.940770
  C     -2.332820   -6.949090  -10.630160
  O     -1.843070   -7.326160   -9.602140
  S     -1.384390   -6.825330  -12.181530
  C     -2.767730   -6.267450  -13.119700
  C     -2.559210   -6.046210  -14.483600
  C     -3.525270   -5.763490  -15.422160
  C     -3.228750   -5.594300  -16.786390
  C     -4.169490   -5.287590  -17.770050
  O     -3.866580   -5.376510  -19.108600
  C     -2.581690   -5.688830  -19.430620
  C     -1.594360   -5.894510  -18.425960
  C     -0.369830   -6.167240  -18.940980
  S     -0.408540   -6.178400  -20.665230
  C     -2.090640   -5.811440  -20.689810
  O     -1.899500   -5.831390  -17.104610
  C     -5.526120   -4.897060  -17.602130
  C     -6.108330   -4.331980  -16.512540
  C     -7.493840   -4.011390  -16.356850
  C     -7.912200   -3.649240  -15.085770
  C     -9.265490   -3.407450  -14.812730
  C     -9.936090   -3.090750  -13.632380
  C     -9.443520   -2.950100  -12.235850
  C     -9.547330   -4.310290  -11.496430
  N     -9.662600   -4.064590  -10.079810
  C     -8.026460   -2.372540  -12.111460
  N     -7.803700   -1.887140  -10.757200
  C    -11.337560   -2.984320  -13.975510
  C    -12.414260   -2.725550  -13.208760
  C    -13.788220   -2.709080  -13.777920
  C    -13.850120   -2.903180  -15.259950
  C    -12.765490   -3.162570  -16.012060
  C    -11.481830   -3.226990  -15.415160
  C    -10.222490   -3.489840  -15.912200
  C     -9.766070   -3.819410  -17.210910
  C     -8.452300   -4.082890  -17.421470
  C    -14.587670   -3.811110  -13.107620
  C    -15.672290   -3.608950  -12.386480
  H    -12.200140   -9.304410    6.314600
  H     -8.540530  -10.025170    2.964900
  H     -8.190100   -8.369210    3.451990
  H     -7.892090   -8.418000    0.194100
  H    -10.605330   -7.118020   -2.326450
  H     -7.636380   -7.845670   -2.003580
  H     -6.888380   -6.239390   -8.499160
  H     -3.932420   -7.084330   -8.265200
  H     -1.532760   -6.130080  -14.814310
  H     -4.556590   -5.722670  -15.123240
  H      0.540650   -6.359990  -18.413810
  H     -2.614960   -5.706940  -21.616360
  H     -6.102050   -5.022320  -18.510020
  H     -5.501330   -4.100260  -15.652010
  H     -7.184330   -3.617270  -14.295060
  H    -10.120770   -2.272470  -11.703940
  H     -8.676570   -4.920850  -11.786830
  H    -10.449410   -4.837550  -11.827450
  H     -8.856140   -3.533140   -9.764630
  H     -9.716650   -4.925010   -9.547130
  H     -7.892040   -1.588990  -12.877680
  H     -7.288020   -3.157300  -12.287630
  H     -8.418040   -1.105360  -10.552990
  H     -6.846580   -1.570880  -10.647400
  H    -12.332450   -2.564870  -12.142500
  H    -14.266090   -1.754720  -13.516660
  H    -14.836230   -2.855310  -15.696850
  H    -12.856400   -3.315460  -17.077790
  H    -10.476850   -3.867280  -18.023190
  H     -8.110060   -4.339350  -18.411820
  H    -14.201370   -4.806280  -13.276660
  H    -16.069430   -2.622410  -12.210070
  H    -16.212150   -4.426410  -11.939910

 Total Charge           Charge          ....    0
 Multiplicity           Mult            ....    1
 Number of Electrons    NEL             ....  526
 Basis Dimension        Dim             .... 1145

ORBITAL ENERGIES
----------------

  NO   OCC          E(Eh)            E(eV)
   0   2.0000     -88.975496     -2421.1463
   1   2.0000     -88.973790     -2421.0999
   2   2.0000     -88.960192     -2420.7299
   3   2.0000     -88.942931     -2420.2602
   4   2.0000     -88.942302     -2420.2431
   5   2.0000     -88.941220     -2420.2136
   6   2.0000     -88.939136     -2420.1569
   7   2.0000     -19.287834      -524.8486
   8   2.0000     -19.273098      -524.4476
   9   2.0000     -19.218244      -522.9550
  10   2.0000     -19.217007      -522.9213
  11   2.0000     -19.210682      -522.7492
  12   2.0000     -19.210392      -522.7413
  13   2.0000     -14.418492      -392.3471
  14   2.0000     -14.377800      -391.2398
  15   2.0000     -14.336463      -390.1150
  16   2.0000     -10.383673      -282.5541
  17   2.0000     -10.381647      -282.4990
  18   2.0000     -10.377671      -282.3908
  19   2.0000     -10.377521      -282.3867
  20   2.0000     -10.370074      -282.1841
  21   2.0000     -10.346576      -281.5446
  22   2.0000     -10.343743      -281.4676
  23   2.0000     -10.342803      -281.4420
  24   2.0000     -10.335361      -281.2395
  25   2.0000     -10.334451      -281.2147
  26   2.0000     -10.329964      -281.0926
  27   2.0000     -10.326280      -280.9924
  28   2.0000     -10.319984      -280.8211
  29   2.0000     -10.319097      -280.7969
  30   2.0000     -10.312423      -280.6153
  31   2.0000     -10.312249      -280.6106
  32   2.0000     -10.311373      -280.5867
  33   2.0000     -10.305938      -280.4388
  34   2.0000     -10.298686      -280.2415
  35   2.0000     -10.295917      -280.1662
  36   2.0000     -10.295288      -280.1490
  37   2.0000     -10.294883      -280.1380
  38   2.0000     -10.294733      -280.1339
  39   2.0000     -10.294132      -280.1176
  40   2.0000     -10.291049      -280.0337
  41   2.0000     -10.289893      -280.0022
  42   2.0000     -10.289884      -280.0020
  43   2.0000     -10.288887      -279.9748
  44   2.0000     -10.287512      -279.9374
  45   2.0000     -10.286272      -279.9037
  46   2.0000     -10.285095      -279.8717
  47   2.0000     -10.284698      -279.8609
  48   2.0000     -10.281956      -279.7863
  49   2.0000     -10.280808      -279.7550
  50   2.0000     -10.280369      -279.7431
  51   2.0000     -10.278524      -279.6929
  52   2.0000     -10.276351      -279.6337
  53   2.0000     -10.274753      -279.5903
  54   2.0000     -10.271542      -279.5029
  55   2.0000     -10.266907      -279.3767
  56   2.0000     -10.266293      -279.3600
  57   2.0000     -10.266148      -279.3561
  58   2.0000     -10.264119      -279.3009
  59   2.0000     -10.263845      -279.2934
  60   2.0000     -10.262349      -279.2527
  61   2.0000     -10.261953      -279.2420
  62   2.0000     -10.261586      -279.2319
  63   2.0000     -10.258959      -279.1605
  64   2.0000     -10.258539      -279.1491
  65   2.0000     -10.255839      -279.0756
  66   2.0000     -10.255377      -279.0630
  67   2.0000     -10.253636      -279.0156
  68   2.0000      -8.071078      -219.6252
  69   2.0000      -8.068858      -219.5648
  70   2.0000      -8.055957      -219.2137
  71   2.0000      -8.039640      -218.7697
  72   2.0000      -8.039187      -218.7574
  73   2.0000      -8.038925      -218.7503
  74   2.0000      -8.036363      -218.6805
  75   2.0000      -6.040274      -164.3642
  76   2.0000      -6.038151      -164.3064
  77   2.0000      -6.036107      -164.2508
  78   2.0000      -6.034074      -164.1955
  79   2.0000      -6.033392      -164.1769
  80   2.0000      -6.031027      -164.1126
  81   2.0000      -6.025458      -163.9611
  82   2.0000      -6.021267      -163.8470
  83   2.0000      -6.017671      -163.7491
  84   2.0000      -6.008985      -163.5128
  85   2.0000      -6.008453      -163.4983
  86   2.0000      -6.008236      -163.4924
  87   2.0000      -6.005666      -163.4225
  88   2.0000      -6.005111      -163.4074
  89   2.0000      -6.004662      -163.3952
  90   2.0000      -6.004358      -163.3869
  91   2.0000      -6.001780      -163.3167
  92   2.0000      -6.000818      -163.2906
  93   2.0000      -6.000624      -163.2853
  94   2.0000      -6.000098      -163.2710
  95   2.0000      -5.997634      -163.2039
  96   2.0000      -1.208876       -32.8952
  97   2.0000      -1.169255       -31.8170
  98   2.0000      -1.138219       -30.9725
  99   2.0000      -1.138010       -30.9668
 100   2.0000      -1.131683       -30.7947
 101   2.0000      -1.131609       -30.7927
 102   2.0000      -1.073891       -29.2221
 103   2.0000      -1.006379       -27.3850
 104   2.0000      -0.993168       -27.0255
 105   2.0000      -0.990703       -26.9584
 106   2.0000      -0.989415       -26.9233
 107   2.0000      -0.977096       -26.5881
 108   2.0000      -0.959987       -26.1226
 109   2.0000      -0.951947       -25.9038
 110   2.0000      -0.943370       -25.6704
 111   2.0000      -0.940788       -25.6001
 112   2.0000      -0.933007       -25.3884
 113   2.0000      -0.925369       -25.1806
 114   2.0000      -0.921474       -25.0746
 115   2.0000      -0.907623       -24.6977
 116   2.0000      -0.902284       -24.5524
 117   2.0000      -0.893012       -24.3001
 118   2.0000      -0.885973       -24.1086
 119   2.0000      -0.878225       -23.8977
 120   2.0000      -0.868221       -23.6255
 121   2.0000      -0.856802       -23.3148
 122   2.0000      -0.848150       -23.0793
 123   2.0000      -0.844475       -22.9793
 124   2.0000      -0.835586       -22.7375
 125   2.0000      -0.831340       -22.6219
 126   2.0000      -0.828802       -22.5528
 127   2.0000      -0.823084       -22.3972
 128   2.0000      -0.820791       -22.3349
 129   2.0000      -0.819224       -22.2922
 130   2.0000      -0.814028       -22.1508
 131   2.0000      -0.809156       -22.0182
 132   2.0000      -0.794016       -21.6063
 133   2.0000      -0.785551       -21.3759
 134   2.0000      -0.782155       -21.2835
 135   2.0000      -0.769044       -20.9268
 136   2.0000      -0.754340       -20.5266
 137   2.0000      -0.749147       -20.3853
 138   2.0000      -0.737408       -20.0659
 139   2.0000      -0.721338       -19.6286
 140   2.0000      -0.710698       -19.3391
 141   2.0000      -0.708237       -19.2721
 142   2.0000      -0.694717       -18.9042
 143   2.0000      -0.691033       -18.8040
 144   2.0000      -0.687973       -18.7207
 145   2.0000      -0.684157       -18.6169
 146   2.0000      -0.677935       -18.4476
 147   2.0000      -0.669644       -18.2219
 148   2.0000      -0.668044       -18.1784
 149   2.0000      -0.666443       -18.1348
 150   2.0000      -0.657028       -17.8786
 151   2.0000      -0.653984       -17.7958
 152   2.0000      -0.653002       -17.7691
 153   2.0000      -0.647022       -17.6064
 154   2.0000      -0.641490       -17.4558
 155   2.0000      -0.636903       -17.3310
 156   2.0000      -0.628616       -17.1055
 157   2.0000      -0.621046       -16.8995
 158   2.0000      -0.616518       -16.7763
 159   2.0000      -0.612131       -16.6569
 160   2.0000      -0.605537       -16.4775
 161   2.0000      -0.595383       -16.2012
 162   2.0000      -0.593106       -16.1392
 163   2.0000      -0.587762       -15.9938
 164   2.0000      -0.586259       -15.9529
 165   2.0000      -0.577699       -15.7200
 166   2.0000      -0.574000       -15.6193
 167   2.0000      -0.572742       -15.5851
 168   2.0000      -0.568906       -15.4807
 169   2.0000      -0.563897       -15.3444
 170   2.0000      -0.557127       -15.1602
 171   2.0000      -0.557040       -15.1578
 172   2.0000      -0.555300       -15.1105
 173   2.0000      -0.552181       -15.0256
 174   2.0000      -0.548856       -14.9351
 175   2.0000      -0.541513       -14.7353
 176   2.0000      -0.539827       -14.6894
 177   2.0000      -0.535058       -14.5597
 178   2.0000      -0.534246       -14.5376
 179   2.0000      -0.533441       -14.5157
 180   2.0000      -0.532849       -14.4996
 181   2.0000      -0.530647       -14.4396
 182   2.0000      -0.528566       -14.3830
 183   2.0000      -0.526040       -14.3143
 184   2.0000      -0.524714       -14.2782
 185   2.0000      -0.523080       -14.2337
 186   2.0000      -0.521781       -14.1984
 187   2.0000      -0.519617       -14.1395
 188   2.0000      -0.514985       -14.0135
 189   2.0000      -0.509902       -13.8751
 190   2.0000      -0.508233       -13.8297
 191   2.0000      -0.507086       -13.7985
 192   2.0000      -0.504499       -13.7281
 193   2.0000      -0.501093       -13.6354
 194   2.0000      -0.500156       -13.6099
 195   2.0000      -0.497544       -13.5389
 196   2.0000      -0.492374       -13.3982
 197   2.0000      -0.490906       -13.3582
 198   2.0000      -0.489831       -13.3290
 199   2.0000      -0.489752       -13.3268
 200   2.0000      -0.488752       -13.2996
 201   2.0000      -0.485807       -13.2195
 202   2.0000      -0.482082       -13.1181
 203   2.0000      -0.481456       -13.1011
 204   2.0000      -0.480990       -13.0884
 205   2.0000      -0.479186       -13.0393
 206   2.0000      -0.472640       -12.8612
 207   2.0000      -0.471791       -12.8381
 208   2.0000      -0.468560       -12.7502
 209   2.0000      -0.466984       -12.7073
 210   2.0000      -0.463617       -12.6157
 211   2.0000      -0.458164       -12.4673
 212   2.0000      -0.455736       -12.4012
 213   2.0000      -0.454458       -12.3664
 214   2.0000      -0.453018       -12.3272
 215   2.0000      -0.448713       -12.2101
 216   2.0000      -0.443153       -12.0588
 217   2.0000      -0.440387       -11.9835
 218   2.0000      -0.439962       -11.9720
 219   2.0000      -0.436716       -11.8836
 220   2.0000      -0.435690       -11.8557
 221   2.0000      -0.434755       -11.8303
 222   2.0000      -0.434145       -11.8137
 223   2.0000      -0.431922       -11.7532
 224   2.0000      -0.430332       -11.7099
 225   2.0000      -0.429738       -11.6938
 226   2.0000      -0.425128       -11.5683
 227   2.0000      -0.423556       -11.5256
 228   2.0000      -0.419210       -11.4073
 229   2.0000      -0.418823       -11.3968
 230   2.0000      -0.415767       -11.3136
 231   2.0000      -0.410510       -11.1705
 232   2.0000      -0.401293       -10.9197
 233   2.0000      -0.398983       -10.8569
 234   2.0000      -0.397075       -10.8050
 235   2.0000      -0.389828       -10.6078
 236   2.0000      -0.384473       -10.4620
 237   2.0000      -0.379628       -10.3302
 238   2.0000      -0.363650        -9.8954
 239   2.0000      -0.361630        -9.8405
 240   2.0000      -0.359519        -9.7830
 241   2.0000      -0.354826        -9.6553
 242   2.0000      -0.342330        -9.3153
 243   2.0000      -0.340342        -9.2612
 244   2.0000      -0.336404        -9.1540
 245   2.0000      -0.334590        -9.1047
 246   2.0000      -0.334252        -9.0955
 247   2.0000      -0.332181        -9.0391
 248   2.0000      -0.329910        -8.9773
 249   2.0000      -0.328462        -8.9379
 250   2.0000      -0.325069        -8.8456
 251   2.0000      -0.320425        -8.7192
 252   2.0000      -0.319172        -8.6851
 253   2.0000      -0.315448        -8.5838
 254   2.0000      -0.307155        -8.3581
 255   2.0000      -0.296904        -8.0792
 256   2.0000      -0.288284        -7.8446
 257   2.0000      -0.287680        -7.8282
 258   2.0000      -0.273083        -7.4310
 259   2.0000      -0.266621        -7.2551
 260   2.0000      -0.251801        -6.8518
 261   2.0000      -0.229117        -6.2346
 262   2.0000      -0.213198        -5.8014
 263   0.0000      -0.111319        -3.0291
 264   0.0000      -0.078592        -2.1386
 265   0.0000      -0.060756        -1.6533
 266   0.0000      -0.044755        -1.2178
 267   0.0000      -0.015468        -0.4209

MULLIKEN ATOMIC CHARGES
-----------------------
   0 C :   -0.002729
   1 S :    0.131144
   2 C :   -0.081107
   3 C :   -0.224286
   4 N :   -0.036889
   5 C :    0.379473
   6 C :   -0.166843
   7 C :   -0.093906
   8 S :    0.166461
   9 C :   -0.092954
  10 C :    0.002327
  11 C :    0.071350
  12 C :   -0.043429
  13 C :   -0.062231
  14 S :    0.024978
  15 C :    0.034371
  16 O :   -0.153985
  17 C :    0.080537
  18 C :    0.060322
  19 C :    0.029750
  20 O :   -0.163168
  21 S :    0.045129
  22 C :   -0.067291
  23 C :   -0.033212
  24 C :    0.010479
  25 C :   -0.087127
  26 S :    0.033180
  27 C :    0.035492
  28 O :   -0.209685
  29 C :    0.082546
  30 C :    0.063988
  31 C :    0.032764
  32 O :   -0.144845
  33 S :    0.040106
  34 C :   -0.072086
  35 C :    0.011739
  36 C :   -0.044779
  37 C :    0.129579
  38 C :    0.208327
  39 O :   -0.229428
  40 C :    0.205972
  41 C :    0.224672
  42 C :   -0.173287
  43 S :    0.114471
  44 C :   -0.166787
  45 O :   -0.263117
  46 C :   -0.035484
  47 C :    0.030309
  48 C :    0.085155
  49 C :   -0.066929
  50 C :    0.040145
  51 C :   -0.007486
  52 C :   -0.061771
  53 C :    0.167835
  54 N :   -0.236238
  55 C :    0.112492
  56 N :   -0.208916
  57 C :    0.085453
  58 C :   -0.122923
  59 C :    0.113250
  60 C :   -0.038491
  61 C :    0.021179
  62 C :    0.013949
  63 C :    0.030354
  64 C :    0.000355
  65 C :   -0.008503
  66 C :   -0.040550
  67 C :   -0.014263
  68 H :    0.041200
  69 H :    0.042662
  70 H :    0.043222
  71 H :   -0.003248
  72 H :   -0.000315
  73 H :    0.012088
  74 H :    0.020885
  75 H :    0.024044
  76 H :   -0.000106
  77 H :    0.035273
  78 H :    0.026582
  79 H :    0.027327
  80 H :    0.005482
  81 H :    0.009811
  82 H :   -0.027784
  83 H :   -0.024375
  84 H :   -0.030163
  85 H :   -0.016839
  86 H :    0.085634
  87 H :    0.094150
  88 H :   -0.004757
  89 H :    0.012380
  90 H :    0.097230
  91 H :    0.094138
  92 H :    0.013440
  93 H :    0.022709
  94 H :   -0.012117
  95 H :   -0.037135
  96 H :   -0.038783
  97 H :   -0.034033
  98 H :    0.014842
  99 H :    0.014950
 100 H :    0.026701
Sum of atomic charges:   -0.0000000

LOEWDIN ATOMIC CHARGES
----------------------
   0 C :   -0.120815
   1 S :    0.418540
   2 C :   -0.220518
   3 C :   -0.037067
   4 N :   -0.082388
   5 C :   -0.010637
   6 C :   -0.048554
   7 C :   -0.185653
   8 S :    0.450487
   9 C :   -0.177811
  10 C :   -0.025684
  11 C :    0.000054
  12 C :   -0.055205
  13 C :   -0.087836
  14 S :    0.321520
  15 C :   -0.032094
  16 O :   -0.151053
  17 C :   -0.128357
  18 C :   -0.143105
  19 C :   -0.041663
  20 O :   -0.160410
  21 S :    0.335617
  22 C :   -0.101277
  23 C :   -0.035996
  24 C :   -0.011368
  25 C :   -0.122665
  26 S :    0.367748
  27 C :   -0.046670
  28 O :   -0.185993
  29 C :   -0.156968
  30 C :   -0.111850
  31 C :   -0.042433
  32 O :   -0.142634
  33 S :    0.336735
  34 C :   -0.072691
  35 C :   -0.079063
  36 C :    0.030497
  37 C :   -0.000721
  38 C :    0.082703
  39 O :   -0.035126
  40 C :   -0.014438
  41 C :   -0.006758
  42 C :   -0.211386
  43 S :    0.441620
  44 C :   -0.205445
  45 O :   -0.059311
  46 C :   -0.071575
  47 C :    0.044384
  48 C :   -0.043881
  49 C :    0.032777
  50 C :   -0.032081
  51 C :   -0.004268
  52 C :   -0.041221
  53 C :    0.033970
  54 N :   -0.130263
  55 C :    0.021817
  56 N :   -0.096832
  57 C :   -0.021531
  58 C :    0.076415
  59 C :   -0.030302
  60 C :   -0.030715
  61 C :   -0.018267
  62 C :   -0.038293
  63 C :   -0.031452
  64 C :   -0.008789
  65 C :   -0.029128
  66 C :   -0.001684
  67 C :   -0.053361
  68 H :    0.018921
  69 H :    0.058541
  70 H :    0.058689
  71 H :    0.039024
  72 H :    0.027906
  73 H :    0.038279
  74 H :    0.032336
  75 H :    0.038412
  76 H :    0.030723
  77 H :    0.039076
  78 H :    0.030038
  79 H :    0.030487
  80 H :    0.035651
  81 H :    0.035105
  82 H :    0.026491
  83 H :    0.022115
  84 H :   -0.013931
  85 H :    0.010638
  86 H :    0.035214
  87 H :    0.048604
  88 H :    0.001444
  89 H :    0.014280
  90 H :    0.054303
  91 H :    0.055963
  92 H :    0.037064
  93 H :    0.052279
  94 H :    0.024672
  95 H :    0.028786
  96 H :    0.026639
  97 H :    0.023534
  98 H :    0.030581
  99 H :    0.021322
 100 H :    0.027218

  Mayer bond orders larger than 0.100000
B(  0-C ,  1-S ) :   1.1387 B(  0-C ,  4-N ) :   1.6890 B(  0-C , 68-H ) :   0.9663
B(  1-S ,  2-C ) :   1.0887 B(  2-C ,  3-C ) :   1.5189 B(  2-C ,  7-C ) :   1.1944
B(  3-C ,  4-N ) :   1.4146 B(  3-C ,  5-C ) :   1.0461 B(  5-C ,  6-C ) :   0.9806
B(  5-C , 69-H ) :   0.8656 B(  5-C , 70-H ) :   0.8654 B(  6-C ,  7-C ) :   1.5025
B(  6-C , 10-C ) :   1.3370 B(  7-C ,  8-S ) :   1.1110 B(  8-S ,  9-C ) :   1.0893
B(  9-C , 10-C ) :   1.4281 B(  9-C , 11-C ) :   1.1660 B( 10-C , 71-H ) :   0.9981
B( 11-C , 12-C ) :   1.5654 B( 11-C , 72-H ) :   0.9637 B( 12-C , 13-C ) :   1.2593
B( 12-C , 73-H ) :   0.9627 B( 13-C , 14-S ) :   1.0612 B( 13-C , 18-C ) :   1.4220
B( 14-S , 15-C ) :   0.9934 B( 14-S , 16-O ) :   0.1088 B( 15-C , 16-O ) :   2.1090
B( 15-C , 17-C ) :   0.9644 B( 17-C , 18-C ) :   1.1581 B( 17-C , 22-C ) :   1.4284
B( 18-C , 19-C ) :   0.9688 B( 19-C , 20-O ) :   2.1292 B( 19-C , 21-S ) :   0.9950
B( 20-O , 21-S ) :   0.1112 B( 21-S , 22-C ) :   1.0693 B( 22-C , 23-C ) :   1.2535
B( 23-C , 24-C ) :   1.4987 B( 23-C , 74-H ) :   0.9627 B( 24-C , 25-C ) :   1.2463
B( 24-C , 75-H ) :   0.9704 B( 25-C , 26-S ) :   1.0635 B( 25-C , 30-C ) :   1.4401
B( 26-S , 27-C ) :   1.0279 B( 27-C , 28-O ) :   1.9601 B( 27-C , 29-C ) :   1.0208
B( 29-C , 30-C ) :   1.1844 B( 29-C , 34-C ) :   1.3151 B( 30-C , 31-C ) :   0.9425
B( 31-C , 32-O ) :   2.1573 B( 31-C , 33-S ) :   0.9935 B( 32-O , 33-S ) :   0.1095
B( 33-S , 34-C ) :   1.0853 B( 34-C , 35-C ) :   1.2796 B( 35-C , 36-C ) :   1.4802
B( 35-C , 76-H ) :   0.9563 B( 36-C , 37-C ) :   1.2904 B( 36-C , 77-H ) :   0.9348
B( 37-C , 38-C ) :   1.3649 B( 37-C , 45-O ) :   1.0424 B( 38-C , 39-O ) :   1.0995
B( 38-C , 46-C ) :   1.1804 B( 39-O , 40-C ) :   1.0421 B( 40-C , 41-C ) :   1.2045
B( 40-C , 44-C ) :   1.5675 B( 41-C , 42-C ) :   1.5698 B( 41-C , 45-O ) :   1.0607
B( 42-C , 43-S ) :   1.1380 B( 42-C , 78-H ) :   0.9733 B( 43-S , 44-C ) :   1.1518
B( 44-C , 79-H ) :   0.9729 B( 46-C , 47-C ) :   1.5797 B( 46-C , 80-H ) :   0.9442
B( 47-C , 48-C ) :   1.1400 B( 47-C , 81-H ) :   0.9718 B( 48-C , 49-C ) :   1.4604
B( 48-C , 65-C ) :   1.1117 B( 49-C , 50-C ) :   1.1327 B( 49-C , 82-H ) :   0.9968
B( 50-C , 51-C ) :   1.4585 B( 50-C , 63-C ) :   1.1118 B( 51-C , 52-C ) :   1.0342
B( 51-C , 57-C ) :   1.1106 B( 52-C , 53-C ) :   1.0213 B( 52-C , 55-C ) :   1.0376
B( 52-C , 83-H ) :   0.8833 B( 53-C , 54-N ) :   1.1162 B( 53-C , 84-H ) :   0.9144
B( 53-C , 85-H ) :   0.9422 B( 54-N , 86-H ) :   0.9433 B( 54-N , 87-H ) :   0.9578
B( 55-C , 56-N ) :   1.0775 B( 55-C , 88-H ) :   0.9556 B( 55-C , 89-H ) :   0.9178
B( 56-N , 90-H ) :   0.9648 B( 56-N , 91-H ) :   0.9665 B( 57-C , 58-C ) :   1.6590
B( 57-C , 62-C ) :   1.0457 B( 58-C , 59-C ) :   0.9698 B( 58-C , 92-H ) :   0.9705
B( 59-C , 60-C ) :   0.9916 B( 59-C , 66-C ) :   0.9617 B( 59-C , 93-H ) :   0.8748
B( 60-C , 61-C ) :   1.7224 B( 60-C , 94-H ) :   0.9737 B( 61-C , 62-C ) :   1.1254
B( 61-C , 95-H ) :   0.9895 B( 62-C , 63-C ) :   1.4537 B( 63-C , 64-C ) :   1.1362
B( 64-C , 65-C ) :   1.6282 B( 64-C , 96-H ) :   0.9895 B( 65-C , 97-H ) :   0.9818
B( 66-C , 67-C ) :   2.0074 B( 66-C , 98-H ) :   0.9646 B( 67-C , 99-H ) :   0.9604
B( 67-C ,100-H ) :   0.9529

-----------------------------------------------------------------------------
         ABSORPTION SPECTRUM VIA TRANSITION ELECTRIC DIPOLE MOMENTS
-----------------------------------------------------------------------------
State   Energy  Wavelength   fosc         T2         TX        TY        TZ
        (cm-1)    (nm)                  (au**2)     (au)      (au)      (au)
-----------------------------------------------------------------------------
   0    8957.8   1116.3   0.436151436  16.02924  -0.04347   1.23018  -3.80972
   1   12646.1    790.8   1.243528577  32.37227   2.50252   0.46953  -5.08815
   2   14721.7    679.3   0.034468399   0.77080   0.48593   0.05588   0.72907
   3   17121.2    584.1   0.552623875  10.62602  -2.93940   0.22136   1.39175
   4   18222.2    548.8   0.041678116   0.75298  -0.83433   0.23843  -0.00517
   5   18407.1    543.3   0.088220501   1.57783  -1.13012   0.11474   0.53618
   6   20087.7    497.8   0.063522054   1.04105   0.70846   0.03457  -0.73344
   7   21156.3    472.7   0.082956019   1.29087  -0.68796   0.46310  -0.77661
   8   23330.7    428.6   0.125150022   1.76595   1.01573  -0.66122   0.54502
   9   23688.5    422.1   0.207671774   2.88613   0.21557   0.36809  -1.64443
  10   24186.6    413.5   0.009766325   0.13293   0.15114   0.02438  -0.33090
  11   24688.3    405.1   0.093607362   1.24823   0.48168  -0.07215  -1.00549
  12   25242.9    396.2   0.171650554   2.23862   1.28719  -0.48371  -0.58975
  13   25721.1    388.8   0.010064277   0.12882  -0.33722   0.11573  -0.04131
  14   25973.6    385.0   0.018772843   0.23794   0.47886  -0.07937   0.04833
  15   26579.9    376.2   0.063321473   0.78428   0.76899  -0.23545  -0.37081
  16   26918.5    371.5   0.004635115   0.05669   0.05807   0.03574  -0.22812
  17   27228.8    367.3   0.004095517   0.04952  -0.17040   0.06305  -0.12848
  18   27321.1    366.0   0.212439197   2.55983  -0.79401  -0.01504   1.38894
  19   27486.4    363.8   0.001315700   0.01576  -0.00960   0.01451  -0.12432
  20   28142.2    355.3   0.015232012   0.17819   0.14163  -0.12940   0.37601
  21   28434.7    351.7   0.145091715   1.67984   1.18517  -0.25587  -0.45799
  22   28476.2    351.2   0.002276758   0.02632   0.07328  -0.06370   0.12997
  23   28974.2    345.1   0.227274081   2.58234  -0.31272  -0.12632   1.57118
  24   29087.5    343.8   0.012222955   0.13834  -0.20555   0.00012   0.30998
  25   29636.0    337.4   0.172488252   1.91609  -1.32460   0.38702   0.10839
  26   30427.6    328.6   0.311105855   3.36602   1.31301  -0.24620  -1.25754
  27   31276.6    319.7   0.052892089   0.55673  -0.14998   0.40070  -0.61130
  28   31391.4    318.6   0.034511821   0.36194  -0.18595   0.18336  -0.54198
  29   31908.5    313.4   0.056331293   0.58119   0.27855   0.10954  -0.70115
  30   32059.4    311.9   0.057167200   0.58704   0.65359  -0.31283  -0.24898
  31   32162.2    310.9   0.306949424   3.14193  -0.92509   0.19511   1.49936
  32   32799.0    304.9   0.016572716   0.16634   0.02648  -0.21885   0.34315
  33   33438.9    299.1   0.047342052   0.46609   0.63758  -0.23741   0.05673
  34   33688.1    296.8   0.104551130   1.02171  -0.27259  -0.22530   0.94691
  35   33858.5    295.3   0.147838027   1.43745  -1.13189   0.35133   0.18121
  36   34025.6    293.9   0.009997857   0.09673   0.25610  -0.04094  -0.17167
  37   34239.3    292.1   0.118294793   1.13741   1.00160  -0.25531   0.26272
  38   34688.3    288.3   0.090753712   0.86131   0.73313  -0.07769  -0.56373
  39   35226.0    283.9   0.092485858   0.86434   0.46645   0.04781  -0.80280
  40   35317.2    283.1   0.143902906   1.34140   1.04408  -0.15063  -0.47814
  41   35437.1    282.2   0.023757424   0.22071   0.12728   0.08055  -0.44499
  42   35941.2    278.2   0.007422945   0.06799  -0.22245   0.05383   0.12494
  43   36137.8    276.7   0.005216115   0.04752   0.20830  -0.03366  -0.05474
  44   36494.2    274.0   0.028268646   0.25501   0.12135  -0.04948   0.48768
  45   36594.3    273.3   0.000119287   0.00107   0.01648   0.02800   0.00421
  46   36758.7    272.0   0.018309086   0.16398   0.26922  -0.16092   0.25613
  47   37008.3    270.2   0.005898855   0.05247  -0.20487   0.03933  -0.09464
  48   37372.0    267.6   0.009612717   0.08468  -0.16722   0.10389  -0.21429
  49   37605.3    265.9   0.098790987   0.86485   0.53037   0.04951  -0.76231
  50   37716.7    265.1   0.080700854   0.70440  -0.80772   0.14696   0.17433
  51   37888.4    263.9   0.278661546   2.42129  -1.44400   0.24355   0.52617
  52   37920.8    263.7   0.076211357   0.66163   0.55574  -0.03220  -0.59309
  53   38079.5    262.6   0.064862452   0.56076  -0.71597   0.18481   0.11831
  54   38226.1    261.6   0.054284695   0.46751   0.66548  -0.09522  -0.12484
  55   38314.3    261.0   0.051784895   0.44496   0.38322  -0.07851  -0.54031
  56   38926.4    256.9   0.000317540   0.00269  -0.02010  -0.02827  -0.03850
  57   39208.1    255.0   0.001177589   0.00989  -0.02091   0.01310   0.09633
  58   39756.8    251.5   0.000079932   0.00066   0.01206   0.02272  -0.00018
  59   40078.8    249.5   0.018418110   0.15129  -0.31154   0.03919   0.22956
  60   40306.6    248.1   0.009084962   0.07420   0.03379   0.08127  -0.25779

FINAL SINGLE POINT ENERGY     -5400.077680882454

DIPOLE MOMENT
-------------
                                X             Y             Z
Electronic contribution:     43.51789     -33.94980      41.54508
Nuclear contribution   :    -45.34577      34.72286     -41.61943
                        -----------------------------------------
Total Dipole Moment    :     -1.82788       0.77306      -0.07435
                        -----------------------------------------
Magnitude (a.u.)       :      1.98602
Magnitude (Debye)      :      5.04807

Rotational constants in cm-1:     0.001291     0.000282     0.000235
Rotational constants in MHz :    38.711275     8.466910     7.047812

                             ****ORCA TERMINATED NORMALLY****
TOTAL RUN TIME: 0 days 0 hours 9 minutes 26 seconds 559 msec
