                         Program Version 4.2.0 -  RELEASE  -
|  1> # ORCA input file
|  2> # SCF done       -171.213564930247          0.000747548039
|  3> ! CAM-B3LYP def2-SVP def2/J RIJCOSX Grid4 TightSCF
|  4> %maxcore 5000
|  5> %tddft
|  6>     Mode sTDDFT
|  7>     Ethresh 5.0
|  8>     maxcore 5000
|  9> end
| 10>
| 11> %pal
| 12>   nprocs 6
| 13>   end
| 14> * xyz 0 1
| 15>    C        8.39338         1.50313        -6.09448
| 16>    C        7.90571         1.05958        -4.90111
| 17>    C        6.72800         1.77261        -4.49451
| 18>    C        6.34107         2.72124        -5.37869
| 19>    S        7.42744         2.78087        -6.72300
| 20>    C        6.23632         1.22881        -3.21500
| 21>    O        5.19680         1.48975        -2.66139
| 22>    C        7.27736         0.23023        -2.82407
| 23>    C        8.16333         0.01341        -3.93240
| 24>    C        9.04065        -1.05836        -4.08307
| 25>    N       10.15933        -1.02208        -4.95816
| 26>    O       10.60849         0.07618        -5.24222
| 27>    O       10.59647        -2.07248        -5.38018
| 28>    N        8.80690        -2.29510        -3.43436
| 29>    O        7.63956        -2.62076        -3.25904
| 30>    O        9.75165        -2.97367        -3.07498
| 31>    C        7.46511        -0.33157        -1.57564
| 32>    C        6.84341         0.00355        -0.36238
| 33>    C        7.06797        -0.76563         0.78992
| 34>    O        6.73710        -0.32002         2.03727
| 35>    C        6.02675         0.84576         2.08605
| 36>    C        5.69869         1.56711         0.90204
| 37>    C        4.95600         2.67445         1.15098
| 38>    S        4.65292         2.85246         2.83805
| 39>    C        5.53181         1.42048         3.21172
| 40>    O        6.14095         1.17560        -0.32046
| 41>    C        7.67947        -2.03740         0.79606
| 42>    C        7.65433        -2.94767        -0.22757
| 43>    C        8.42420        -4.11739        -0.25592
| 44>    S        9.74355        -4.39930         0.84897
| 45>    C       10.19019        -5.87911         0.04935
| 46>    C        9.33239        -6.12984        -1.02991
| 47>    C        8.33901        -5.16209        -1.18521
| 48>    S        6.97414        -5.22377        -2.27621
| 49>    C        7.24144        -6.52786        -3.43004
| 50>    O        6.35131        -6.77623        -4.19832
| 51>    C        8.51773        -7.33309        -3.49328
| 52>    O        8.77004        -8.00093        -4.45402
| 53>    S        9.60910        -7.49205        -2.09882
| 54>    C       11.27159        -6.62993         0.54000
| 55>    S       11.75918        -8.17050        -0.15698
| 56>    C       13.00249        -8.32866         1.01160
| 57>    C       13.03902        -7.23086         1.89482
| 58>    C       12.07324        -6.28301         1.63270
| 59>    C       14.13349        -7.47682         2.85051
| 60>    O       14.50964        -6.79334         3.77095
| 61>    C       14.70480        -8.81351         2.43081
| 62>    C       13.99358        -9.27269         1.32791
| 63>    C       15.76593        -9.38348         3.13254
| 64>    C       16.34116       -10.60850         2.86447
| 65>    C       17.39170       -11.13613         3.60282
| 66>    C       17.97268       -12.37006         3.37024
| 67>    C       19.03720       -12.95174         4.09189
| 68>    C       19.40509       -14.18878         3.64984
| 69>    C       18.64598       -14.64956         2.55184
| 70>    S       17.45079       -13.45314         2.09806
| 71>    C       18.76428       -15.85288         1.88479
| 72>    C       19.68545       -16.90055         2.16195
| 73>    C       19.56934       -17.97244         1.34552
| 74>    C       18.54006       -17.85054         0.35431
| 75>    S       17.73921       -16.28116         0.53806
| 76>    C       18.19192       -18.74223        -0.58412
| 77>    H        9.27154         1.19848        -6.62733
| 78>    H        5.49985         3.38345        -5.33609
| 79>    H        8.27005        -1.04204        -1.46253
| 80>    H        4.57686         3.38016         0.44243
| 81>    H        5.63285         1.08547         4.22274
| 82>    H        8.13572        -2.32447         1.73512
| 83>    H        7.00202        -2.79403        -1.07894
| 84>    H       11.92798        -5.37317         2.18730
| 85>    H       14.16268       -10.19150         0.79826
| 86>    H       16.14711        -8.79872         3.96100
| 87>    H       15.95836       -11.20060         2.04332
| 88>    H       17.79134       -10.55425         4.42334
| 89>    H       19.49994       -12.44010         4.91725
| 90>    H       20.19532       -14.77415         4.08381
| 91>    H       20.40222       -16.82119         2.95957
| 92>    H       20.17580       -18.85864         1.40184
| 93>    H       18.70374       -19.68524        -0.66182
| 94>    H       17.39900       -18.54807        -1.28295
| 95> *
| 96>
| 97>                          ****END OF INPUT****

CARTESIAN COORDINATES (ANGSTROEM)
---------------------------------
  C      8.393380    1.503130   -6.094480
  C      7.905710    1.059580   -4.901110
  C      6.728000    1.772610   -4.494510
  C      6.341070    2.721240   -5.378690
  S      7.427440    2.780870   -6.723000
  C      6.236320    1.228810   -3.215000
  O      5.196800    1.489750   -2.661390
  C      7.277360    0.230230   -2.824070
  C      8.163330    0.013410   -3.932400
  C      9.040650   -1.058360   -4.083070
  N     10.159330   -1.022080   -4.958160
  O     10.608490    0.076180   -5.242220
  O     10.596470   -2.072480   -5.380180
  N      8.806900   -2.295100   -3.434360
  O      7.639560   -2.620760   -3.259040
  O      9.751650   -2.973670   -3.074980
  C      7.465110   -0.331570   -1.575640
  C      6.843410    0.003550   -0.362380
  C      7.067970   -0.765630    0.789920
  O      6.737100   -0.320020    2.037270
  C      6.026750    0.845760    2.086050
  C      5.698690    1.567110    0.902040
  C      4.956000    2.674450    1.150980
  S      4.652920    2.852460    2.838050
  C      5.531810    1.420480    3.211720
  O      6.140950    1.175600   -0.320460
  C      7.679470   -2.037400    0.796060
  C      7.654330   -2.947670   -0.227570
  C      8.424200   -4.117390   -0.255920
  S      9.743550   -4.399300    0.848970
  C     10.190190   -5.879110    0.049350
  C      9.332390   -6.129840   -1.029910
  C      8.339010   -5.162090   -1.185210
  S      6.974140   -5.223770   -2.276210
  C      7.241440   -6.527860   -3.430040
  O      6.351310   -6.776230   -4.198320
  C      8.517730   -7.333090   -3.493280
  O      8.770040   -8.000930   -4.454020
  S      9.609100   -7.492050   -2.098820
  C     11.271590   -6.629930    0.540000
  S     11.759180   -8.170500   -0.156980
  C     13.002490   -8.328660    1.011600
  C     13.039020   -7.230860    1.894820
  C     12.073240   -6.283010    1.632700
  C     14.133490   -7.476820    2.850510
  O     14.509640   -6.793340    3.770950
  C     14.704800   -8.813510    2.430810
  C     13.993580   -9.272690    1.327910
  C     15.765930   -9.383480    3.132540
  C     16.341160  -10.608500    2.864470
  C     17.391700  -11.136130    3.602820
  C     17.972680  -12.370060    3.370240
  C     19.037200  -12.951740    4.091890
  C     19.405090  -14.188780    3.649840
  C     18.645980  -14.649560    2.551840
  S     17.450790  -13.453140    2.098060
  C     18.764280  -15.852880    1.884790
  C     19.685450  -16.900550    2.161950
  C     19.569340  -17.972440    1.345520
  C     18.540060  -17.850540    0.354310
  S     17.739210  -16.281160    0.538060
  C     18.191920  -18.742230   -0.584120
  H      9.271540    1.198480   -6.627330
  H      5.499850    3.383450   -5.336090
  H      8.270050   -1.042040   -1.462530
  H      4.576860    3.380160    0.442430
  H      5.632850    1.085470    4.222740
  H      8.135720   -2.324470    1.735120
  H      7.002020   -2.794030   -1.078940
  H     11.927980   -5.373170    2.187300
  H     14.162680  -10.191500    0.798260
  H     16.147110   -8.798720    3.961000
  H     15.958360  -11.200600    2.043320
  H     17.791340  -10.554250    4.423340
  H     19.499940  -12.440100    4.917250
  H     20.195320  -14.774150    4.083810
  H     20.402220  -16.821190    2.959570
  H     20.175800  -18.858640    1.401840
  H     18.703740  -19.685240   -0.661820
  H     17.399000  -18.548070   -1.282950

 Total Charge           Charge          ....    0
 Multiplicity           Mult            ....    1
 Number of Electrons    NEL             ....  492
 Basis Dimension        Dim             ....  990

ORBITAL ENERGIES
----------------

  NO   OCC          E(Eh)            E(eV)
   0   2.0000     -88.982168     -2421.3279
   1   2.0000     -88.975038     -2421.1339
   2   2.0000     -88.970930     -2421.0221
   3   2.0000     -88.965324     -2420.8695
   4   2.0000     -88.964088     -2420.8359
   5   2.0000     -88.962202     -2420.7846
   6   2.0000     -88.954176     -2420.5662
   7   2.0000     -88.951254     -2420.4867
   8   2.0000     -19.296256      -525.0778
   9   2.0000     -19.274309      -524.4806
  10   2.0000     -19.244245      -523.6625
  11   2.0000     -19.238899      -523.5171
  12   2.0000     -19.237995      -523.4924
  13   2.0000     -19.231726      -523.3219
  14   2.0000     -19.229168      -523.2523
  15   2.0000     -19.228081      -523.2227
  16   2.0000     -19.227435      -523.2051
  17   2.0000     -19.198888      -522.4283
  18   2.0000     -14.649819      -398.6419
  19   2.0000     -14.642010      -398.4294
  20   2.0000     -10.401125      -283.0290
  21   2.0000     -10.397578      -282.9325
  22   2.0000     -10.379829      -282.4495
  23   2.0000     -10.369405      -282.1659
  24   2.0000     -10.359370      -281.8928
  25   2.0000     -10.356159      -281.8054
  26   2.0000     -10.347375      -281.5664
  27   2.0000     -10.347048      -281.5575
  28   2.0000     -10.343984      -281.4741
  29   2.0000     -10.341672      -281.4112
  30   2.0000     -10.339701      -281.3576
  31   2.0000     -10.334916      -281.2274
  32   2.0000     -10.327732      -281.0319
  33   2.0000     -10.324706      -280.9495
  34   2.0000     -10.320851      -280.8446
  35   2.0000     -10.319457      -280.8067
  36   2.0000     -10.319328      -280.8032
  37   2.0000     -10.318563      -280.7824
  38   2.0000     -10.318507      -280.7809
  39   2.0000     -10.317709      -280.7591
  40   2.0000     -10.315608      -280.7020
  41   2.0000     -10.314499      -280.6718
  42   2.0000     -10.310047      -280.5506
  43   2.0000     -10.309065      -280.5239
  44   2.0000     -10.301565      -280.3198
  45   2.0000     -10.300649      -280.2949
  46   2.0000     -10.300246      -280.2839
  47   2.0000     -10.298837      -280.2456
  48   2.0000     -10.297561      -280.2109
  49   2.0000     -10.297055      -280.1971
  50   2.0000     -10.295757      -280.1618
  51   2.0000     -10.295684      -280.1598
  52   2.0000     -10.292622      -280.0765
  53   2.0000     -10.292019      -280.0601
  54   2.0000     -10.290695      -280.0240
  55   2.0000     -10.289123      -279.9813
  56   2.0000     -10.288832      -279.9734
  57   2.0000     -10.284218      -279.8478
  58   2.0000     -10.283415      -279.8259
  59   2.0000     -10.278892      -279.7029
  60   2.0000     -10.278804      -279.7005
  61   2.0000     -10.278687      -279.6973
  62   2.0000      -8.076320      -219.7678
  63   2.0000      -8.070312      -219.6043
  64   2.0000      -8.066869      -219.5107
  65   2.0000      -8.061903      -219.3755
  66   2.0000      -8.060465      -219.3364
  67   2.0000      -8.058012      -219.2696
  68   2.0000      -8.050534      -219.0662
  69   2.0000      -8.048024      -218.9979
  70   2.0000      -6.045606      -164.5093
  71   2.0000      -6.041366      -164.3939
  72   2.0000      -6.039759      -164.3502
  73   2.0000      -6.038680      -164.3208
  74   2.0000      -6.036096      -164.2505
  75   2.0000      -6.035800      -164.2425
  76   2.0000      -6.031877      -164.1357
  77   2.0000      -6.031797      -164.1336
  78   2.0000      -6.031399      -164.1227
  79   2.0000      -6.030314      -164.0932
  80   2.0000      -6.029599      -164.0737
  81   2.0000      -6.027487      -164.0163
  82   2.0000      -6.027238      -164.0095
  83   2.0000      -6.025599      -163.9649
  84   2.0000      -6.023288      -163.9020
  85   2.0000      -6.022638      -163.8843
  86   2.0000      -6.021395      -163.8505
  87   2.0000      -6.020215      -163.8184
  88   2.0000      -6.019754      -163.8058
  89   2.0000      -6.017794      -163.7525
  90   2.0000      -6.016261      -163.7108
  91   2.0000      -6.013866      -163.6456
  92   2.0000      -6.011466      -163.5803
  93   2.0000      -6.008639      -163.5034
  94   2.0000      -1.325873       -36.0788
  95   2.0000      -1.306338       -35.5473
  96   2.0000      -1.217619       -33.1331
  97   2.0000      -1.177696       -32.0467
  98   2.0000      -1.172823       -31.9141
  99   2.0000      -1.140593       -31.0371
 100   2.0000      -1.137671       -30.9576
 101   2.0000      -1.137615       -30.9561
 102   2.0000      -1.126647       -30.6576
 103   2.0000      -1.115934       -30.3661
 104   2.0000      -1.025304       -27.8999
 105   2.0000      -1.008327       -27.4380
 106   2.0000      -1.006382       -27.3851
 107   2.0000      -1.004059       -27.3218
 108   2.0000      -0.993340       -27.0302
 109   2.0000      -0.981231       -26.7007
 110   2.0000      -0.970579       -26.4108
 111   2.0000      -0.951805       -25.8999
 112   2.0000      -0.944872       -25.7113
 113   2.0000      -0.932327       -25.3699
 114   2.0000      -0.923703       -25.1352
 115   2.0000      -0.915740       -24.9186
 116   2.0000      -0.906674       -24.6718
 117   2.0000      -0.886653       -24.1271
 118   2.0000      -0.883272       -24.0350
 119   2.0000      -0.864431       -23.5224
 120   2.0000      -0.856720       -23.3125
 121   2.0000      -0.855575       -23.2814
 122   2.0000      -0.852858       -23.2074
 123   2.0000      -0.836094       -22.7513
 124   2.0000      -0.834854       -22.7175
 125   2.0000      -0.834166       -22.6988
 126   2.0000      -0.829189       -22.5634
 127   2.0000      -0.825742       -22.4696
 128   2.0000      -0.815072       -22.1792
 129   2.0000      -0.804200       -21.8834
 130   2.0000      -0.799165       -21.7464
 131   2.0000      -0.786130       -21.3917
 132   2.0000      -0.769885       -20.9496
 133   2.0000      -0.759191       -20.6586
 134   2.0000      -0.758857       -20.6495
 135   2.0000      -0.748550       -20.3691
 136   2.0000      -0.745601       -20.2888
 137   2.0000      -0.731334       -19.9006
 138   2.0000      -0.713642       -19.4192
 139   2.0000      -0.701399       -19.0860
 140   2.0000      -0.694486       -18.8979
 141   2.0000      -0.690417       -18.7872
 142   2.0000      -0.679298       -18.4847
 143   2.0000      -0.670115       -18.2348
 144   2.0000      -0.667169       -18.1546
 145   2.0000      -0.654861       -17.8197
 146   2.0000      -0.648795       -17.6546
 147   2.0000      -0.648161       -17.6374
 148   2.0000      -0.645767       -17.5722
 149   2.0000      -0.640940       -17.4409
 150   2.0000      -0.638512       -17.3748
 151   2.0000      -0.636435       -17.3183
 152   2.0000      -0.628861       -17.1122
 153   2.0000      -0.625101       -17.0099
 154   2.0000      -0.623564       -16.9681
 155   2.0000      -0.615585       -16.7509
 156   2.0000      -0.614465       -16.7204
 157   2.0000      -0.609744       -16.5920
 158   2.0000      -0.608278       -16.5521
 159   2.0000      -0.607081       -16.5195
 160   2.0000      -0.602387       -16.3918
 161   2.0000      -0.597292       -16.2531
 162   2.0000      -0.582732       -15.8569
 163   2.0000      -0.579212       -15.7612
 164   2.0000      -0.575950       -15.6724
 165   2.0000      -0.572973       -15.5914
 166   2.0000      -0.572329       -15.5739
 167   2.0000      -0.567337       -15.4380
 168   2.0000      -0.564941       -15.3728
 169   2.0000      -0.556657       -15.1474
 170   2.0000      -0.549423       -14.9506
 171   2.0000      -0.547373       -14.8948
 172   2.0000      -0.545689       -14.8489
 173   2.0000      -0.540958       -14.7202
 174   2.0000      -0.536224       -14.5914
 175   2.0000      -0.535390       -14.5687
 176   2.0000      -0.530103       -14.4248
 177   2.0000      -0.529928       -14.4201
 178   2.0000      -0.525223       -14.2920
 179   2.0000      -0.522493       -14.2177
 180   2.0000      -0.518308       -14.1039
 181   2.0000      -0.517022       -14.0689
 182   2.0000      -0.514703       -14.0058
 183   2.0000      -0.513237       -13.9659
 184   2.0000      -0.510063       -13.8795
 185   2.0000      -0.508821       -13.8457
 186   2.0000      -0.505810       -13.7638
 187   2.0000      -0.505197       -13.7471
 188   2.0000      -0.504864       -13.7381
 189   2.0000      -0.502115       -13.6632
 190   2.0000      -0.494406       -13.4535
 191   2.0000      -0.493361       -13.4250
 192   2.0000      -0.489115       -13.3095
 193   2.0000      -0.485114       -13.2006
 194   2.0000      -0.482158       -13.1202
 195   2.0000      -0.478975       -13.0336
 196   2.0000      -0.478290       -13.0149
 197   2.0000      -0.473697       -12.8900
 198   2.0000      -0.472760       -12.8645
 199   2.0000      -0.471353       -12.8262
 200   2.0000      -0.468547       -12.7498
 201   2.0000      -0.466206       -12.6861
 202   2.0000      -0.465907       -12.6780
 203   2.0000      -0.459237       -12.4965
 204   2.0000      -0.455805       -12.4031
 205   2.0000      -0.452644       -12.3171
 206   2.0000      -0.443268       -12.0619
 207   2.0000      -0.439331       -11.9548
 208   2.0000      -0.438168       -11.9232
 209   2.0000      -0.434473       -11.8226
 210   2.0000      -0.431613       -11.7448
 211   2.0000      -0.430759       -11.7215
 212   2.0000      -0.429798       -11.6954
 213   2.0000      -0.426152       -11.5962
 214   2.0000      -0.423361       -11.5202
 215   2.0000      -0.420598       -11.4451
 216   2.0000      -0.416946       -11.3457
 217   2.0000      -0.410350       -11.1662
 218   2.0000      -0.407734       -11.0950
 219   2.0000      -0.401512       -10.9257
 220   2.0000      -0.390682       -10.6310
 221   2.0000      -0.387452       -10.5431
 222   2.0000      -0.383365       -10.4319
 223   2.0000      -0.382183       -10.3997
 224   2.0000      -0.378074       -10.2879
 225   2.0000      -0.372698       -10.1416
 226   2.0000      -0.366245        -9.9660
 227   2.0000      -0.363007        -9.8779
 228   2.0000      -0.355990        -9.6870
 229   2.0000      -0.349850        -9.5199
 230   2.0000      -0.347680        -9.4609
 231   2.0000      -0.343484        -9.3467
 232   2.0000      -0.340705        -9.2711
 233   2.0000      -0.337686        -9.1889
 234   2.0000      -0.331695        -9.0259
 235   2.0000      -0.328996        -8.9524
 236   2.0000      -0.323870        -8.8130
 237   2.0000      -0.320899        -8.7321
 238   2.0000      -0.317520        -8.6402
 239   2.0000      -0.308716        -8.4006
 240   2.0000      -0.303070        -8.2470
 241   2.0000      -0.299135        -8.1399
 242   2.0000      -0.292251        -7.9525
 243   2.0000      -0.267489        -7.2788
 244   2.0000      -0.246194        -6.6993
 245   2.0000      -0.212165        -5.7733
 246   0.0000      -0.111247        -3.0272
 247   0.0000      -0.096327        -2.6212
 248   0.0000      -0.065176        -1.7735
 249   0.0000      -0.055630        -1.5138
 250   0.0000      -0.046172        -1.2564

MULLIKEN ATOMIC CHARGES
-----------------------
   0 C :   -0.123889
   1 C :    0.073895
   2 C :    0.015636
   3 C :   -0.138722
   4 S :    0.141486
   5 C :    0.152208
   6 O :   -0.125693
   7 C :   -0.062216
   8 C :    0.163462
   9 C :    0.041911
  10 N :    0.255052
  11 O :   -0.264513
  12 O :   -0.235791
  13 N :    0.223127
  14 O :   -0.255677
  15 O :   -0.224832
  16 C :   -0.106920
  17 C :    0.148533
  18 C :    0.191866
  19 O :   -0.224163
  20 C :    0.203547
  21 C :    0.218670
  22 C :   -0.163021
  23 S :    0.118946
  24 C :   -0.166104
  25 O :   -0.217762
  26 C :   -0.048799
  27 C :   -0.036378
  28 C :   -0.107675
  29 S :    0.139888
  30 C :   -0.052714
  31 C :   -0.043682
  32 C :    0.005793
  33 S :    0.134282
  34 C :    0.075760
  35 O :   -0.140907
  36 C :    0.097773
  37 O :   -0.121253
  38 S :    0.056254
  39 C :   -0.121401
  40 S :    0.173739
  41 C :   -0.015621
  42 C :    0.009642
  43 C :   -0.033379
  44 C :    0.161497
  45 O :   -0.113337
  46 C :   -0.029327
  47 C :   -0.041075
  48 C :   -0.013570
  49 C :    0.030137
  50 C :   -0.014209
  51 C :   -0.012528
  52 C :    0.032230
  53 C :    0.029656
  54 C :   -0.048625
  55 S :    0.081385
  56 C :   -0.061053
  57 C :    0.025991
  58 C :    0.059828
  59 C :   -0.070694
  60 S :    0.093748
  61 C :   -0.018716
  62 H :    0.051188
  63 H :    0.035739
  64 H :    0.046310
  65 H :    0.035711
  66 H :    0.028866
  67 H :    0.020643
  68 H :    0.071770
  69 H :    0.006556
  70 H :   -0.009173
  71 H :   -0.003686
  72 H :   -0.000411
  73 H :   -0.010273
  74 H :   -0.008617
  75 H :   -0.009273
  76 H :   -0.006910
  77 H :   -0.005161
  78 H :    0.026006
  79 H :    0.029016
Sum of atomic charges:    0.0000000

LOEWDIN ATOMIC CHARGES
----------------------
   0 C :   -0.143306
   1 C :   -0.065580
   2 C :   -0.085046
   3 C :   -0.147486
   4 S :    0.475130
   5 C :    0.072422
   6 O :   -0.130162
   7 C :   -0.099322
   8 C :    0.077266
   9 C :   -0.110867
  10 N :    0.278216
  11 O :   -0.223294
  12 O :   -0.201879
  13 N :    0.277851
  14 O :   -0.225449
  15 O :   -0.196494
  16 C :    0.042440
  17 C :    0.008776
  18 C :    0.078425
  19 O :   -0.031278
  20 C :   -0.014254
  21 C :   -0.005922
  22 C :   -0.201363
  23 S :    0.446715
  24 C :   -0.204155
  25 O :   -0.028405
  26 C :   -0.068552
  27 C :    0.000314
  28 C :   -0.206518
  29 S :    0.455660
  30 C :   -0.163786
  31 C :   -0.232953
  32 C :   -0.179020
  33 S :    0.437622
  34 C :   -0.114728
  35 O :   -0.109292
  36 C :   -0.101158
  37 O :   -0.094111
  38 S :    0.369447
  39 C :   -0.212165
  40 S :    0.471096
  41 C :   -0.150423
  42 C :   -0.112435
  43 C :   -0.008070
  44 C :    0.099137
  45 O :   -0.104917
  46 C :   -0.045869
  47 C :   -0.028879
  48 C :   -0.029118
  49 C :   -0.001188
  50 C :   -0.061234
  51 C :   -0.133637
  52 C :   -0.037863
  53 C :   -0.022765
  54 C :   -0.185519
  55 S :    0.378415
  56 C :   -0.166855
  57 C :   -0.027516
  58 C :   -0.022697
  59 C :   -0.141053
  60 S :    0.365110
  61 C :   -0.060556
  62 H :    0.029734
  63 H :    0.033361
  64 H :    0.042754
  65 H :    0.034771
  66 H :    0.031148
  67 H :    0.035368
  68 H :    0.039710
  69 H :    0.034897
  70 H :    0.029830
  71 H :    0.034348
  72 H :    0.022075
  73 H :    0.035659
  74 H :    0.035263
  75 H :    0.033152
  76 H :    0.033975
  77 H :    0.035997
  78 H :    0.031637
  79 H :    0.029418

  Mayer bond orders larger than 0.100000
B(  0-C ,  1-C ) :   1.5399 B(  0-C ,  4-S ) :   1.1884 B(  0-C , 62-H ) :   0.9489
B(  1-C ,  2-C ) :   1.2166 B(  1-C ,  8-C ) :   1.0412 B(  2-C ,  3-C ) :   1.5759
B(  2-C ,  5-C ) :   0.9295 B(  3-C ,  4-S ) :   1.1672 B(  3-C , 63-H ) :   0.9694
B(  5-C ,  6-O ) :   2.2768 B(  5-C ,  7-C ) :   0.9278 B(  7-C ,  8-C ) :   1.1863
B(  7-C , 16-C ) :   1.4448 B(  8-C ,  9-C ) :   1.4154 B(  9-C , 10-N ) :   0.9645
B(  9-C , 13-N ) :   0.9526 B( 10-N , 11-O ) :   1.4873 B( 10-N , 12-O ) :   1.5197
B( 11-O , 12-O ) :   0.2516 B( 13-N , 14-O ) :   1.4714 B( 13-N , 15-O ) :   1.4952
B( 14-O , 15-O ) :   0.2518 B( 16-C , 17-C ) :   1.3089 B( 16-C , 64-H ) :   0.9450
B( 17-C , 18-C ) :   1.3238 B( 17-C , 25-O ) :   1.0884 B( 18-C , 19-O ) :   1.1085
B( 18-C , 26-C ) :   1.2324 B( 19-O , 20-C ) :   1.0270 B( 20-C , 21-C ) :   1.2040
B( 20-C , 24-C ) :   1.5674 B( 21-C , 22-C ) :   1.5755 B( 21-C , 25-O ) :   1.0619
B( 22-C , 23-S ) :   1.1413 B( 22-C , 65-H ) :   0.9697 B( 23-S , 24-C ) :   1.1542
B( 24-C , 66-H ) :   0.9733 B( 26-C , 27-C ) :   1.5186 B( 26-C , 67-H ) :   0.9497
B( 27-C , 28-C ) :   1.2573 B( 27-C , 68-H ) :   0.9554 B( 28-C , 29-S ) :   1.0740
B( 28-C , 32-C ) :   1.4724 B( 29-S , 30-C ) :   1.1470 B( 30-C , 31-C ) :   1.4850
B( 30-C , 39-C ) :   1.2371 B( 31-C , 32-C ) :   1.3338 B( 31-C , 38-S ) :   0.9613
B( 32-C , 33-S ) :   1.0158 B( 33-S , 34-C ) :   1.0696 B( 33-S , 35-O ) :   0.1388
B( 34-C , 35-O ) :   2.1384 B( 34-C , 36-C ) :   0.7723 B( 36-C , 37-O ) :   2.1784
B( 36-C , 38-S ) :   1.0369 B( 37-O , 38-S ) :   0.1311 B( 39-C , 40-S ) :   1.0837
B( 39-C , 43-C ) :   1.3817 B( 40-S , 41-C ) :   1.1460 B( 41-C , 42-C ) :   1.3808
B( 41-C , 47-C ) :   1.1226 B( 42-C , 43-C ) :   1.3731 B( 42-C , 44-C ) :   0.9187
B( 43-C , 69-H ) :   0.9938 B( 44-C , 45-O ) :   2.2769 B( 44-C , 46-C ) :   0.9083
B( 46-C , 47-C ) :   1.5161 B( 46-C , 48-C ) :   1.2125 B( 47-C , 70-H ) :   1.0141
B( 48-C , 49-C ) :   1.4984 B( 48-C , 71-H ) :   0.9805 B( 49-C , 50-C ) :   1.2339
B( 49-C , 72-H ) :   0.9707 B( 50-C , 51-C ) :   1.4829 B( 50-C , 73-H ) :   0.9864
B( 51-C , 52-C ) :   1.1672 B( 51-C , 55-S ) :   1.0516 B( 52-C , 53-C ) :   1.5685
B( 52-C , 74-H ) :   1.0009 B( 53-C , 54-C ) :   1.1967 B( 53-C , 75-H ) :   0.9939
B( 54-C , 55-S ) :   1.0399 B( 54-C , 56-C ) :   1.5199 B( 56-C , 57-C ) :   1.1585
B( 56-C , 60-S ) :   1.0623 B( 57-C , 58-C ) :   1.6555 B( 57-C , 76-H ) :   0.9929
B( 58-C , 59-C ) :   1.0808 B( 58-C , 77-H ) :   0.9931 B( 59-C , 60-S ) :   1.0060
B( 59-C , 61-C ) :   1.8605 B( 61-C , 78-H ) :   0.9506 B( 61-C , 79-H ) :   0.9425

-----------------------------------------------------------------------------
         ABSORPTION SPECTRUM VIA TRANSITION ELECTRIC DIPOLE MOMENTS
-----------------------------------------------------------------------------
State   Energy  Wavelength   fosc         T2         TX        TY        TZ
        (cm-1)    (nm)                  (au**2)     (au)      (au)      (au)
-----------------------------------------------------------------------------
   0    8891.0   1124.7   1.378108129  51.02775  -3.92377   5.77875  -1.49594
   1   12536.8    797.7   0.133797232   3.51348   0.71420   0.26002  -1.71341
   2   16085.4    621.7   0.097518700   1.99586   0.82877  -0.34204  -1.09179
   3   18588.9    538.0   0.124539369   2.20561   1.33619  -0.57886  -0.29178
   4   19477.4    513.4   0.503692406   8.51352   1.51275  -2.49481   0.03205
   5   20351.6    491.4   0.219296892   3.54740  -0.24181  -1.53118  -1.06977
   6   21806.7    458.6   0.064739409   0.97736   0.76042  -0.62337  -0.10267
   7   23278.5    429.6   0.018736683   0.26498   0.25603  -0.41100   0.17468
   8   23636.6    423.1   0.380820996   5.30410  -0.29095   1.83331   1.36324
   9   24321.2    411.2   0.006835061   0.09252   0.09662   0.04429   0.28500
  10   24950.8    400.8   0.081272132   1.07234  -0.27316   0.98965   0.13536
  11   25159.2    397.5   0.102304798   1.33867  -0.94506   0.31104  -0.59059
  12   25681.0    389.4   0.039562003   0.50716   0.49800   0.02371  -0.50852
  13   25978.9    384.9   0.000103111   0.00131  -0.01419  -0.01796   0.02798
  14   26089.9    383.3   0.050628583   0.63885   0.59941   0.39749  -0.34865
  15   27038.1    369.8   0.014815206   0.18039  -0.25659  -0.20969  -0.26567
  16   27853.2    359.0   0.099766668   1.17919   0.05012  -0.63759   0.87759
  17   28364.0    352.6   0.060174917   0.69843   0.55343  -0.34938  -0.51969
  18   28726.9    348.1   0.043289115   0.49610  -0.04303   0.69472   0.10775
  19   29067.8    344.0   0.048518224   0.54950  -0.08474   0.37304   0.63495
  20   29259.7    341.8   0.009583557   0.10783   0.12909  -0.22344  -0.20307
  21   29560.1    338.3   0.005304275   0.05907   0.20686  -0.06858   0.10760
  22   29751.3    336.1   0.036763686   0.40681   0.01692  -0.23312   0.59344
  23   30133.8    331.9   0.027065698   0.29569   0.32319   0.05775   0.43348
  24   30205.3    331.1   0.225252546   2.45506   0.99802   0.35169   1.15556
  25   30790.4    324.8   0.002145303   0.02294   0.00932  -0.12291  -0.08800
  26   31001.2    322.6   0.052712129   0.55977  -0.16144   0.37747  -0.62547
  27   31153.4    321.0   0.114321380   1.20809   0.22176   0.65056   0.85772
  28   31207.5    320.4   0.036454240   0.38456   0.11912   0.07448  -0.60401
  29   31296.4    319.5   0.010904859   0.11471   0.28355  -0.17941   0.04605
  30   31603.7    316.4   0.078077936   0.81333   0.39635  -0.38131  -0.71473
  31   31943.9    313.0   0.025948037   0.26742  -0.32666  -0.39871  -0.04175
  32   32373.3    308.9   0.043169762   0.43900  -0.21364   0.33668  -0.52916
  33   32742.2    305.4   0.098992884   0.99534  -0.51893   0.80244  -0.28662
  34   32953.4    303.5   0.125967316   1.25844   0.37900  -0.61288   0.85976
  35   33474.5    298.7   0.166899479   1.64141  -0.29787  -0.27669  -1.21496
  36   33969.4    294.4   0.046856091   0.45410  -0.36293  -0.12479  -0.55390
  37   34045.6    293.7   0.000198517   0.00192   0.03246   0.02505   0.01543
  38   34135.2    293.0   0.045343584   0.43731   0.34021   0.24920   0.50937
  39   34699.4    288.2   0.240974846   2.28626  -0.99321  -0.06125  -1.13843
  40   34954.8    286.1   0.043935145   0.41379   0.46303  -0.36987   0.25018
  41   35034.3    285.4   0.051931367   0.48799  -0.22713   0.65462   0.08875
  42   35260.9    283.6   0.060200285   0.56206  -0.58218  -0.47098  -0.03604
  43   35579.3    281.1   0.050379118   0.46615  -0.02790   0.12968  -0.66974
  44   35942.6    278.2   0.114874340   1.05218   0.20853   0.44363   0.90105
  45   36250.9    275.9   0.046677543   0.42390  -0.28673   0.57302  -0.11548
  46   36572.3    273.4   0.010809775   0.09731   0.20339  -0.04066  -0.23299
  47   36756.4    272.1   0.019166554   0.17167   0.18206   0.16010   0.33599
  48   36864.9    271.3   0.088302428   0.78856   0.36547   0.22736   0.77672
  49   36944.3    270.7   0.036717030   0.32719   0.05581   0.47183   0.31851
  50   37117.8    269.4   0.064331677   0.57058  -0.06810   0.41392   0.62818
  51   37495.6    266.7   0.039373158   0.34570  -0.09509   0.29119  -0.50186
  52   37625.5    265.8   0.003081776   0.02696  -0.00608  -0.15639   0.04971
  53   37875.3    264.0   0.001518077   0.01320  -0.02509  -0.06481   0.09146
  54   38046.9    262.8   0.022372989   0.19359  -0.31946   0.16403   0.25422
  55   38148.5    262.1   0.040427632   0.34888   0.33726  -0.19543   0.44378
  56   38218.3    261.7   0.004637770   0.03995   0.03382  -0.03626   0.19363
  57   38339.6    260.8   0.001309700   0.01125  -0.02945  -0.06580  -0.07778
  58   38368.7    260.6   0.010054874   0.08627   0.17079   0.03660   0.23615
  59   38554.5    259.4   0.009778176   0.08349   0.07461   0.27530   0.04624
  60   38713.5    258.3   0.077413075   0.65831   0.69172  -0.42259  -0.03524
  61   38960.8    256.7   0.005672079   0.04793   0.05226  -0.12936   0.16871
  62   39048.3    256.1   0.014101956   0.11889  -0.03198   0.05477  -0.33892
  63   39123.8    255.6   0.032858432   0.27649  -0.49716   0.07481   0.15403
  64   39261.2    254.7   0.024512565   0.20554   0.26173   0.29089   0.22897
  65   39451.0    253.5   0.092506447   0.77195  -0.33028   0.17197   0.79580
  66   39875.5    250.8   0.021949929   0.18122   0.00749  -0.13440   0.40385
  67   40232.1    248.6   0.048425385   0.39626  -0.36536   0.48642   0.16173
  68   40308.5    248.1   0.021528678   0.17583  -0.16870   0.27275   0.27014

FINAL SINGLE POINT ENERGY     -5654.176045887550

DIPOLE MOMENT
-------------
                                X             Y             Z
Electronic contribution:    -41.26780      41.02198     -22.68075
Nuclear contribution   :     43.57543     -43.07221      25.74250
                        -----------------------------------------
Total Dipole Moment    :      2.30762      -2.05023       3.06175
                        -----------------------------------------
Magnitude (a.u.)       :      4.34775
Magnitude (Debye)      :     11.05109

Rotational constants in cm-1:     0.001937     0.000288     0.000269
Rotational constants in MHz :    58.056470     8.621194     8.065992

                             ****ORCA TERMINATED NORMALLY****
TOTAL RUN TIME: 0 days 0 hours 7 minutes 26 seconds 371 msec
