                         Program Version 4.2.0 -  RELEASE  -
|  1> # ORCA input file
|  2> # SCF done       -168.829839588382          0.000820023893
|  3> ! CAM-B3LYP def2-SVP def2/J RIJCOSX Grid4 TightSCF
|  4> %maxcore 5000
|  5> %tddft
|  6>     Mode sTDDFT
|  7>     Ethresh 5.0
|  8>     maxcore 5000
|  9> end
| 10>
| 11> %pal
| 12>   nprocs 6
| 13>   end
| 14> * xyz 0 1
| 15>    C        2.54651         1.09756         7.48733
| 16>    C        3.43480         0.48583         6.65298
| 17>    C        2.78351        -0.15188         5.54972
| 18>    C        1.43591        -0.00520         5.55233
| 19>    S        0.93096         0.91376         6.92079
| 20>    C        3.78803        -0.84110         4.73699
| 21>    O        3.59993        -1.45796         3.70587
| 22>    C        5.07468        -0.62157         5.42315
| 23>    C        4.86994         0.21868         6.58276
| 24>    C        5.73862         0.76894         7.49734
| 25>    N        5.22836         1.83071         8.37101
| 26>    O        4.85158         2.84198         7.83020
| 27>    O        5.19523         1.60196         9.55364
| 28>    N        7.09531         0.50134         7.78024
| 29>    O        7.70204         1.36418         8.38884
| 30>    O        7.59004        -0.55743         7.42362
| 31>    C        6.28359        -1.11865         4.97888
| 32>    C        6.60504        -1.92691         3.89001
| 33>    S        5.50579        -2.56785         2.68784
| 34>    C        6.79169        -3.46049         1.95393
| 35>    C        8.02889        -3.22048         2.55432
| 36>    C        7.92337        -2.37009         3.64688
| 37>    C        9.11159        -1.94835         4.45063
| 38>    C       10.34003        -2.79096         4.11611
| 39>    C       10.49625        -2.91154         2.59615
| 40>    C       11.80064        -3.58569         2.26774
| 41>    O       12.68993        -3.10495         1.62763
| 42>    C        9.33472        -3.75286         2.05764
| 43>    C        6.49212        -4.25756         0.79651
| 44>    C        6.93640        -5.53427         0.55941
| 45>    O        6.73557        -6.16599        -0.65299
| 46>    C        5.92898        -5.50737        -1.53460
| 47>    C        5.35892        -4.23813        -1.22723
| 48>    C        4.55971        -3.76605        -2.21542
| 49>    S        4.49339        -4.86535        -3.54102
| 50>    C        5.55374        -5.97172        -2.75178
| 51>    O        5.64745        -3.58636        -0.06558
| 52>    C        7.58118        -6.39707         1.49758
| 53>    C        7.52518        -6.26585         2.84723
| 54>    C        8.17027        -7.09071         3.79620
| 55>    S        7.98092        -6.67446         5.49843
| 56>    C        8.97400        -7.98548         5.95546
| 57>    C        9.42973        -8.70865         4.84600
| 58>    C        8.98410        -8.20685         3.63230
| 59>    C       10.26528        -9.81066         5.36221
| 60>    O       10.85154       -10.67033         4.75395
| 61>    C       10.23848        -9.63239         6.86777
| 62>    C        9.45973        -8.53838         7.16795
| 63>    C       10.94444       -10.52061         7.70320
| 64>    C       10.98950       -10.43824         9.06396
| 65>    C       11.69374       -11.31770         9.91078
| 66>    S       11.64691       -11.03769        11.64892
| 67>    C       12.64769       -12.39003        11.92152
| 68>    C       13.00082       -13.02838        10.73157
| 69>    C       12.47005       -12.43346         9.59897
| 70>    C       13.86526       -14.18117        11.08773
| 71>    O       14.36889       -14.98100        10.34112
| 72>    C       13.96302       -14.12001        12.59709
| 73>    C       13.23238       -13.05523        13.04160
| 74>    C       14.70358       -15.03049        13.42026
| 75>    C       15.41852       -16.06297        12.96699
| 76>    H        2.69395         1.63888         8.40021
| 77>    H        0.71526        -0.37843         4.85287
| 78>    H        7.13839        -0.89420         5.60017
| 79>    H        8.89985        -2.02593         5.51873
| 80>    H        9.32305        -0.89569         4.23754
| 81>    H       10.23207        -3.78996         4.54395
| 82>    H       11.22565        -2.32778         4.55254
| 83>    H       10.48682        -1.91622         2.14263
| 84>    H       11.88126        -4.60944         2.68800
| 85>    H        9.46168        -4.78770         2.39126
| 86>    H        9.33744        -3.76275         0.96552
| 87>    H        4.01512        -2.84568        -2.23776
| 88>    H        5.83675        -6.88921        -3.22334
| 89>    H        8.06425        -7.25404         1.05105
| 90>    H        6.94163        -5.45938         3.26791
| 91>    H        9.22532        -8.62544         2.67278
| 92>    H        9.24110        -8.14994         8.14517
| 93>    H       11.47666       -11.30922         7.18907
| 94>    H       10.45135        -9.63967         9.55652
| 95>    H       12.62964       -12.77924         8.59481
| 96>    H       13.10998       -12.75330        14.06640
| 97>    H       14.65363       -14.82815        14.48429
| 98>    H       15.48510       -16.28494        11.91653
| 99>    H       15.95339       -16.70986        13.64068
|100> *
|101>
|102>                          ****END OF INPUT****

CARTESIAN COORDINATES (ANGSTROEM)
---------------------------------
  C      2.546510    1.097560    7.487330
  C      3.434800    0.485830    6.652980
  C      2.783510   -0.151880    5.549720
  C      1.435910   -0.005200    5.552330
  S      0.930960    0.913760    6.920790
  C      3.788030   -0.841100    4.736990
  O      3.599930   -1.457960    3.705870
  C      5.074680   -0.621570    5.423150
  C      4.869940    0.218680    6.582760
  C      5.738620    0.768940    7.497340
  N      5.228360    1.830710    8.371010
  O      4.851580    2.841980    7.830200
  O      5.195230    1.601960    9.553640
  N      7.095310    0.501340    7.780240
  O      7.702040    1.364180    8.388840
  O      7.590040   -0.557430    7.423620
  C      6.283590   -1.118650    4.978880
  C      6.605040   -1.926910    3.890010
  S      5.505790   -2.567850    2.687840
  C      6.791690   -3.460490    1.953930
  C      8.028890   -3.220480    2.554320
  C      7.923370   -2.370090    3.646880
  C      9.111590   -1.948350    4.450630
  C     10.340030   -2.790960    4.116110
  C     10.496250   -2.911540    2.596150
  C     11.800640   -3.585690    2.267740
  O     12.689930   -3.104950    1.627630
  C      9.334720   -3.752860    2.057640
  C      6.492120   -4.257560    0.796510
  C      6.936400   -5.534270    0.559410
  O      6.735570   -6.165990   -0.652990
  C      5.928980   -5.507370   -1.534600
  C      5.358920   -4.238130   -1.227230
  C      4.559710   -3.766050   -2.215420
  S      4.493390   -4.865350   -3.541020
  C      5.553740   -5.971720   -2.751780
  O      5.647450   -3.586360   -0.065580
  C      7.581180   -6.397070    1.497580
  C      7.525180   -6.265850    2.847230
  C      8.170270   -7.090710    3.796200
  S      7.980920   -6.674460    5.498430
  C      8.974000   -7.985480    5.955460
  C      9.429730   -8.708650    4.846000
  C      8.984100   -8.206850    3.632300
  C     10.265280   -9.810660    5.362210
  O     10.851540  -10.670330    4.753950
  C     10.238480   -9.632390    6.867770
  C      9.459730   -8.538380    7.167950
  C     10.944440  -10.520610    7.703200
  C     10.989500  -10.438240    9.063960
  C     11.693740  -11.317700    9.910780
  S     11.646910  -11.037690   11.648920
  C     12.647690  -12.390030   11.921520
  C     13.000820  -13.028380   10.731570
  C     12.470050  -12.433460    9.598970
  C     13.865260  -14.181170   11.087730
  O     14.368890  -14.981000   10.341120
  C     13.963020  -14.120010   12.597090
  C     13.232380  -13.055230   13.041600
  C     14.703580  -15.030490   13.420260
  C     15.418520  -16.062970   12.966990
  H      2.693950    1.638880    8.400210
  H      0.715260   -0.378430    4.852870
  H      7.138390   -0.894200    5.600170
  H      8.899850   -2.025930    5.518730
  H      9.323050   -0.895690    4.237540
  H     10.232070   -3.789960    4.543950
  H     11.225650   -2.327780    4.552540
  H     10.486820   -1.916220    2.142630
  H     11.881260   -4.609440    2.688000
  H      9.461680   -4.787700    2.391260
  H      9.337440   -3.762750    0.965520
  H      4.015120   -2.845680   -2.237760
  H      5.836750   -6.889210   -3.223340
  H      8.064250   -7.254040    1.051050
  H      6.941630   -5.459380    3.267910
  H      9.225320   -8.625440    2.672780
  H      9.241100   -8.149940    8.145170
  H     11.476660  -11.309220    7.189070
  H     10.451350   -9.639670    9.556520
  H     12.629640  -12.779240    8.594810
  H     13.109980  -12.753300   14.066400
  H     14.653630  -14.828150   14.484290
  H     15.485100  -16.284940   11.916530
  H     15.953390  -16.709860   13.640680

 Total Charge           Charge          ....    0
 Multiplicity           Mult            ....    1
 Number of Electrons    NEL             ....  462
 Basis Dimension        Dim             ....  994

ORBITAL ENERGIES
----------------

  NO   OCC          E(Eh)            E(eV)
   0   2.0000     -88.983089     -2421.3529
   1   2.0000     -88.982930     -2421.3486
   2   2.0000     -88.980139     -2421.2727
   3   2.0000     -88.964822     -2420.8559
   4   2.0000     -88.959311     -2420.7059
   5   2.0000     -19.277884      -524.5779
   6   2.0000     -19.276845      -524.5496
   7   2.0000     -19.253138      -523.9045
   8   2.0000     -19.253040      -523.9018
   9   2.0000     -19.248671      -523.7830
  10   2.0000     -19.247937      -523.7630
  11   2.0000     -19.232586      -523.3453
  12   2.0000     -19.229573      -523.2633
  13   2.0000     -19.219314      -522.9841
  14   2.0000     -19.214810      -522.8616
  15   2.0000     -14.661090      -398.9485
  16   2.0000     -14.657386      -398.8477
  17   2.0000     -10.373807      -282.2856
  18   2.0000     -10.373214      -282.2695
  19   2.0000     -10.371572      -282.2248
  20   2.0000     -10.364142      -282.0226
  21   2.0000     -10.356469      -281.8138
  22   2.0000     -10.354555      -281.7618
  23   2.0000     -10.352233      -281.6986
  24   2.0000     -10.351687      -281.6837
  25   2.0000     -10.342398      -281.4310
  26   2.0000     -10.341792      -281.4145
  27   2.0000     -10.323601      -280.9195
  28   2.0000     -10.321526      -280.8630
  29   2.0000     -10.320987      -280.8483
  30   2.0000     -10.317978      -280.7665
  31   2.0000     -10.316950      -280.7385
  32   2.0000     -10.316350      -280.7221
  33   2.0000     -10.315983      -280.7122
  34   2.0000     -10.314596      -280.6744
  35   2.0000     -10.310604      -280.5658
  36   2.0000     -10.305738      -280.4334
  37   2.0000     -10.303525      -280.3732
  38   2.0000     -10.302628      -280.3488
  39   2.0000     -10.301240      -280.3110
  40   2.0000     -10.300955      -280.3032
  41   2.0000     -10.298901      -280.2474
  42   2.0000     -10.298281      -280.2305
  43   2.0000     -10.297926      -280.2208
  44   2.0000     -10.296125      -280.1718
  45   2.0000     -10.295594      -280.1574
  46   2.0000     -10.294265      -280.1212
  47   2.0000     -10.294118      -280.1172
  48   2.0000     -10.291747      -280.0527
  49   2.0000     -10.291187      -280.0374
  50   2.0000     -10.290660      -280.0231
  51   2.0000     -10.290399      -280.0160
  52   2.0000     -10.285049      -279.8704
  53   2.0000     -10.284418      -279.8532
  54   2.0000     -10.284111      -279.8449
  55   2.0000     -10.282273      -279.7949
  56   2.0000     -10.282098      -279.7901
  57   2.0000     -10.281377      -279.7705
  58   2.0000     -10.279424      -279.7174
  59   2.0000     -10.277805      -279.6733
  60   2.0000     -10.265501      -279.3385
  61   2.0000      -8.078907      -219.8382
  62   2.0000      -8.078018      -219.8141
  63   2.0000      -8.075188      -219.7370
  64   2.0000      -8.057916      -219.2670
  65   2.0000      -8.055021      -219.1883
  66   2.0000      -6.048167      -164.5790
  67   2.0000      -6.047030      -164.5480
  68   2.0000      -6.044181      -164.4705
  69   2.0000      -6.043433      -164.4502
  70   2.0000      -6.043072      -164.4403
  71   2.0000      -6.041566      -164.3994
  72   2.0000      -6.040630      -164.3739
  73   2.0000      -6.040266      -164.3640
  74   2.0000      -6.037802      -164.2969
  75   2.0000      -6.027261      -164.0101
  76   2.0000      -6.024523      -163.9356
  77   2.0000      -6.022704      -163.8861
  78   2.0000      -6.020345      -163.8219
  79   2.0000      -6.020252      -163.8194
  80   2.0000      -6.016748      -163.7240
  81   2.0000      -1.342262       -36.5248
  82   2.0000      -1.322884       -35.9975
  83   2.0000      -1.204446       -32.7746
  84   2.0000      -1.167341       -31.7650
  85   2.0000      -1.156114       -31.4595
  86   2.0000      -1.145743       -31.1772
  87   2.0000      -1.143004       -31.1027
  88   2.0000      -1.141183       -31.0532
  89   2.0000      -1.136514       -30.9261
  90   2.0000      -1.129623       -30.7386
  91   2.0000      -1.020905       -27.7802
  92   2.0000      -1.013698       -27.5841
  93   2.0000      -1.010514       -27.4975
  94   2.0000      -1.004884       -27.3443
  95   2.0000      -0.987126       -26.8611
  96   2.0000      -0.979043       -26.6411
  97   2.0000      -0.954219       -25.9656
  98   2.0000      -0.945607       -25.7313
  99   2.0000      -0.940105       -25.5816
 100   2.0000      -0.934728       -25.4352
 101   2.0000      -0.924757       -25.1639
 102   2.0000      -0.901209       -24.5232
 103   2.0000      -0.891802       -24.2672
 104   2.0000      -0.870272       -23.6813
 105   2.0000      -0.864805       -23.5325
 106   2.0000      -0.859392       -23.3852
 107   2.0000      -0.855396       -23.2765
 108   2.0000      -0.852596       -23.2003
 109   2.0000      -0.850407       -23.1407
 110   2.0000      -0.844151       -22.9705
 111   2.0000      -0.840926       -22.8828
 112   2.0000      -0.817226       -22.2379
 113   2.0000      -0.814955       -22.1761
 114   2.0000      -0.807673       -21.9779
 115   2.0000      -0.805050       -21.9065
 116   2.0000      -0.785369       -21.3710
 117   2.0000      -0.774943       -21.0873
 118   2.0000      -0.762232       -20.7414
 119   2.0000      -0.760843       -20.7036
 120   2.0000      -0.752442       -20.4750
 121   2.0000      -0.746841       -20.3226
 122   2.0000      -0.738998       -20.1091
 123   2.0000      -0.727922       -19.8078
 124   2.0000      -0.709118       -19.2961
 125   2.0000      -0.698250       -19.0003
 126   2.0000      -0.689255       -18.7556
 127   2.0000      -0.684475       -18.6255
 128   2.0000      -0.681863       -18.5544
 129   2.0000      -0.674703       -18.3596
 130   2.0000      -0.667587       -18.1660
 131   2.0000      -0.666220       -18.1288
 132   2.0000      -0.657865       -17.9014
 133   2.0000      -0.650861       -17.7108
 134   2.0000      -0.648752       -17.6534
 135   2.0000      -0.647391       -17.6164
 136   2.0000      -0.641923       -17.4676
 137   2.0000      -0.636122       -17.3097
 138   2.0000      -0.634531       -17.2665
 139   2.0000      -0.629615       -17.1327
 140   2.0000      -0.624364       -16.9898
 141   2.0000      -0.620266       -16.8783
 142   2.0000      -0.615909       -16.7597
 143   2.0000      -0.612928       -16.6786
 144   2.0000      -0.610336       -16.6081
 145   2.0000      -0.603364       -16.4184
 146   2.0000      -0.595160       -16.1951
 147   2.0000      -0.591621       -16.0988
 148   2.0000      -0.590047       -16.0560
 149   2.0000      -0.585916       -15.9436
 150   2.0000      -0.576093       -15.6763
 151   2.0000      -0.572579       -15.5807
 152   2.0000      -0.569846       -15.5063
 153   2.0000      -0.564482       -15.3603
 154   2.0000      -0.561801       -15.2874
 155   2.0000      -0.558791       -15.2055
 156   2.0000      -0.554251       -15.0819
 157   2.0000      -0.546005       -14.8576
 158   2.0000      -0.543795       -14.7974
 159   2.0000      -0.537588       -14.6285
 160   2.0000      -0.536815       -14.6075
 161   2.0000      -0.535075       -14.5601
 162   2.0000      -0.532498       -14.4900
 163   2.0000      -0.531993       -14.4763
 164   2.0000      -0.531663       -14.4673
 165   2.0000      -0.529424       -14.4063
 166   2.0000      -0.528005       -14.3677
 167   2.0000      -0.525110       -14.2890
 168   2.0000      -0.516126       -14.0445
 169   2.0000      -0.514169       -13.9912
 170   2.0000      -0.509776       -13.8717
 171   2.0000      -0.506833       -13.7916
 172   2.0000      -0.504422       -13.7260
 173   2.0000      -0.502502       -13.6738
 174   2.0000      -0.499912       -13.6033
 175   2.0000      -0.498562       -13.5666
 176   2.0000      -0.496446       -13.5090
 177   2.0000      -0.491817       -13.3830
 178   2.0000      -0.491022       -13.3614
 179   2.0000      -0.485176       -13.2023
 180   2.0000      -0.483098       -13.1458
 181   2.0000      -0.481866       -13.1122
 182   2.0000      -0.477975       -13.0064
 183   2.0000      -0.477875       -13.0036
 184   2.0000      -0.475681       -12.9439
 185   2.0000      -0.475151       -12.9295
 186   2.0000      -0.473966       -12.8973
 187   2.0000      -0.471225       -12.8227
 188   2.0000      -0.467428       -12.7194
 189   2.0000      -0.460569       -12.5327
 190   2.0000      -0.457935       -12.4611
 191   2.0000      -0.452734       -12.3195
 192   2.0000      -0.449092       -12.2204
 193   2.0000      -0.444778       -12.1030
 194   2.0000      -0.443059       -12.0562
 195   2.0000      -0.441993       -12.0272
 196   2.0000      -0.437852       -11.9146
 197   2.0000      -0.436289       -11.8720
 198   2.0000      -0.434792       -11.8313
 199   2.0000      -0.434224       -11.8158
 200   2.0000      -0.431368       -11.7381
 201   2.0000      -0.426324       -11.6009
 202   2.0000      -0.424172       -11.5423
 203   2.0000      -0.416540       -11.3346
 204   2.0000      -0.409851       -11.1526
 205   2.0000      -0.408855       -11.1255
 206   2.0000      -0.404562       -11.0087
 207   2.0000      -0.399413       -10.8686
 208   2.0000      -0.397415       -10.8142
 209   2.0000      -0.393059       -10.6957
 210   2.0000      -0.387783       -10.5521
 211   2.0000      -0.379307       -10.3215
 212   2.0000      -0.375659       -10.2222
 213   2.0000      -0.370190       -10.0734
 214   2.0000      -0.368834       -10.0365
 215   2.0000      -0.348708        -9.4888
 216   2.0000      -0.345306        -9.3962
 217   2.0000      -0.344488        -9.3740
 218   2.0000      -0.342377        -9.3166
 219   2.0000      -0.338259        -9.2045
 220   2.0000      -0.336789        -9.1645
 221   2.0000      -0.334839        -9.1114
 222   2.0000      -0.326143        -8.8748
 223   2.0000      -0.324536        -8.8311
 224   2.0000      -0.318533        -8.6677
 225   2.0000      -0.317241        -8.6326
 226   2.0000      -0.307892        -8.3782
 227   2.0000      -0.287328        -7.8186
 228   2.0000      -0.285184        -7.7603
 229   2.0000      -0.255020        -6.9394
 230   2.0000      -0.229465        -6.2441
 231   0.0000      -0.102772        -2.7966
 232   0.0000      -0.093515        -2.5447
 233   0.0000      -0.071122        -1.9353
 234   0.0000      -0.059560        -1.6207
 235   0.0000      -0.040857        -1.1118

MULLIKEN ATOMIC CHARGES
-----------------------
   0 C :   -0.130076
   1 C :    0.045369
   2 C :    0.017310
   3 C :   -0.129842
   4 S :    0.154451
   5 C :    0.176837
   6 O :   -0.175397
   7 C :   -0.084838
   8 C :    0.235925
   9 C :    0.029527
  10 N :    0.189678
  11 O :   -0.211576
  12 O :   -0.208478
  13 N :    0.270420
  14 O :   -0.233618
  15 O :   -0.262391
  16 C :   -0.051119
  17 C :   -0.080125
  18 S :    0.237123
  19 C :   -0.205308
  20 C :   -0.042038
  21 C :   -0.123821
  22 C :    0.145508
  23 C :    0.039415
  24 C :   -0.112969
  25 C :    0.162468
  26 O :   -0.165080
  27 C :    0.180722
  28 C :    0.097629
  29 C :    0.176439
  30 O :   -0.250983
  31 C :    0.206137
  32 C :    0.225347
  33 C :   -0.171959
  34 S :    0.111672
  35 C :   -0.168728
  36 O :   -0.247625
  37 C :   -0.042473
  38 C :    0.071899
  39 C :   -0.125834
  40 S :    0.169718
  41 C :   -0.045228
  42 C :   -0.012051
  43 C :    0.002678
  44 C :    0.158042
  45 O :   -0.109599
  46 C :   -0.027419
  47 C :   -0.041580
  48 C :   -0.004433
  49 C :    0.068488
  50 C :   -0.101316
  51 S :    0.169719
  52 C :   -0.045119
  53 C :   -0.018668
  54 C :    0.001771
  55 C :    0.169162
  56 O :   -0.109820
  57 C :   -0.017864
  58 C :   -0.036383
  59 C :   -0.032567
  60 C :    0.002440
  61 H :    0.048877
  62 H :    0.038139
  63 H :   -0.004938
  64 H :    0.052101
  65 H :    0.029163
  66 H :    0.004198
  67 H :    0.019154
  68 H :    0.010539
  69 H :   -0.016513
  70 H :    0.023520
  71 H :    0.023120
  72 H :    0.028424
  73 H :    0.026037
  74 H :    0.001011
  75 H :    0.017332
  76 H :   -0.002532
  77 H :   -0.009765
  78 H :   -0.002395
  79 H :   -0.020430
  80 H :    0.002002
  81 H :   -0.006320
  82 H :   -0.017284
  83 H :    0.044603
  84 H :    0.022392
Sum of atomic charges:   -0.0000000

LOEWDIN ATOMIC CHARGES
----------------------
   0 C :   -0.151434
   1 C :   -0.064655
   2 C :   -0.088714
   3 C :   -0.142353
   4 S :    0.486783
   5 C :    0.083773
   6 O :   -0.164555
   7 C :   -0.117910
   8 C :    0.059097
   9 C :   -0.075011
  10 N :    0.268534
  11 O :   -0.180685
  12 O :   -0.181521
  13 N :    0.282616
  14 O :   -0.198984
  15 O :   -0.220642
  16 C :    0.063487
  17 C :   -0.198721
  18 S :    0.530410
  19 C :   -0.167695
  20 C :   -0.064510
  21 C :   -0.009993
  22 C :   -0.025557
  23 C :   -0.015866
  24 C :   -0.064772
  25 C :    0.114719
  26 O :   -0.118294
  27 C :   -0.018635
  28 C :   -0.012579
  29 C :    0.031018
  30 O :   -0.056782
  31 C :   -0.008870
  32 C :   -0.008640
  33 C :   -0.207206
  34 S :    0.438887
  35 C :   -0.208421
  36 O :   -0.058507
  37 C :   -0.043391
  38 C :   -0.021735
  39 C :   -0.183147
  40 S :    0.466027
  41 C :   -0.162959
  42 C :   -0.110226
  43 C :   -0.010123
  44 C :    0.099563
  45 O :   -0.100909
  46 C :   -0.048672
  47 C :   -0.019100
  48 C :   -0.028221
  49 C :   -0.020402
  50 C :   -0.173081
  51 S :    0.467821
  52 C :   -0.174104
  53 C :   -0.101763
  54 C :   -0.009061
  55 C :    0.103877
  56 O :   -0.096646
  57 C :   -0.048890
  58 C :   -0.004249
  59 C :   -0.035456
  60 C :   -0.018160
  61 H :    0.029424
  62 H :    0.035755
  63 H :    0.034243
  64 H :    0.044220
  65 H :    0.042230
  66 H :    0.021649
  67 H :    0.031353
  68 H :    0.031689
  69 H :   -0.009520
  70 H :    0.031762
  71 H :    0.037598
  72 H :    0.030931
  73 H :    0.029765
  74 H :    0.035683
  75 H :    0.034231
  76 H :    0.039374
  77 H :    0.028942
  78 H :    0.033504
  79 H :    0.026408
  80 H :    0.040627
  81 H :    0.032391
  82 H :    0.029651
  83 H :    0.028192
  84 H :    0.025088

  Mayer bond orders larger than 0.100000
B(  0-C ,  1-C ) :   1.5276 B(  0-C ,  4-S ) :   1.1939 B(  0-C , 61-H ) :   0.9577
B(  1-C ,  2-C ) :   1.2422 B(  1-C ,  8-C ) :   1.0154 B(  2-C ,  3-C ) :   1.5546
B(  2-C ,  5-C ) :   0.9676 B(  3-C ,  4-S ) :   1.1799 B(  3-C , 62-H ) :   0.9709
B(  5-C ,  6-O ) :   2.1322 B(  5-C ,  7-C ) :   0.9758 B(  7-C ,  8-C ) :   1.1294
B(  7-C , 16-C ) :   1.4603 B(  8-C ,  9-C ) :   1.5359 B(  9-C , 10-N ) :   0.8583
B(  9-C , 13-N ) :   0.9871 B( 10-N , 11-O ) :   1.5382 B( 10-N , 12-O ) :   1.5360
B( 11-O , 12-O ) :   0.2933 B( 13-N , 14-O ) :   1.5187 B( 13-N , 15-O ) :   1.4450
B( 14-O , 15-O ) :   0.2429 B( 15-O , 63-H ) :   0.1022 B( 16-C , 17-C ) :   1.3100
B( 16-C , 63-H ) :   0.9239 B( 17-C , 18-S ) :   1.0693 B( 17-C , 21-C ) :   1.3431
B( 18-S , 19-C ) :   1.1505 B( 19-C , 20-C ) :   1.4363 B( 19-C , 28-C ) :   1.0521
B( 20-C , 21-C ) :   1.4145 B( 20-C , 27-C ) :   1.0602 B( 21-C , 22-C ) :   1.0518
B( 22-C , 23-C ) :   1.0955 B( 22-C , 64-H ) :   0.9028 B( 22-C , 65-H ) :   0.9000
B( 23-C , 24-C ) :   1.0148 B( 23-C , 66-H ) :   0.9350 B( 23-C , 67-H ) :   0.9344
B( 24-C , 25-C ) :   0.9350 B( 24-C , 27-C ) :   1.0282 B( 24-C , 68-H ) :   0.9240
B( 25-C , 26-O ) :   2.2258 B( 25-C , 69-H ) :   0.9341 B( 27-C , 70-H ) :   0.8839
B( 27-C , 71-H ) :   0.9028 B( 28-C , 29-C ) :   1.5351 B( 28-C , 36-O ) :   1.0855
B( 29-C , 30-O ) :   1.0535 B( 29-C , 37-C ) :   1.1450 B( 30-O , 31-C ) :   1.0511
B( 31-C , 32-C ) :   1.2023 B( 31-C , 35-C ) :   1.5759 B( 32-C , 33-C ) :   1.5751
B( 32-C , 36-O ) :   1.0501 B( 33-C , 34-S ) :   1.1421 B( 33-C , 72-H ) :   0.9707
B( 34-S , 35-C ) :   1.1433 B( 35-C , 73-H ) :   0.9717 B( 37-C , 38-C ) :   1.6837
B( 37-C , 74-H ) :   0.9528 B( 38-C , 39-C ) :   1.1509 B( 38-C , 75-H ) :   0.9388
B( 39-C , 40-S ) :   1.1004 B( 39-C , 43-C ) :   1.4372 B( 40-S , 41-C ) :   1.1433
B( 41-C , 42-C ) :   1.4324 B( 41-C , 47-C ) :   1.0772 B( 42-C , 43-C ) :   1.3241
B( 42-C , 44-C ) :   0.9200 B( 43-C , 76-H ) :   1.0020 B( 44-C , 45-O ) :   2.2743
B( 44-C , 46-C ) :   0.9103 B( 46-C , 47-C ) :   1.5931 B( 46-C , 48-C ) :   1.1725
B( 47-C , 77-H ) :   1.0144 B( 48-C , 49-C ) :   1.6144 B( 48-C , 78-H ) :   0.9710
B( 49-C , 50-C ) :   1.1539 B( 49-C , 79-H ) :   0.9598 B( 50-C , 51-S ) :   1.1049
B( 50-C , 54-C ) :   1.4244 B( 51-S , 52-C ) :   1.1466 B( 52-C , 53-C ) :   1.4507
B( 52-C , 58-C ) :   1.0414 B( 53-C , 54-C ) :   1.3336 B( 53-C , 55-C ) :   0.9258
B( 54-C , 80-H ) :   1.0018 B( 55-C , 56-O ) :   2.2483 B( 55-C , 57-C ) :   0.9162
B( 57-C , 58-C ) :   1.6405 B( 57-C , 59-C ) :   1.1272 B( 58-C , 81-H ) :   1.0216
B( 59-C , 60-C ) :   1.8994 B( 59-C , 82-H ) :   0.9681 B( 60-C , 83-H ) :   0.9417
B( 60-C , 84-H ) :   0.9474

-----------------------------------------------------------------------------
         ABSORPTION SPECTRUM VIA TRANSITION ELECTRIC DIPOLE MOMENTS
-----------------------------------------------------------------------------
State   Energy  Wavelength   fosc         T2         TX        TY        TZ
        (cm-1)    (nm)                  (au**2)     (au)      (au)      (au)
-----------------------------------------------------------------------------
   0   12639.3    791.2   0.887416730  23.11431  -2.33428   3.73696  -1.92370
   1   15114.3    661.6   0.336166368   7.32222  -0.08700  -1.00012  -2.51285
   2   17685.9    565.4   0.043253521   0.80514   0.47404  -0.58173   0.49196
   3   19930.8    501.7   0.154790020   2.55678  -0.38148  -0.06974  -1.55125
   4   22293.4    448.6   0.151417140   2.23601  -0.38942   0.93605   1.09917
   5   22781.2    439.0   0.245469629   3.54729  -0.64960   0.36080  -1.73064
   6   23907.5    418.3   0.318693394   4.38848   1.06232  -1.77307   0.34086
   7   25264.6    395.8   0.173459462   2.26028  -0.10703   0.33679  -1.46130
   8   26170.6    382.1   0.000079318   0.00100   0.01269   0.01733  -0.02316
   9   26514.5    377.2   0.259020817   3.21608  -0.30813   0.39236  -1.72255
  10   26629.4    375.5   0.003644383   0.04505  -0.04873   0.01323  -0.20617
  11   28094.1    355.9   0.009076994   0.10637  -0.14812   0.23258   0.17417
  12   28203.8    354.6   0.010095756   0.11784  -0.07490   0.16465  -0.29176
  13   28807.6    347.1   0.132103251   1.50967  -0.82659   0.30721  -0.85560
  14   29236.4    342.0   0.068910367   0.77596  -0.41160  -0.22764   0.74479
  15   29422.9    339.9   0.021866082   0.24466   0.22601  -0.21052  -0.38634
  16   29643.1    337.3   0.003635883   0.04038  -0.02120   0.19705   0.03318
  17   30048.4    332.8   0.076072186   0.83345   0.84996  -0.20841  -0.25995
  18   30264.9    330.4   0.038476044   0.41853   0.12217   0.13827  -0.62007
  19   30875.3    323.9   0.370834896   3.95408   1.47091  -1.01143   0.87608
  20   31226.2    320.2   0.039405572   0.41545   0.49966  -0.25485  -0.31754
  21   31716.2    315.3   0.036062356   0.37432  -0.44387   0.41992   0.03119
  22   32232.3    310.2   0.103025688   1.05228  -0.99141  -0.03771   0.26069
  23   32498.8    307.7   0.001289042   0.01306   0.02462   0.02922  -0.10769
  24   32979.0    303.2   0.087025307   0.86873  -0.52370   0.31063  -0.70567
  25   33283.1    300.5   0.026972730   0.26679   0.43081   0.16194   0.23446
  26   33483.8    298.7   0.050643482   0.49793   0.67549   0.17297   0.10827
  27   33891.9    295.1   0.013640841   0.13250  -0.09201   0.22057   0.27456
  28   34055.5    293.6   0.031333988   0.30290   0.53783   0.06065   0.09984
  29   34169.0    292.7   0.060135957   0.57940   0.66974  -0.36073  -0.02679
  30   34951.6    286.1   0.010138681   0.09550  -0.20420   0.02576   0.23051
  31   35229.6    283.9   0.052365877   0.48935   0.52318   0.01970  -0.46394
  32   36135.7    276.7   0.073565127   0.67021  -0.76910  -0.06375  -0.27319
  33   36624.8    273.0   0.035147155   0.31593  -0.42876  -0.26520   0.24852
  34   36820.5    271.6   0.038350416   0.34289  -0.17147  -0.36838  -0.42165
  35   36982.9    270.4   0.026515397   0.23603   0.20592  -0.30482   0.31735
  36   37071.0    269.8   0.271003531   2.40667  -1.00475   1.12596  -0.35966
  37   37309.2    268.0   0.029337538   0.25887   0.35565  -0.34093   0.12708
  38   37818.9    264.4   0.035353281   0.30775  -0.29021   0.30561   0.36073
  39   38207.0    261.7   0.103663261   0.89322  -0.65647   0.13645  -0.66607
  40   38218.3    261.7   0.033741865   0.29065   0.18567   0.20078   0.46461
  41   38343.5    260.8   0.124731492   1.07093  -0.78936  -0.01420  -0.66906
  42   38348.0    260.8   0.000371604   0.00319  -0.04942  -0.02350  -0.01398
  43   38659.9    258.7   0.030082296   0.25617  -0.40765  -0.11561  -0.27681
  44   39338.2    254.2   0.054540624   0.45644  -0.05089   0.33554   0.58418
  45   39759.6    251.5   0.001064420   0.00881  -0.01380   0.09053  -0.02069
  46   39774.6    251.4   0.016382686   0.13560  -0.28963   0.21565   0.07216
  47   40013.7    249.9   0.102009075   0.83928  -0.57040   0.67396  -0.24435
  48   40213.3    248.7   0.028154910   0.23049  -0.05132   0.39050   0.27454
  49   40246.3    248.5   0.001090620   0.00892  -0.03564  -0.05511  -0.06793

FINAL SINGLE POINT ENERGY     -4539.702265551078

DIPOLE MOMENT
-------------
                                X             Y             Z
Electronic contribution:    -37.49637      28.22719      -5.44392
Nuclear contribution   :     35.87048     -29.60658       6.05445
                        -----------------------------------------
Total Dipole Moment    :     -1.62589      -1.37940       0.61053
                        -----------------------------------------
Magnitude (a.u.)       :      2.21788
Magnitude (Debye)      :      5.63740

Rotational constants in cm-1:     0.001189     0.000436     0.000352
Rotational constants in MHz :    35.648885    13.084600    10.549740

                             ****ORCA TERMINATED NORMALLY****
TOTAL RUN TIME: 0 days 0 hours 7 minutes 7 seconds 911 msec
