                         Program Version 4.2.0 -  RELEASE  -
|  1> # ORCA input file
|  2> # SCF done       -178.027509763467          0.000984326613
|  3> ! CAM-B3LYP def2-SVP def2/J RIJCOSX Grid4 TightSCF
|  4> %maxcore 5000
|  5> %tddft
|  6>     Mode sTDDFT
|  7>     Ethresh 5.0
|  8>     maxcore 5000
|  9> end
| 10>
| 11> %pal
| 12>   nprocs 6
| 13>   end
| 14> * xyz 0 1
| 15>    C        5.55428        -4.13002         5.47428
| 16>    C        5.69903        -3.31738         4.39173
| 17>    C        4.84453        -3.70333         3.30311
| 18>    C        4.08213        -4.79066         3.57500
| 19>    S        4.38898        -5.36358         5.17382
| 20>    C        5.03367        -2.78797         2.17162
| 21>    O        4.46100        -2.79390         1.10293
| 22>    C        6.01830        -1.79598         2.66610
| 23>    C        6.50401        -2.18864         3.95859
| 24>    C        7.62370        -1.65656         4.56583
| 25>    N        7.97946        -1.89896         5.92368
| 26>    O        9.15191        -1.82137         6.22322
| 27>    O        7.08289        -2.18949         6.69463
| 28>    N        8.57574        -0.87349         3.82649
| 29>    O        9.07115         0.08474         4.36840
| 30>    O        8.82700        -1.24203         2.69032
| 31>    C        6.18708        -0.54501         2.10522
| 32>    C        5.78433        -0.11400         0.82953
| 33>    C        5.72486        -0.87863        -0.33457
| 34>    O        5.11943        -0.43532        -1.45714
| 35>    C        4.61926         0.83371        -1.42623
| 36>    C        4.82787         1.68215        -0.30137
| 37>    C        4.31555         2.92446        -0.48161
| 38>    S        3.56552         3.06894        -2.02892
| 39>    C        3.94938         1.44475        -2.43757
| 40>    O        5.45413         1.23434         0.82044
| 41>    C        6.35993        -2.14469        -0.54537
| 42>    C        7.46074        -2.57338         0.11559
| 43>    C        8.11051        -3.82040        -0.05655
| 44>    S        9.44228        -4.19200         0.99319
| 45>    C        9.70491        -5.74272         0.24977
| 46>    C        8.76012        -5.96390        -0.74730
| 47>    C        7.87293        -4.87887        -0.93473
| 48>    C        6.89220        -4.84343        -1.94487
| 49>    N        6.12402        -4.79974        -2.79494
| 50>    C        8.61406        -7.25038        -1.49710
| 51>    F        8.83020        -8.32595        -0.71615
| 52>    F        7.39443        -7.42117        -2.01373
| 53>    F        9.47781        -7.35890        -2.52904
| 54>    C       10.79036        -6.53042         0.72456
| 55>    C       11.44986        -7.49194         0.03009
| 56>    C       12.51701        -8.26636         0.54226
| 57>    S       13.32148        -9.39930        -0.53641
| 58>    C       14.35252        -9.90771         0.72136
| 59>    C       14.08660        -9.23526         1.92067
| 60>    C       13.05861        -8.31095         1.82338
| 61>    C       15.01981        -9.76556         2.93263
| 62>    O       15.12939        -9.47453         4.09665
| 63>    C       15.84269       -10.79719         2.18357
| 64>    C       15.41218       -10.84456         0.88152
| 65>    C       16.85235       -11.51781         2.86160
| 66>    C       17.66241       -12.45237         2.30012
| 67>    C       18.66734       -13.17568         2.99457
| 68>    C       19.02541       -13.12837         4.31836
| 69>    C       20.07981       -14.00700         4.65476
| 70>    C       20.53832       -14.74930         3.53146
| 71>    S       19.64423       -14.33285         2.09871
| 72>    C       21.56045       -15.66859         3.61900
| 73>    C       22.15409       -15.86676         4.86312
| 74>    C       21.69659       -15.12748         5.98638
| 75>    C       20.67676       -14.20728         5.90145
| 76>    S       22.59103       -15.55305         7.42246
| 77>    C       23.54091       -16.68581         6.52150
| 78>    C       23.21522       -16.75093         5.21360
| 79>    H        6.01720        -4.06468         6.43854
| 80>    H        3.37348        -5.29130         2.94612
| 81>    H        6.49900         0.26646         2.75542
| 82>    H        4.33587         3.75197         0.19590
| 83>    H        3.66870         1.03136        -3.38374
| 84>    H        5.94360        -2.71228        -1.36426
| 85>    H        7.91706        -1.93994         0.86484
| 86>    H       11.13808        -6.26443         1.71295
| 87>    H       11.19187        -7.69540        -0.99804
| 88>    H       12.70909        -7.70340         2.63734
| 89>    H       15.79134       -11.47482         0.09862
| 90>    H       16.95355       -11.27261         3.91050
| 91>    H       17.55758       -12.68271         1.24848
| 92>    H       18.55027       -12.48733         5.03842
| 93>    H       21.89400       -16.22082         2.75465
| 94>    H       20.34295       -13.65494         6.76542
| 95>    H       24.29783       -17.24188         7.03989
| 96>    H       23.70002       -17.39868         4.50550
| 97> *
| 98>
| 99>                          ****END OF INPUT****

CARTESIAN COORDINATES (ANGSTROEM)
---------------------------------
  C      5.554280   -4.130020    5.474280
  C      5.699030   -3.317380    4.391730
  C      4.844530   -3.703330    3.303110
  C      4.082130   -4.790660    3.575000
  S      4.388980   -5.363580    5.173820
  C      5.033670   -2.787970    2.171620
  O      4.461000   -2.793900    1.102930
  C      6.018300   -1.795980    2.666100
  C      6.504010   -2.188640    3.958590
  C      7.623700   -1.656560    4.565830
  N      7.979460   -1.898960    5.923680
  O      9.151910   -1.821370    6.223220
  O      7.082890   -2.189490    6.694630
  N      8.575740   -0.873490    3.826490
  O      9.071150    0.084740    4.368400
  O      8.827000   -1.242030    2.690320
  C      6.187080   -0.545010    2.105220
  C      5.784330   -0.114000    0.829530
  C      5.724860   -0.878630   -0.334570
  O      5.119430   -0.435320   -1.457140
  C      4.619260    0.833710   -1.426230
  C      4.827870    1.682150   -0.301370
  C      4.315550    2.924460   -0.481610
  S      3.565520    3.068940   -2.028920
  C      3.949380    1.444750   -2.437570
  O      5.454130    1.234340    0.820440
  C      6.359930   -2.144690   -0.545370
  C      7.460740   -2.573380    0.115590
  C      8.110510   -3.820400   -0.056550
  S      9.442280   -4.192000    0.993190
  C      9.704910   -5.742720    0.249770
  C      8.760120   -5.963900   -0.747300
  C      7.872930   -4.878870   -0.934730
  C      6.892200   -4.843430   -1.944870
  N      6.124020   -4.799740   -2.794940
  C      8.614060   -7.250380   -1.497100
  F      8.830200   -8.325950   -0.716150
  F      7.394430   -7.421170   -2.013730
  F      9.477810   -7.358900   -2.529040
  C     10.790360   -6.530420    0.724560
  C     11.449860   -7.491940    0.030090
  C     12.517010   -8.266360    0.542260
  S     13.321480   -9.399300   -0.536410
  C     14.352520   -9.907710    0.721360
  C     14.086600   -9.235260    1.920670
  C     13.058610   -8.310950    1.823380
  C     15.019810   -9.765560    2.932630
  O     15.129390   -9.474530    4.096650
  C     15.842690  -10.797190    2.183570
  C     15.412180  -10.844560    0.881520
  C     16.852350  -11.517810    2.861600
  C     17.662410  -12.452370    2.300120
  C     18.667340  -13.175680    2.994570
  C     19.025410  -13.128370    4.318360
  C     20.079810  -14.007000    4.654760
  C     20.538320  -14.749300    3.531460
  S     19.644230  -14.332850    2.098710
  C     21.560450  -15.668590    3.619000
  C     22.154090  -15.866760    4.863120
  C     21.696590  -15.127480    5.986380
  C     20.676760  -14.207280    5.901450
  S     22.591030  -15.553050    7.422460
  C     23.540910  -16.685810    6.521500
  C     23.215220  -16.750930    5.213600
  H      6.017200   -4.064680    6.438540
  H      3.373480   -5.291300    2.946120
  H      6.499000    0.266460    2.755420
  H      4.335870    3.751970    0.195900
  H      3.668700    1.031360   -3.383740
  H      5.943600   -2.712280   -1.364260
  H      7.917060   -1.939940    0.864840
  H     11.138080   -6.264430    1.712950
  H     11.191870   -7.695400   -0.998040
  H     12.709090   -7.703400    2.637340
  H     15.791340  -11.474820    0.098620
  H     16.953550  -11.272610    3.910500
  H     17.557580  -12.682710    1.248480
  H     18.550270  -12.487330    5.038420
  H     21.894000  -16.220820    2.754650
  H     20.342950  -13.654940    6.765420
  H     24.297830  -17.241880    7.039890
  H     23.700020  -17.398680    4.505500

 Total Charge           Charge          ....    0
 Multiplicity           Mult            ....    1
 Number of Electrons    NEL             ....  490
 Basis Dimension        Dim             .... 1010

ORBITAL ENERGIES
----------------

  NO   OCC          E(Eh)            E(eV)
   0   2.0000     -88.985791     -2421.4265
   1   2.0000     -88.982790     -2421.3448
   2   2.0000     -88.979542     -2421.2564
   3   2.0000     -88.968043     -2420.9435
   4   2.0000     -88.947326     -2420.3798
   5   2.0000     -88.944962     -2420.3155
   6   2.0000     -24.806608      -675.0221
   7   2.0000     -24.804908      -674.9758
   8   2.0000     -24.803111      -674.9270
   9   2.0000     -19.306534      -525.3575
  10   2.0000     -19.279961      -524.6344
  11   2.0000     -19.256891      -524.0067
  12   2.0000     -19.251905      -523.8710
  13   2.0000     -19.242960      -523.6276
  14   2.0000     -19.242633      -523.6187
  15   2.0000     -19.232554      -523.3444
  16   2.0000     -19.218048      -522.9497
  17   2.0000     -14.662964      -398.9995
  18   2.0000     -14.655430      -398.7945
  19   2.0000     -14.414905      -392.2495
  20   2.0000     -10.528947      -286.5072
  21   2.0000     -10.390788      -282.7477
  22   2.0000     -10.373665      -282.2818
  23   2.0000     -10.369935      -282.1803
  24   2.0000     -10.361489      -281.9504
  25   2.0000     -10.357854      -281.8515
  26   2.0000     -10.352728      -281.7121
  27   2.0000     -10.350989      -281.6647
  28   2.0000     -10.349303      -281.6188
  29   2.0000     -10.340807      -281.3877
  30   2.0000     -10.337594      -281.3002
  31   2.0000     -10.335591      -281.2457
  32   2.0000     -10.327135      -281.0156
  33   2.0000     -10.321722      -280.8683
  34   2.0000     -10.319681      -280.8128
  35   2.0000     -10.318856      -280.7904
  36   2.0000     -10.318758      -280.7877
  37   2.0000     -10.316311      -280.7211
  38   2.0000     -10.316007      -280.7128
  39   2.0000     -10.308329      -280.5039
  40   2.0000     -10.307964      -280.4940
  41   2.0000     -10.306136      -280.4442
  42   2.0000     -10.306016      -280.4409
  43   2.0000     -10.304738      -280.4062
  44   2.0000     -10.303678      -280.3773
  45   2.0000     -10.302164      -280.3361
  46   2.0000     -10.300064      -280.2790
  47   2.0000     -10.299815      -280.2722
  48   2.0000     -10.299458      -280.2625
  49   2.0000     -10.297723      -280.2153
  50   2.0000     -10.297342      -280.2049
  51   2.0000     -10.297247      -280.2023
  52   2.0000     -10.295971      -280.1676
  53   2.0000     -10.294479      -280.1270
  54   2.0000     -10.294022      -280.1146
  55   2.0000     -10.291056      -280.0339
  56   2.0000     -10.284155      -279.8461
  57   2.0000     -10.282234      -279.7938
  58   2.0000     -10.282130      -279.7910
  59   2.0000     -10.280905      -279.7577
  60   2.0000     -10.280306      -279.7414
  61   2.0000     -10.279604      -279.7223
  62   2.0000     -10.276520      -279.6383
  63   2.0000     -10.271949      -279.5139
  64   2.0000      -8.081491      -219.9085
  65   2.0000      -8.077909      -219.8111
  66   2.0000      -8.075506      -219.7457
  67   2.0000      -8.063859      -219.4288
  68   2.0000      -8.043471      -218.8740
  69   2.0000      -8.041317      -218.8154
  70   2.0000      -6.050599      -164.6452
  71   2.0000      -6.046914      -164.5449
  72   2.0000      -6.046416      -164.5313
  73   2.0000      -6.044737      -164.4857
  74   2.0000      -6.043836      -164.4611
  75   2.0000      -6.042928      -164.4364
  76   2.0000      -6.040517      -164.3708
  77   2.0000      -6.040060      -164.3584
  78   2.0000      -6.038191      -164.3075
  79   2.0000      -6.033334      -164.1754
  80   2.0000      -6.029128      -164.0609
  81   2.0000      -6.025600      -163.9649
  82   2.0000      -6.013001      -163.6221
  83   2.0000      -6.010959      -163.5665
  84   2.0000      -6.009142      -163.5171
  85   2.0000      -6.006760      -163.4523
  86   2.0000      -6.004724      -163.3968
  87   2.0000      -6.002666      -163.3408
  88   2.0000      -1.396184       -37.9921
  89   2.0000      -1.340028       -36.4640
  90   2.0000      -1.320693       -35.9379
  91   2.0000      -1.298638       -35.3377
  92   2.0000      -1.294786       -35.2329
  93   2.0000      -1.227302       -33.3966
  94   2.0000      -1.180553       -32.1245
  95   2.0000      -1.154503       -31.4156
  96   2.0000      -1.143285       -31.1104
  97   2.0000      -1.142503       -31.0891
  98   2.0000      -1.133675       -30.8489
  99   2.0000      -1.026488       -27.9322
 100   2.0000      -1.018999       -27.7284
 101   2.0000      -1.014161       -27.5967
 102   2.0000      -0.999305       -27.1925
 103   2.0000      -0.996612       -27.1192
 104   2.0000      -0.995148       -27.0794
 105   2.0000      -0.980422       -26.6786
 106   2.0000      -0.971992       -26.4492
 107   2.0000      -0.952908       -25.9300
 108   2.0000      -0.948088       -25.7988
 109   2.0000      -0.933784       -25.4096
 110   2.0000      -0.919360       -25.0171
 111   2.0000      -0.911105       -24.7924
 112   2.0000      -0.901749       -24.5378
 113   2.0000      -0.890089       -24.2206
 114   2.0000      -0.880441       -23.9580
 115   2.0000      -0.871921       -23.7262
 116   2.0000      -0.867252       -23.5991
 117   2.0000      -0.855713       -23.2851
 118   2.0000      -0.846743       -23.0410
 119   2.0000      -0.845156       -22.9979
 120   2.0000      -0.841117       -22.8879
 121   2.0000      -0.827174       -22.5086
 122   2.0000      -0.819251       -22.2930
 123   2.0000      -0.816078       -22.2066
 124   2.0000      -0.809555       -22.0291
 125   2.0000      -0.798868       -21.7383
 126   2.0000      -0.792089       -21.5538
 127   2.0000      -0.778546       -21.1853
 128   2.0000      -0.774890       -21.0858
 129   2.0000      -0.767881       -20.8951
 130   2.0000      -0.761095       -20.7105
 131   2.0000      -0.753374       -20.5004
 132   2.0000      -0.750348       -20.4180
 133   2.0000      -0.726950       -19.7813
 134   2.0000      -0.712185       -19.3796
 135   2.0000      -0.710452       -19.3324
 136   2.0000      -0.703613       -19.1463
 137   2.0000      -0.690070       -18.7778
 138   2.0000      -0.684962       -18.6388
 139   2.0000      -0.680973       -18.5302
 140   2.0000      -0.680422       -18.5152
 141   2.0000      -0.678285       -18.4571
 142   2.0000      -0.666361       -18.1326
 143   2.0000      -0.664861       -18.0918
 144   2.0000      -0.662096       -18.0166
 145   2.0000      -0.655130       -17.8270
 146   2.0000      -0.652688       -17.7605
 147   2.0000      -0.651565       -17.7300
 148   2.0000      -0.646645       -17.5961
 149   2.0000      -0.641855       -17.4658
 150   2.0000      -0.634509       -17.2659
 151   2.0000      -0.630966       -17.1695
 152   2.0000      -0.626767       -17.0552
 153   2.0000      -0.624022       -16.9805
 154   2.0000      -0.622081       -16.9277
 155   2.0000      -0.615068       -16.7369
 156   2.0000      -0.611563       -16.6415
 157   2.0000      -0.605329       -16.4719
 158   2.0000      -0.594632       -16.1808
 159   2.0000      -0.593767       -16.1572
 160   2.0000      -0.590977       -16.0813
 161   2.0000      -0.586508       -15.9597
 162   2.0000      -0.578388       -15.7387
 163   2.0000      -0.577245       -15.7076
 164   2.0000      -0.575385       -15.6570
 165   2.0000      -0.569640       -15.5007
 166   2.0000      -0.564195       -15.3525
 167   2.0000      -0.562969       -15.3192
 168   2.0000      -0.556974       -15.1560
 169   2.0000      -0.556368       -15.1395
 170   2.0000      -0.552578       -15.0364
 171   2.0000      -0.547169       -14.8892
 172   2.0000      -0.540847       -14.7172
 173   2.0000      -0.539564       -14.6823
 174   2.0000      -0.533117       -14.5068
 175   2.0000      -0.531863       -14.4727
 176   2.0000      -0.531292       -14.4572
 177   2.0000      -0.528182       -14.3726
 178   2.0000      -0.527224       -14.3465
 179   2.0000      -0.525855       -14.3092
 180   2.0000      -0.521788       -14.1986
 181   2.0000      -0.518623       -14.1124
 182   2.0000      -0.515756       -14.0344
 183   2.0000      -0.514452       -13.9990
 184   2.0000      -0.507160       -13.8005
 185   2.0000      -0.505308       -13.7501
 186   2.0000      -0.505013       -13.7421
 187   2.0000      -0.502112       -13.6632
 188   2.0000      -0.501626       -13.6499
 189   2.0000      -0.496405       -13.5079
 190   2.0000      -0.496258       -13.5039
 191   2.0000      -0.494745       -13.4627
 192   2.0000      -0.491936       -13.3863
 193   2.0000      -0.490672       -13.3519
 194   2.0000      -0.487123       -13.2553
 195   2.0000      -0.480281       -13.0691
 196   2.0000      -0.479320       -13.0430
 197   2.0000      -0.478060       -13.0087
 198   2.0000      -0.474710       -12.9175
 199   2.0000      -0.472811       -12.8658
 200   2.0000      -0.470953       -12.8153
 201   2.0000      -0.464818       -12.6483
 202   2.0000      -0.464661       -12.6441
 203   2.0000      -0.459043       -12.4912
 204   2.0000      -0.452299       -12.3077
 205   2.0000      -0.450277       -12.2527
 206   2.0000      -0.446160       -12.1406
 207   2.0000      -0.444065       -12.0836
 208   2.0000      -0.443859       -12.0780
 209   2.0000      -0.442094       -12.0300
 210   2.0000      -0.441486       -12.0134
 211   2.0000      -0.439325       -11.9546
 212   2.0000      -0.438337       -11.9277
 213   2.0000      -0.432995       -11.7824
 214   2.0000      -0.432866       -11.7789
 215   2.0000      -0.428961       -11.6726
 216   2.0000      -0.419423       -11.4131
 217   2.0000      -0.418564       -11.3897
 218   2.0000      -0.411924       -11.2090
 219   2.0000      -0.408055       -11.1037
 220   2.0000      -0.403082       -10.9684
 221   2.0000      -0.402547       -10.9538
 222   2.0000      -0.399248       -10.8641
 223   2.0000      -0.390219       -10.6184
 224   2.0000      -0.385381       -10.4868
 225   2.0000      -0.380683       -10.3589
 226   2.0000      -0.375450       -10.2165
 227   2.0000      -0.375208       -10.2099
 228   2.0000      -0.374386       -10.1876
 229   2.0000      -0.364390        -9.9156
 230   2.0000      -0.353946        -9.6314
 231   2.0000      -0.348577        -9.4852
 232   2.0000      -0.345314        -9.3965
 233   2.0000      -0.344435        -9.3726
 234   2.0000      -0.339755        -9.2452
 235   2.0000      -0.334695        -9.1075
 236   2.0000      -0.327035        -8.8991
 237   2.0000      -0.320136        -8.7113
 238   2.0000      -0.317876        -8.6498
 239   2.0000      -0.311642        -8.4802
 240   2.0000      -0.304403        -8.2832
 241   2.0000      -0.284032        -7.7289
 242   2.0000      -0.266140        -7.2420
 243   2.0000      -0.258272        -7.0279
 244   2.0000      -0.236891        -6.4461
 245   0.0000      -0.110319        -3.0019
 246   0.0000      -0.092799        -2.5252
 247   0.0000      -0.072773        -1.9803
 248   0.0000      -0.047184        -1.2839
 249   0.0000      -0.040354        -1.0981

MULLIKEN ATOMIC CHARGES
-----------------------
   0 C :   -0.132186
   1 C :    0.066895
   2 C :    0.013706
   3 C :   -0.133217
   4 S :    0.146500
   5 C :    0.182416
   6 O :   -0.152304
   7 C :   -0.149067
   8 C :    0.201053
   9 C :    0.038012
  10 N :    0.260761
  11 O :   -0.231480
  12 O :   -0.257799
  13 N :    0.227622
  14 O :   -0.196794
  15 O :   -0.251643
  16 C :   -0.017613
  17 C :    0.110154
  18 C :    0.203812
  19 O :   -0.198528
  20 C :    0.193164
  21 C :    0.227391
  22 C :   -0.172854
  23 S :    0.125499
  24 C :   -0.152925
  25 O :   -0.255462
  26 C :   -0.009473
  27 C :    0.096891
  28 C :   -0.122657
  29 S :    0.200507
  30 C :   -0.122923
  31 C :   -0.044284
  32 C :   -0.039933
  33 C :   -0.232313
  34 N :    0.151214
  35 C :    0.519984
  36 F :   -0.160466
  37 F :   -0.138691
  38 F :   -0.163201
  39 C :    0.022224
  40 C :    0.074524
  41 C :   -0.124850
  42 S :    0.185024
  43 C :   -0.050485
  44 C :   -0.011830
  45 C :    0.005351
  46 C :    0.159305
  47 O :   -0.109683
  48 C :   -0.031294
  49 C :   -0.034971
  50 C :    0.010852
  51 C :    0.074742
  52 C :   -0.062271
  53 C :   -0.028720
  54 C :    0.106612
  55 C :   -0.045660
  56 S :    0.102559
  57 C :   -0.048579
  58 C :    0.088556
  59 C :   -0.067334
  60 C :   -0.051160
  61 S :    0.098342
  62 C :   -0.056503
  63 C :    0.024758
  64 H :    0.054299
  65 H :    0.040206
  66 H :    0.032521
  67 H :    0.032221
  68 H :    0.036404
  69 H :    0.026737
  70 H :    0.020990
  71 H :   -0.005921
  72 H :   -0.001680
  73 H :   -0.000808
  74 H :   -0.005640
  75 H :   -0.001070
  76 H :   -0.019893
  77 H :   -0.017455
  78 H :   -0.033432
  79 H :   -0.029883
  80 H :    0.030175
  81 H :   -0.017051
Sum of atomic charges:   -0.0000000

LOEWDIN ATOMIC CHARGES
----------------------
   0 C :   -0.143815
   1 C :   -0.064651
   2 C :   -0.085865
   3 C :   -0.142587
   4 S :    0.477379
   5 C :    0.078760
   6 O :   -0.135082
   7 C :   -0.117735
   8 C :    0.063009
   9 C :   -0.094902
  10 N :    0.279293
  11 O :   -0.197206
  12 O :   -0.212421
  13 N :    0.279504
  14 O :   -0.166698
  15 O :   -0.222611
  16 C :    0.061753
  17 C :   -0.008651
  18 C :    0.108099
  19 O :   -0.002296
  20 C :   -0.015412
  21 C :   -0.003951
  22 C :   -0.207817
  23 S :    0.452020
  24 C :   -0.194324
  25 O :   -0.063564
  26 C :   -0.016209
  27 C :   -0.005248
  28 C :   -0.149424
  29 S :    0.504059
  30 C :   -0.132092
  31 C :   -0.112009
  32 C :   -0.079379
  33 C :   -0.035526
  34 N :   -0.039834
  35 C :    0.172715
  36 F :   -0.057856
  37 F :   -0.033458
  38 F :   -0.065572
  39 C :   -0.071960
  40 C :   -0.006703
  41 C :   -0.181405
  42 S :    0.478824
  43 C :   -0.161801
  44 C :   -0.109304
  45 C :   -0.004945
  46 C :    0.099398
  47 O :   -0.100612
  48 C :   -0.048696
  49 C :   -0.010760
  50 C :   -0.018327
  51 C :   -0.016322
  52 C :   -0.156556
  53 C :   -0.041969
  54 C :   -0.045821
  55 C :   -0.153233
  56 S :    0.387580
  57 C :   -0.038026
  58 C :   -0.043892
  59 C :   -0.156040
  60 C :   -0.033018
  61 S :    0.390084
  62 C :   -0.158862
  63 C :   -0.063318
  64 H :    0.030588
  65 H :    0.035997
  66 H :    0.045397
  67 H :    0.032165
  68 H :    0.034628
  69 H :    0.046676
  70 H :    0.034737
  71 H :    0.029859
  72 H :    0.026144
  73 H :    0.039261
  74 H :    0.030792
  75 H :    0.034060
  76 H :    0.026364
  77 H :    0.031298
  78 H :    0.030249
  79 H :    0.031134
  80 H :    0.025170
  81 H :    0.030767

  Mayer bond orders larger than 0.100000
B(  0-C ,  1-C ) :   1.5561 B(  0-C ,  4-S ) :   1.1782 B(  0-C , 64-H ) :   0.9482
B(  1-C ,  2-C ) :   1.2190 B(  1-C ,  8-C ) :   1.0187 B(  2-C ,  3-C ) :   1.5625
B(  2-C ,  5-C ) :   0.9610 B(  3-C ,  4-S ) :   1.1705 B(  3-C , 65-H ) :   0.9725
B(  5-C ,  6-O ) :   2.1602 B(  5-C ,  7-C ) :   0.9753 B(  7-C ,  8-C ) :   1.1434
B(  7-C , 16-C ) :   1.4653 B(  8-C ,  9-C ) :   1.5045 B(  9-C , 10-N ) :   0.9545
B(  9-C , 13-N ) :   0.9182 B( 10-N , 11-O ) :   1.5251 B( 10-N , 12-O ) :   1.4890
B( 11-O , 12-O ) :   0.2573 B( 13-N , 14-O ) :   1.5471 B( 13-N , 15-O ) :   1.4639
B( 14-O , 15-O ) :   0.2652 B( 16-C , 17-C ) :   1.2921 B( 16-C , 66-H ) :   0.9471
B( 17-C , 18-C ) :   1.3721 B( 17-C , 25-O ) :   1.0302 B( 18-C , 19-O ) :   1.1654
B( 18-C , 26-C ) :   1.1263 B( 19-O , 20-C ) :   1.0203 B( 20-C , 21-C ) :   1.2020
B( 20-C , 24-C ) :   1.5727 B( 21-C , 22-C ) :   1.5788 B( 21-C , 25-O ) :   1.0644
B( 22-C , 23-S ) :   1.1387 B( 22-C , 67-H ) :   0.9709 B( 23-S , 24-C ) :   1.1616
B( 24-C , 68-H ) :   0.9710 B( 26-C , 27-C ) :   1.6901 B( 26-C , 69-H ) :   0.9339
B( 27-C , 28-C ) :   1.1939 B( 27-C , 70-H ) :   0.9084 B( 28-C , 29-S ) :   1.1327
B( 28-C , 32-C ) :   1.4625 B( 29-S , 30-C ) :   1.1554 B( 30-C , 31-C ) :   1.4740
B( 30-C , 39-C ) :   1.1296 B( 31-C , 32-C ) :   1.3227 B( 31-C , 35-C ) :   0.9370
B( 32-C , 33-C ) :   1.1297 B( 33-C , 34-N ) :   2.9643 B( 35-C , 36-F ) :   1.1656
B( 35-C , 37-F ) :   1.1743 B( 35-C , 38-F ) :   1.1328 B( 39-C , 40-C ) :   1.6920
B( 39-C , 71-H ) :   0.9451 B( 40-C , 41-C ) :   1.1644 B( 40-C , 72-H ) :   0.9405
B( 41-C , 42-S ) :   1.1030 B( 41-C , 45-C ) :   1.4324 B( 42-S , 43-C ) :   1.1560
B( 43-C , 44-C ) :   1.4309 B( 43-C , 49-C ) :   1.0680 B( 44-C , 45-C ) :   1.3330
B( 44-C , 46-C ) :   0.9221 B( 45-C , 73-H ) :   0.9982 B( 46-C , 47-O ) :   2.2711
B( 46-C , 48-C ) :   0.9104 B( 48-C , 49-C ) :   1.6106 B( 48-C , 50-C ) :   1.1579
B( 49-C , 74-H ) :   1.0138 B( 50-C , 51-C ) :   1.6443 B( 50-C , 75-H ) :   0.9680
B( 51-C , 52-C ) :   1.1197 B( 51-C , 76-H ) :   0.9627 B( 52-C , 53-C ) :   1.5568
B( 52-C , 56-S ) :   1.0648 B( 53-C , 54-C ) :   1.1642 B( 53-C , 77-H ) :   0.9968
B( 54-C , 55-C ) :   1.2803 B( 54-C , 60-C ) :   1.3150 B( 55-C , 56-S ) :   1.0455
B( 55-C , 57-C ) :   1.3839 B( 57-C , 58-C ) :   1.3377 B( 57-C , 60-C ) :   0.1038
B( 57-C , 78-H ) :   1.0011 B( 58-C , 59-C ) :   1.2795 B( 58-C , 63-C ) :   1.1587
B( 59-C , 60-C ) :   1.3961 B( 59-C , 61-S ) :   1.0531 B( 60-C , 79-H ) :   1.0020
B( 61-S , 62-C ) :   1.1135 B( 62-C , 63-C ) :   1.6470 B( 62-C , 80-H ) :   0.9678
B( 63-C , 81-H ) :   0.9982

-----------------------------------------------------------------------------
         ABSORPTION SPECTRUM VIA TRANSITION ELECTRIC DIPOLE MOMENTS
-----------------------------------------------------------------------------
State   Energy  Wavelength   fosc         T2         TX        TY        TZ
        (cm-1)    (nm)                  (au**2)     (au)      (au)      (au)
-----------------------------------------------------------------------------
   0   12933.3    773.2   0.409997758  10.43632  -2.15921   1.84427   1.54039
   1   14987.3    667.2   0.952173850  20.91548   3.10411  -2.60247   2.12301
   2   17635.3    567.0   0.146231846   2.72983  -0.97267   1.26347  -0.43288
   3   21105.8    473.8   0.256345641   3.99852  -1.49667   0.97837  -0.89515
   4   22194.7    450.6   0.051160935   0.75887   0.27807  -0.46071  -0.68505
   5   23492.9    425.7   0.285071876   3.99479  -1.50392   1.30727  -0.15517
   6   24360.4    410.5   0.185413441   2.50571   1.12423  -1.08511   0.25370
   7   24547.2    407.4   0.023800469   0.31920   0.35581   0.39667   0.18775
   8   25841.4    387.0   0.020671997   0.26335   0.29645  -0.39356   0.14347
   9   26469.5    377.8   0.390180994   4.85284  -1.66273   1.16430  -0.85590
  10   26644.7    375.3   0.001013694   0.01252   0.07075  -0.06604   0.05619
  11   26861.8    372.3   0.075227880   0.92198   0.70256  -0.24356   0.60751
  12   27379.7    365.2   0.280477578   3.37245  -0.13587   1.46844  -1.09439
  13   27719.3    360.8   0.077511356   0.92058  -0.84982   0.40831  -0.17796
  14   28222.7    354.3   0.041483493   0.48390   0.07855   0.18863  -0.66494
  15   28646.5    349.1   0.070062675   0.80518  -0.85352   0.10308  -0.25703
  16   29466.8    339.4   0.020693902   0.23120  -0.09245   0.47150   0.01844
  17   30056.7    332.7   0.072968690   0.79923   0.89252   0.00468   0.05110
  18   30522.0    327.6   0.096501068   1.04086  -0.75539   0.61896  -0.29519
  19   31036.8    322.2   0.201851235   2.14106  -0.89335   0.44316  -1.07080
  20   31357.8    318.9   0.242482738   2.54572  -0.62077   1.22043  -0.81909
  21   31727.2    315.2   0.011898904   0.12347   0.10622   0.17725  -0.28420
  22   32768.4    305.2   0.046299074   0.46515  -0.65572   0.03694   0.18388
  23   32892.3    304.0   0.061432191   0.61486   0.34956  -0.59792   0.36764
  24   33182.3    301.4   0.045270053   0.44914  -0.27813  -0.60966   0.00982
  25   33366.5    299.7   0.027727968   0.27358  -0.31389  -0.40470  -0.10619
  26   33786.3    296.0   0.025630180   0.24974   0.25993   0.42493  -0.04010
  27   33948.6    294.6   0.006435664   0.06241   0.00612  -0.13145   0.21235
  28   34540.6    289.5   0.029516045   0.28132   0.28787  -0.15336   0.41826
  29   34756.6    287.7   0.179088294   1.69631   0.51255   1.19726   0.01332
  30   34892.7    286.6   0.083659945   0.78933   0.76227  -0.03506   0.45502
  31   35138.2    284.6   0.015947147   0.14941   0.21561  -0.20013  -0.25074
  32   35301.7    283.3   0.034755399   0.32412  -0.49913   0.16242  -0.22046
  33   35715.4    280.0   0.063241656   0.58294  -0.47018  -0.58491  -0.14056
  34   36074.9    277.2   0.121140415   1.10550   0.15769  -0.99641   0.29631
  35   36459.5    274.3   0.098283216   0.88745  -0.03744  -0.08564  -0.93740
  36   36816.7    271.6   0.042698245   0.38180  -0.16370  -0.17142   0.57063
  37   37178.6    269.0   0.088704979   0.78547   0.23486   0.53902   0.66315
  38   37855.9    264.2   0.176813278   1.53765  -0.76128   0.41288  -0.88748
  39   38096.1    262.5   0.047535706   0.41079  -0.07893   0.21596  -0.59826
  40   38242.4    261.5   0.009506146   0.08183  -0.19479  -0.18256  -0.10277
  41   38760.9    258.0   0.036408049   0.30923  -0.19423   0.44241  -0.27528
  42   38959.2    256.7   0.030021588   0.25369   0.34378   0.35958   0.07878
  43   39089.5    255.8   0.087510920   0.73702  -0.04887  -0.59019   0.62154
  44   39641.8    252.3   0.062744820   0.52108  -0.35809   0.25827  -0.57109
  45   39677.4    252.0   0.012667064   0.10510  -0.14897   0.24039  -0.15850
  46   39937.7    250.4   0.027493821   0.22664   0.11335  -0.42652  -0.17851
  47   40033.6    249.8   0.006721314   0.05527   0.00300   0.04706   0.23032

FINAL SINGLE POINT ENERGY     -5137.850148987912

DIPOLE MOMENT
-------------
                                X             Y             Z
Electronic contribution:    -38.36160      20.91217     -18.44541
Nuclear contribution   :     38.81511     -22.12398      17.69093
                        -----------------------------------------
Total Dipole Moment    :      0.45351      -1.21181      -0.75448
                        -----------------------------------------
Magnitude (a.u.)       :      1.49780
Magnitude (Debye)      :      3.80710

Rotational constants in cm-1:     0.002047     0.000250     0.000237
Rotational constants in MHz :    61.355257     7.493632     7.091763

                             ****ORCA TERMINATED NORMALLY****
TOTAL RUN TIME: 0 days 0 hours 7 minutes 10 seconds 589 msec
