                         Program Version 4.2.0 -  RELEASE  -
|  1> # ORCA input file
|  2> # SCF done       -134.091303964882          0.000343322966
|  3> ! CAM-B3LYP def2-SVP def2/J RIJCOSX Grid4 TightSCF
|  4> %maxcore 5000
|  5> %tddft
|  6>     Mode sTDDFT
|  7>     Ethresh 5.0
|  8>     maxcore 5000
|  9> end
| 10>
| 11> %pal
| 12>   nprocs 6
| 13>   end
| 14> * xyz 0 1
| 15>    C       -5.47160        21.80878        -4.67395
| 16>    C       -6.18016        20.75540        -4.16457
| 17>    C       -5.56819        19.59923        -3.64173
| 18>    C       -4.19502        19.42301        -3.60136
| 19>    C       -3.43449        20.52813        -4.08534
| 20>    C       -4.06940        21.70365        -4.63002
| 21>    N       -3.10672        22.52512        -5.00793
| 22>    O       -1.96094        21.91052        -4.72102
| 23>    N       -2.13303        20.71033        -4.16971
| 24>    C       -3.48380        18.28675        -3.10732
| 25>    C       -3.91296        16.99310        -3.03155
| 26>    C       -5.09779        16.37715        -3.52202
| 27>    C       -5.13316        15.02907        -3.36413
| 28>    C       -3.98424        14.48413        -2.73782
| 29>    S       -2.85917        15.75756        -2.33847
| 30>    C       -3.71734        13.14487        -2.53091
| 31>    C       -4.52274        12.05154        -2.92669
| 32>    C       -3.95159        10.83858        -2.70280
| 33>    C       -2.66904        10.90210        -2.10145
| 34>    S       -2.23040        12.57145        -1.79863
| 35>    C       -1.86899         9.81534        -1.85444
| 36>    C       -0.60606         9.77581        -1.25428
| 37>    S        0.20961        11.09882        -0.43542
| 38>    C        1.60631        10.13776         0.00043
| 39>    C        1.45192         8.84391        -0.50145
| 40>    C        0.21999         8.65980        -1.17593
| 41>    O        0.10050         7.39948        -1.63326
| 42>    C        1.24663         6.77389        -1.25563
| 43>    N        1.40692         5.41354        -1.61241
| 44>    O        2.44718         4.88525        -1.26882
| 45>    O        0.51058         4.87882        -2.22743
| 46>    C        2.10742         7.58854        -0.56545
| 47>    C        2.65981        10.64956         0.78538
| 48>    S        4.10031         9.71075         1.04137
| 49>    C        4.78196        10.93635         2.07709
| 50>    C        6.03965        10.69076         2.79367
| 51>    O        6.47730        11.42940         3.63702
| 52>    O        6.70173         9.56392         2.47248
| 53>    C        3.91681        12.01519         2.19913
| 54>    C        2.73000        11.84525         1.46844
| 55>    C        4.14821        13.19481         3.02913
| 56>    C        5.31551        13.91031         3.06701
| 57>    C        5.49905        15.02666         3.91839
| 58>    C        4.52900        15.47562         4.76460
| 59>    C        3.30023        14.78872         4.74241
| 60>    C        3.10296        13.65728         3.86745
| 61>    N        1.87031        13.22493         4.05707
| 62>    O        1.33708        14.02507         4.97915
| 63>    N        2.17215        14.96742         5.40482
| 64>    H       -5.94075        22.68781        -5.08153
| 65>    H       -7.25936        20.80060        -4.15558
| 66>    H       -6.20876        18.84252        -3.21752
| 67>    H       -2.46062        18.48867        -2.81957
| 68>    H       -5.86323        16.93560        -4.02768
| 69>    H       -5.94658        14.40873        -3.69482
| 70>    H       -5.48623        12.18851        -3.38245
| 71>    H       -4.40205         9.89534        -2.95520
| 72>    H       -2.23945         8.85186        -2.18189
| 73>    H        3.06252         7.30371        -0.17583
| 74>    H        6.26595         9.03371         1.79221
| 75>    H        1.93294        12.56587         1.45408
| 76>    H        6.13677        13.61523         2.43398
| 77>    H        6.45707        15.52300         3.89339
| 78>    H        4.67018        16.31210         5.42819
| 79> *
| 80>
| 81>                          ****END OF INPUT****

CARTESIAN COORDINATES (ANGSTROEM)
---------------------------------
  C     -5.471600   21.808780   -4.673950
  C     -6.180160   20.755400   -4.164570
  C     -5.568190   19.599230   -3.641730
  C     -4.195020   19.423010   -3.601360
  C     -3.434490   20.528130   -4.085340
  C     -4.069400   21.703650   -4.630020
  N     -3.106720   22.525120   -5.007930
  O     -1.960940   21.910520   -4.721020
  N     -2.133030   20.710330   -4.169710
  C     -3.483800   18.286750   -3.107320
  C     -3.912960   16.993100   -3.031550
  C     -5.097790   16.377150   -3.522020
  C     -5.133160   15.029070   -3.364130
  C     -3.984240   14.484130   -2.737820
  S     -2.859170   15.757560   -2.338470
  C     -3.717340   13.144870   -2.530910
  C     -4.522740   12.051540   -2.926690
  C     -3.951590   10.838580   -2.702800
  C     -2.669040   10.902100   -2.101450
  S     -2.230400   12.571450   -1.798630
  C     -1.868990    9.815340   -1.854440
  C     -0.606060    9.775810   -1.254280
  S      0.209610   11.098820   -0.435420
  C      1.606310   10.137760    0.000430
  C      1.451920    8.843910   -0.501450
  C      0.219990    8.659800   -1.175930
  O      0.100500    7.399480   -1.633260
  C      1.246630    6.773890   -1.255630
  N      1.406920    5.413540   -1.612410
  O      2.447180    4.885250   -1.268820
  O      0.510580    4.878820   -2.227430
  C      2.107420    7.588540   -0.565450
  C      2.659810   10.649560    0.785380
  S      4.100310    9.710750    1.041370
  C      4.781960   10.936350    2.077090
  C      6.039650   10.690760    2.793670
  O      6.477300   11.429400    3.637020
  O      6.701730    9.563920    2.472480
  C      3.916810   12.015190    2.199130
  C      2.730000   11.845250    1.468440
  C      4.148210   13.194810    3.029130
  C      5.315510   13.910310    3.067010
  C      5.499050   15.026660    3.918390
  C      4.529000   15.475620    4.764600
  C      3.300230   14.788720    4.742410
  C      3.102960   13.657280    3.867450
  N      1.870310   13.224930    4.057070
  O      1.337080   14.025070    4.979150
  N      2.172150   14.967420    5.404820
  H     -5.940750   22.687810   -5.081530
  H     -7.259360   20.800600   -4.155580
  H     -6.208760   18.842520   -3.217520
  H     -2.460620   18.488670   -2.819570
  H     -5.863230   16.935600   -4.027680
  H     -5.946580   14.408730   -3.694820
  H     -5.486230   12.188510   -3.382450
  H     -4.402050    9.895340   -2.955200
  H     -2.239450    8.851860   -2.181890
  H      3.062520    7.303710   -0.175830
  H      6.265950    9.033710    1.792210
  H      1.932940   12.565870    1.454080
  H      6.136770   13.615230    2.433980
  H      6.457070   15.523000    3.893390
  H      4.670180   16.312100    5.428190

 Total Charge           Charge          ....    0
 Multiplicity           Mult            ....    1
 Number of Electrons    NEL             ....  368
 Basis Dimension        Dim             ....  777

ORBITAL ENERGIES
----------------

  NO   OCC          E(Eh)            E(eV)
   0   2.0000     -88.988641     -2421.5040
   1   2.0000     -88.984920     -2421.4028
   2   2.0000     -88.962988     -2420.8060
   3   2.0000     -88.955795     -2420.6102
   4   2.0000     -19.350230      -526.5465
   5   2.0000     -19.349237      -526.5195
   6   2.0000     -19.323429      -525.8172
   7   2.0000     -19.264262      -524.2072
   8   2.0000     -19.252652      -523.8913
   9   2.0000     -19.250585      -523.8350
  10   2.0000     -19.199222      -522.4374
  11   2.0000     -14.664670      -399.0460
  12   2.0000     -14.475569      -393.9002
  13   2.0000     -14.473236      -393.8368
  14   2.0000     -14.473190      -393.8355
  15   2.0000     -14.473132      -393.8339
  16   2.0000     -10.412159      -283.3292
  17   2.0000     -10.398912      -282.9688
  18   2.0000     -10.359670      -281.9010
  19   2.0000     -10.338351      -281.3208
  20   2.0000     -10.337008      -281.2843
  21   2.0000     -10.333361      -281.1851
  22   2.0000     -10.326392      -280.9954
  23   2.0000     -10.325992      -280.9845
  24   2.0000     -10.324933      -280.9557
  25   2.0000     -10.324240      -280.9368
  26   2.0000     -10.324125      -280.9337
  27   2.0000     -10.320479      -280.8345
  28   2.0000     -10.320054      -280.8229
  29   2.0000     -10.319978      -280.8209
  30   2.0000     -10.319598      -280.8105
  31   2.0000     -10.317996      -280.7670
  32   2.0000     -10.313087      -280.6334
  33   2.0000     -10.312429      -280.6155
  34   2.0000     -10.310131      -280.5529
  35   2.0000     -10.304685      -280.4047
  36   2.0000     -10.304344      -280.3954
  37   2.0000     -10.303487      -280.3721
  38   2.0000     -10.300860      -280.3007
  39   2.0000     -10.298819      -280.2451
  40   2.0000     -10.297965      -280.2219
  41   2.0000     -10.297332      -280.2047
  42   2.0000     -10.295340      -280.1504
  43   2.0000     -10.295227      -280.1474
  44   2.0000     -10.295163      -280.1456
  45   2.0000     -10.294537      -280.1286
  46   2.0000     -10.293574      -280.1024
  47   2.0000     -10.292540      -280.0742
  48   2.0000     -10.292503      -280.0732
  49   2.0000      -8.082622      -219.9393
  50   2.0000      -8.080437      -219.8799
  51   2.0000      -8.059009      -219.2968
  52   2.0000      -8.052424      -219.1176
  53   2.0000      -6.052069      -164.6852
  54   2.0000      -6.049797      -164.6233
  55   2.0000      -6.047951      -164.5731
  56   2.0000      -6.045717      -164.5123
  57   2.0000      -6.044568      -164.4811
  58   2.0000      -6.042424      -164.4227
  59   2.0000      -6.028784      -164.0516
  60   2.0000      -6.024703      -163.9405
  61   2.0000      -6.022229      -163.8732
  62   2.0000      -6.019915      -163.8102
  63   2.0000      -6.018180      -163.7630
  64   2.0000      -6.013105      -163.6249
  65   2.0000      -1.336192       -36.3596
  66   2.0000      -1.302531       -35.4437
  67   2.0000      -1.301979       -35.4287
  68   2.0000      -1.244008       -33.8512
  69   2.0000      -1.187209       -32.3056
  70   2.0000      -1.152655       -31.3653
  71   2.0000      -1.099578       -29.9210
  72   2.0000      -1.022070       -27.8119
  73   2.0000      -1.010747       -27.5038
  74   2.0000      -1.006835       -27.3974
  75   2.0000      -1.005581       -27.3633
  76   2.0000      -0.999879       -27.2081
  77   2.0000      -0.995156       -27.0796
  78   2.0000      -0.989082       -26.9143
  79   2.0000      -0.984607       -26.7925
  80   2.0000      -0.948325       -25.8052
  81   2.0000      -0.920679       -25.0529
  82   2.0000      -0.915438       -24.9103
  83   2.0000      -0.911718       -24.8091
  84   2.0000      -0.900795       -24.5119
  85   2.0000      -0.897688       -24.4273
  86   2.0000      -0.886962       -24.1355
  87   2.0000      -0.872606       -23.7448
  88   2.0000      -0.858903       -23.3719
  89   2.0000      -0.851709       -23.1762
  90   2.0000      -0.841335       -22.8939
  91   2.0000      -0.835274       -22.7290
  92   2.0000      -0.820379       -22.3236
  93   2.0000      -0.800655       -21.7869
  94   2.0000      -0.790052       -21.4984
  95   2.0000      -0.769838       -20.9484
  96   2.0000      -0.764514       -20.8035
  97   2.0000      -0.749315       -20.3899
  98   2.0000      -0.741902       -20.1882
  99   2.0000      -0.741315       -20.1722
 100   2.0000      -0.737701       -20.0739
 101   2.0000      -0.719384       -19.5754
 102   2.0000      -0.708788       -19.2871
 103   2.0000      -0.699421       -19.0322
 104   2.0000      -0.691109       -18.8060
 105   2.0000      -0.682830       -18.5808
 106   2.0000      -0.677928       -18.4474
 107   2.0000      -0.665599       -18.1119
 108   2.0000      -0.652524       -17.7561
 109   2.0000      -0.650187       -17.6925
 110   2.0000      -0.647403       -17.6167
 111   2.0000      -0.637053       -17.3351
 112   2.0000      -0.636111       -17.3095
 113   2.0000      -0.634991       -17.2790
 114   2.0000      -0.627113       -17.0646
 115   2.0000      -0.612833       -16.6760
 116   2.0000      -0.609379       -16.5820
 117   2.0000      -0.608496       -16.5580
 118   2.0000      -0.603454       -16.4208
 119   2.0000      -0.601056       -16.3556
 120   2.0000      -0.599495       -16.3131
 121   2.0000      -0.597845       -16.2682
 122   2.0000      -0.593474       -16.1493
 123   2.0000      -0.581959       -15.8359
 124   2.0000      -0.580099       -15.7853
 125   2.0000      -0.569471       -15.4961
 126   2.0000      -0.567416       -15.4402
 127   2.0000      -0.565609       -15.3910
 128   2.0000      -0.557425       -15.1683
 129   2.0000      -0.544012       -14.8033
 130   2.0000      -0.541660       -14.7393
 131   2.0000      -0.538162       -14.6441
 132   2.0000      -0.532525       -14.4907
 133   2.0000      -0.525457       -14.2984
 134   2.0000      -0.524063       -14.2605
 135   2.0000      -0.517948       -14.0941
 136   2.0000      -0.514514       -14.0006
 137   2.0000      -0.512086       -13.9346
 138   2.0000      -0.510531       -13.8923
 139   2.0000      -0.506287       -13.7768
 140   2.0000      -0.502197       -13.6655
 141   2.0000      -0.499435       -13.5903
 142   2.0000      -0.492203       -13.3935
 143   2.0000      -0.485102       -13.2003
 144   2.0000      -0.481541       -13.1034
 145   2.0000      -0.475936       -12.9509
 146   2.0000      -0.473542       -12.8857
 147   2.0000      -0.471052       -12.8180
 148   2.0000      -0.469591       -12.7782
 149   2.0000      -0.468195       -12.7402
 150   2.0000      -0.460772       -12.5383
 151   2.0000      -0.459826       -12.5125
 152   2.0000      -0.458717       -12.4823
 153   2.0000      -0.456551       -12.4234
 154   2.0000      -0.449743       -12.2381
 155   2.0000      -0.443667       -12.0728
 156   2.0000      -0.442351       -12.0370
 157   2.0000      -0.431902       -11.7527
 158   2.0000      -0.427865       -11.6428
 159   2.0000      -0.417449       -11.3594
 160   2.0000      -0.413049       -11.2396
 161   2.0000      -0.410520       -11.1708
 162   2.0000      -0.398783       -10.8514
 163   2.0000      -0.398340       -10.8394
 164   2.0000      -0.397795       -10.8246
 165   2.0000      -0.396767       -10.7966
 166   2.0000      -0.393260       -10.7011
 167   2.0000      -0.389245       -10.5919
 168   2.0000      -0.389176       -10.5900
 169   2.0000      -0.387694       -10.5497
 170   2.0000      -0.380341       -10.3496
 171   2.0000      -0.369422       -10.0525
 172   2.0000      -0.366137        -9.9631
 173   2.0000      -0.361017        -9.8238
 174   2.0000      -0.352283        -9.5861
 175   2.0000      -0.350080        -9.5261
 176   2.0000      -0.348107        -9.4725
 177   2.0000      -0.345799        -9.4097
 178   2.0000      -0.338032        -9.1983
 179   2.0000      -0.331363        -9.0168
 180   2.0000      -0.310806        -8.4575
 181   2.0000      -0.296648        -8.0722
 182   2.0000      -0.275440        -7.4951
 183   2.0000      -0.223303        -6.0764
 184   0.0000      -0.105530        -2.8716
 185   0.0000      -0.077022        -2.0959
 186   0.0000      -0.057928        -1.5763
 187   0.0000      -0.049337        -1.3425
 188   0.0000      -0.029663        -0.8072

MULLIKEN ATOMIC CHARGES
-----------------------
   0 C :   -0.031968
   1 C :    0.047346
   2 C :   -0.061737
   3 C :    0.085532
   4 C :   -0.078392
   5 C :    0.015257
   6 N :    0.051003
   7 O :   -0.104688
   8 N :    0.053091
   9 C :    0.002661
  10 C :   -0.049649
  11 C :    0.034726
  12 C :    0.022038
  13 C :   -0.051022
  14 S :    0.105787
  15 C :   -0.042203
  16 C :    0.032821
  17 C :    0.034811
  18 C :   -0.022039
  19 S :    0.088411
  20 C :   -0.032932
  21 C :   -0.160274
  22 S :    0.170359
  23 C :   -0.090929
  24 C :    0.097779
  25 C :    0.191178
  26 O :   -0.174787
  27 C :    0.238266
  28 N :    0.273969
  29 O :   -0.245754
  30 O :   -0.226035
  31 C :   -0.089675
  32 C :   -0.041765
  33 S :    0.069850
  34 C :   -0.214851
  35 C :    0.185165
  36 O :   -0.174407
  37 O :   -0.157313
  38 C :    0.094543
  39 C :   -0.023308
  40 C :    0.043549
  41 C :    0.037144
  42 C :    0.030869
  43 C :   -0.018950
  44 C :    0.002576
  45 C :   -0.064071
  46 N :    0.044550
  47 O :   -0.103675
  48 N :    0.055150
  49 H :   -0.010300
  50 H :    0.001303
  51 H :   -0.009793
  52 H :    0.009609
  53 H :   -0.009044
  54 H :   -0.009528
  55 H :   -0.008903
  56 H :   -0.004978
  57 H :    0.010607
  58 H :    0.014154
  59 H :    0.177534
  60 H :    0.004191
  61 H :   -0.011255
  62 H :    0.005258
  63 H :   -0.006864
Sum of atomic charges:    0.0000000

LOEWDIN ATOMIC CHARGES
----------------------
   0 C :   -0.022171
   1 C :   -0.008029
   2 C :   -0.022670
   3 C :   -0.021596
   4 C :   -0.053411
   5 C :   -0.059553
   6 N :   -0.026896
   7 O :    0.073979
   8 N :   -0.027957
   9 C :   -0.048228
  10 C :   -0.128572
  11 C :   -0.037865
  12 C :   -0.018697
  13 C :   -0.175750
  14 S :    0.382285
  15 C :   -0.174405
  16 C :   -0.029833
  17 C :   -0.028635
  18 C :   -0.146628
  19 S :    0.374131
  20 C :   -0.072463
  21 C :   -0.189921
  22 S :    0.472513
  23 C :   -0.193801
  24 C :   -0.077765
  25 C :    0.022887
  26 O :    0.011290
  27 C :    0.031012
  28 N :    0.271534
  29 O :   -0.206787
  30 O :   -0.188357
  31 C :   -0.018061
  32 C :   -0.159835
  33 S :    0.429870
  34 C :   -0.237728
  35 C :    0.064248
  36 O :   -0.157582
  37 O :   -0.033598
  38 C :   -0.008337
  39 C :   -0.042064
  40 C :   -0.028696
  41 C :    0.027586
  42 C :   -0.003155
  43 C :   -0.009237
  44 C :   -0.059469
  45 C :   -0.050056
  46 N :   -0.037195
  47 O :    0.074077
  48 N :   -0.023517
  49 H :    0.039320
  50 H :    0.035867
  51 H :    0.030695
  52 H :    0.038295
  53 H :    0.033268
  54 H :    0.033931
  55 H :    0.033751
  56 H :    0.036716
  57 H :    0.048416
  58 H :    0.039572
  59 H :    0.073760
  60 H :    0.034178
  61 H :    0.036444
  62 H :    0.037881
  63 H :    0.041016

  Mayer bond orders larger than 0.100000
B(  0-C ,  1-C ) :   1.5232 B(  0-C ,  3-C ) :   0.1037 B(  0-C ,  5-C ) :   1.1620
B(  0-C , 49-H ) :   1.0240 B(  1-C ,  2-C ) :   1.2034 B(  1-C , 50-H ) :   0.9840
B(  2-C ,  3-C ) :   1.4864 B(  2-C , 51-H ) :   0.9891 B(  3-C ,  4-C ) :   1.1323
B(  3-C ,  9-C ) :   1.1449 B(  4-C ,  5-C ) :   1.1438 B(  4-C ,  8-N ) :   1.6352
B(  5-C ,  6-N ) :   1.5911 B(  6-N ,  7-O ) :   1.0681 B(  6-N ,  8-N ) :   0.1855
B(  7-O ,  8-N ) :   1.0630 B(  9-C , 10-C ) :   1.5993 B(  9-C , 52-H ) :   0.9520
B( 10-C , 11-C ) :   1.1324 B( 10-C , 14-S ) :   1.0399 B( 11-C , 12-C ) :   1.6194
B( 11-C , 53-H ) :   0.9858 B( 12-C , 13-C ) :   1.1817 B( 12-C , 54-H ) :   0.9920
B( 13-C , 14-S ) :   1.0553 B( 13-C , 15-C ) :   1.5100 B( 15-C , 16-C ) :   1.1872
B( 15-C , 19-S ) :   1.0434 B( 16-C , 17-C ) :   1.5899 B( 16-C , 55-H ) :   0.9914
B( 17-C , 18-C ) :   1.1455 B( 17-C , 56-H ) :   1.0015 B( 18-C , 19-S ) :   1.0427
B( 18-C , 20-C ) :   1.5441 B( 20-C , 21-C ) :   1.1997 B( 20-C , 57-H ) :   0.9712
B( 21-C , 22-S ) :   1.0918 B( 21-C , 23-C ) :   0.1081 B( 21-C , 25-C ) :   1.4167
B( 22-S , 23-C ) :   1.1390 B( 23-C , 24-C ) :   1.3394 B( 23-C , 32-C ) :   1.1927
B( 24-C , 25-C ) :   1.2488 B( 24-C , 31-C ) :   1.0853 B( 25-C , 26-O ) :   1.1297
B( 26-O , 27-C ) :   1.1323 B( 27-C , 28-N ) :   0.9156 B( 27-C , 31-C ) :   1.5678
B( 28-N , 29-O ) :   1.5318 B( 28-N , 30-O ) :   1.5137 B( 29-O , 30-O ) :   0.2824
B( 31-C , 58-H ) :   1.0148 B( 32-C , 33-S ) :   1.1428 B( 32-C , 39-C ) :   1.4534
B( 33-S , 34-C ) :   1.0666 B( 34-C , 35-C ) :   0.9419 B( 34-C , 38-C ) :   1.5432
B( 35-C , 36-O ) :   2.1523 B( 35-C , 37-O ) :   1.2388 B( 37-O , 59-H ) :   0.9496
B( 38-C , 39-C ) :   1.3015 B( 38-C , 40-C ) :   0.9508 B( 39-C , 60-H ) :   0.9953
B( 40-C , 41-C ) :   1.5924 B( 40-C , 43-C ) :   0.1096 B( 40-C , 45-C ) :   1.1861
B( 41-C , 42-C ) :   1.1753 B( 41-C , 61-H ) :   0.9878 B( 42-C , 43-C ) :   1.5397
B( 42-C , 62-H ) :   0.9853 B( 43-C , 44-C ) :   1.1604 B( 43-C , 63-H ) :   1.0257
B( 44-C , 45-C ) :   1.1470 B( 44-C , 48-N ) :   1.5911 B( 45-C , 46-N ) :   1.6003
B( 46-N , 47-O ) :   1.0576 B( 46-N , 48-N ) :   0.1869 B( 47-O , 48-N ) :   1.0733

-----------------------------------------------------------------------------
         ABSORPTION SPECTRUM VIA TRANSITION ELECTRIC DIPOLE MOMENTS
-----------------------------------------------------------------------------
State   Energy  Wavelength   fosc         T2         TX        TY        TZ
        (cm-1)    (nm)                  (au**2)     (au)      (au)      (au)
-----------------------------------------------------------------------------
   0   12446.4    803.4   1.136476988  30.06030  -3.28152   3.83852  -2.13487
   1   17916.6    558.1   0.443875989   8.15609  -0.22674   2.83261  -0.28464
   2   22315.7    448.1   0.197708723   2.91670   0.33682   1.64384   0.31788
   3   23398.7    427.4   0.231810612   3.26150   1.11915   1.27997   0.60884
   4   23964.5    417.3   0.161277827   2.21555  -1.19138  -0.72948  -0.51383
   5   27392.4    365.1   0.088515669   1.06382   0.35578   0.89152   0.37740
   6   27944.8    357.8   0.166816391   1.96523   1.08530   0.78586   0.41202
   7   28994.7    344.9   0.247613521   2.81145   0.39001   1.33438   0.93743
   8   30628.0    326.5   0.134622518   1.44702   0.33873   1.03969   0.50132
   9   31205.9    320.5   0.006701190   0.07070  -0.05640  -0.21908  -0.13971
  10   31918.6    313.3   0.025841679   0.26653   0.28568  -0.40413   0.14697
  11   32462.9    308.0   0.023380350   0.23710   0.21623  -0.07186   0.43033
  12   33022.2    302.8   0.163861920   1.63361   0.15619  -1.15974  -0.51401
  13   34573.6    289.2   0.063652821   0.60611  -0.64931   0.40599  -0.14028
  14   34751.9    287.8   0.153328643   1.45251  -0.21711  -0.97844  -0.66936
  15   35104.3    284.9   0.078965714   0.74055  -0.15447   0.84647  -0.01347
  16   35397.9    282.5   0.129991914   1.20897  -0.58443   0.92973  -0.05486
  17   36613.3    273.1   0.039619373   0.35624   0.50214  -0.16255   0.27870
  18   36841.3    271.4   0.078367786   0.70029  -0.36432   0.68892   0.30487
  19   37253.0    268.4   0.010229496   0.09040  -0.09473   0.12383  -0.25708
  20   37923.7    263.7   0.064584491   0.56065  -0.18527  -0.54204  -0.48220
  21   38060.6    262.7   0.015409964   0.13329   0.11279   0.25930   0.23094
  22   38638.4    258.8   0.010330092   0.08802   0.29509  -0.02559  -0.01682
  23   39087.3    255.8   0.005794738   0.04881  -0.07296  -0.20361  -0.04499
  24   39342.0    254.2   0.036162821   0.30261  -0.09452  -0.53461  -0.08870
  25   39896.7    250.6   0.014730214   0.12155   0.03970   0.29559   0.18056
  26   40005.1    250.0   0.046802546   0.38515   0.60564   0.09814  -0.09340
  27   40177.8    248.9   0.134915457   1.10548   0.18990  -1.03386   0.02368

FINAL SINGLE POINT ENERGY     -3656.293515174622

DIPOLE MOMENT
-------------
                                X             Y             Z
Electronic contribution:     14.11642     -17.46955       5.80213
Nuclear contribution   :    -16.49766      18.09224      -7.23612
                        -----------------------------------------
Total Dipole Moment    :     -2.38124       0.62269      -1.43399
                        -----------------------------------------
Magnitude (a.u.)       :      2.84857
Magnitude (Debye)      :      7.24050

Rotational constants in cm-1:     0.001877     0.000728     0.000561
Rotational constants in MHz :    56.262391    21.828260    16.818033

                             ****ORCA TERMINATED NORMALLY****
TOTAL RUN TIME: 0 days 0 hours 4 minutes 15 seconds 16 msec
