                         Program Version 4.2.0 -  RELEASE  -
|  1> # ORCA input file
|  2> # SCF done       -199.110825618236          0.000708854549
|  3> ! CAM-B3LYP def2-SVP def2/J RIJCOSX Grid4 TightSCF
|  4> %maxcore 5000
|  5> %tddft
|  6>     Mode sTDDFT
|  7>     Ethresh 5.0
|  8>     maxcore 5000
|  9> end
| 10>
| 11> %pal
| 12>   nprocs 6
| 13>   end
| 14> * xyz 0 1
| 15>    C       -3.68206         1.13479        -5.42403
| 16>    C       -2.98305         2.08655        -6.13041
| 17>    C       -2.24651         1.81922        -7.29970
| 18>    N       -1.62655         1.66152        -8.25422
| 19>    C       -2.92048         3.45365        -5.79837
| 20>    N       -2.82699         4.58328        -5.60612
| 21>    C       -3.80875        -0.27133        -5.79854
| 22>    C       -4.66672        -0.90572        -4.86897
| 23>    C       -4.98109        -2.23932        -4.94343
| 24>    C       -4.42775        -2.98384        -5.99188
| 25>    C       -3.57255        -2.34130        -6.91528
| 26>    C       -3.25023        -0.99101        -6.83673
| 27>    S       -2.99271        -3.44677        -8.12578
| 28>    C       -3.89808        -4.73851        -7.38356
| 29>    C       -4.59809        -4.36472        -6.28701
| 30>   Br       -3.83358        -6.46120        -8.12557
| 31>    C       -5.10798         0.08172        -3.85795
| 32>    O       -5.77311        -0.16797        -2.86932
| 33>    C       -4.47377         1.35185        -4.24073
| 34>    C       -4.46642         2.49095        -3.46397
| 35>    C       -5.32841         2.82541        -2.40792
| 36>    C       -6.65704         2.43559        -2.30142
| 37>    C       -7.32850         2.82969        -1.08706
| 38>    O       -8.61949         2.46773        -0.86043
| 39>    C       -9.34413         2.16522        -2.03407
| 40>    C       -8.54243         1.23429        -2.93446
| 41>    O       -7.31460         1.83599        -3.30218
| 42>    C       -6.57033         3.51641        -0.16089
| 43>   Si       -4.85614         3.78178        -0.87152
| 44>    C       -3.44497         2.92718         0.02004
| 45>    C       -4.50992         5.59130        -1.21503
| 46>    C       -7.05612         3.97141         1.10229
| 47>    C       -8.34202         4.39735         1.34898
| 48>    C       -8.65885         4.70986         2.72613
| 49>    O       -9.83715         5.27367         3.06664
| 50>    C      -10.59818         5.76309         1.98241
| 51>    C      -10.57606         4.76760         0.82918
| 52>    O       -9.25375         4.59371         0.36555
| 53>    C       -7.65757         4.47207         3.64679
| 54>   Si       -6.09540         4.04044         2.70775
| 55>    C       -5.33341         2.39162         3.18261
| 56>    C       -4.84262         5.43887         2.74102
| 57>    C       -7.81421         4.58874         5.05503
| 58>    C       -8.98857         4.30926         5.72531
| 59>    C       -8.97769         4.50551         7.14656
| 60>    O      -10.01114         4.13469         7.92354
| 61>    C      -11.03267         3.39395         7.27979
| 62>    C      -11.26598         3.93172         5.87345
| 63>    O      -10.08908         3.79508         5.10917
| 64>    C       -7.79835         5.01635         7.68560
| 65>   Si       -6.54721         5.18025         6.30058
| 66>    C       -5.08015         4.03833         6.54634
| 67>    C       -6.07142         6.97305         6.04481
| 68>    C       -7.56136         5.31238         9.02886
| 69>    C       -8.40403         5.52187        10.10407
| 70>    C       -9.79875         5.80606        10.21306
| 71>    C      -10.60919         6.35913         9.24117
| 72>    C      -11.99828         6.52114         9.36000
| 73>    N      -13.14441         6.61840         9.36791
| 74>    C      -10.11298         6.86359         8.03038
| 75>    N       -9.73900         7.29793         7.03335
| 76>    C      -10.19148         5.59911        11.60709
| 77>    C       -9.02287         5.36602        12.37245
| 78>    C       -7.85148         5.36699        11.46628
| 79>    O       -6.68511         5.23368        11.77550
| 80>    C       -9.05621         5.17563        13.73053
| 81>    C      -10.30514         5.20579        14.36374
| 82>    C      -11.46528         5.43087        13.58973
| 83>    C      -11.43013         5.63489        12.21400
| 84>    S      -12.90006         5.42359        14.57187
| 85>    C      -11.93131         5.12588        15.99089
| 86>    C      -10.60386         5.03499        15.74419
| 87>   Br      -12.76601         4.96268        17.66412
| 88>    H       -5.63419        -2.69785        -4.21734
| 89>    H       -2.58688        -0.54873        -7.56101
| 90>    H       -5.20842        -5.03351        -5.70789
| 91>    H       -3.65114         3.18734        -3.62111
| 92>    H      -10.27328         1.69314        -1.71034
| 93>    H       -9.57407         3.09539        -2.57262
| 94>    H       -9.07210         1.02504        -3.86525
| 95>    H       -8.32720         0.29505        -2.41078
| 96>    H       -3.60858         1.85343         0.09366
| 97>    H       -3.29455         3.29795         1.03055
| 98>    H       -2.50564         3.06483        -0.51283
| 99>    H       -5.34404         6.07445        -1.72070
|100>    H       -3.63933         5.71678        -1.85640
|101>    H       -4.31970         6.15586        -0.30539
|102>    H      -11.61053         5.91614         2.36003
|103>    H      -10.18438         6.72385         1.64564
|104>    H      -11.15674         5.13025        -0.02057
|105>    H      -10.97880         3.80323         1.16730
|106>    H       -5.93285         1.86630         3.92295
|107>    H       -4.33698         2.49868         3.60463
|108>    H       -5.24239         1.72910         2.32488
|109>    H       -4.04223         5.28304         2.02172
|110>    H       -4.37663         5.53867         3.71843
|111>    H       -5.29968         6.39771         2.50497
|112>    H      -10.73557         2.33816         7.22905
|113>    H      -11.92410         3.49483         7.90210
|114>    H      -11.55586         4.98988         5.92815
|115>    H      -12.04130         3.36299         5.35842
|116>    H       -5.38008         2.99780         6.65309
|117>    H       -4.52444         4.30033         7.44454
|118>    H       -4.38015         4.08493         5.71629
|119>    H       -6.95639         7.60812         6.04147
|120>    H       -5.54952         7.14398         5.10669
|121>    H       -5.42424         7.33610         6.84144
|122>    H       -6.51146         5.33626         9.30834
|123>    H       -8.14971         5.01084        14.29161
|124>    H      -12.34205         5.80482        11.66553
|125>    H       -9.86329         4.85499        16.50199
|126> *
|127>
|128>                          ****END OF INPUT****

CARTESIAN COORDINATES (ANGSTROEM)
---------------------------------
  C     -3.682060    1.134790   -5.424030
  C     -2.983050    2.086550   -6.130410
  C     -2.246510    1.819220   -7.299700
  N     -1.626550    1.661520   -8.254220
  C     -2.920480    3.453650   -5.798370
  N     -2.826990    4.583280   -5.606120
  C     -3.808750   -0.271330   -5.798540
  C     -4.666720   -0.905720   -4.868970
  C     -4.981090   -2.239320   -4.943430
  C     -4.427750   -2.983840   -5.991880
  C     -3.572550   -2.341300   -6.915280
  C     -3.250230   -0.991010   -6.836730
  S     -2.992710   -3.446770   -8.125780
  C     -3.898080   -4.738510   -7.383560
  C     -4.598090   -4.364720   -6.287010
  Br    -3.833580   -6.461200   -8.125570
  C     -5.107980    0.081720   -3.857950
  O     -5.773110   -0.167970   -2.869320
  C     -4.473770    1.351850   -4.240730
  C     -4.466420    2.490950   -3.463970
  C     -5.328410    2.825410   -2.407920
  C     -6.657040    2.435590   -2.301420
  C     -7.328500    2.829690   -1.087060
  O     -8.619490    2.467730   -0.860430
  C     -9.344130    2.165220   -2.034070
  C     -8.542430    1.234290   -2.934460
  O     -7.314600    1.835990   -3.302180
  C     -6.570330    3.516410   -0.160890
  Si    -4.856140    3.781780   -0.871520
  C     -3.444970    2.927180    0.020040
  C     -4.509920    5.591300   -1.215030
  C     -7.056120    3.971410    1.102290
  C     -8.342020    4.397350    1.348980
  C     -8.658850    4.709860    2.726130
  O     -9.837150    5.273670    3.066640
  C    -10.598180    5.763090    1.982410
  C    -10.576060    4.767600    0.829180
  O     -9.253750    4.593710    0.365550
  C     -7.657570    4.472070    3.646790
  Si    -6.095400    4.040440    2.707750
  C     -5.333410    2.391620    3.182610
  C     -4.842620    5.438870    2.741020
  C     -7.814210    4.588740    5.055030
  C     -8.988570    4.309260    5.725310
  C     -8.977690    4.505510    7.146560
  O    -10.011140    4.134690    7.923540
  C    -11.032670    3.393950    7.279790
  C    -11.265980    3.931720    5.873450
  O    -10.089080    3.795080    5.109170
  C     -7.798350    5.016350    7.685600
  Si    -6.547210    5.180250    6.300580
  C     -5.080150    4.038330    6.546340
  C     -6.071420    6.973050    6.044810
  C     -7.561360    5.312380    9.028860
  C     -8.404030    5.521870   10.104070
  C     -9.798750    5.806060   10.213060
  C    -10.609190    6.359130    9.241170
  C    -11.998280    6.521140    9.360000
  N    -13.144410    6.618400    9.367910
  C    -10.112980    6.863590    8.030380
  N     -9.739000    7.297930    7.033350
  C    -10.191480    5.599110   11.607090
  C     -9.022870    5.366020   12.372450
  C     -7.851480    5.366990   11.466280
  O     -6.685110    5.233680   11.775500
  C     -9.056210    5.175630   13.730530
  C    -10.305140    5.205790   14.363740
  C    -11.465280    5.430870   13.589730
  C    -11.430130    5.634890   12.214000
  S    -12.900060    5.423590   14.571870
  C    -11.931310    5.125880   15.990890
  C    -10.603860    5.034990   15.744190
  Br   -12.766010    4.962680   17.664120
  H     -5.634190   -2.697850   -4.217340
  H     -2.586880   -0.548730   -7.561010
  H     -5.208420   -5.033510   -5.707890
  H     -3.651140    3.187340   -3.621110
  H    -10.273280    1.693140   -1.710340
  H     -9.574070    3.095390   -2.572620
  H     -9.072100    1.025040   -3.865250
  H     -8.327200    0.295050   -2.410780
  H     -3.608580    1.853430    0.093660
  H     -3.294550    3.297950    1.030550
  H     -2.505640    3.064830   -0.512830
  H     -5.344040    6.074450   -1.720700
  H     -3.639330    5.716780   -1.856400
  H     -4.319700    6.155860   -0.305390
  H    -11.610530    5.916140    2.360030
  H    -10.184380    6.723850    1.645640
  H    -11.156740    5.130250   -0.020570
  H    -10.978800    3.803230    1.167300
  H     -5.932850    1.866300    3.922950
  H     -4.336980    2.498680    3.604630
  H     -5.242390    1.729100    2.324880
  H     -4.042230    5.283040    2.021720
  H     -4.376630    5.538670    3.718430
  H     -5.299680    6.397710    2.504970
  H    -10.735570    2.338160    7.229050
  H    -11.924100    3.494830    7.902100
  H    -11.555860    4.989880    5.928150
  H    -12.041300    3.362990    5.358420
  H     -5.380080    2.997800    6.653090
  H     -4.524440    4.300330    7.444540
  H     -4.380150    4.084930    5.716290
  H     -6.956390    7.608120    6.041470
  H     -5.549520    7.143980    5.106690
  H     -5.424240    7.336100    6.841440
  H     -6.511460    5.336260    9.308340
  H     -8.149710    5.010840   14.291610
  H    -12.342050    5.804820   11.665530
  H     -9.863290    4.854990   16.501990

 Total Charge           Charge          ....    0
 Multiplicity           Mult            ....    1
 Number of Electrons    NEL             ....  598
 Basis Dimension        Dim             .... 1268

ORBITAL ENERGIES
----------------

  NO   OCC          E(Eh)            E(eV)
   0   2.0000    -482.879014    -13139.8060
   1   2.0000    -482.876959    -13139.7501
   2   2.0000     -88.966346     -2420.8973
   3   2.0000     -88.964754     -2420.8540
   4   2.0000     -66.195595     -1801.2737
   5   2.0000     -66.193369     -1801.2132
   6   2.0000     -66.191946     -1801.1744
   7   2.0000     -62.556754     -1702.2558
   8   2.0000     -62.554689     -1702.1996
   9   2.0000     -56.390693     -1534.4688
  10   2.0000     -56.388626     -1534.4125
  11   2.0000     -56.388000     -1534.3955
  12   2.0000     -56.387959     -1534.3944
  13   2.0000     -56.385938     -1534.3394
  14   2.0000     -56.385894     -1534.3382
  15   2.0000     -19.285582      -524.7874
  16   2.0000     -19.273856      -524.4683
  17   2.0000     -19.265589      -524.2433
  18   2.0000     -19.265446      -524.2394
  19   2.0000     -19.258934      -524.0622
  20   2.0000     -19.257660      -524.0276
  21   2.0000     -19.198729      -522.4240
  22   2.0000     -19.196187      -522.3548
  23   2.0000     -14.403549      -391.9405
  24   2.0000     -14.402689      -391.9171
  25   2.0000     -14.399442      -391.8287
  26   2.0000     -14.398946      -391.8152
  27   2.0000     -10.366969      -282.0996
  28   2.0000     -10.365320      -282.0547
  29   2.0000     -10.350302      -281.6460
  30   2.0000     -10.350085      -281.6401
  31   2.0000     -10.349176      -281.6154
  32   2.0000     -10.348961      -281.6095
  33   2.0000     -10.348930      -281.6087
  34   2.0000     -10.347492      -281.5696
  35   2.0000     -10.347236      -281.5626
  36   2.0000     -10.346009      -281.5292
  37   2.0000     -10.345817      -281.5240
  38   2.0000     -10.344482      -281.4877
  39   2.0000     -10.343157      -281.4516
  40   2.0000     -10.342968      -281.4465
  41   2.0000     -10.342384      -281.4306
  42   2.0000     -10.340515      -281.3797
  43   2.0000     -10.323384      -280.9136
  44   2.0000     -10.321573      -280.8643
  45   2.0000     -10.319067      -280.7961
  46   2.0000     -10.318460      -280.7796
  47   2.0000     -10.314260      -280.6653
  48   2.0000     -10.312768      -280.6247
  49   2.0000     -10.307729      -280.4876
  50   2.0000     -10.306542      -280.4553
  51   2.0000     -10.303778      -280.3800
  52   2.0000     -10.303193      -280.3641
  53   2.0000     -10.300583      -280.2931
  54   2.0000     -10.296781      -280.1897
  55   2.0000     -10.296102      -280.1712
  56   2.0000     -10.294144      -280.1179
  57   2.0000     -10.293528      -280.1011
  58   2.0000     -10.293285      -280.0945
  59   2.0000     -10.292419      -280.0710
  60   2.0000     -10.290920      -280.0302
  61   2.0000     -10.289365      -279.9878
  62   2.0000     -10.288794      -279.9723
  63   2.0000     -10.287436      -279.9354
  64   2.0000     -10.286418      -279.9077
  65   2.0000     -10.278757      -279.6992
  66   2.0000     -10.276014      -279.6246
  67   2.0000     -10.272060      -279.5170
  68   2.0000     -10.270140      -279.4647
  69   2.0000     -10.269465      -279.4464
  70   2.0000     -10.267988      -279.4062
  71   2.0000     -10.259744      -279.1818
  72   2.0000     -10.259001      -279.1616
  73   2.0000     -10.257922      -279.1323
  74   2.0000     -10.255572      -279.0683
  75   2.0000     -10.255331      -279.0617
  76   2.0000     -10.254233      -279.0319
  77   2.0000     -10.252163      -278.9755
  78   2.0000     -10.252123      -278.9744
  79   2.0000     -10.249531      -278.9039
  80   2.0000     -10.244006      -278.7536
  81   2.0000      -8.786191      -239.0844
  82   2.0000      -8.784114      -239.0279
  83   2.0000      -8.062369      -219.3882
  84   2.0000      -8.060696      -219.3427
  85   2.0000      -6.622456      -180.2062
  86   2.0000      -6.620365      -180.1493
  87   2.0000      -6.607925      -179.8108
  88   2.0000      -6.607775      -179.8067
  89   2.0000      -6.605851      -179.7543
  90   2.0000      -6.605711      -179.7505
  91   2.0000      -6.032056      -164.1406
  92   2.0000      -6.030410      -164.0958
  93   2.0000      -6.027802      -164.0248
  94   2.0000      -6.026130      -163.9793
  95   2.0000      -6.023574      -163.9098
  96   2.0000      -6.021916      -163.8647
  97   2.0000      -5.362185      -145.9125
  98   2.0000      -5.360334      -145.8621
  99   2.0000      -5.358945      -145.8243
 100   2.0000      -3.725563      -101.3777
 101   2.0000      -3.723964      -101.3342
 102   2.0000      -3.723784      -101.3293
 103   2.0000      -3.723539      -101.3226
 104   2.0000      -3.722442      -101.2928
 105   2.0000      -3.722183      -101.2857
 106   2.0000      -3.721486      -101.2668
 107   2.0000      -3.720851      -101.2495
 108   2.0000      -3.719975      -101.2257
 109   2.0000      -2.738283       -74.5125
 110   2.0000      -2.736215       -74.4562
 111   2.0000      -2.734272       -74.4033
 112   2.0000      -2.734151       -74.4000
 113   2.0000      -2.732156       -74.3457
 114   2.0000      -2.732083       -74.3437
 115   2.0000      -2.722605       -74.0859
 116   2.0000      -2.722575       -74.0850
 117   2.0000      -2.720533       -74.0295
 118   2.0000      -2.720515       -74.0290
 119   2.0000      -1.203297       -32.7434
 120   2.0000      -1.197987       -32.5989
 121   2.0000      -1.194264       -32.4976
 122   2.0000      -1.159974       -31.5645
 123   2.0000      -1.155670       -31.4474
 124   2.0000      -1.151364       -31.3302
 125   2.0000      -1.110877       -30.2285
 126   2.0000      -1.109592       -30.1935
 127   2.0000      -1.010648       -27.5011
 128   2.0000      -1.008922       -27.4542
 129   2.0000      -1.000775       -27.2325
 130   2.0000      -0.998999       -27.1841
 131   2.0000      -0.983027       -26.7495
 132   2.0000      -0.978230       -26.6190
 133   2.0000      -0.974961       -26.5300
 134   2.0000      -0.973744       -26.4969
 135   2.0000      -0.946378       -25.7523
 136   2.0000      -0.940347       -25.5881
 137   2.0000      -0.931526       -25.3481
 138   2.0000      -0.927704       -25.2441
 139   2.0000      -0.924441       -25.1553
 140   2.0000      -0.896437       -24.3933
 141   2.0000      -0.894768       -24.3479
 142   2.0000      -0.885520       -24.0962
 143   2.0000      -0.882217       -24.0063
 144   2.0000      -0.874294       -23.7907
 145   2.0000      -0.872427       -23.7399
 146   2.0000      -0.864341       -23.5199
 147   2.0000      -0.857597       -23.3364
 148   2.0000      -0.854638       -23.2559
 149   2.0000      -0.853915       -23.2362
 150   2.0000      -0.841636       -22.9021
 151   2.0000      -0.831067       -22.6145
 152   2.0000      -0.818357       -22.2686
 153   2.0000      -0.816561       -22.2198
 154   2.0000      -0.813083       -22.1251
 155   2.0000      -0.805144       -21.9091
 156   2.0000      -0.800664       -21.7872
 157   2.0000      -0.796988       -21.6871
 158   2.0000      -0.792862       -21.5749
 159   2.0000      -0.775913       -21.1137
 160   2.0000      -0.770268       -20.9601
 161   2.0000      -0.770026       -20.9535
 162   2.0000      -0.769179       -20.9304
 163   2.0000      -0.767054       -20.8726
 164   2.0000      -0.759220       -20.6594
 165   2.0000      -0.758259       -20.6333
 166   2.0000      -0.744001       -20.2453
 167   2.0000      -0.743313       -20.2266
 168   2.0000      -0.718065       -19.5395
 169   2.0000      -0.716454       -19.4957
 170   2.0000      -0.690609       -18.7924
 171   2.0000      -0.688012       -18.7218
 172   2.0000      -0.687252       -18.7011
 173   2.0000      -0.684099       -18.6153
 174   2.0000      -0.675207       -18.3733
 175   2.0000      -0.673672       -18.3315
 176   2.0000      -0.660806       -17.9814
 177   2.0000      -0.656909       -17.8754
 178   2.0000      -0.652844       -17.7648
 179   2.0000      -0.646308       -17.5869
 180   2.0000      -0.645547       -17.5662
 181   2.0000      -0.644339       -17.5333
 182   2.0000      -0.638706       -17.3801
 183   2.0000      -0.636105       -17.3093
 184   2.0000      -0.632037       -17.1986
 185   2.0000      -0.627024       -17.0622
 186   2.0000      -0.616245       -16.7689
 187   2.0000      -0.611136       -16.6299
 188   2.0000      -0.608499       -16.5581
 189   2.0000      -0.604576       -16.4513
 190   2.0000      -0.597205       -16.2508
 191   2.0000      -0.588825       -16.0227
 192   2.0000      -0.582944       -15.8627
 193   2.0000      -0.581490       -15.8231
 194   2.0000      -0.570444       -15.5226
 195   2.0000      -0.568118       -15.4593
 196   2.0000      -0.567021       -15.4294
 197   2.0000      -0.561253       -15.2725
 198   2.0000      -0.557350       -15.1663
 199   2.0000      -0.551655       -15.0113
 200   2.0000      -0.549097       -14.9417
 201   2.0000      -0.545936       -14.8557
 202   2.0000      -0.542050       -14.7499
 203   2.0000      -0.540300       -14.7023
 204   2.0000      -0.539558       -14.6821
 205   2.0000      -0.535556       -14.5732
 206   2.0000      -0.533305       -14.5120
 207   2.0000      -0.531272       -14.4567
 208   2.0000      -0.530328       -14.4309
 209   2.0000      -0.525297       -14.2940
 210   2.0000      -0.523775       -14.2526
 211   2.0000      -0.520126       -14.1534
 212   2.0000      -0.518227       -14.1017
 213   2.0000      -0.517349       -14.0778
 214   2.0000      -0.512699       -13.9512
 215   2.0000      -0.509767       -13.8715
 216   2.0000      -0.508696       -13.8423
 217   2.0000      -0.507604       -13.8126
 218   2.0000      -0.504199       -13.7200
 219   2.0000      -0.503879       -13.7112
 220   2.0000      -0.501991       -13.6599
 221   2.0000      -0.500306       -13.6140
 222   2.0000      -0.497558       -13.5392
 223   2.0000      -0.495370       -13.4797
 224   2.0000      -0.494056       -13.4439
 225   2.0000      -0.493548       -13.4301
 226   2.0000      -0.491536       -13.3754
 227   2.0000      -0.490191       -13.3388
 228   2.0000      -0.487506       -13.2657
 229   2.0000      -0.486058       -13.2263
 230   2.0000      -0.484958       -13.1964
 231   2.0000      -0.483855       -13.1664
 232   2.0000      -0.482275       -13.1234
 233   2.0000      -0.480654       -13.0793
 234   2.0000      -0.478039       -13.0081
 235   2.0000      -0.476166       -12.9571
 236   2.0000      -0.474680       -12.9167
 237   2.0000      -0.473005       -12.8711
 238   2.0000      -0.471434       -12.8284
 239   2.0000      -0.470113       -12.7924
 240   2.0000      -0.470008       -12.7896
 241   2.0000      -0.467325       -12.7166
 242   2.0000      -0.465882       -12.6773
 243   2.0000      -0.465374       -12.6635
 244   2.0000      -0.461903       -12.5690
 245   2.0000      -0.454977       -12.3806
 246   2.0000      -0.447393       -12.1742
 247   2.0000      -0.445792       -12.1306
 248   2.0000      -0.440288       -11.9808
 249   2.0000      -0.436085       -11.8665
 250   2.0000      -0.435088       -11.8394
 251   2.0000      -0.434820       -11.8320
 252   2.0000      -0.432877       -11.7792
 253   2.0000      -0.431011       -11.7284
 254   2.0000      -0.430057       -11.7024
 255   2.0000      -0.429584       -11.6896
 256   2.0000      -0.428150       -11.6505
 257   2.0000      -0.427377       -11.6295
 258   2.0000      -0.426816       -11.6142
 259   2.0000      -0.417325       -11.3560
 260   2.0000      -0.416301       -11.3281
 261   2.0000      -0.413729       -11.2581
 262   2.0000      -0.411769       -11.2048
 263   2.0000      -0.410605       -11.1731
 264   2.0000      -0.409514       -11.1434
 265   2.0000      -0.407815       -11.0972
 266   2.0000      -0.405884       -11.0447
 267   2.0000      -0.405086       -11.0229
 268   2.0000      -0.401278       -10.9193
 269   2.0000      -0.399566       -10.8727
 270   2.0000      -0.397006       -10.8031
 271   2.0000      -0.394959       -10.7474
 272   2.0000      -0.393702       -10.7132
 273   2.0000      -0.390596       -10.6286
 274   2.0000      -0.389286       -10.5930
 275   2.0000      -0.385219       -10.4823
 276   2.0000      -0.382728       -10.4146
 277   2.0000      -0.379655       -10.3309
 278   2.0000      -0.377595       -10.2749
 279   2.0000      -0.377147       -10.2627
 280   2.0000      -0.374558       -10.1922
 281   2.0000      -0.368714       -10.0332
 282   2.0000      -0.366764        -9.9801
 283   2.0000      -0.364150        -9.9090
 284   2.0000      -0.360267        -9.8034
 285   2.0000      -0.340334        -9.2610
 286   2.0000      -0.337673        -9.1885
 287   2.0000      -0.335432        -9.1276
 288   2.0000      -0.327694        -8.9170
 289   2.0000      -0.322618        -8.7789
 290   2.0000      -0.318607        -8.6697
 291   2.0000      -0.312475        -8.5029
 292   2.0000      -0.304578        -8.2880
 293   2.0000      -0.302266        -8.2251
 294   2.0000      -0.289218        -7.8700
 295   2.0000      -0.282372        -7.6837
 296   2.0000      -0.280201        -7.6247
 297   2.0000      -0.257734        -7.0133
 298   2.0000      -0.224652        -6.1131
 299   0.0000      -0.088599        -2.4109
 300   0.0000      -0.068965        -1.8766
 301   0.0000      -0.052743        -1.4352
 302   0.0000      -0.045379        -1.2348
 303   0.0000      -0.023712        -0.6452

MULLIKEN ATOMIC CHARGES
-----------------------
   0 C :    0.307241
   1 C :   -0.358694
   2 C :   -0.186821
   3 N :    0.134641
   4 C :   -0.202581
   5 N :    0.140769
   6 C :    0.012754
   7 C :   -0.007670
   8 C :   -0.086609
   9 C :    0.119554
  10 C :   -0.091184
  11 C :   -0.026700
  12 S :    0.179147
  13 C :   -0.124357
  14 C :    0.035645
  15 Br:    0.013634
  16 C :    0.141208
  17 O :   -0.182466
  18 C :   -0.085460
  19 C :   -0.000081
  20 C :   -0.230444
  21 C :    0.183590
  22 C :    0.109648
  23 O :   -0.288593
  24 C :    0.180513
  25 C :    0.187887
  26 O :   -0.260684
  27 C :   -0.190156
  28 Si:    0.469172
  29 C :   -0.194408
  30 C :   -0.168680
  31 C :   -0.210735
  32 C :    0.133204
  33 C :    0.137748
  34 O :   -0.268308
  35 C :    0.184435
  36 C :    0.177282
  37 O :   -0.278169
  38 C :   -0.214843
  39 Si:    0.464710
  40 C :   -0.193187
  41 C :   -0.182282
  42 C :   -0.173535
  43 C :    0.124342
  44 C :    0.126511
  45 O :   -0.267582
  46 C :    0.179583
  47 C :    0.173656
  48 O :   -0.290721
  49 C :   -0.203044
  50 Si:    0.466336
  51 C :   -0.188840
  52 C :   -0.170941
  53 C :    0.037925
  54 C :   -0.122928
  55 C :    0.306775
  56 C :   -0.362096
  57 C :   -0.190000
  58 N :    0.120061
  59 C :   -0.199155
  60 N :    0.145185
  61 C :    0.011847
  62 C :    0.000177
  63 C :    0.128726
  64 O :   -0.160816
  65 C :   -0.075658
  66 C :    0.112342
  67 C :   -0.089990
  68 C :   -0.037797
  69 S :    0.172437
  70 C :   -0.125439
  71 C :    0.037815
  72 Br:    0.011005
  73 H :   -0.021969
  74 H :   -0.009038
  75 H :   -0.008504
  76 H :    0.020437
  77 H :    0.028565
  78 H :    0.024987
  79 H :    0.034095
  80 H :    0.047259
  81 H :    0.062982
  82 H :    0.030717
  83 H :    0.048472
  84 H :    0.053883
  85 H :    0.056709
  86 H :    0.030510
  87 H :    0.033523
  88 H :    0.033450
  89 H :    0.032081
  90 H :    0.028121
  91 H :    0.052197
  92 H :    0.038079
  93 H :    0.050656
  94 H :    0.041613
  95 H :    0.041094
  96 H :    0.060780
  97 H :    0.039595
  98 H :    0.048788
  99 H :    0.043501
 100 H :    0.030411
 101 H :    0.053514
 102 H :    0.051411
 103 H :    0.034481
 104 H :    0.070213
 105 H :    0.024419
 106 H :    0.043378
 107 H :    0.009505
 108 H :   -0.015800
 109 H :   -0.013415
 110 H :   -0.006550
Sum of atomic charges:    0.0000000

LOEWDIN ATOMIC CHARGES
----------------------
   0 C :    0.076929
   1 C :   -0.158464
   2 C :   -0.019061
   3 N :   -0.069374
   4 C :   -0.022440
   5 N :   -0.069660
   6 C :   -0.020149
   7 C :   -0.046663
   8 C :    0.012182
   9 C :   -0.036596
  10 C :   -0.147322
  11 C :   -0.012645
  12 S :    0.426871
  13 C :   -0.275224
  14 C :   -0.072394
  15 Br:    0.128863
  16 C :    0.079802
  17 O :   -0.170060
  18 C :   -0.120715
  19 C :    0.069032
  20 C :   -0.238066
  21 C :    0.091138
  22 C :    0.011274
  23 O :   -0.087862
  24 C :    0.069218
  25 C :    0.075029
  26 O :   -0.048654
  27 C :   -0.172719
  28 Si:    0.667465
  29 C :   -0.244748
  30 C :   -0.239522
  31 C :   -0.214427
  32 C :    0.035772
  33 C :    0.040451
  34 O :   -0.068055
  35 C :    0.071948
  36 C :    0.068510
  37 O :   -0.077257
  38 C :   -0.217040
  39 Si:    0.667367
  40 C :   -0.248676
  41 C :   -0.242279
  42 C :   -0.166627
  43 C :    0.010103
  44 C :    0.079435
  45 O :   -0.040302
  46 C :    0.075369
  47 C :    0.070144
  48 O :   -0.087223
  49 C :   -0.226171
  50 Si:    0.669493
  51 C :   -0.242770
  52 C :   -0.241900
  53 C :    0.055885
  54 C :   -0.118879
  55 C :    0.068739
  56 C :   -0.168429
  57 C :   -0.024437
  58 N :   -0.083836
  59 C :   -0.012117
  60 N :   -0.079230
  61 C :   -0.013921
  62 C :   -0.052513
  63 C :    0.081345
  64 O :   -0.160009
  65 C :    0.018504
  66 C :   -0.039998
  67 C :   -0.145759
  68 C :   -0.022387
  69 S :    0.421998
  70 C :   -0.277351
  71 C :   -0.070215
  72 Br:    0.126699
  73 H :    0.035998
  74 H :    0.040118
  75 H :    0.036523
  76 H :    0.038772
  77 H :    0.031658
  78 H :    0.019811
  79 H :    0.034067
  80 H :    0.028998
  81 H :    0.043441
  82 H :    0.030111
  83 H :    0.041521
  84 H :    0.043186
  85 H :    0.043091
  86 H :    0.033473
  87 H :    0.033114
  88 H :    0.024532
  89 H :    0.032356
  90 H :    0.021715
  91 H :    0.041378
  92 H :    0.033241
  93 H :    0.041095
  94 H :    0.032937
  95 H :    0.032935
  96 H :    0.041281
  97 H :    0.027318
  98 H :    0.037559
  99 H :    0.027902
 100 H :    0.032861
 101 H :    0.040739
 102 H :    0.041892
 103 H :    0.030774
 104 H :    0.049063
 105 H :    0.031810
 106 H :    0.038164
 107 H :    0.037332
 108 H :    0.038694
 109 H :    0.037742
 110 H :    0.037383

  Mayer bond orders larger than 0.100000
B(  0-C ,  1-C ) :   1.5992 B(  0-C ,  6-C ) :   0.9900 B(  0-C , 18-C ) :   1.1172
B(  1-C ,  2-C ) :   1.1452 B(  1-C ,  4-C ) :   1.1500 B(  2-C ,  3-N ) :   2.9648
B(  4-C ,  5-N ) :   2.9881 B(  6-C ,  7-C ) :   1.2796 B(  6-C , 11-C ) :   1.4181
B(  7-C ,  8-C ) :   1.4278 B(  7-C , 16-C ) :   0.9342 B(  8-C ,  9-C ) :   1.2370
B(  8-C , 73-H ) :   1.0173 B(  9-C , 10-C ) :   1.3198 B(  9-C , 14-C ) :   1.1596
B( 10-C , 11-C ) :   1.3185 B( 10-C , 12-S ) :   1.0804 B( 11-C , 74-H ) :   0.9815
B( 12-S , 13-C ) :   1.0877 B( 13-C , 14-C ) :   1.6193 B( 13-C , 15-Br) :   1.0127
B( 14-C , 75-H ) :   1.0008 B( 16-C , 17-O ) :   2.1709 B( 16-C , 18-C ) :   0.9896
B( 18-C , 19-C ) :   1.4588 B( 19-C , 20-C ) :   1.2636 B( 19-C , 76-H ) :   0.9384
B( 20-C , 21-C ) :   1.5209 B( 20-C , 28-Si) :   0.8846 B( 21-C , 22-C ) :   1.0660
B( 21-C , 26-O ) :   1.2210 B( 22-C , 23-O ) :   1.1465 B( 22-C , 27-C ) :   1.6303
B( 23-O , 24-C ) :   0.9511 B( 24-C , 25-C ) :   1.0840 B( 24-C , 77-H ) :   0.9523
B( 24-C , 78-H ) :   0.9387 B( 25-C , 26-O ) :   0.9219 B( 25-C , 79-H ) :   0.9529
B( 25-C , 80-H ) :   0.9386 B( 27-C , 28-Si) :   0.8877 B( 27-C , 31-C ) :   1.0866
B( 28-Si, 29-C ) :   1.0502 B( 28-Si, 30-C ) :   1.0774 B( 29-C , 81-H ) :   0.9445
B( 29-C , 82-H ) :   0.9556 B( 29-C , 83-H ) :   0.9430 B( 30-C , 84-H ) :   0.9443
B( 30-C , 85-H ) :   0.9482 B( 30-C , 86-H ) :   0.9476 B( 31-C , 32-C ) :   1.6443
B( 31-C , 39-Si) :   0.8975 B( 32-C , 33-C ) :   1.0262 B( 32-C , 37-O ) :   1.1672
B( 33-C , 34-O ) :   1.1780 B( 33-C , 38-C ) :   1.6176 B( 34-O , 35-C ) :   0.9500
B( 35-C , 36-C ) :   1.0800 B( 35-C , 87-H ) :   0.9519 B( 35-C , 88-H ) :   0.9422
B( 36-C , 37-O ) :   0.9473 B( 36-C , 89-H ) :   0.9521 B( 36-C , 90-H ) :   0.9405
B( 38-C , 39-Si) :   0.9065 B( 38-C , 42-C ) :   1.1073 B( 39-Si, 40-C ) :   1.0472
B( 39-Si, 41-C ) :   1.0617 B( 40-C , 91-H ) :   0.9508 B( 40-C , 92-H ) :   0.9508
B( 40-C , 93-H ) :   0.9500 B( 41-C , 94-H ) :   0.9430 B( 41-C , 95-H ) :   0.9411
B( 41-C , 96-H ) :   0.9391 B( 42-C , 43-C ) :   1.6257 B( 42-C , 50-Si) :   0.8820
B( 43-C , 44-C ) :   1.0815 B( 43-C , 48-O ) :   1.1397 B( 44-C , 45-O ) :   1.2029
B( 44-C , 49-C ) :   1.4734 B( 45-O , 46-C ) :   0.9146 B( 46-C , 47-C ) :   1.0810
B( 46-C , 97-H ) :   0.9452 B( 46-C , 98-H ) :   0.9509 B( 47-C , 48-O ) :   0.9546
B( 47-C , 99-H ) :   0.9400 B( 47-C ,100-H ) :   0.9509 B( 49-C , 50-Si) :   0.8789
B( 49-C , 53-C ) :   1.2873 B( 50-Si, 51-C ) :   1.0518 B( 50-Si, 52-C ) :   1.0851
B( 51-C ,101-H ) :   0.9456 B( 51-C ,102-H ) :   0.9456 B( 51-C ,103-H ) :   0.9531
B( 52-C ,104-H ) :   0.9405 B( 52-C ,105-H ) :   0.9476 B( 52-C ,106-H ) :   0.9458
B( 53-C , 54-C ) :   1.4532 B( 53-C ,107-H ) :   0.9301 B( 54-C , 55-C ) :   1.1462
B( 54-C , 63-C ) :   0.9689 B( 55-C , 56-C ) :   1.5402 B( 55-C , 61-C ) :   1.0064
B( 56-C , 57-C ) :   1.1474 B( 56-C , 59-C ) :   1.2043 B( 57-C , 58-N ) :   2.9605
B( 59-C , 60-N ) :   2.9358 B( 61-C , 62-C ) :   1.2765 B( 61-C , 68-C ) :   1.4281
B( 62-C , 63-C ) :   0.9157 B( 62-C , 65-C ) :   1.4371 B( 63-C , 64-O ) :   2.2401
B( 65-C , 66-C ) :   1.2403 B( 65-C ,108-H ) :   1.0161 B( 66-C , 67-C ) :   1.3248
B( 66-C , 71-C ) :   1.1590 B( 67-C , 68-C ) :   1.3117 B( 67-C , 69-S ) :   1.0810
B( 68-C ,109-H ) :   0.9830 B( 69-S , 70-C ) :   1.0828 B( 70-C , 71-C ) :   1.6249
B( 70-C , 72-Br) :   1.0104 B( 71-C ,110-H ) :   0.9995

-----------------------------------------------------------------------------
         ABSORPTION SPECTRUM VIA TRANSITION ELECTRIC DIPOLE MOMENTS
-----------------------------------------------------------------------------
State   Energy  Wavelength   fosc         T2         TX        TY        TZ
        (cm-1)    (nm)                  (au**2)     (au)      (au)      (au)
-----------------------------------------------------------------------------
   0   13696.5    730.1   1.770942332  42.56668   2.22984  -1.81009  -5.85816
   1   18966.2    527.3   0.018801645   0.32636   0.40205  -0.30388   0.26902
   2   22515.0    444.1   0.020810875   0.30429  -0.50002   0.23083   0.03152
   3   22844.9    437.7   0.055765091   0.80362  -0.76361  -0.03555  -0.46825
   4   23846.2    419.4   0.060696397   0.83795  -0.30256   0.58767  -0.63329
   5   26998.6    370.4   0.050350066   0.61395   0.54341   0.02204  -0.56407
   6   27677.6    361.3   0.020454154   0.24329   0.00159   0.26013  -0.41908
   7   27931.1    358.0   0.090487932   1.06654  -0.16912   0.06656  -1.01662
   8   28422.5    351.8   0.242797553   2.81227  -0.03314  -1.65159  -0.28882
   9   29118.6    343.4   0.048259960   0.54562   0.52066  -0.33554  -0.40243
  10   30057.9    332.7   0.136076971   1.49039   0.02715   1.19088  -0.26732
  11   30361.9    329.4   0.156014273   1.69165  -0.46558   0.63061   1.03789
  12   30564.3    327.2   0.029835134   0.32136   0.24040  -0.49541  -0.13467
  13   31116.3    321.4   0.040209301   0.42542  -0.06288   0.53126  -0.37313
  14   31339.2    319.1   0.096283572   1.01144   0.18597   0.18094  -0.97166
  15   32316.5    309.4   0.008815170   0.08980   0.14310   0.22715   0.13314
  16   32399.4    308.6   0.056914154   0.57831  -0.35521   0.30233  -0.60061
  17   32710.0    305.7   0.042707172   0.42983  -0.21513   0.56808  -0.24664
  18   32954.1    303.5   0.013553080   0.13540   0.11672   0.24584  -0.24766
  19   33442.6    299.0   0.201970407   1.98821  -0.41954  -1.11123  -0.75985
  20   33781.1    296.0   0.072841410   0.70987  -0.00420   0.84213  -0.02602
  21   34113.7    293.1   0.574528835   5.54445   0.32521   0.95532  -2.12745
  22   34187.9    292.5   0.151593289   1.45977  -0.49031  -1.09987  -0.09818
  23   35483.3    281.8   0.053960574   0.50064  -0.33396   0.12798  -0.61052
  24   35633.7    280.6   0.040082388   0.37031   0.32607  -0.51213  -0.04130
  25   36118.6    276.9   0.034397694   0.31353  -0.31248  -0.33351  -0.32350
  26   36312.5    275.4   0.036101783   0.32730   0.35233  -0.03596   0.44930
  27   36735.1    272.2   0.031345599   0.28091  -0.52437   0.07121   0.02957
  28   37501.9    266.7   0.052009568   0.45657   0.62788   0.22555   0.10704
  29   37618.9    265.8   0.039455845   0.34529   0.00296  -0.41399   0.41700
  30   38281.0    261.2   0.026039166   0.22393   0.41067   0.23337  -0.02871
  31   38659.6    258.7   0.079346526   0.67569  -0.56010  -0.53436   0.27648
  32   39104.5    255.7   0.172427261   1.45163  -0.35032   0.44477   1.06352
  33   39487.5    253.2   0.044174653   0.36829   0.54865   0.25800  -0.02661
  34   39768.9    251.5   0.076590606   0.63403   0.14428   0.51897  -0.58641
  35   40045.4    249.7   0.140356771   1.15387  -0.10758   0.85050  -0.64726
  36   40203.1    248.7   0.283337251   2.32017   1.46098   0.23141   0.36355

FINAL SINGLE POINT ENERGY     -9710.011819140387

DIPOLE MOMENT
-------------
                                X             Y             Z
Electronic contribution:    -34.13801    -100.70414      41.83866
Nuclear contribution   :     31.53150      98.69429     -40.93154
                        -----------------------------------------
Total Dipole Moment    :     -2.60652      -2.00985       0.90712
                        -----------------------------------------
Magnitude (a.u.)       :      3.41413
Magnitude (Debye)      :      8.67803

Rotational constants in cm-1:     0.001807     0.000172     0.000167
Rotational constants in MHz :    54.175184     5.162573     4.994670

                             ****ORCA TERMINATED NORMALLY****
TOTAL RUN TIME: 0 days 0 hours 13 minutes 7 seconds 189 msec
