                         Program Version 4.2.0 -  RELEASE  -
|  1> # ORCA input file
|  2> # SCF done       -193.891593918279          0.000865521322
|  3> ! CAM-B3LYP def2-SVP def2/J RIJCOSX Grid4 TightSCF
|  4> %maxcore 5000
|  5> %tddft
|  6>     Mode sTDDFT
|  7>     Ethresh 5.0
|  8>     maxcore 5000
|  9> end
| 10>
| 11> %pal
| 12>   nprocs 6
| 13>   end
| 14> * xyz 0 1
| 15>    C        6.43034        -2.67189         0.66237
| 16>    O        5.57020        -3.67060         0.78794
| 17>    C        4.50513        -3.41062        -0.01244
| 18>    C        4.70081        -2.19612        -0.67073
| 19>    C        5.96838        -1.72148        -0.21906
| 20>    C        6.73724        -0.48998        -0.53981
| 21>    F        7.89828        -0.45572         0.13111
| 22>    F        7.05859        -0.37630        -1.84252
| 23>    F        6.09058         0.64739        -0.21908
| 24>    O        3.78203        -1.71544        -1.51885
| 25>    C        4.01731        -0.50320        -2.20927
| 26>    C        3.39661        -4.29607        -0.10839
| 27>    C        3.30053        -5.45845         0.57731
| 28>    C        2.20659        -6.35944         0.49708
| 29>    C        1.04743        -6.27402        -0.25425
| 30>    C        0.20877        -7.37049        -0.06223
| 31>    C        0.73144        -8.31082         0.85284
| 32>    S        2.25234        -7.83057         1.46564
| 33>    C       -0.17932        -9.37834         0.97754
| 34>    C       -1.28605        -9.12050         0.13939
| 35>    C       -1.08443        -7.83737        -0.52166
| 36>    C       -1.95253        -7.19779        -1.35864
| 37>    C       -3.23608        -7.69586        -1.66561
| 38>    N       -4.30217        -8.05159        -1.89621
| 39>    C       -1.64695        -5.94703        -1.93533
| 40>    N       -1.40794        -4.92519        -2.39817
| 41>    C       -2.23485       -10.12583         0.15121
| 42>    C       -1.88828       -11.17662         1.00432
| 43>    S       -0.34309       -10.86445         1.80909
| 44>    C       -2.56263       -12.37186         1.27973
| 45>    C       -3.65831       -12.87227         0.60852
| 46>    C       -4.35488       -14.06639         0.90947
| 47>    C       -5.37973       -14.35536         0.05205
| 48>    C       -5.53478       -13.40911        -0.97766
| 49>    S       -4.35969       -12.12996        -0.81222
| 50>    C       -6.42443       -13.36200        -2.04123
| 51>    C       -7.49892       -14.20389        -2.38057
| 52>    C       -8.15593       -13.81996        -3.51624
| 53>    C       -7.62575       -12.66465        -4.13797
| 54>    S       -6.26293       -12.07746        -3.21294
| 55>    C       -8.10576       -12.06390        -5.28259
| 56>    C       -7.57330       -10.94873        -5.93969
| 57>    C       -6.39245       -10.23796        -5.70346
| 58>    C       -6.22026        -9.19214        -6.59138
| 59>    C       -7.27099        -9.06567        -7.52463
| 60>    S       -8.46530       -10.27229        -7.30813
| 61>    C       -6.99623        -7.96419        -8.35884
| 62>    C       -5.77095        -7.38658        -7.96061
| 63>    C       -5.23987        -8.14062        -6.84586
| 64>    C       -4.06317        -7.93613        -6.18409
| 65>    C       -3.19793        -6.86559        -6.49653
| 66>    N       -2.48365        -5.99922        -6.72938
| 67>    C       -3.59083        -8.78441        -5.16158
| 68>    N       -3.15404        -9.46962        -4.35129
| 69>    C       -5.40812        -6.28806        -8.74334
| 70>    C       -6.33752        -6.03096        -9.72829
| 71>    S       -7.70102        -7.14480        -9.68099
| 72>    C       -6.38671        -4.99057       -10.70268
| 73>    O       -7.59647        -4.64541       -11.16750
| 74>    C       -7.45427        -3.60209       -12.01678
| 75>    C       -6.10956        -3.26712       -12.12061
| 76>    C       -5.40981        -4.18801       -11.28783
| 77>    C       -3.94456        -4.39777       -11.16501
| 78>    F       -3.63190        -5.66493       -10.85038
| 79>    F       -3.28401        -4.14876       -12.30894
| 80>    F       -3.36293        -3.62218       -10.22529
| 81>    O       -5.70106        -2.24326       -12.88946
| 82>    C       -4.49339        -1.56768       -12.57798
| 83>    C       -8.58411        -3.00481       -12.66766
| 84>    C       -9.84220        -3.41173       -12.51056
| 85>    H        7.34151        -2.70670         1.22634
| 86>    H        3.13418        -0.35357        -2.82769
| 87>    H        4.89866        -0.57164        -2.85093
| 88>    H        4.12081         0.33846        -1.52088
| 89>    H        2.62091        -3.96813        -0.78212
| 90>    H        4.10673        -5.73987         1.24094
| 91>    H        0.83288        -5.45117        -0.91029
| 92>    H       -3.14644       -10.09182        -0.41354
| 93>    H       -2.16684       -12.97961         2.08307
| 94>    H       -4.07907       -14.67782         1.75069
| 95>    H       -6.00916       -15.22384         0.12958
| 96>    H       -7.76688       -15.05726        -1.78355
| 97>    H       -9.00507       -14.33650        -3.92812
| 98>    H       -8.99857       -12.49677        -5.71509
| 99>    H       -5.69156       -10.48704        -4.93014
|100>    H       -4.52552        -5.69717        -8.58525
|101>    H       -4.63907        -0.53808       -12.90438
|102>    H       -3.65090        -1.99853       -13.12241
|103>    H       -4.28712        -1.57992       -11.50612
|104>    H       -8.32803        -2.17523       -13.31013
|105>    H      -10.08530        -4.24236       -11.87046
|106>    H      -10.65665        -2.92686       -13.01749
|107> *
|108>
|109>                          ****END OF INPUT****

CARTESIAN COORDINATES (ANGSTROEM)
---------------------------------
  C      6.430340   -2.671890    0.662370
  O      5.570200   -3.670600    0.787940
  C      4.505130   -3.410620   -0.012440
  C      4.700810   -2.196120   -0.670730
  C      5.968380   -1.721480   -0.219060
  C      6.737240   -0.489980   -0.539810
  F      7.898280   -0.455720    0.131110
  F      7.058590   -0.376300   -1.842520
  F      6.090580    0.647390   -0.219080
  O      3.782030   -1.715440   -1.518850
  C      4.017310   -0.503200   -2.209270
  C      3.396610   -4.296070   -0.108390
  C      3.300530   -5.458450    0.577310
  C      2.206590   -6.359440    0.497080
  C      1.047430   -6.274020   -0.254250
  C      0.208770   -7.370490   -0.062230
  C      0.731440   -8.310820    0.852840
  S      2.252340   -7.830570    1.465640
  C     -0.179320   -9.378340    0.977540
  C     -1.286050   -9.120500    0.139390
  C     -1.084430   -7.837370   -0.521660
  C     -1.952530   -7.197790   -1.358640
  C     -3.236080   -7.695860   -1.665610
  N     -4.302170   -8.051590   -1.896210
  C     -1.646950   -5.947030   -1.935330
  N     -1.407940   -4.925190   -2.398170
  C     -2.234850  -10.125830    0.151210
  C     -1.888280  -11.176620    1.004320
  S     -0.343090  -10.864450    1.809090
  C     -2.562630  -12.371860    1.279730
  C     -3.658310  -12.872270    0.608520
  C     -4.354880  -14.066390    0.909470
  C     -5.379730  -14.355360    0.052050
  C     -5.534780  -13.409110   -0.977660
  S     -4.359690  -12.129960   -0.812220
  C     -6.424430  -13.362000   -2.041230
  C     -7.498920  -14.203890   -2.380570
  C     -8.155930  -13.819960   -3.516240
  C     -7.625750  -12.664650   -4.137970
  S     -6.262930  -12.077460   -3.212940
  C     -8.105760  -12.063900   -5.282590
  C     -7.573300  -10.948730   -5.939690
  C     -6.392450  -10.237960   -5.703460
  C     -6.220260   -9.192140   -6.591380
  C     -7.270990   -9.065670   -7.524630
  S     -8.465300  -10.272290   -7.308130
  C     -6.996230   -7.964190   -8.358840
  C     -5.770950   -7.386580   -7.960610
  C     -5.239870   -8.140620   -6.845860
  C     -4.063170   -7.936130   -6.184090
  C     -3.197930   -6.865590   -6.496530
  N     -2.483650   -5.999220   -6.729380
  C     -3.590830   -8.784410   -5.161580
  N     -3.154040   -9.469620   -4.351290
  C     -5.408120   -6.288060   -8.743340
  C     -6.337520   -6.030960   -9.728290
  S     -7.701020   -7.144800   -9.680990
  C     -6.386710   -4.990570  -10.702680
  O     -7.596470   -4.645410  -11.167500
  C     -7.454270   -3.602090  -12.016780
  C     -6.109560   -3.267120  -12.120610
  C     -5.409810   -4.188010  -11.287830
  C     -3.944560   -4.397770  -11.165010
  F     -3.631900   -5.664930  -10.850380
  F     -3.284010   -4.148760  -12.308940
  F     -3.362930   -3.622180  -10.225290
  O     -5.701060   -2.243260  -12.889460
  C     -4.493390   -1.567680  -12.577980
  C     -8.584110   -3.004810  -12.667660
  C     -9.842200   -3.411730  -12.510560
  H      7.341510   -2.706700    1.226340
  H      3.134180   -0.353570   -2.827690
  H      4.898660   -0.571640   -2.850930
  H      4.120810    0.338460   -1.520880
  H      2.620910   -3.968130   -0.782120
  H      4.106730   -5.739870    1.240940
  H      0.832880   -5.451170   -0.910290
  H     -3.146440  -10.091820   -0.413540
  H     -2.166840  -12.979610    2.083070
  H     -4.079070  -14.677820    1.750690
  H     -6.009160  -15.223840    0.129580
  H     -7.766880  -15.057260   -1.783550
  H     -9.005070  -14.336500   -3.928120
  H     -8.998570  -12.496770   -5.715090
  H     -5.691560  -10.487040   -4.930140
  H     -4.525520   -5.697170   -8.585250
  H     -4.639070   -0.538080  -12.904380
  H     -3.650900   -1.998530  -13.122410
  H     -4.287120   -1.579920  -11.506120
  H     -8.328030   -2.175230  -13.310130
  H    -10.085300   -4.242360  -11.870460
  H    -10.656650   -2.926860  -13.017490

 Total Charge           Charge          ....    0
 Multiplicity           Mult            ....    1
 Number of Electrons    NEL             ....  532
 Basis Dimension        Dim             .... 1114

ORBITAL ENERGIES
----------------

  NO   OCC          E(Eh)            E(eV)
   0   2.0000     -88.978409     -2421.2256
   1   2.0000     -88.974054     -2421.1071
   2   2.0000     -88.974007     -2421.1058
   3   2.0000     -88.973561     -2421.0937
   4   2.0000     -88.944575     -2420.3049
   5   2.0000     -88.944302     -2420.2975
   6   2.0000     -24.802884      -674.9208
   7   2.0000     -24.800057      -674.8439
   8   2.0000     -24.799927      -674.8403
   9   2.0000     -24.797122      -674.7640
  10   2.0000     -24.795111      -674.7093
  11   2.0000     -24.793082      -674.6541
  12   2.0000     -19.305291      -525.3237
  13   2.0000     -19.300159      -525.1840
  14   2.0000     -19.257311      -524.0181
  15   2.0000     -19.250463      -523.8317
  16   2.0000     -14.417314      -392.3151
  17   2.0000     -14.416618      -392.2961
  18   2.0000     -14.416512      -392.2932
  19   2.0000     -14.414648      -392.2425
  20   2.0000     -10.525155      -286.4040
  21   2.0000     -10.519541      -286.2513
  22   2.0000     -10.355955      -281.7999
  23   2.0000     -10.351551      -281.6800
  24   2.0000     -10.350126      -281.6412
  25   2.0000     -10.347804      -281.5781
  26   2.0000     -10.347272      -281.5636
  27   2.0000     -10.341165      -281.3974
  28   2.0000     -10.338239      -281.3178
  29   2.0000     -10.336629      -281.2740
  30   2.0000     -10.325908      -280.9822
  31   2.0000     -10.322485      -280.8891
  32   2.0000     -10.322381      -280.8863
  33   2.0000     -10.320578      -280.8372
  34   2.0000     -10.319617      -280.8111
  35   2.0000     -10.317501      -280.7535
  36   2.0000     -10.317418      -280.7512
  37   2.0000     -10.316889      -280.7368
  38   2.0000     -10.316388      -280.7232
  39   2.0000     -10.315636      -280.7027
  40   2.0000     -10.315028      -280.6862
  41   2.0000     -10.314775      -280.6793
  42   2.0000     -10.314757      -280.6788
  43   2.0000     -10.313210      -280.6367
  44   2.0000     -10.310480      -280.5624
  45   2.0000     -10.310237      -280.5558
  46   2.0000     -10.308752      -280.5154
  47   2.0000     -10.308236      -280.5014
  48   2.0000     -10.308106      -280.4978
  49   2.0000     -10.307412      -280.4789
  50   2.0000     -10.298237      -280.2293
  51   2.0000     -10.293837      -280.1095
  52   2.0000     -10.292450      -280.0718
  53   2.0000     -10.291271      -280.0397
  54   2.0000     -10.289849      -280.0010
  55   2.0000     -10.289068      -279.9798
  56   2.0000     -10.288762      -279.9715
  57   2.0000     -10.287923      -279.9486
  58   2.0000     -10.287159      -279.9278
  59   2.0000     -10.286819      -279.9186
  60   2.0000     -10.286808      -279.9183
  61   2.0000     -10.286313      -279.9048
  62   2.0000     -10.284818      -279.8641
  63   2.0000     -10.284727      -279.8616
  64   2.0000     -10.284554      -279.8569
  65   2.0000     -10.283208      -279.8203
  66   2.0000     -10.282486      -279.8007
  67   2.0000     -10.280174      -279.7378
  68   2.0000     -10.273133      -279.5462
  69   2.0000     -10.257381      -279.1175
  70   2.0000      -8.072941      -219.6759
  71   2.0000      -8.068707      -219.5607
  72   2.0000      -8.068641      -219.5589
  73   2.0000      -8.068276      -219.5489
  74   2.0000      -8.040461      -218.7921
  75   2.0000      -8.040339      -218.7888
  76   2.0000      -6.042238      -164.4177
  77   2.0000      -6.038011      -164.3026
  78   2.0000      -6.037959      -164.3012
  79   2.0000      -6.037914      -164.3000
  80   2.0000      -6.037469      -164.2879
  81   2.0000      -6.035234      -164.2271
  82   2.0000      -6.033956      -164.1923
  83   2.0000      -6.033864      -164.1898
  84   2.0000      -6.033400      -164.1772
  85   2.0000      -6.030926      -164.1098
  86   2.0000      -6.030864      -164.1081
  87   2.0000      -6.030706      -164.1039
  88   2.0000      -6.010220      -163.5464
  89   2.0000      -6.010076      -163.5425
  90   2.0000      -6.005989      -163.4313
  91   2.0000      -6.005871      -163.4281
  92   2.0000      -6.001511      -163.3094
  93   2.0000      -6.001373      -163.3057
  94   2.0000      -1.391215       -37.8569
  95   2.0000      -1.385620       -37.7046
  96   2.0000      -1.294138       -35.2153
  97   2.0000      -1.290808       -35.1247
  98   2.0000      -1.287776       -35.0422
  99   2.0000      -1.284793       -34.9610
 100   2.0000      -1.226961       -33.3873
 101   2.0000      -1.222212       -33.2581
 102   2.0000      -1.160526       -31.5795
 103   2.0000      -1.152587       -31.3635
 104   2.0000      -1.030621       -28.0446
 105   2.0000      -1.028445       -27.9854
 106   2.0000      -1.008883       -27.4531
 107   2.0000      -1.006753       -27.3951
 108   2.0000      -0.997349       -27.1393
 109   2.0000      -0.994363       -27.0580
 110   2.0000      -0.992050       -26.9950
 111   2.0000      -0.985064       -26.8050
 112   2.0000      -0.981143       -26.6983
 113   2.0000      -0.971580       -26.4380
 114   2.0000      -0.946619       -25.7588
 115   2.0000      -0.944325       -25.6964
 116   2.0000      -0.922797       -25.1106
 117   2.0000      -0.920165       -25.0390
 118   2.0000      -0.913251       -24.8508
 119   2.0000      -0.909618       -24.7520
 120   2.0000      -0.900296       -24.4983
 121   2.0000      -0.893974       -24.3263
 122   2.0000      -0.881276       -23.9807
 123   2.0000      -0.866288       -23.5729
 124   2.0000      -0.857612       -23.3368
 125   2.0000      -0.855736       -23.2858
 126   2.0000      -0.849243       -23.1091
 127   2.0000      -0.843175       -22.9440
 128   2.0000      -0.840190       -22.8627
 129   2.0000      -0.837097       -22.7786
 130   2.0000      -0.832522       -22.6541
 131   2.0000      -0.820086       -22.3157
 132   2.0000      -0.816271       -22.2119
 133   2.0000      -0.808316       -21.9954
 134   2.0000      -0.801092       -21.7988
 135   2.0000      -0.788501       -21.4562
 136   2.0000      -0.784090       -21.3362
 137   2.0000      -0.777905       -21.1679
 138   2.0000      -0.766655       -20.8617
 139   2.0000      -0.762948       -20.7609
 140   2.0000      -0.756417       -20.5831
 141   2.0000      -0.742806       -20.2128
 142   2.0000      -0.723121       -19.6771
 143   2.0000      -0.716374       -19.4935
 144   2.0000      -0.713287       -19.4095
 145   2.0000      -0.704451       -19.1691
 146   2.0000      -0.692967       -18.8566
 147   2.0000      -0.687626       -18.7113
 148   2.0000      -0.685820       -18.6621
 149   2.0000      -0.681485       -18.5441
 150   2.0000      -0.679611       -18.4932
 151   2.0000      -0.674428       -18.3521
 152   2.0000      -0.672508       -18.2999
 153   2.0000      -0.670398       -18.2425
 154   2.0000      -0.667844       -18.1730
 155   2.0000      -0.664375       -18.0786
 156   2.0000      -0.659566       -17.9477
 157   2.0000      -0.654541       -17.8110
 158   2.0000      -0.650671       -17.7057
 159   2.0000      -0.644908       -17.5488
 160   2.0000      -0.638382       -17.3713
 161   2.0000      -0.625957       -17.0332
 162   2.0000      -0.621989       -16.9252
 163   2.0000      -0.620229       -16.8773
 164   2.0000      -0.618003       -16.8167
 165   2.0000      -0.614304       -16.7161
 166   2.0000      -0.606390       -16.5007
 167   2.0000      -0.604316       -16.4443
 168   2.0000      -0.602508       -16.3951
 169   2.0000      -0.598397       -16.2832
 170   2.0000      -0.593794       -16.1580
 171   2.0000      -0.589421       -16.0390
 172   2.0000      -0.583320       -15.8730
 173   2.0000      -0.577868       -15.7246
 174   2.0000      -0.576326       -15.6826
 175   2.0000      -0.572460       -15.5774
 176   2.0000      -0.563482       -15.3331
 177   2.0000      -0.559837       -15.2339
 178   2.0000      -0.554941       -15.1007
 179   2.0000      -0.552544       -15.0355
 180   2.0000      -0.548608       -14.9284
 181   2.0000      -0.548106       -14.9147
 182   2.0000      -0.544241       -14.8095
 183   2.0000      -0.542700       -14.7676
 184   2.0000      -0.542518       -14.7627
 185   2.0000      -0.539854       -14.6902
 186   2.0000      -0.539290       -14.6748
 187   2.0000      -0.533911       -14.5285
 188   2.0000      -0.532436       -14.4883
 189   2.0000      -0.531543       -14.4640
 190   2.0000      -0.530733       -14.4420
 191   2.0000      -0.526837       -14.3360
 192   2.0000      -0.525147       -14.2900
 193   2.0000      -0.517833       -14.0909
 194   2.0000      -0.509734       -13.8706
 195   2.0000      -0.509455       -13.8630
 196   2.0000      -0.507709       -13.8155
 197   2.0000      -0.506097       -13.7716
 198   2.0000      -0.502708       -13.6794
 199   2.0000      -0.500265       -13.6129
 200   2.0000      -0.499129       -13.5820
 201   2.0000      -0.496694       -13.5157
 202   2.0000      -0.494664       -13.4605
 203   2.0000      -0.493201       -13.4207
 204   2.0000      -0.488921       -13.3042
 205   2.0000      -0.487394       -13.2627
 206   2.0000      -0.487328       -13.2609
 207   2.0000      -0.486699       -13.2438
 208   2.0000      -0.483760       -13.1638
 209   2.0000      -0.483189       -13.1482
 210   2.0000      -0.480916       -13.0864
 211   2.0000      -0.477780       -13.0010
 212   2.0000      -0.477338       -12.9890
 213   2.0000      -0.472382       -12.8542
 214   2.0000      -0.471617       -12.8333
 215   2.0000      -0.469184       -12.7672
 216   2.0000      -0.463974       -12.6254
 217   2.0000      -0.461874       -12.5682
 218   2.0000      -0.459374       -12.5002
 219   2.0000      -0.456937       -12.4339
 220   2.0000      -0.456237       -12.4148
 221   2.0000      -0.453442       -12.3388
 222   2.0000      -0.450546       -12.2600
 223   2.0000      -0.447665       -12.1816
 224   2.0000      -0.445971       -12.1355
 225   2.0000      -0.444748       -12.1022
 226   2.0000      -0.442377       -12.0377
 227   2.0000      -0.438956       -11.9446
 228   2.0000      -0.436512       -11.8781
 229   2.0000      -0.435585       -11.8529
 230   2.0000      -0.433417       -11.7939
 231   2.0000      -0.432808       -11.7773
 232   2.0000      -0.431891       -11.7523
 233   2.0000      -0.430475       -11.7138
 234   2.0000      -0.427162       -11.6237
 235   2.0000      -0.426446       -11.6042
 236   2.0000      -0.425713       -11.5842
 237   2.0000      -0.422687       -11.5019
 238   2.0000      -0.421780       -11.4772
 239   2.0000      -0.421187       -11.4611
 240   2.0000      -0.415729       -11.3126
 241   2.0000      -0.414258       -11.2725
 242   2.0000      -0.412000       -11.2111
 243   2.0000      -0.410568       -11.1721
 244   2.0000      -0.409739       -11.1496
 245   2.0000      -0.400994       -10.9116
 246   2.0000      -0.391812       -10.6617
 247   2.0000      -0.390097       -10.6151
 248   2.0000      -0.386185       -10.5086
 249   2.0000      -0.383136       -10.4257
 250   2.0000      -0.370348       -10.0777
 251   2.0000      -0.355546        -9.6749
 252   2.0000      -0.348538        -9.4842
 253   2.0000      -0.342264        -9.3135
 254   2.0000      -0.336868        -9.1666
 255   2.0000      -0.335599        -9.1321
 256   2.0000      -0.332757        -9.0548
 257   2.0000      -0.325868        -8.8673
 258   2.0000      -0.318470        -8.6660
 259   2.0000      -0.309420        -8.4198
 260   2.0000      -0.306522        -8.3409
 261   2.0000      -0.296556        -8.0697
 262   2.0000      -0.274351        -7.4655
 263   2.0000      -0.249333        -6.7847
 264   2.0000      -0.233425        -6.3518
 265   2.0000      -0.199758        -5.4357
 266   0.0000      -0.100711        -2.7405
 267   0.0000      -0.089555        -2.4369
 268   0.0000      -0.073741        -2.0066
 269   0.0000      -0.034020        -0.9257
 270   0.0000      -0.024933        -0.6785

MULLIKEN ATOMIC CHARGES
-----------------------
   0 C :    0.109640
   1 O :   -0.173428
   2 C :    0.074688
   3 C :    0.154936
   4 C :   -0.183669
   5 C :    0.524686
   6 F :   -0.156476
   7 F :   -0.162639
   8 F :   -0.162676
   9 O :   -0.295595
  10 C :    0.174853
  11 C :   -0.024157
  12 C :    0.041757
  13 C :   -0.070435
  14 C :   -0.039102
  15 C :    0.005903
  16 C :   -0.111659
  17 S :    0.175633
  18 C :   -0.096490
  19 C :   -0.007330
  20 C :    0.312798
  21 C :   -0.302445
  22 C :   -0.169168
  23 N :    0.168144
  24 C :   -0.195742
  25 N :    0.172188
  26 C :   -0.033742
  27 C :   -0.100248
  28 S :    0.169678
  29 C :    0.037081
  30 C :   -0.036351
  31 C :    0.033948
  32 C :    0.028261
  33 C :   -0.028778
  34 S :    0.067896
  35 C :   -0.031969
  36 C :    0.033444
  37 C :    0.028898
  38 C :   -0.030195
  39 S :    0.062785
  40 C :    0.032642
  41 C :   -0.093077
  42 C :   -0.042884
  43 C :   -0.001734
  44 C :   -0.102295
  45 S :    0.170868
  46 C :   -0.091778
  47 C :   -0.023147
  48 C :    0.322460
  49 C :   -0.305127
  50 C :   -0.201059
  51 N :    0.179437
  52 C :   -0.166336
  53 N :    0.161661
  54 C :   -0.005277
  55 C :   -0.139717
  56 S :    0.206222
  57 C :    0.153379
  58 O :   -0.195329
  59 C :    0.070164
  60 C :    0.131010
  61 C :   -0.180729
  62 C :    0.523261
  63 F :   -0.155462
  64 F :   -0.161111
  65 F :   -0.164866
  66 O :   -0.305690
  67 C :    0.176248
  68 C :   -0.025589
  69 C :   -0.004586
  70 H :    0.025417
  71 H :    0.043750
  72 H :    0.033134
  73 H :    0.032881
  74 H :    0.014994
  75 H :   -0.012591
  76 H :    0.005190
  77 H :    0.031942
  78 H :   -0.017776
  79 H :   -0.012753
  80 H :   -0.014069
  81 H :   -0.014390
  82 H :   -0.013548
  83 H :   -0.019859
  84 H :    0.031850
  85 H :    0.012688
  86 H :    0.034656
  87 H :    0.040990
  88 H :    0.029594
  89 H :    0.003421
  90 H :    0.018502
  91 H :    0.019494
Sum of atomic charges:   -0.0000000

LOEWDIN ATOMIC CHARGES
----------------------
   0 C :    0.066836
   1 O :    0.038829
   2 C :   -0.013700
   3 C :    0.026144
   4 C :   -0.166149
   5 C :    0.170212
   6 F :   -0.055354
   7 F :   -0.062762
   8 F :   -0.063331
   9 O :   -0.089844
  10 C :    0.076332
  11 C :   -0.020305
  12 C :   -0.054957
  13 C :   -0.158556
  14 C :   -0.032587
  15 C :   -0.065785
  16 C :   -0.189120
  17 S :    0.464044
  18 C :   -0.182071
  19 C :   -0.066051
  20 C :    0.082301
  21 C :   -0.098302
  22 C :   -0.014984
  23 N :   -0.032822
  24 C :   -0.016040
  25 N :   -0.034936
  26 C :   -0.036817
  27 C :   -0.167567
  28 S :    0.457305
  29 C :   -0.074005
  30 C :   -0.150859
  31 C :   -0.028839
  32 C :   -0.040124
  33 C :   -0.173498
  34 S :    0.409914
  35 C :   -0.181406
  36 C :   -0.034622
  37 C :   -0.034961
  38 C :   -0.143706
  39 S :    0.408040
  40 C :   -0.085542
  41 C :   -0.157219
  42 C :   -0.042977
  43 C :   -0.057518
  44 C :   -0.196780
  45 S :    0.458889
  46 C :   -0.170180
  47 C :   -0.078273
  48 C :    0.081506
  49 C :   -0.098578
  50 C :   -0.018939
  51 N :   -0.028741
  52 C :   -0.013676
  53 N :   -0.033310
  54 C :   -0.013815
  55 C :   -0.194192
  56 S :    0.483388
  57 C :    0.036885
  58 O :    0.025235
  59 C :   -0.010278
  60 C :    0.024762
  61 C :   -0.163708
  62 C :    0.171289
  63 F :   -0.048518
  64 F :   -0.054617
  65 F :   -0.067097
  66 O :   -0.099971
  67 C :    0.078573
  68 C :   -0.034596
  69 C :   -0.048244
  70 H :    0.031300
  71 H :    0.032914
  72 H :    0.016884
  73 H :    0.016215
  74 H :    0.042897
  75 H :    0.028002
  76 H :    0.038654
  77 H :    0.025674
  78 H :    0.033003
  79 H :    0.032971
  80 H :    0.032054
  81 H :    0.032281
  82 H :    0.032549
  83 H :    0.032276
  84 H :    0.025116
  85 H :    0.038075
  86 H :    0.026873
  87 H :    0.017981
  88 H :    0.017180
  89 H :    0.040165
  90 H :    0.022415
  91 H :    0.024868

  Mayer bond orders larger than 0.100000
B(  0-C ,  1-O ) :   1.2019 B(  0-C ,  2-C ) :   0.1005 B(  0-C ,  4-C ) :   1.4891
B(  0-C , 70-H ) :   1.0121 B(  1-O ,  2-C ) :   1.1178 B(  2-C ,  3-C ) :   1.4231
B(  2-C , 11-C ) :   1.1639 B(  3-C ,  4-C ) :   1.2181 B(  3-C ,  9-O ) :   1.2297
B(  4-C ,  5-C ) :   0.9554 B(  5-C ,  6-F ) :   1.1723 B(  5-C ,  7-F ) :   1.1547
B(  5-C ,  8-F ) :   1.1550 B(  9-O , 10-C ) :   0.9277 B( 10-C , 71-H ) :   0.9774
B( 10-C , 72-H ) :   0.9659 B( 10-C , 73-H ) :   0.9645 B( 11-C , 12-C ) :   1.6611
B( 11-C , 74-H ) :   0.9618 B( 12-C , 13-C ) :   1.1068 B( 12-C , 75-H ) :   0.9678
B( 13-C , 14-C ) :   1.4611 B( 13-C , 17-S ) :   1.0988 B( 14-C , 15-C ) :   1.2980
B( 14-C , 76-H ) :   0.9897 B( 15-C , 16-C ) :   1.4228 B( 15-C , 20-C ) :   1.0025
B( 16-C , 17-S ) :   1.1124 B( 16-C , 18-C ) :   1.2179 B( 18-C , 19-C ) :   1.4158
B( 18-C , 28-S ) :   1.1150 B( 19-C , 20-C ) :   0.9956 B( 19-C , 26-C ) :   1.3581
B( 20-C , 21-C ) :   1.7050 B( 21-C , 22-C ) :   1.1422 B( 21-C , 24-C ) :   1.1403
B( 22-C , 23-N ) :   2.9400 B( 24-C , 25-N ) :   2.9900 B( 26-C , 27-C ) :   1.3936
B( 26-C , 77-H ) :   0.9615 B( 27-C , 28-S ) :   1.0816 B( 27-C , 29-C ) :   1.1899
B( 29-C , 30-C ) :   1.5681 B( 29-C , 78-H ) :   0.9543 B( 30-C , 31-C ) :   1.1628
B( 30-C , 34-S ) :   1.0462 B( 31-C , 32-C ) :   1.5684 B( 31-C , 79-H ) :   0.9985
B( 32-C , 33-C ) :   1.2064 B( 32-C , 80-H ) :   0.9944 B( 33-C , 34-S ) :   1.0588
B( 33-C , 35-C ) :   1.4667 B( 35-C , 36-C ) :   1.2093 B( 35-C , 39-S ) :   1.0509
B( 36-C , 37-C ) :   1.5654 B( 36-C , 81-H ) :   0.9946 B( 37-C , 38-C ) :   1.1649
B( 37-C , 82-H ) :   0.9989 B( 38-C , 39-S ) :   1.0533 B( 38-C , 40-C ) :   1.5627
B( 40-C , 41-C ) :   1.1940 B( 40-C , 83-H ) :   0.9522 B( 41-C , 42-C ) :   1.3856
B( 41-C , 45-S ) :   1.0938 B( 42-C , 43-C ) :   1.3587 B( 42-C , 84-H ) :   0.9650
B( 43-C , 44-C ) :   1.4224 B( 43-C , 48-C ) :   0.9910 B( 44-C , 45-S ) :   1.1018
B( 44-C , 46-C ) :   1.2151 B( 46-C , 47-C ) :   1.4187 B( 46-C , 56-S ) :   1.1251
B( 47-C , 48-C ) :   1.0039 B( 47-C , 54-C ) :   1.3031 B( 48-C , 49-C ) :   1.6997
B( 49-C , 50-C ) :   1.1411 B( 49-C , 52-C ) :   1.1462 B( 50-C , 51-N ) :   2.9899
B( 52-C , 53-N ) :   2.9270 B( 54-C , 55-C ) :   1.4975 B( 54-C , 85-H ) :   0.9793
B( 55-C , 56-S ) :   1.0814 B( 55-C , 57-C ) :   1.0825 B( 57-C , 58-O ) :   1.2157
B( 57-C , 59-C ) :   0.1205 B( 57-C , 61-C ) :   1.4816 B( 58-O , 59-C ) :   1.0960
B( 59-C , 60-C ) :   1.4479 B( 59-C , 68-C ) :   1.1392 B( 60-C , 61-C ) :   1.2008
B( 60-C , 66-O ) :   1.2242 B( 61-C , 62-C ) :   0.9500 B( 62-C , 63-F ) :   1.1603
B( 62-C , 64-F ) :   1.1529 B( 62-C , 65-F ) :   1.1457 B( 66-O , 67-C ) :   0.9263
B( 67-C , 86-H ) :   0.9784 B( 67-C , 87-H ) :   0.9732 B( 67-C , 88-H ) :   0.9635
B( 68-C , 69-C ) :   1.8995 B( 68-C , 89-H ) :   0.9569 B( 69-C , 90-H ) :   0.9583
B( 69-C , 91-H ) :   0.9467

-----------------------------------------------------------------------------
         ABSORPTION SPECTRUM VIA TRANSITION ELECTRIC DIPOLE MOMENTS
-----------------------------------------------------------------------------
State   Energy  Wavelength   fosc         T2         TX        TY        TZ
        (cm-1)    (nm)                  (au**2)     (au)      (au)      (au)
-----------------------------------------------------------------------------
   0    6896.3   1450.0   0.217499709  10.38284   2.05608  -0.00746   2.48099
   1    8327.5   1200.8   0.092992717   3.67628  -0.81858  -1.58125   0.71124
   2   13154.0    760.2   0.762086453  19.07313   2.95453   0.42616   3.18783
   3   14904.3    670.9   0.158681307   3.50501  -0.57927  -1.55320   0.87007
   4   16173.9    618.3   0.000590134   0.01201   0.02184   0.10562   0.01945
   5   20425.2    489.6   0.046638956   0.75172  -0.30775  -0.66271   0.46672
   6   21270.4    470.1   0.261587013   4.04871   0.74871   1.68681  -0.80176
   7   22466.4    445.1   0.302320171   4.43005  -0.65834  -1.76425   0.94025
   8   23075.6    433.4   1.464753934  20.89715   1.78617   3.83381  -1.73454
   9   24823.1    402.9   0.314977535   4.17733  -1.31931  -1.52798   0.31942
  10   25801.5    387.6   0.159492940   2.03503  -1.08527   0.23905  -0.89447
  11   26155.5    382.3   0.033587186   0.42275   0.59819  -0.06367   0.24672
  12   26600.0    375.9   0.036625628   0.45329   0.35653  -0.42854   0.37754
  13   28668.1    348.8   0.011857724   0.13617  -0.16868  -0.31137   0.10374
  14   29621.3    337.6   0.002741305   0.03047  -0.02117  -0.14282   0.09809
  15   29811.3    335.4   0.050102441   0.55329   0.54975   0.49793  -0.05596
  16   30059.6    332.7   1.003613074  10.99155   2.68003  -0.28045   1.93140
  17   30924.7    323.4   0.099367758   1.05783   0.54991   0.85914  -0.13155
  18   31044.4    322.1   0.186846902   1.98143  -0.50950  -1.21056   0.50634
  19   31239.7    320.1   0.049497982   0.52162  -0.41304   0.35437  -0.47481
  20   31776.0    314.7   0.014477388   0.14999   0.19380   0.01896   0.33477
  21   32766.1    305.2   0.012437752   0.12497   0.30264   0.12347  -0.13465
  22   32816.8    304.7   0.266434473   2.67282  -1.16794   0.33269  -1.09456
  23   32905.1    303.9   0.504617136   5.04863   0.50286   1.97776  -0.94034
  24   33246.5    300.8   0.012890033   0.12764   0.26593   0.23245  -0.05377
  25   33457.4    298.9   0.180285638   1.77396  -1.11483   0.19293  -0.70278
  26   33686.2    296.9   0.130904623   1.27932   0.22370   0.90641  -0.63851
  27   34007.7    294.1   0.107333891   1.03905  -0.86099   0.00626  -0.54562
  28   34921.1    286.4   0.060304508   0.56851  -0.55709   0.11063  -0.49590
  29   35539.2    281.4   0.088963420   0.82410  -0.81223  -0.20102  -0.35209
  30   35676.5    280.3   0.048671129   0.44912  -0.24013   0.39691  -0.48365
  31   35805.6    279.3   0.039684305   0.36487  -0.45008   0.23963  -0.32385
  32   36031.6    277.5   0.001535578   0.01403  -0.01283  -0.08074  -0.08571
  33   36084.9    277.1   0.008447540   0.07707  -0.15481   0.11194  -0.20142
  34   36458.8    274.3   0.008763718   0.07913   0.23931   0.04196   0.14179
  35   36648.9    272.9   0.003666440   0.03294  -0.03201  -0.08144   0.15899
  36   36943.9    270.7   0.058823805   0.52419   0.21306   0.67055  -0.17074
  37   37038.5    270.0   0.002869854   0.02551   0.11114   0.11150  -0.02689
  38   37230.6    268.6   0.026591646   0.23514   0.33603   0.32610  -0.12602
  39   38102.9    262.4   0.001251056   0.01081   0.10220  -0.01422   0.01270
  40   38344.4    260.8   0.017313030   0.14864   0.30235   0.23511  -0.04414
  41   38503.0    259.7   0.000339023   0.00290   0.00681  -0.01009   0.05245
  42   38726.9    258.2   0.013154241   0.11182  -0.15671   0.18142  -0.23313
  43   39022.2    256.3   0.007403569   0.06246   0.23379   0.07881   0.03988
  44   39446.6    253.5   0.042204913   0.35223   0.50053   0.30800   0.08269
  45   39624.5    252.4   0.043266423   0.35947  -0.42237  -0.41111   0.10983
  46   40162.9    249.0   0.043991367   0.36059   0.12918  -0.42509   0.40398

FINAL SINGLE POINT ENERGY     -5422.071743925566

DIPOLE MOMENT
-------------
                                X             Y             Z
Electronic contribution:     32.39311      11.80211       3.07656
Nuclear contribution   :    -32.97058     -13.34886      -2.01899
                        -----------------------------------------
Total Dipole Moment    :     -0.57748      -1.54675       1.05757
                        -----------------------------------------
Magnitude (a.u.)       :      1.96071
Magnitude (Debye)      :      4.98372

Rotational constants in cm-1:     0.000688     0.000427     0.000269
Rotational constants in MHz :    20.613188    12.806388     8.049714

                             ****ORCA TERMINATED NORMALLY****
TOTAL RUN TIME: 0 days 0 hours 9 minutes 0 seconds 123 msec
