                         Program Version 4.2.0 -  RELEASE  -
|  1> # ORCA input file
|  2> # SCF done       -195.246663282710          0.000444183699
|  3> ! CAM-B3LYP def2-SVP def2/J RIJCOSX Grid4 TightSCF
|  4> %maxcore 5000
|  5> %tddft
|  6>     Mode sTDDFT
|  7>     Ethresh 5.0
|  8>     maxcore 5000
|  9> end
| 10>
| 11> %pal
| 12>   nprocs 6
| 13>   end
| 14> * xyz 0 1
| 15>    C      -10.41733        -2.05528         1.38701
| 16>    C       -9.53869        -2.94330         0.81988
| 17>    C       -9.63810        -4.34346         0.94840
| 18>    N       -9.67802        -5.48881         1.01599
| 19>    C       -8.40527        -2.56892         0.06882
| 20>    N       -7.45404        -2.32820        -0.52798
| 21>    C      -11.53353        -2.39168         2.26187
| 22>    C      -12.10559        -1.18964         2.74676
| 23>    C      -13.18242        -1.17313         3.59892
| 24>    C      -13.71966        -2.40309         3.99407
| 25>    C      -13.14267        -3.59881         3.50328
| 26>    C      -12.05335        -3.61493         2.64033
| 27>    S      -13.96739        -5.00208         4.11027
| 28>    C      -15.06016        -3.97840         5.00373
| 29>    C      -14.82113        -2.65336         4.85702
| 30>   Br      -16.41461        -4.75526         6.04194
| 31>    C      -11.37962        -0.03351         2.18519
| 32>    O      -11.65314         1.13844         2.34553
| 33>    C      -10.33917        -0.61291         1.30367
| 34>    C       -9.62306         0.10032         0.37603
| 35>    C       -9.40992         1.49010         0.38169
| 36>    S       -9.24710         2.32914        -1.12942
| 37>    C       -9.08592         3.87471        -0.37864
| 38>    C       -9.13252         3.74954         1.02343
| 39>    C       -9.27727         2.39412         1.45035
| 40>    C       -9.20035         2.07431         2.81765
| 41>    C       -9.11913         3.08830         3.72792
| 42>    F       -9.04088         2.81043         5.03537
| 43>    C       -9.11938         4.43891         3.31352
| 44>    F       -9.10056         5.40636         4.24127
| 45>    C       -9.10864         4.77406         1.98979
| 46>    C       -8.93712         5.01275        -1.21699
| 47>    C       -8.38856         6.20317        -0.87982
| 48>    C       -8.32091         7.30305        -1.78906
| 49>    C       -7.72679         8.48304        -1.52991
| 50>    C       -7.03513         8.79463        -0.23846
| 51>    C       -7.79436         9.60854        -2.53199
| 52>    N       -8.57453        10.70491        -1.99642
| 53>    C       -8.01721        11.72985        -1.31453
| 54>    C       -8.66724        12.45383        -0.36995
| 55>    C       -8.13220        13.54915         0.35170
| 56>    S       -8.75460        13.86365         1.93060
| 57>    C       -7.59980        15.12762         2.25085
| 58>    C       -6.78684        15.33140         1.11894
| 59>    C       -7.09352        14.44772         0.03859
| 60>    C       -6.41891        14.59068        -1.18777
| 61>    C       -5.43979        15.53648        -1.30181
| 62>    F       -4.79400        15.68689        -2.47141
| 63>    C       -5.09973        16.37116        -0.21607
| 64>    F       -4.12424        17.27843        -0.37389
| 65>    C       -5.76494        16.28568         0.97452
| 66>    C       -7.51652        15.74051         3.50497
| 67>    C       -8.29720        15.39989         4.57740
| 68>    C       -8.13227        15.95479         5.85107
| 69>    C       -8.74286        15.55832         7.01494
| 70>    C       -9.52501        14.39201         7.33636
| 71>    C       -9.45937        13.15210         6.74519
| 72>    C      -10.25072        12.05378         7.13593
| 73>    N      -10.88626        11.13049         7.38761
| 74>    C       -8.53438        12.77148         5.75286
| 75>    N       -7.78332        12.36603         4.98353
| 76>    C      -10.25266        14.68417         8.57123
| 77>    C       -9.76846        15.90468         9.10463
| 78>    C       -8.76162        16.46984         8.18037
| 79>    O       -8.11670        17.48633         8.32317
| 80>    C      -10.22425        16.42462        10.29057
| 81>    C      -11.21384        15.71306        10.97846
| 82>    C      -11.70198        14.50476        10.42952
| 83>    C      -11.23446        13.97334         9.23318
| 84>    S      -12.92905        13.79504        11.43523
| 85>    C      -12.76720        15.11165        12.56692
| 86>    C      -11.84496        16.03660        12.21131
| 87>   Br      -13.83342        15.14078        14.11036
| 88>    H      -13.59570        -0.24128         3.95163
| 89>    H      -11.65223        -4.55072         2.28833
| 90>    H      -15.39750        -1.88284         5.33558
| 91>    H       -9.23632        -0.42873        -0.48733
| 92>    H       -9.19266         1.05120         3.15279
| 93>    H       -9.10897         5.81391         1.71291
| 94>    H       -9.25703         4.86843        -2.24224
| 95>    H       -7.95909         6.34331         0.09846
| 96>    H       -8.79281         7.15418        -2.75210
| 97>    H       -6.24396         8.07240        -0.04432
| 98>    H       -7.73106         8.75831         0.59966
| 99>    H       -6.59290         9.78689        -0.26142
|100>    H       -8.26036         9.26746        -3.46068
|101>    H       -6.79159         9.98069        -2.75924
|102>    H       -9.51818        10.45695        -1.72843
|103>    H       -6.99201        11.94649        -1.57807
|104>    H       -9.64572        12.11821        -0.05126
|105>    H       -6.68368        14.00002        -2.04826
|106>    H       -5.50473        16.95525         1.77739
|107>    H       -6.74090        16.48218         3.64002
|108>    H       -9.06923        14.65797         4.42894
|109>    H       -7.50000        16.83196         5.94158
|110>    H       -9.83038        17.35112        10.67794
|111>    H      -11.64058        13.05047         8.85383
|112>    H      -11.61718        16.91156        12.79232
|113> *
|114>
|115>                          ****END OF INPUT****

CARTESIAN COORDINATES (ANGSTROEM)
---------------------------------
  C    -10.417330   -2.055280    1.387010
  C     -9.538690   -2.943300    0.819880
  C     -9.638100   -4.343460    0.948400
  N     -9.678020   -5.488810    1.015990
  C     -8.405270   -2.568920    0.068820
  N     -7.454040   -2.328200   -0.527980
  C    -11.533530   -2.391680    2.261870
  C    -12.105590   -1.189640    2.746760
  C    -13.182420   -1.173130    3.598920
  C    -13.719660   -2.403090    3.994070
  C    -13.142670   -3.598810    3.503280
  C    -12.053350   -3.614930    2.640330
  S    -13.967390   -5.002080    4.110270
  C    -15.060160   -3.978400    5.003730
  C    -14.821130   -2.653360    4.857020
  Br   -16.414610   -4.755260    6.041940
  C    -11.379620   -0.033510    2.185190
  O    -11.653140    1.138440    2.345530
  C    -10.339170   -0.612910    1.303670
  C     -9.623060    0.100320    0.376030
  C     -9.409920    1.490100    0.381690
  S     -9.247100    2.329140   -1.129420
  C     -9.085920    3.874710   -0.378640
  C     -9.132520    3.749540    1.023430
  C     -9.277270    2.394120    1.450350
  C     -9.200350    2.074310    2.817650
  C     -9.119130    3.088300    3.727920
  F     -9.040880    2.810430    5.035370
  C     -9.119380    4.438910    3.313520
  F     -9.100560    5.406360    4.241270
  C     -9.108640    4.774060    1.989790
  C     -8.937120    5.012750   -1.216990
  C     -8.388560    6.203170   -0.879820
  C     -8.320910    7.303050   -1.789060
  C     -7.726790    8.483040   -1.529910
  C     -7.035130    8.794630   -0.238460
  C     -7.794360    9.608540   -2.531990
  N     -8.574530   10.704910   -1.996420
  C     -8.017210   11.729850   -1.314530
  C     -8.667240   12.453830   -0.369950
  C     -8.132200   13.549150    0.351700
  S     -8.754600   13.863650    1.930600
  C     -7.599800   15.127620    2.250850
  C     -6.786840   15.331400    1.118940
  C     -7.093520   14.447720    0.038590
  C     -6.418910   14.590680   -1.187770
  C     -5.439790   15.536480   -1.301810
  F     -4.794000   15.686890   -2.471410
  C     -5.099730   16.371160   -0.216070
  F     -4.124240   17.278430   -0.373890
  C     -5.764940   16.285680    0.974520
  C     -7.516520   15.740510    3.504970
  C     -8.297200   15.399890    4.577400
  C     -8.132270   15.954790    5.851070
  C     -8.742860   15.558320    7.014940
  C     -9.525010   14.392010    7.336360
  C     -9.459370   13.152100    6.745190
  C    -10.250720   12.053780    7.135930
  N    -10.886260   11.130490    7.387610
  C     -8.534380   12.771480    5.752860
  N     -7.783320   12.366030    4.983530
  C    -10.252660   14.684170    8.571230
  C     -9.768460   15.904680    9.104630
  C     -8.761620   16.469840    8.180370
  O     -8.116700   17.486330    8.323170
  C    -10.224250   16.424620   10.290570
  C    -11.213840   15.713060   10.978460
  C    -11.701980   14.504760   10.429520
  C    -11.234460   13.973340    9.233180
  S    -12.929050   13.795040   11.435230
  C    -12.767200   15.111650   12.566920
  C    -11.844960   16.036600   12.211310
  Br   -13.833420   15.140780   14.110360
  H    -13.595700   -0.241280    3.951630
  H    -11.652230   -4.550720    2.288330
  H    -15.397500   -1.882840    5.335580
  H     -9.236320   -0.428730   -0.487330
  H     -9.192660    1.051200    3.152790
  H     -9.108970    5.813910    1.712910
  H     -9.257030    4.868430   -2.242240
  H     -7.959090    6.343310    0.098460
  H     -8.792810    7.154180   -2.752100
  H     -6.243960    8.072400   -0.044320
  H     -7.731060    8.758310    0.599660
  H     -6.592900    9.786890   -0.261420
  H     -8.260360    9.267460   -3.460680
  H     -6.791590    9.980690   -2.759240
  H     -9.518180   10.456950   -1.728430
  H     -6.992010   11.946490   -1.578070
  H     -9.645720   12.118210   -0.051260
  H     -6.683680   14.000020   -2.048260
  H     -5.504730   16.955250    1.777390
  H     -6.740900   16.482180    3.640020
  H     -9.069230   14.657970    4.428940
  H     -7.500000   16.831960    5.941580
  H     -9.830380   17.351120   10.677940
  H    -11.640580   13.050470    8.853830
  H    -11.617180   16.911560   12.792320

 Total Charge           Charge          ....    0
 Multiplicity           Mult            ....    1
 Number of Electrons    NEL             ....  582
 Basis Dimension        Dim             .... 1199

ORBITAL ENERGIES
----------------

  NO   OCC          E(Eh)            E(eV)
   0   2.0000    -482.884718    -13139.9612
   1   2.0000    -482.878132    -13139.7820
   2   2.0000     -88.986866     -2421.4557
   3   2.0000     -88.974701     -2421.1247
   4   2.0000     -88.973754     -2421.0989
   5   2.0000     -88.966104     -2420.8908
   6   2.0000     -62.562440     -1702.4105
   7   2.0000     -62.555844     -1702.2311
   8   2.0000     -56.396389     -1534.6238
   9   2.0000     -56.393674     -1534.5499
  10   2.0000     -56.393643     -1534.5490
  11   2.0000     -56.389783     -1534.4440
  12   2.0000     -56.387092     -1534.3708
  13   2.0000     -56.387051     -1534.3697
  14   2.0000     -24.795866      -674.7298
  15   2.0000     -24.793028      -674.6526
  16   2.0000     -24.792752      -674.6451
  17   2.0000     -24.792039      -674.6257
  18   2.0000     -19.214015      -522.8399
  19   2.0000     -19.197562      -522.3922
  20   2.0000     -14.463274      -393.5657
  21   2.0000     -14.413470      -392.2105
  22   2.0000     -14.413388      -392.2082
  23   2.0000     -14.402438      -391.9103
  24   2.0000     -14.401010      -391.8714
  25   2.0000     -10.379425      -282.4385
  26   2.0000     -10.376455      -282.3577
  27   2.0000     -10.375791      -282.3396
  28   2.0000     -10.373758      -282.2843
  29   2.0000     -10.365033      -282.0469
  30   2.0000     -10.357925      -281.8535
  31   2.0000     -10.349576      -281.6263
  32   2.0000     -10.348662      -281.6014
  33   2.0000     -10.346241      -281.5355
  34   2.0000     -10.340046      -281.3670
  35   2.0000     -10.339107      -281.3414
  36   2.0000     -10.337953      -281.3100
  37   2.0000     -10.336826      -281.2793
  38   2.0000     -10.334669      -281.2206
  39   2.0000     -10.327362      -281.0218
  40   2.0000     -10.326189      -280.9899
  41   2.0000     -10.324243      -280.9369
  42   2.0000     -10.323907      -280.9278
  43   2.0000     -10.320984      -280.8483
  44   2.0000     -10.316605      -280.7291
  45   2.0000     -10.316435      -280.7245
  46   2.0000     -10.314625      -280.6752
  47   2.0000     -10.309212      -280.5279
  48   2.0000     -10.308267      -280.5022
  49   2.0000     -10.308001      -280.4950
  50   2.0000     -10.307021      -280.4683
  51   2.0000     -10.306554      -280.4556
  52   2.0000     -10.306521      -280.4547
  53   2.0000     -10.306519      -280.4546
  54   2.0000     -10.306445      -280.4526
  55   2.0000     -10.306335      -280.4496
  56   2.0000     -10.305885      -280.4374
  57   2.0000     -10.305203      -280.4188
  58   2.0000     -10.304565      -280.4015
  59   2.0000     -10.303874      -280.3827
  60   2.0000     -10.301732      -280.3244
  61   2.0000     -10.301248      -280.3112
  62   2.0000     -10.299903      -280.2746
  63   2.0000     -10.299528      -280.2644
  64   2.0000     -10.299245      -280.2567
  65   2.0000     -10.297552      -280.2106
  66   2.0000     -10.297266      -280.2028
  67   2.0000     -10.296217      -280.1743
  68   2.0000     -10.295902      -280.1657
  69   2.0000     -10.295623      -280.1581
  70   2.0000     -10.295608      -280.1577
  71   2.0000     -10.293549      -280.1017
  72   2.0000     -10.292525      -280.0738
  73   2.0000     -10.291226      -280.0385
  74   2.0000     -10.289301      -279.9861
  75   2.0000     -10.288549      -279.9656
  76   2.0000     -10.287750      -279.9439
  77   2.0000     -10.287120      -279.9268
  78   2.0000     -10.279472      -279.7187
  79   2.0000     -10.276268      -279.6315
  80   2.0000     -10.274268      -279.5770
  81   2.0000      -8.791870      -239.2390
  82   2.0000      -8.785258      -239.0590
  83   2.0000      -8.082433      -219.9342
  84   2.0000      -8.070633      -219.6131
  85   2.0000      -8.069031      -219.5695
  86   2.0000      -8.062085      -219.3805
  87   2.0000      -6.628179      -180.3619
  88   2.0000      -6.621505      -180.1803
  89   2.0000      -6.613604      -179.9653
  90   2.0000      -6.613397      -179.9597
  91   2.0000      -6.607002      -179.7857
  92   2.0000      -6.606845      -179.7814
  93   2.0000      -6.051339      -164.6653
  94   2.0000      -6.047278      -164.5548
  95   2.0000      -6.045220      -164.4988
  96   2.0000      -6.040304      -164.3650
  97   2.0000      -6.038014      -164.3027
  98   2.0000      -6.036055      -164.2494
  99   2.0000      -6.033939      -164.1918
 100   2.0000      -6.031891      -164.1361
 101   2.0000      -6.031790      -164.1334
 102   2.0000      -6.031685      -164.1305
 103   2.0000      -6.027506      -164.0168
 104   2.0000      -6.023309      -163.9026
 105   2.0000      -2.744039       -74.6691
 106   2.0000      -2.739967       -74.5583
 107   2.0000      -2.739811       -74.5541
 108   2.0000      -2.737411       -74.4887
 109   2.0000      -2.733294       -74.3767
 110   2.0000      -2.733183       -74.3737
 111   2.0000      -2.728226       -74.2388
 112   2.0000      -2.728212       -74.2384
 113   2.0000      -2.721675       -74.0605
 114   2.0000      -2.721645       -74.0597
 115   2.0000      -1.316485       -35.8234
 116   2.0000      -1.315532       -35.7974
 117   2.0000      -1.301195       -35.4073
 118   2.0000      -1.300582       -35.3906
 119   2.0000      -1.129328       -30.7306
 120   2.0000      -1.112100       -30.2618
 121   2.0000      -1.065723       -28.9998
 122   2.0000      -1.022261       -27.8171
 123   2.0000      -1.019993       -27.7554
 124   2.0000      -1.013709       -27.5844
 125   2.0000      -1.011612       -27.5274
 126   2.0000      -1.011011       -27.5110
 127   2.0000      -1.001020       -27.2391
 128   2.0000      -0.992296       -27.0017
 129   2.0000      -0.988225       -26.8910
 130   2.0000      -0.980826       -26.6896
 131   2.0000      -0.976273       -26.5657
 132   2.0000      -0.956651       -26.0318
 133   2.0000      -0.953862       -25.9559
 134   2.0000      -0.946934       -25.7674
 135   2.0000      -0.940966       -25.6050
 136   2.0000      -0.933381       -25.3986
 137   2.0000      -0.924688       -25.1620
 138   2.0000      -0.917982       -24.9795
 139   2.0000      -0.907163       -24.6851
 140   2.0000      -0.898647       -24.4534
 141   2.0000      -0.896254       -24.3883
 142   2.0000      -0.890280       -24.2257
 143   2.0000      -0.884702       -24.0740
 144   2.0000      -0.876462       -23.8497
 145   2.0000      -0.874572       -23.7983
 146   2.0000      -0.868610       -23.6361
 147   2.0000      -0.863522       -23.4976
 148   2.0000      -0.856453       -23.3053
 149   2.0000      -0.848669       -23.0935
 150   2.0000      -0.844293       -22.9744
 151   2.0000      -0.838427       -22.8147
 152   2.0000      -0.828423       -22.5425
 153   2.0000      -0.821655       -22.3584
 154   2.0000      -0.818257       -22.2659
 155   2.0000      -0.810125       -22.0446
 156   2.0000      -0.792162       -21.5558
 157   2.0000      -0.783094       -21.3091
 158   2.0000      -0.761970       -20.7343
 159   2.0000      -0.756850       -20.5949
 160   2.0000      -0.754315       -20.5259
 161   2.0000      -0.746088       -20.3021
 162   2.0000      -0.745347       -20.2819
 163   2.0000      -0.744770       -20.2662
 164   2.0000      -0.732789       -19.9402
 165   2.0000      -0.721774       -19.6405
 166   2.0000      -0.715097       -19.4588
 167   2.0000      -0.710208       -19.3257
 168   2.0000      -0.690808       -18.7978
 169   2.0000      -0.690440       -18.7878
 170   2.0000      -0.686731       -18.6869
 171   2.0000      -0.680640       -18.5212
 172   2.0000      -0.676254       -18.4018
 173   2.0000      -0.675923       -18.3928
 174   2.0000      -0.665356       -18.1052
 175   2.0000      -0.661675       -18.0051
 176   2.0000      -0.655183       -17.8284
 177   2.0000      -0.653372       -17.7792
 178   2.0000      -0.646191       -17.5837
 179   2.0000      -0.639463       -17.4007
 180   2.0000      -0.634554       -17.2671
 181   2.0000      -0.628687       -17.1074
 182   2.0000      -0.627201       -17.0670
 183   2.0000      -0.623586       -16.9686
 184   2.0000      -0.620032       -16.8719
 185   2.0000      -0.617459       -16.8019
 186   2.0000      -0.616529       -16.7766
 187   2.0000      -0.611315       -16.6347
 188   2.0000      -0.608090       -16.5470
 189   2.0000      -0.602156       -16.3855
 190   2.0000      -0.595647       -16.2084
 191   2.0000      -0.593094       -16.1389
 192   2.0000      -0.585091       -15.9211
 193   2.0000      -0.584289       -15.8993
 194   2.0000      -0.582632       -15.8542
 195   2.0000      -0.581375       -15.8200
 196   2.0000      -0.578920       -15.7532
 197   2.0000      -0.574927       -15.6446
 198   2.0000      -0.567150       -15.4329
 199   2.0000      -0.564503       -15.3609
 200   2.0000      -0.555639       -15.1197
 201   2.0000      -0.552408       -15.0318
 202   2.0000      -0.551385       -15.0039
 203   2.0000      -0.550027       -14.9670
 204   2.0000      -0.543435       -14.7876
 205   2.0000      -0.543162       -14.7802
 206   2.0000      -0.541768       -14.7423
 207   2.0000      -0.540735       -14.7141
 208   2.0000      -0.536798       -14.6070
 209   2.0000      -0.535351       -14.5676
 210   2.0000      -0.534208       -14.5365
 211   2.0000      -0.533719       -14.5232
 212   2.0000      -0.530074       -14.4240
 213   2.0000      -0.525151       -14.2901
 214   2.0000      -0.523349       -14.2411
 215   2.0000      -0.520981       -14.1766
 216   2.0000      -0.518195       -14.1008
 217   2.0000      -0.515587       -14.0298
 218   2.0000      -0.513428       -13.9711
 219   2.0000      -0.510553       -13.8929
 220   2.0000      -0.509925       -13.8758
 221   2.0000      -0.506238       -13.7754
 222   2.0000      -0.504224       -13.7206
 223   2.0000      -0.501779       -13.6541
 224   2.0000      -0.497675       -13.5424
 225   2.0000      -0.497328       -13.5330
 226   2.0000      -0.494908       -13.4671
 227   2.0000      -0.493893       -13.4395
 228   2.0000      -0.491713       -13.3802
 229   2.0000      -0.490373       -13.3437
 230   2.0000      -0.486044       -13.2259
 231   2.0000      -0.485520       -13.2117
 232   2.0000      -0.482167       -13.1204
 233   2.0000      -0.481158       -13.0930
 234   2.0000      -0.477268       -12.9871
 235   2.0000      -0.476032       -12.9535
 236   2.0000      -0.473762       -12.8917
 237   2.0000      -0.470687       -12.8081
 238   2.0000      -0.469559       -12.7773
 239   2.0000      -0.467497       -12.7212
 240   2.0000      -0.459819       -12.5123
 241   2.0000      -0.457379       -12.4459
 242   2.0000      -0.454055       -12.3555
 243   2.0000      -0.449507       -12.2317
 244   2.0000      -0.448377       -12.2009
 245   2.0000      -0.447379       -12.1738
 246   2.0000      -0.446530       -12.1507
 247   2.0000      -0.443945       -12.0804
 248   2.0000      -0.442478       -12.0404
 249   2.0000      -0.441733       -12.0202
 250   2.0000      -0.439099       -11.9485
 251   2.0000      -0.438492       -11.9320
 252   2.0000      -0.437864       -11.9149
 253   2.0000      -0.435888       -11.8611
 254   2.0000      -0.434720       -11.8293
 255   2.0000      -0.434431       -11.8215
 256   2.0000      -0.431394       -11.7388
 257   2.0000      -0.426932       -11.6174
 258   2.0000      -0.425812       -11.5869
 259   2.0000      -0.423358       -11.5202
 260   2.0000      -0.422421       -11.4947
 261   2.0000      -0.419865       -11.4251
 262   2.0000      -0.414759       -11.2862
 263   2.0000      -0.411386       -11.1944
 264   2.0000      -0.409489       -11.1428
 265   2.0000      -0.408063       -11.1040
 266   2.0000      -0.407198       -11.0804
 267   2.0000      -0.397753       -10.8234
 268   2.0000      -0.395898       -10.7729
 269   2.0000      -0.389620       -10.6021
 270   2.0000      -0.386267       -10.5109
 271   2.0000      -0.379570       -10.3286
 272   2.0000      -0.374116       -10.1802
 273   2.0000      -0.371959       -10.1215
 274   2.0000      -0.367721       -10.0062
 275   2.0000      -0.365282        -9.9398
 276   2.0000      -0.348584        -9.4855
 277   2.0000      -0.344210        -9.3664
 278   2.0000      -0.330601        -8.9961
 279   2.0000      -0.327515        -8.9121
 280   2.0000      -0.324104        -8.8193
 281   2.0000      -0.321357        -8.7446
 282   2.0000      -0.320449        -8.7199
 283   2.0000      -0.317586        -8.6420
 284   2.0000      -0.313633        -8.5344
 285   2.0000      -0.304560        -8.2875
 286   2.0000      -0.297003        -8.0819
 287   2.0000      -0.292712        -7.9651
 288   2.0000      -0.283017        -7.7013
 289   2.0000      -0.258643        -7.0380
 290   2.0000      -0.232479        -6.3261
 291   0.0000      -0.103703        -2.8219
 292   0.0000      -0.091200        -2.4817
 293   0.0000      -0.068652        -1.8681
 294   0.0000      -0.053741        -1.4624
 295   0.0000      -0.039190        -1.0664

MULLIKEN ATOMIC CHARGES
-----------------------
   0 C :    0.291023
   1 C :   -0.338259
   2 C :   -0.183873
   3 N :    0.146232
   4 C :   -0.206197
   5 N :    0.155977
   6 C :    0.022027
   7 C :   -0.019554
   8 C :   -0.068580
   9 C :    0.116176
  10 C :   -0.090400
  11 C :   -0.022633
  12 S :    0.185666
  13 C :   -0.123963
  14 C :    0.039493
  15 Br:    0.023458
  16 C :    0.126606
  17 O :   -0.148167
  18 C :   -0.120097
  19 C :    0.015362
  20 C :   -0.142743
  21 S :    0.192333
  22 C :   -0.108345
  23 C :    0.123654
  24 C :    0.146904
  25 C :   -0.061846
  26 C :    0.220909
  27 F :   -0.170093
  28 C :    0.235194
  29 F :   -0.172343
  30 C :   -0.124121
  31 C :    0.032782
  32 C :   -0.000384
  33 C :    0.004637
  34 C :   -0.222388
  35 C :    0.095263
  36 C :    0.212350
  37 N :   -0.142833
  38 C :    0.041516
  39 C :   -0.003581
  40 C :   -0.098933
  41 S :    0.177441
  42 C :   -0.110440
  43 C :    0.147160
  44 C :    0.102153
  45 C :   -0.118274
  46 C :    0.218642
  47 F :   -0.182107
  48 C :    0.236611
  49 F :   -0.174280
  50 C :   -0.119272
  51 C :    0.023230
  52 C :   -0.017594
  53 C :    0.025881
  54 C :   -0.127199
  55 C :    0.291597
  56 C :   -0.350304
  57 C :   -0.183074
  58 N :    0.135768
  59 C :   -0.221334
  60 N :    0.152253
  61 C :    0.003709
  62 C :   -0.004426
  63 C :    0.135718
  64 O :   -0.156705
  65 C :   -0.072353
  66 C :    0.110252
  67 C :   -0.088224
  68 C :   -0.022489
  69 S :    0.177324
  70 C :   -0.126238
  71 C :    0.042027
  72 Br:    0.014603
  73 H :   -0.011205
  74 H :   -0.006090
  75 H :   -0.003476
  76 H :    0.030294
  77 H :   -0.003120
  78 H :   -0.014094
  79 H :   -0.005117
  80 H :    0.004193
  81 H :   -0.023676
  82 H :    0.046155
  83 H :    0.045183
  84 H :    0.018675
  85 H :    0.014042
  86 H :    0.027861
  87 H :    0.123305
  88 H :    0.022736
  89 H :   -0.016055
  90 H :   -0.015432
  91 H :   -0.007387
  92 H :   -0.000815
  93 H :    0.017323
  94 H :    0.007873
  95 H :   -0.014350
  96 H :   -0.008453
  97 H :   -0.006654
Sum of atomic charges:   -0.0000000

LOEWDIN ATOMIC CHARGES
----------------------
   0 C :    0.073990
   1 C :   -0.144282
   2 C :   -0.019055
   3 N :   -0.055217
   4 C :   -0.025394
   5 N :   -0.055011
   6 C :   -0.022111
   7 C :   -0.049471
   8 C :    0.020822
   9 C :   -0.032944
  10 C :   -0.145266
  11 C :   -0.009836
  12 S :    0.432437
  13 C :   -0.272003
  14 C :   -0.069983
  15 Br:    0.136702
  16 C :    0.073447
  17 O :   -0.141643
  18 C :   -0.109185
  19 C :    0.041676
  20 C :   -0.191510
  21 S :    0.504040
  22 C :   -0.144713
  23 C :   -0.046279
  24 C :   -0.011199
  25 C :   -0.020317
  26 C :    0.073220
  27 F :   -0.047416
  28 C :    0.066635
  29 F :   -0.050302
  30 C :   -0.042554
  31 C :   -0.045015
  32 C :   -0.006944
  33 C :   -0.050796
  34 C :   -0.032611
  35 C :   -0.053256
  36 C :    0.047846
  37 N :    0.008037
  38 C :    0.053967
  39 C :   -0.138995
  40 C :   -0.123859
  41 S :    0.502116
  42 C :   -0.206735
  43 C :   -0.018057
  44 C :   -0.067175
  45 C :   -0.037053
  46 C :    0.051871
  47 F :   -0.060463
  48 C :    0.072017
  49 F :   -0.051541
  50 C :   -0.042200
  51 C :    0.022119
  52 C :   -0.063834
  53 C :    0.065368
  54 C :   -0.117835
  55 C :    0.072393
  56 C :   -0.157208
  57 C :   -0.020054
  58 N :   -0.067569
  59 C :   -0.023759
  60 N :   -0.069153
  61 C :   -0.016684
  62 C :   -0.050460
  63 C :    0.078746
  64 O :   -0.157725
  65 C :    0.018685
  66 C :   -0.036495
  67 C :   -0.145371
  68 C :   -0.015927
  69 S :    0.426157
  70 C :   -0.274965
  71 C :   -0.070319
  72 Br:    0.129960
  73 H :    0.040757
  74 H :    0.040917
  75 H :    0.038895
  76 H :    0.044731
  77 H :    0.042771
  78 H :    0.038647
  79 H :    0.031970
  80 H :    0.029602
  81 H :    0.026333
  82 H :    0.044158
  83 H :    0.044363
  84 H :    0.032297
  85 H :    0.028729
  86 H :    0.034569
  87 H :    0.082360
  88 H :    0.029272
  89 H :    0.027427
  90 H :    0.037419
  91 H :    0.041504
  92 H :    0.038281
  93 H :    0.022259
  94 H :    0.041774
  95 H :    0.039441
  96 H :    0.039426
  97 H :    0.037599

  Mayer bond orders larger than 0.100000
B(  0-C ,  1-C ) :   1.6345 B(  0-C ,  6-C ) :   1.0076 B(  0-C , 18-C ) :   1.0791
B(  1-C ,  2-C ) :   1.1381 B(  1-C ,  4-C ) :   1.1406 B(  2-C ,  3-N ) :   2.9718
B(  4-C ,  5-N ) :   2.9973 B(  6-C ,  7-C ) :   1.2717 B(  6-C , 11-C ) :   1.4113
B(  7-C ,  8-C ) :   1.4312 B(  7-C , 16-C ) :   0.9363 B(  8-C ,  9-C ) :   1.2412
B(  8-C , 73-H ) :   1.0175 B(  9-C , 10-C ) :   1.3081 B(  9-C , 14-C ) :   1.1642
B( 10-C , 11-C ) :   1.3257 B( 10-C , 12-S ) :   1.0856 B( 11-C , 74-H ) :   0.9813
B( 12-S , 13-C ) :   1.0871 B( 13-C , 14-C ) :   1.6171 B( 13-C , 15-Br) :   1.0181
B( 14-C , 75-H ) :   1.0006 B( 16-C , 17-O ) :   2.2071 B( 16-C , 18-C ) :   0.9606
B( 18-C , 19-C ) :   1.5460 B( 19-C , 20-C ) :   1.2320 B( 19-C , 76-H ) :   0.9358
B( 20-C , 21-S ) :   1.1115 B( 20-C , 24-C ) :   1.3165 B( 21-S , 22-C ) :   1.2040
B( 22-C , 23-C ) :   1.3225 B( 22-C , 31-C ) :   1.1085 B( 23-C , 24-C ) :   1.2432
B( 23-C , 30-C ) :   1.1501 B( 24-C , 25-C ) :   1.1873 B( 25-C , 26-C ) :   1.4996
B( 25-C , 30-C ) :   0.1069 B( 25-C , 77-H ) :   0.9860 B( 26-C , 27-F ) :   1.1362
B( 26-C , 28-C ) :   1.1573 B( 28-C , 29-F ) :   1.1335 B( 28-C , 30-C ) :   1.5044
B( 30-C , 78-H ) :   0.9951 B( 31-C , 32-C ) :   1.6881 B( 31-C , 79-H ) :   0.9599
B( 32-C , 33-C ) :   1.1213 B( 32-C , 80-H ) :   0.9660 B( 33-C , 34-C ) :   1.7510
B( 33-C , 81-H ) :   0.9789 B( 34-C , 35-C ) :   1.0674 B( 34-C , 36-C ) :   1.0517
B( 35-C , 82-H ) :   0.9429 B( 35-C , 83-H ) :   0.9457 B( 35-C , 84-H ) :   0.9448
B( 36-C , 37-N ) :   1.0003 B( 36-C , 85-H ) :   0.9437 B( 36-C , 86-H ) :   0.9265
B( 37-N , 38-C ) :   1.2519 B( 37-N , 87-H ) :   0.9360 B( 38-C , 39-C ) :   1.5919
B( 38-C , 88-H ) :   0.9607 B( 39-C , 40-C ) :   1.1882 B( 39-C , 89-H ) :   0.9384
B( 40-C , 41-S ) :   1.2177 B( 40-C , 44-C ) :   1.3054 B( 41-S , 42-C ) :   1.0849
B( 42-C , 43-C ) :   1.2786 B( 42-C , 51-C ) :   1.2623 B( 43-C , 44-C ) :   1.2328
B( 43-C , 50-C ) :   1.1878 B( 44-C , 45-C ) :   1.1622 B( 45-C , 46-C ) :   1.4926
B( 45-C , 50-C ) :   0.1098 B( 45-C , 90-H ) :   0.9942 B( 46-C , 47-F ) :   1.1225
B( 46-C , 48-C ) :   1.1694 B( 48-C , 49-F ) :   1.1313 B( 48-C , 50-C ) :   1.4832
B( 50-C , 91-H ) :   0.9995 B( 51-C , 52-C ) :   1.5140 B( 51-C , 92-H ) :   0.9777
B( 52-C , 53-C ) :   1.2227 B( 52-C , 93-H ) :   0.9608 B( 53-C , 54-C ) :   1.5081
B( 53-C , 94-H ) :   0.9600 B( 54-C , 55-C ) :   1.0826 B( 54-C , 63-C ) :   0.9617
B( 55-C , 56-C ) :   1.5952 B( 55-C , 61-C ) :   1.0084 B( 56-C , 57-C ) :   1.1351
B( 56-C , 59-C ) :   1.1646 B( 57-C , 58-N ) :   2.9757 B( 59-C , 60-N ) :   3.0075
B( 61-C , 62-C ) :   1.2794 B( 61-C , 68-C ) :   1.4198 B( 62-C , 63-C ) :   0.9178
B( 62-C , 65-C ) :   1.4328 B( 63-C , 64-O ) :   2.2539 B( 65-C , 66-C ) :   1.2452
B( 65-C , 95-H ) :   1.0161 B( 66-C , 67-C ) :   1.3187 B( 66-C , 71-C ) :   1.1597
B( 67-C , 68-C ) :   1.3199 B( 67-C , 69-S ) :   1.0801 B( 68-C , 96-H ) :   0.9812
B( 69-S , 70-C ) :   1.0862 B( 70-C , 71-C ) :   1.6215 B( 70-C , 72-Br) :   1.0133
B( 71-C , 97-H ) :   1.0003

-----------------------------------------------------------------------------
         ABSORPTION SPECTRUM VIA TRANSITION ELECTRIC DIPOLE MOMENTS
-----------------------------------------------------------------------------
State   Energy  Wavelength   fosc         T2         TX        TY        TZ
        (cm-1)    (nm)                  (au**2)     (au)      (au)      (au)
-----------------------------------------------------------------------------
   0   14634.6    683.3   0.914538929  20.57293   0.72922  -1.83370  -4.08396
   1   17470.6    572.4   1.232715241  23.22902  -1.43641  -4.24042   1.78454
   2   19211.9    520.5   0.079728218   1.36621   0.35207   1.10718  -0.12813
   3   23051.9    433.8   0.163365323   2.33307   0.45797   1.29691   0.66435
   4   24118.3    414.6   0.023033646   0.31441   0.27157   0.29207  -0.39415
   5   25789.0    387.8   0.112827070   1.44030   0.74783   0.61159  -0.71205
   6   26448.9    378.1   0.154845338   1.92738   0.16165   1.31571   0.41251
   7   26630.7    375.5   0.201910929   2.49604  -1.22841  -0.07912   0.99035
   8   26818.8    372.9   0.038607097   0.47392   0.34444   0.25503  -0.53874
   9   27126.5    368.6   0.312453105   3.79198   0.81104  -0.34406  -1.73661
  10   28444.8    351.6   0.009408634   0.10889  -0.11945   0.28107  -0.12500
  11   28951.5    345.4   0.120620001   1.37159   0.38841   0.68394  -0.86773
  12   29067.8    344.0   0.132607203   1.50186  -0.84485  -0.41288   0.78589
  13   29396.8    340.2   0.023862952   0.26724   0.35446   0.27172   0.26032
  14   30246.4    330.6   0.129947859   1.41440   0.46839   0.85025  -0.68707
  15   30278.0    330.3   0.046444010   0.50499  -0.27287  -0.57855   0.30953
  16   30670.1    326.1   0.066348267   0.71218   0.65960   0.31950   0.41836
  17   31460.1    317.9   0.073555145   0.76971   0.14511  -0.04871  -0.86388
  18   31639.8    316.1   0.087590960   0.91138  -0.70195   0.42417   0.48859
  19   32149.9    311.0   0.266382896   2.72774  -1.07917   0.17690   1.23767
  20   32188.4    310.7   0.236226781   2.41604  -1.45090  -0.13856   0.54012
  21   32358.0    309.0   0.233268318   2.37329   0.80074  -0.33364  -1.27310
  22   32643.5    306.3   0.032838227   0.33118   0.37811   0.29169  -0.32113
  23   32730.8    305.5   0.070194382   0.70603  -0.31622  -0.75714  -0.18102
  24   33386.2    299.5   0.466756403   4.60256  -0.89892   0.83557   1.75964
  25   33766.1    296.2   0.121419234   1.18381   0.89010   0.44156  -0.44335
  26   34186.8    292.5   0.013585491   0.13083   0.23241  -0.09628  -0.25989
  27   34539.9    289.5   0.034918071   0.33282   0.09504  -0.26340  -0.50439
  28   35349.5    282.9   0.231785868   2.15864   0.73041   1.11777  -0.61297
  29   35767.8    279.6   0.085013427   0.78247   0.41247   0.78249  -0.00674
  30   35959.2    278.1   0.267647060   2.45035   0.14452   1.53277  -0.28298
  31   36479.2    274.1   0.041355240   0.37322  -0.41554   0.36682   0.25687
  32   36888.1    271.1   0.059673393   0.53256  -0.11477   0.53281   0.48529
  33   37039.9    270.0   0.024836631   0.22075  -0.21571  -0.05517   0.41374
  34   37373.7    267.6   0.047568719   0.41902   0.11925  -0.39550  -0.49837
  35   37611.0    265.9   0.134800802   1.17992  -0.43217  -0.99649  -0.01238
  36   37876.6    264.0   0.006891074   0.05990  -0.02232   0.20578   0.13059
  37   38455.6    260.0   0.124214525   1.06338  -0.53390  -0.88220  -0.00692
  38   38570.6    259.3   0.040424562   0.34504   0.48751  -0.30226  -0.12652
  39   38855.2    257.4   0.001101696   0.00933   0.02318   0.04381   0.08293
  40   39154.6    255.4   0.030009191   0.25232  -0.00907  -0.00495   0.50221
  41   39220.4    255.0   0.001430835   0.01201   0.04626  -0.09935  -0.00027
  42   39760.2    251.5   0.046776532   0.38731  -0.46143  -0.41059   0.07620
  43   39837.5    251.0   0.045672562   0.37743  -0.04272  -0.37218  -0.48692
  44   39896.7    250.6   0.080482173   0.66411  -0.55611   0.02760   0.59505
  45   40146.2    249.1   0.166235263   1.36318   0.10543  -1.05148  -0.49644
  46   40285.4    248.2   0.018289338   0.14946   0.06133   0.37364  -0.07803
  47   40326.3    248.0   0.039762610   0.32461   0.06975   0.56493   0.02452

FINAL SINGLE POINT ENERGY     -9708.971136765724

DIPOLE MOMENT
-------------
                                X             Y             Z
Electronic contribution:   -109.08754     -66.19491     150.49552
Nuclear contribution   :    107.50791      67.73981    -153.07456
                        -----------------------------------------
Total Dipole Moment    :     -1.57963       1.54490      -2.57903
                        -----------------------------------------
Magnitude (a.u.)       :      3.39608
Magnitude (Debye)      :      8.63216

Rotational constants in cm-1:     0.000558     0.000211     0.000157
Rotational constants in MHz :    16.714895     6.333924     4.702163

                             ****ORCA TERMINATED NORMALLY****
TOTAL RUN TIME: 0 days 0 hours 9 minutes 37 seconds 415 msec
