                         Program Version 4.2.0 -  RELEASE  -
|  1> # ORCA input file
|  2> # SCF done       -192.795518411582          0.000907129459
|  3> ! CAM-B3LYP def2-SVP def2/J RIJCOSX Grid4 TightSCF
|  4> %maxcore 5000
|  5> %tddft
|  6>     Mode sTDDFT
|  7>     Ethresh 5.0
|  8>     maxcore 5000
|  9> end
| 10>
| 11> %pal
| 12>   nprocs 6
| 13>   end
| 14> * xyz 0 1
| 15>    C      -12.40593         4.14435         4.86470
| 16>    C      -12.18805         3.38698         5.98932
| 17>    C      -12.64366         3.73824         7.27688
| 18>    N      -12.99085         3.96050         8.34887
| 19>    C      -11.48944         2.16390         6.05246
| 20>    N      -10.93599         1.16868         6.21022
| 21>    C      -13.12432         5.41640         4.84046
| 22>    C      -13.14849         5.89855         3.50925
| 23>    C      -13.75022         7.08110         3.15591
| 24>    C      -14.35928         7.82999         4.16866
| 25>    C      -14.33117         7.34224         5.49613
| 26>    C      -13.72295         6.14399         5.85190
| 27>    S      -15.14127         8.42266         6.59059
| 28>    C      -15.50045         9.49926         5.26703
| 29>    C      -15.03922         9.07465         4.06705
| 30>   Br      -16.44990        11.08337         5.59419
| 31>    C      -12.44821         4.93756         2.63494
| 32>    O      -12.30611         5.03918         1.42976
| 33>    C      -11.98340         3.85649         3.50936
| 34>    C      -11.24237         2.76474         3.12501
| 35>    C      -10.79753         2.36217         1.86061
| 36>    S      -11.32505         3.02601         0.33244
| 37>    C      -10.54229         1.75973        -0.50938
| 38>    C       -9.87546         0.87555         0.29007
| 39>    C       -9.08548        -0.28758        -0.21077
| 40>    C       -9.98768         1.22332         1.65865
| 41>    C       -9.32123         0.49551         2.69768
| 42>    C       -8.77580         1.04325         3.80788
| 43>    C       -8.13354         0.31529         4.85282
| 44>    C       -8.28227        -1.00828         5.08318
| 45>    C       -7.59155        -1.72755         6.08934
| 46>    N       -7.72295        -3.01006         6.28401
| 47>    C       -6.88913        -3.44305         7.23204
| 48>    C       -6.07410        -2.49338         7.80108
| 49>    S       -6.38581        -0.95026         7.14503
| 50>    C       -5.16397        -3.07558         8.80977
| 51>    C       -5.30721        -4.61166         8.52452
| 52>    C       -6.71471        -4.78622         7.88959
| 53>    C       -6.89943        -5.92223         6.87418
| 54>    C       -6.46940        -7.30912         7.33704
| 55>    C       -7.79542        -4.84264         9.00693
| 56>    C       -7.53769        -5.75662        10.20240
| 57>    N       -4.14801        -5.04669         7.75297
| 58>    C       -3.00248        -4.44815         8.35463
| 59>    S       -3.39305        -2.65535         8.62587
| 60>    C       -4.12371        -5.03059         6.34537
| 61>    O       -4.48578        -3.84434         5.75797
| 62>    C       -4.52808        -3.76562         4.39653
| 63>    C       -4.93649        -2.62722         3.76851
| 64>    F       -5.27293        -1.47283         4.34315
| 65>    S       -4.96433        -2.76132         2.04771
| 66>    C       -3.68958        -6.12015         5.71468
| 67>    S       -3.56261        -6.33976         3.97715
| 68>    C       -4.19017        -4.78269         3.45814
| 69>    C       -4.36879        -4.40784         2.14608
| 70>    C       -4.15457        -5.09026         0.91024
| 71>    C       -3.61406        -6.31629         0.77049
| 72>    C       -3.36964        -7.03029        -0.45684
| 73>    C       -3.90022        -6.73007        -1.71119
| 74>    O       -4.72943        -5.65561        -1.78337
| 75>    C       -5.82061        -5.63439        -2.68360
| 76>    C       -3.54315        -7.50449        -2.86997
| 77>    O       -4.04667        -7.05230        -4.05353
| 78>    C       -3.70663        -7.73313        -5.23733
| 79>    C       -2.72619        -8.60363        -2.77859
| 80>    C       -2.21368        -8.95865        -1.52342
| 81>    C       -2.52277        -8.16790        -0.36775
| 82>    N       -1.94178        -8.64235         0.73078
| 83>    S       -1.09466        -9.95616         0.34133
| 84>    N       -1.41759        -9.98707        -1.23792
| 85>    H      -13.75011         7.41867         2.13136
| 86>    H      -13.73065         5.81859         6.87848
| 87>    H      -15.17208         9.61454         3.14734
| 88>    H      -10.95712         2.08054         3.91446
| 89>    H      -10.59410         1.73272        -1.58143
| 90>    H       -9.10137        -0.31567        -1.29691
| 91>    H       -9.50074        -1.22105         0.16797
| 92>    H       -8.05205        -0.21842         0.12564
| 93>    H       -9.19537        -0.56343         2.51959
| 94>    H       -8.75235         2.12158         3.90120
| 95>    H       -7.49441         0.88465         5.51471
| 96>    H       -8.95319        -1.60886         4.48600
| 97>    H       -5.45512        -2.81092         9.83022
| 98>    H       -5.22892        -5.16623         9.46307
| 99>    H       -7.95669        -5.93831         6.60159
|100>    H       -6.35895        -5.66778         5.96324
|101>    H       -7.18275        -7.72741         8.04108
|102>    H       -5.48809        -7.27563         7.80239
|103>    H       -6.41898        -7.97759         6.48029
|104>    H       -7.94679        -3.83002         9.39051
|105>    H       -8.72902        -5.13934         8.52646
|106>    H       -6.79931        -5.33206        10.87887
|107>    H       -7.20304        -6.74263         9.89937
|108>    H       -8.46363        -5.86875        10.76259
|109>    H       -2.11868        -4.52692         7.72693
|110>    H       -2.81431        -4.88936         9.33589
|111>    H       -3.41028        -6.99468         6.27153
|112>    H       -4.44519        -4.52840         0.03672
|113>    H       -3.26524        -6.85516         1.63944
|114>    H       -6.54069        -4.94364        -2.24273
|115>    H       -6.28027        -6.61916        -2.78437
|116>    H       -5.52332        -5.26971        -3.66854
|117>    H       -2.62597        -7.72530        -5.40719
|118>    H       -4.20288        -7.18739        -6.03846
|119>    H       -4.06726        -8.76612        -5.22434
|120>    H       -2.45015        -9.19445        -3.63427
|121> *
|122>
|123>                          ****END OF INPUT****

CARTESIAN COORDINATES (ANGSTROEM)
---------------------------------
  C    -12.405930    4.144350    4.864700
  C    -12.188050    3.386980    5.989320
  C    -12.643660    3.738240    7.276880
  N    -12.990850    3.960500    8.348870
  C    -11.489440    2.163900    6.052460
  N    -10.935990    1.168680    6.210220
  C    -13.124320    5.416400    4.840460
  C    -13.148490    5.898550    3.509250
  C    -13.750220    7.081100    3.155910
  C    -14.359280    7.829990    4.168660
  C    -14.331170    7.342240    5.496130
  C    -13.722950    6.143990    5.851900
  S    -15.141270    8.422660    6.590590
  C    -15.500450    9.499260    5.267030
  C    -15.039220    9.074650    4.067050
  Br   -16.449900   11.083370    5.594190
  C    -12.448210    4.937560    2.634940
  O    -12.306110    5.039180    1.429760
  C    -11.983400    3.856490    3.509360
  C    -11.242370    2.764740    3.125010
  C    -10.797530    2.362170    1.860610
  S    -11.325050    3.026010    0.332440
  C    -10.542290    1.759730   -0.509380
  C     -9.875460    0.875550    0.290070
  C     -9.085480   -0.287580   -0.210770
  C     -9.987680    1.223320    1.658650
  C     -9.321230    0.495510    2.697680
  C     -8.775800    1.043250    3.807880
  C     -8.133540    0.315290    4.852820
  C     -8.282270   -1.008280    5.083180
  C     -7.591550   -1.727550    6.089340
  N     -7.722950   -3.010060    6.284010
  C     -6.889130   -3.443050    7.232040
  C     -6.074100   -2.493380    7.801080
  S     -6.385810   -0.950260    7.145030
  C     -5.163970   -3.075580    8.809770
  C     -5.307210   -4.611660    8.524520
  C     -6.714710   -4.786220    7.889590
  C     -6.899430   -5.922230    6.874180
  C     -6.469400   -7.309120    7.337040
  C     -7.795420   -4.842640    9.006930
  C     -7.537690   -5.756620   10.202400
  N     -4.148010   -5.046690    7.752970
  C     -3.002480   -4.448150    8.354630
  S     -3.393050   -2.655350    8.625870
  C     -4.123710   -5.030590    6.345370
  O     -4.485780   -3.844340    5.757970
  C     -4.528080   -3.765620    4.396530
  C     -4.936490   -2.627220    3.768510
  F     -5.272930   -1.472830    4.343150
  S     -4.964330   -2.761320    2.047710
  C     -3.689580   -6.120150    5.714680
  S     -3.562610   -6.339760    3.977150
  C     -4.190170   -4.782690    3.458140
  C     -4.368790   -4.407840    2.146080
  C     -4.154570   -5.090260    0.910240
  C     -3.614060   -6.316290    0.770490
  C     -3.369640   -7.030290   -0.456840
  C     -3.900220   -6.730070   -1.711190
  O     -4.729430   -5.655610   -1.783370
  C     -5.820610   -5.634390   -2.683600
  C     -3.543150   -7.504490   -2.869970
  O     -4.046670   -7.052300   -4.053530
  C     -3.706630   -7.733130   -5.237330
  C     -2.726190   -8.603630   -2.778590
  C     -2.213680   -8.958650   -1.523420
  C     -2.522770   -8.167900   -0.367750
  N     -1.941780   -8.642350    0.730780
  S     -1.094660   -9.956160    0.341330
  N     -1.417590   -9.987070   -1.237920
  H    -13.750110    7.418670    2.131360
  H    -13.730650    5.818590    6.878480
  H    -15.172080    9.614540    3.147340
  H    -10.957120    2.080540    3.914460
  H    -10.594100    1.732720   -1.581430
  H     -9.101370   -0.315670   -1.296910
  H     -9.500740   -1.221050    0.167970
  H     -8.052050   -0.218420    0.125640
  H     -9.195370   -0.563430    2.519590
  H     -8.752350    2.121580    3.901200
  H     -7.494410    0.884650    5.514710
  H     -8.953190   -1.608860    4.486000
  H     -5.455120   -2.810920    9.830220
  H     -5.228920   -5.166230    9.463070
  H     -7.956690   -5.938310    6.601590
  H     -6.358950   -5.667780    5.963240
  H     -7.182750   -7.727410    8.041080
  H     -5.488090   -7.275630    7.802390
  H     -6.418980   -7.977590    6.480290
  H     -7.946790   -3.830020    9.390510
  H     -8.729020   -5.139340    8.526460
  H     -6.799310   -5.332060   10.878870
  H     -7.203040   -6.742630    9.899370
  H     -8.463630   -5.868750   10.762590
  H     -2.118680   -4.526920    7.726930
  H     -2.814310   -4.889360    9.335890
  H     -3.410280   -6.994680    6.271530
  H     -4.445190   -4.528400    0.036720
  H     -3.265240   -6.855160    1.639440
  H     -6.540690   -4.943640   -2.242730
  H     -6.280270   -6.619160   -2.784370
  H     -5.523320   -5.269710   -3.668540
  H     -2.625970   -7.725300   -5.407190
  H     -4.202880   -7.187390   -6.038460
  H     -4.067260   -8.766120   -5.224340
  H     -2.450150   -9.194450   -3.634270

 Total Charge           Charge          ....    0
 Multiplicity           Mult            ....    1
 Number of Electrons    NEL             ....  572
 Basis Dimension        Dim             .... 1206

ORBITAL ENERGIES
----------------

  NO   OCC          E(Eh)            E(eV)
   0   2.0000    -482.881187    -13139.8651
   1   2.0000     -89.003793     -2421.9163
   2   2.0000     -88.969960     -2420.9957
   3   2.0000     -88.957085     -2420.6453
   4   2.0000     -88.952403     -2420.5179
   5   2.0000     -88.945908     -2420.3412
   6   2.0000     -88.941379     -2420.2180
   7   2.0000     -88.895602     -2418.9723
   8   2.0000     -62.558922     -1702.3148
   9   2.0000     -56.392864     -1534.5278
  10   2.0000     -56.390164     -1534.4544
  11   2.0000     -56.390123     -1534.4533
  12   2.0000     -24.793577      -674.6675
  13   2.0000     -19.269660      -524.3541
  14   2.0000     -19.260378      -524.1015
  15   2.0000     -19.248087      -523.7671
  16   2.0000     -19.210338      -522.7399
  17   2.0000     -14.423339      -392.4790
  18   2.0000     -14.421838      -392.4382
  19   2.0000     -14.420159      -392.3925
  20   2.0000     -14.408631      -392.0788
  21   2.0000     -14.405623      -391.9969
  22   2.0000     -14.393453      -391.6658
  23   2.0000     -10.368470      -282.1404
  24   2.0000     -10.362640      -281.9818
  25   2.0000     -10.359267      -281.8900
  26   2.0000     -10.353513      -281.7334
  27   2.0000     -10.349909      -281.6353
  28   2.0000     -10.343412      -281.4585
  29   2.0000     -10.340718      -281.3853
  30   2.0000     -10.333696      -281.1942
  31   2.0000     -10.333148      -281.1792
  32   2.0000     -10.331162      -281.1252
  33   2.0000     -10.319131      -280.7978
  34   2.0000     -10.318830      -280.7896
  35   2.0000     -10.316921      -280.7377
  36   2.0000     -10.316656      -280.7305
  37   2.0000     -10.311910      -280.6013
  38   2.0000     -10.311882      -280.6006
  39   2.0000     -10.309514      -280.5361
  40   2.0000     -10.309297      -280.5302
  41   2.0000     -10.308681      -280.5135
  42   2.0000     -10.307517      -280.4818
  43   2.0000     -10.307409      -280.4788
  44   2.0000     -10.304018      -280.3866
  45   2.0000     -10.301791      -280.3260
  46   2.0000     -10.301319      -280.3131
  47   2.0000     -10.300575      -280.2929
  48   2.0000     -10.298848      -280.2459
  49   2.0000     -10.298456      -280.2352
  50   2.0000     -10.294403      -280.1249
  51   2.0000     -10.293032      -280.0876
  52   2.0000     -10.291900      -280.0568
  53   2.0000     -10.291607      -280.0489
  54   2.0000     -10.286773      -279.9173
  55   2.0000     -10.284899      -279.8663
  56   2.0000     -10.284714      -279.8613
  57   2.0000     -10.282552      -279.8025
  58   2.0000     -10.281870      -279.7839
  59   2.0000     -10.279383      -279.7162
  60   2.0000     -10.278973      -279.7051
  61   2.0000     -10.277102      -279.6542
  62   2.0000     -10.276431      -279.6359
  63   2.0000     -10.276409      -279.6353
  64   2.0000     -10.274545      -279.5846
  65   2.0000     -10.273917      -279.5675
  66   2.0000     -10.271752      -279.5086
  67   2.0000     -10.270632      -279.4781
  68   2.0000     -10.269574      -279.4493
  69   2.0000     -10.265138      -279.3286
  70   2.0000     -10.256599      -279.0962
  71   2.0000     -10.250280      -278.9243
  72   2.0000     -10.250263      -278.9238
  73   2.0000     -10.243702      -278.7453
  74   2.0000      -8.788367      -239.1436
  75   2.0000      -8.095958      -220.3022
  76   2.0000      -8.065959      -219.4859
  77   2.0000      -8.053456      -219.1457
  78   2.0000      -8.046573      -218.9584
  79   2.0000      -8.041188      -218.8119
  80   2.0000      -8.035961      -218.6696
  81   2.0000      -7.992330      -217.4824
  82   2.0000      -6.624652      -180.2660
  83   2.0000      -6.610092      -179.8698
  84   2.0000      -6.609931      -179.8654
  85   2.0000      -6.067270      -165.0988
  86   2.0000      -6.059621      -164.8907
  87   2.0000      -6.057995      -164.8464
  88   2.0000      -6.035663      -164.2387
  89   2.0000      -6.031372      -164.1220
  90   2.0000      -6.027174      -164.0078
  91   2.0000      -6.022832      -163.8896
  92   2.0000      -6.019208      -163.7910
  93   2.0000      -6.015976      -163.7030
  94   2.0000      -6.014683      -163.6678
  95   2.0000      -6.011271      -163.5750
  96   2.0000      -6.010185      -163.5454
  97   2.0000      -6.008924      -163.5111
  98   2.0000      -6.006404      -163.4425
  99   2.0000      -6.006395      -163.4423
 100   2.0000      -6.003572      -163.3655
 101   2.0000      -6.002057      -163.3243
 102   2.0000      -5.995949      -163.1581
 103   2.0000      -5.962876      -162.2581
 104   2.0000      -5.959163      -162.1571
 105   2.0000      -5.951173      -161.9397
 106   2.0000      -2.740509       -74.5731
 107   2.0000      -2.736464       -74.4630
 108   2.0000      -2.736292       -74.4583
 109   2.0000      -2.724745       -74.1441
 110   2.0000      -2.724733       -74.1437
 111   2.0000      -1.307881       -35.5892
 112   2.0000      -1.181864       -32.1602
 113   2.0000      -1.170209       -31.8430
 114   2.0000      -1.143745       -31.1229
 115   2.0000      -1.125688       -30.6315
 116   2.0000      -1.106231       -30.1021
 117   2.0000      -1.054519       -28.6949
 118   2.0000      -1.043448       -28.3937
 119   2.0000      -1.016016       -27.6472
 120   2.0000      -1.006437       -27.3865
 121   2.0000      -0.988536       -26.8994
 122   2.0000      -0.988216       -26.8907
 123   2.0000      -0.986225       -26.8366
 124   2.0000      -0.981161       -26.6987
 125   2.0000      -0.962646       -26.1949
 126   2.0000      -0.947196       -25.7745
 127   2.0000      -0.939187       -25.5566
 128   2.0000      -0.935814       -25.4648
 129   2.0000      -0.915615       -24.9152
 130   2.0000      -0.910922       -24.7874
 131   2.0000      -0.901882       -24.5415
 132   2.0000      -0.896738       -24.4015
 133   2.0000      -0.895189       -24.3593
 134   2.0000      -0.887193       -24.1417
 135   2.0000      -0.879305       -23.9271
 136   2.0000      -0.872827       -23.7508
 137   2.0000      -0.868137       -23.6232
 138   2.0000      -0.867028       -23.5930
 139   2.0000      -0.855686       -23.2844
 140   2.0000      -0.848379       -23.0856
 141   2.0000      -0.842497       -22.9255
 142   2.0000      -0.833874       -22.6909
 143   2.0000      -0.828409       -22.5422
 144   2.0000      -0.826485       -22.4898
 145   2.0000      -0.822972       -22.3942
 146   2.0000      -0.811392       -22.0791
 147   2.0000      -0.806796       -21.9540
 148   2.0000      -0.797507       -21.7013
 149   2.0000      -0.784382       -21.3441
 150   2.0000      -0.778905       -21.1951
 151   2.0000      -0.775549       -21.1038
 152   2.0000      -0.773850       -21.0575
 153   2.0000      -0.754132       -20.5210
 154   2.0000      -0.749635       -20.3986
 155   2.0000      -0.744527       -20.2596
 156   2.0000      -0.738346       -20.0914
 157   2.0000      -0.725780       -19.7495
 158   2.0000      -0.713650       -19.4194
 159   2.0000      -0.704993       -19.1838
 160   2.0000      -0.697937       -18.9918
 161   2.0000      -0.690141       -18.7797
 162   2.0000      -0.688137       -18.7252
 163   2.0000      -0.683660       -18.6033
 164   2.0000      -0.682083       -18.5604
 165   2.0000      -0.681114       -18.5341
 166   2.0000      -0.675036       -18.3687
 167   2.0000      -0.662486       -18.0272
 168   2.0000      -0.657731       -17.8978
 169   2.0000      -0.652705       -17.7610
 170   2.0000      -0.643767       -17.5178
 171   2.0000      -0.638866       -17.3844
 172   2.0000      -0.636466       -17.3191
 173   2.0000      -0.633560       -17.2400
 174   2.0000      -0.621945       -16.9240
 175   2.0000      -0.616465       -16.7749
 176   2.0000      -0.615256       -16.7420
 177   2.0000      -0.613777       -16.7017
 178   2.0000      -0.612122       -16.6567
 179   2.0000      -0.605686       -16.4816
 180   2.0000      -0.605403       -16.4738
 181   2.0000      -0.591151       -16.0860
 182   2.0000      -0.588049       -16.0016
 183   2.0000      -0.580496       -15.7961
 184   2.0000      -0.579103       -15.7582
 185   2.0000      -0.576795       -15.6954
 186   2.0000      -0.572920       -15.5899
 187   2.0000      -0.571506       -15.5515
 188   2.0000      -0.566317       -15.4103
 189   2.0000      -0.561001       -15.2656
 190   2.0000      -0.557283       -15.1644
 191   2.0000      -0.553200       -15.0533
 192   2.0000      -0.552557       -15.0358
 193   2.0000      -0.546282       -14.8651
 194   2.0000      -0.544636       -14.8203
 195   2.0000      -0.537942       -14.6381
 196   2.0000      -0.534545       -14.5457
 197   2.0000      -0.534051       -14.5323
 198   2.0000      -0.532562       -14.4917
 199   2.0000      -0.530886       -14.4462
 200   2.0000      -0.529752       -14.4153
 201   2.0000      -0.527772       -14.3614
 202   2.0000      -0.523395       -14.2423
 203   2.0000      -0.521381       -14.1875
 204   2.0000      -0.520351       -14.1595
 205   2.0000      -0.516919       -14.0661
 206   2.0000      -0.513074       -13.9615
 207   2.0000      -0.510014       -13.8782
 208   2.0000      -0.509679       -13.8691
 209   2.0000      -0.508448       -13.8356
 210   2.0000      -0.505273       -13.7492
 211   2.0000      -0.502593       -13.6763
 212   2.0000      -0.500736       -13.6257
 213   2.0000      -0.494336       -13.4516
 214   2.0000      -0.493744       -13.4355
 215   2.0000      -0.489818       -13.3286
 216   2.0000      -0.488274       -13.2866
 217   2.0000      -0.487432       -13.2637
 218   2.0000      -0.485852       -13.2207
 219   2.0000      -0.480936       -13.0869
 220   2.0000      -0.477476       -12.9928
 221   2.0000      -0.471807       -12.8385
 222   2.0000      -0.471644       -12.8341
 223   2.0000      -0.467533       -12.7222
 224   2.0000      -0.466351       -12.6901
 225   2.0000      -0.463232       -12.6052
 226   2.0000      -0.462464       -12.5843
 227   2.0000      -0.460560       -12.5325
 228   2.0000      -0.457597       -12.4518
 229   2.0000      -0.456741       -12.4286
 230   2.0000      -0.454998       -12.3811
 231   2.0000      -0.452551       -12.3145
 232   2.0000      -0.450684       -12.2637
 233   2.0000      -0.449639       -12.2353
 234   2.0000      -0.445183       -12.1141
 235   2.0000      -0.442560       -12.0427
 236   2.0000      -0.441087       -12.0026
 237   2.0000      -0.439928       -11.9711
 238   2.0000      -0.438336       -11.9277
 239   2.0000      -0.436334       -11.8733
 240   2.0000      -0.435217       -11.8429
 241   2.0000      -0.433901       -11.8071
 242   2.0000      -0.432637       -11.7727
 243   2.0000      -0.431774       -11.7492
 244   2.0000      -0.426779       -11.6132
 245   2.0000      -0.423068       -11.5123
 246   2.0000      -0.421452       -11.4683
 247   2.0000      -0.420247       -11.4355
 248   2.0000      -0.419393       -11.4123
 249   2.0000      -0.410483       -11.1698
 250   2.0000      -0.410298       -11.1648
 251   2.0000      -0.405301       -11.0288
 252   2.0000      -0.402309       -10.9474
 253   2.0000      -0.401300       -10.9199
 254   2.0000      -0.397822       -10.8253
 255   2.0000      -0.396945       -10.8014
 256   2.0000      -0.392755       -10.6874
 257   2.0000      -0.392234       -10.6732
 258   2.0000      -0.388563       -10.5733
 259   2.0000      -0.384279       -10.4568
 260   2.0000      -0.383328       -10.4309
 261   2.0000      -0.379889       -10.3373
 262   2.0000      -0.374860       -10.2005
 263   2.0000      -0.374450       -10.1893
 264   2.0000      -0.372708       -10.1419
 265   2.0000      -0.372099       -10.1253
 266   2.0000      -0.370699       -10.0872
 267   2.0000      -0.358629        -9.7588
 268   2.0000      -0.352907        -9.6031
 269   2.0000      -0.347783        -9.4637
 270   2.0000      -0.342222        -9.3123
 271   2.0000      -0.340330        -9.2608
 272   2.0000      -0.333199        -9.0668
 273   2.0000      -0.332562        -9.0495
 274   2.0000      -0.326517        -8.8850
 275   2.0000      -0.310529        -8.4499
 276   2.0000      -0.310084        -8.4378
 277   2.0000      -0.299945        -8.1619
 278   2.0000      -0.297947        -8.1075
 279   2.0000      -0.289976        -7.8906
 280   2.0000      -0.289443        -7.8761
 281   2.0000      -0.279619        -7.6088
 282   2.0000      -0.275440        -7.4951
 283   2.0000      -0.250934        -6.8283
 284   2.0000      -0.242301        -6.5934
 285   2.0000      -0.240527        -6.5451
 286   0.0000      -0.085684        -2.3316
 287   0.0000      -0.054265        -1.4766
 288   0.0000      -0.048584        -1.3220
 289   0.0000      -0.031484        -0.8567
 290   0.0000      -0.004325        -0.1177

MULLIKEN ATOMIC CHARGES
-----------------------
   0 C :    0.330379
   1 C :   -0.366759
   2 C :   -0.187543
   3 N :    0.143020
   4 C :   -0.197503
   5 N :    0.154194
   6 C :    0.011457
   7 C :   -0.011410
   8 C :   -0.078524
   9 C :    0.122183
  10 C :   -0.091724
  11 C :   -0.024615
  12 S :    0.183730
  13 C :   -0.121852
  14 C :    0.034862
  15 Br:    0.019438
  16 C :    0.153153
  17 O :   -0.174321
  18 C :   -0.106231
  19 C :   -0.041364
  20 C :   -0.122819
  21 S :    0.189885
  22 C :   -0.097476
  23 C :   -0.083964
  24 C :    0.118167
  25 C :    0.117802
  26 C :   -0.046632
  27 C :    0.030573
  28 C :    0.001519
  29 C :    0.076034
  30 C :   -0.088701
  31 N :   -0.035813
  32 C :   -0.005457
  33 C :   -0.025110
  34 S :    0.117669
  35 C :   -0.129239
  36 C :    0.132331
  37 C :   -0.250259
  38 C :    0.081534
  39 C :    0.038040
  40 C :    0.071752
  41 C :    0.036213
  42 N :   -0.279822
  43 C :    0.094473
  44 S :   -0.061594
  45 C :    0.180298
  46 O :   -0.240728
  47 C :    0.208107
  48 C :    0.056243
  49 F :   -0.152462
  50 S :    0.096589
  51 C :   -0.048014
  52 S :    0.072763
  53 C :   -0.011521
  54 C :   -0.175455
  55 C :    0.075802
  56 C :   -0.090147
  57 C :    0.063448
  58 C :    0.092919
  59 O :   -0.326078
  60 C :    0.210555
  61 C :    0.234306
  62 O :   -0.326714
  63 C :    0.179726
  64 C :   -0.202652
  65 C :    0.081353
  66 C :   -0.014346
  67 N :   -0.283535
  68 S :    0.474509
  69 N :   -0.274043
  70 H :   -0.012746
  71 H :   -0.008444
  72 H :   -0.004903
  73 H :    0.015567
  74 H :    0.019635
  75 H :    0.007706
  76 H :    0.031185
  77 H :    0.033457
  78 H :   -0.000963
  79 H :    0.007167
  80 H :   -0.000763
  81 H :    0.000845
  82 H :    0.049233
  83 H :   -0.004216
  84 H :    0.005051
  85 H :    0.004672
  86 H :    0.014263
  87 H :    0.009555
  88 H :    0.009857
  89 H :    0.006807
  90 H :    0.005526
  91 H :    0.013878
  92 H :    0.002931
  93 H :    0.012476
  94 H :    0.055024
  95 H :    0.045640
  96 H :    0.025991
  97 H :   -0.008460
  98 H :    0.019757
  99 H :    0.025388
 100 H :    0.016626
 101 H :    0.029668
 102 H :    0.031296
 103 H :    0.038282
 104 H :    0.029025
 105 H :   -0.036617
Sum of atomic charges:   -0.0000000

LOEWDIN ATOMIC CHARGES
----------------------
   0 C :    0.078907
   1 C :   -0.151747
   2 C :   -0.017855
   3 N :   -0.062667
   4 C :   -0.023518
   5 N :   -0.053164
   6 C :   -0.020389
   7 C :   -0.049128
   8 C :    0.019432
   9 C :   -0.034066
  10 C :   -0.145051
  11 C :   -0.010811
  12 S :    0.430184
  13 C :   -0.273122
  14 C :   -0.070789
  15 Br:    0.133399
  16 C :    0.080419
  17 O :   -0.166911
  18 C :   -0.121508
  19 C :    0.058447
  20 C :   -0.189298
  21 S :    0.500629
  22 C :   -0.169933
  23 C :   -0.068719
  24 C :   -0.045477
  25 C :   -0.015600
  26 C :   -0.029402
  27 C :    0.002638
  28 C :   -0.028934
  29 C :   -0.009961
  30 C :   -0.123875
  31 N :   -0.090987
  32 C :   -0.044809
  33 C :   -0.216179
  34 S :    0.426085
  35 C :   -0.137241
  36 C :    0.049622
  37 C :   -0.042945
  38 C :   -0.021294
  39 C :   -0.059618
  40 C :   -0.017567
  41 C :   -0.060721
  42 N :   -0.084197
  43 C :   -0.051985
  44 S :    0.176603
  45 C :    0.042744
  46 O :   -0.047849
  47 C :   -0.033654
  48 C :   -0.103539
  49 F :   -0.042391
  50 S :    0.412815
  51 C :   -0.221358
  52 S :    0.375838
  53 C :   -0.198222
  54 C :   -0.189703
  55 C :   -0.038847
  56 C :   -0.027121
  57 C :   -0.050834
  58 C :    0.046276
  59 O :   -0.094609
  60 C :    0.080446
  61 C :    0.044831
  62 O :   -0.094557
  63 C :    0.079112
  64 C :   -0.088784
  65 C :   -0.055914
  66 C :   -0.050018
  67 N :   -0.291242
  68 S :    0.612980
  69 N :   -0.297008
  70 H :    0.039961
  71 H :    0.040589
  72 H :    0.038199
  73 H :    0.048926
  74 H :    0.023538
  75 H :    0.032310
  76 H :    0.036041
  77 H :    0.037811
  78 H :    0.030236
  79 H :    0.032430
  80 H :    0.024275
  81 H :    0.039072
  82 H :    0.026162
  83 H :    0.021433
  84 H :    0.028312
  85 H :    0.023186
  86 H :    0.019330
  87 H :    0.018421
  88 H :    0.027156
  89 H :    0.025248
  90 H :    0.027917
  91 H :    0.018820
  92 H :    0.020949
  93 H :    0.029376
  94 H :    0.025695
  95 H :    0.014687
  96 H :    0.034995
  97 H :    0.024846
  98 H :    0.017870
  99 H :    0.020806
 100 H :    0.015935
 101 H :    0.015325
 102 H :    0.019883
 103 H :    0.029405
 104 H :    0.018329
 105 H :    0.036236

  Mayer bond orders larger than 0.100000
B(  0-C ,  1-C ) :   1.6051 B(  0-C ,  6-C ) :   0.9920 B(  0-C , 18-C ) :   1.0950
B(  1-C ,  2-C ) :   1.1482 B(  1-C ,  4-C ) :   1.1475 B(  2-C ,  3-N ) :   2.9646
B(  4-C ,  5-N ) :   2.9626 B(  6-C ,  7-C ) :   1.2796 B(  6-C , 11-C ) :   1.4109
B(  7-C ,  8-C ) :   1.4246 B(  7-C , 16-C ) :   0.9494 B(  8-C ,  9-C ) :   1.2378
B(  8-C , 70-H ) :   1.0182 B(  9-C , 10-C ) :   1.3120 B(  9-C , 14-C ) :   1.1609
B( 10-C , 11-C ) :   1.3247 B( 10-C , 12-S ) :   1.0856 B( 11-C , 71-H ) :   0.9802
B( 12-S , 13-C ) :   1.0856 B( 13-C , 14-C ) :   1.6193 B( 13-C , 15-Br) :   1.0162
B( 14-C , 72-H ) :   1.0006 B( 16-C , 17-O ) :   2.1586 B( 16-C , 18-C ) :   0.9704
B( 18-C , 19-C ) :   1.5041 B( 19-C , 20-C ) :   1.2838 B( 19-C , 73-H ) :   0.9301
B( 20-C , 21-S ) :   1.1051 B( 20-C , 25-C ) :   1.3258 B( 21-S , 22-C ) :   1.1714
B( 22-C , 23-C ) :   1.5247 B( 22-C , 74-H ) :   0.9626 B( 23-C , 24-C ) :   1.0942
B( 23-C , 25-C ) :   1.2879 B( 24-C , 75-H ) :   0.9498 B( 24-C , 76-H ) :   0.9423
B( 24-C , 77-H ) :   0.9444 B( 25-C , 26-C ) :   1.1206 B( 26-C , 27-C ) :   1.6910
B( 26-C , 78-H ) :   0.9459 B( 27-C , 28-C ) :   1.1398 B( 27-C , 79-H ) :   0.9748
B( 28-C , 29-C ) :   1.6784 B( 28-C , 80-H ) :   0.9649 B( 29-C , 30-C ) :   1.1244
B( 29-C , 81-H ) :   0.9649 B( 30-C , 31-N ) :   1.6396 B( 30-C , 34-S ) :   1.0924
B( 31-N , 32-C ) :   1.4176 B( 31-N , 34-S ) :   0.1030 B( 32-C , 33-C ) :   1.5615
B( 32-C , 37-C ) :   0.9525 B( 33-C , 34-S ) :   1.1382 B( 33-C , 35-C ) :   0.9642
B( 35-C , 36-C ) :   0.9854 B( 35-C , 44-S ) :   1.0666 B( 35-C , 82-H ) :   0.8884
B( 36-C , 37-C ) :   0.9782 B( 36-C , 42-N ) :   1.0042 B( 36-C , 83-H ) :   0.9047
B( 37-C , 38-C ) :   1.0618 B( 37-C , 40-C ) :   1.0216 B( 38-C , 39-C ) :   1.1210
B( 38-C , 84-H ) :   0.9253 B( 38-C , 85-H ) :   0.9228 B( 39-C , 86-H ) :   0.9580
B( 39-C , 87-H ) :   0.9574 B( 39-C , 88-H ) :   0.9587 B( 40-C , 41-C ) :   1.1137
B( 40-C , 89-H ) :   0.9366 B( 40-C , 90-H ) :   0.9363 B( 41-C , 91-H ) :   0.9580
B( 41-C , 92-H ) :   0.9633 B( 41-C , 93-H ) :   0.9563 B( 42-N , 43-C ) :   1.0176
B( 42-N , 45-C ) :   1.0395 B( 43-C , 44-S ) :   0.9861 B( 43-C , 94-H ) :   0.9523
B( 43-C , 95-H ) :   0.9460 B( 45-C , 46-O ) :   1.0391 B( 45-C , 51-C ) :   1.8558
B( 46-O , 47-C ) :   1.0470 B( 47-C , 48-C ) :   1.5043 B( 47-C , 53-C ) :   1.2008
B( 48-C , 49-F ) :   1.1213 B( 48-C , 50-S ) :   1.1087 B( 50-S , 54-C ) :   1.0963
B( 51-C , 52-S ) :   0.9922 B( 51-C , 96-H ) :   0.9124 B( 52-S , 53-C ) :   1.0001
B( 53-C , 54-C ) :   1.5615 B( 54-C , 55-C ) :   1.1224 B( 55-C , 56-C ) :   1.6684
B( 55-C , 97-H ) :   0.9495 B( 56-C , 57-C ) :   1.1513 B( 56-C , 98-H ) :   0.9523
B( 57-C , 58-C ) :   1.4597 B( 57-C , 64-C ) :   0.1133 B( 57-C , 66-C ) :   1.1550
B( 58-C , 59-O ) :   1.1729 B( 58-C , 61-C ) :   1.1423 B( 59-O , 60-C ) :   0.9281
B( 60-C , 99-H ) :   0.9773 B( 60-C ,100-H ) :   0.9738 B( 60-C ,101-H ) :   0.9748
B( 61-C , 62-O ) :   1.1365 B( 61-C , 64-C ) :   1.3926 B( 62-O , 63-C ) :   0.9585
B( 63-C ,102-H ) :   0.9686 B( 63-C ,103-H ) :   0.9773 B( 63-C ,104-H ) :   0.9694
B( 64-C , 65-C ) :   1.1343 B( 64-C ,105-H ) :   1.0402 B( 65-C , 66-C ) :   1.1613
B( 65-C , 69-N ) :   1.5409 B( 66-C , 67-N ) :   1.5583 B( 67-N , 68-S ) :   1.2433
B( 67-N , 69-N ) :   0.1474 B( 68-S , 69-N ) :   1.2471

-----------------------------------------------------------------------------
         ABSORPTION SPECTRUM VIA TRANSITION ELECTRIC DIPOLE MOMENTS
-----------------------------------------------------------------------------
State   Energy  Wavelength   fosc         T2         TX        TY        TZ
        (cm-1)    (nm)                  (au**2)     (au)      (au)      (au)
-----------------------------------------------------------------------------
   0   18196.3    549.6   0.580975090  10.51117  -2.14874   2.41928  -0.20296
   1   23635.6    423.1   0.012572252   0.17511   0.10773  -0.13438  -0.38138
   2   24514.8    407.9   0.127845137   1.71685   0.32652  -0.24099  -1.24585
   3   24869.6    402.1   0.123897553   1.64010   0.40529  -0.30115  -1.17692
   4   24979.1    400.3   0.517678713   6.82275   0.53653  -1.18397  -2.26563
   5   25822.7    387.3   0.212715862   2.71190  -0.60982   0.70289  -1.35866
   6   27303.0    366.3   0.158177302   1.90726  -0.36264   1.18912   0.60146
   7   28326.3    353.0   0.478720153   5.56375   1.23878  -1.97081   0.38087
   8   28883.3    346.2   0.003678863   0.04193  -0.07605   0.08532  -0.16991
   9   29922.6    334.2   0.075402354   0.82958  -0.45297   0.69670   0.37285
  10   30360.2    329.4   0.160024374   1.73523  -0.65125   0.90800  -0.69760
  11   30450.4    328.4   0.220444208   2.38331   0.07151   0.47322   1.46774
  12   30992.8    322.7   0.006427106   0.06827  -0.05849   0.19483   0.16399
  13   31012.8    322.4   0.029754008   0.31585   0.03252  -0.18792  -0.52866
  14   31179.2    320.7   0.055051922   0.58128   0.06294   0.18262   0.73754
  15   31490.9    317.6   0.155321256   1.62376   0.63921  -0.98469   0.49555
  16   32195.4    310.6   0.038683838   0.39556   0.13044  -0.03388   0.61433
  17   32505.3    307.6   0.096345110   0.97578   0.53026  -0.76369   0.33373
  18   33667.1    297.0   0.494494440   4.83539   0.89442  -1.70973  -1.05462
  19   33795.8    295.9   0.331093265   3.22525   0.45755  -1.14950   1.30174
  20   33983.3    294.3   0.513689103   4.97635   0.91514  -0.89049   1.82918
  21   34123.2    293.1   0.000136203   0.00131   0.01089   0.01465   0.03132
  22   35078.1    285.1   0.148367386   1.39244  -0.27995   0.91759   0.68709
  23   35369.1    282.7   0.004223052   0.03931  -0.05586   0.09901   0.16243
  24   35776.2    279.5   0.081719910   0.75199  -0.43924   0.63444   0.39565
  25   36300.9    275.5   0.002291218   0.02078   0.08101   0.03086  -0.11517
  26   36914.4    270.9   0.000367600   0.00328  -0.02045   0.00304  -0.05339
  27   37413.5    267.3   0.071920418   0.63285   0.14999  -0.16176   0.76432
  28   37662.4    265.5   0.001744950   0.01525   0.02024  -0.03861   0.11555
  29   37901.5    263.8   0.010554967   0.09168   0.06550  -0.01805  -0.29507
  30   38004.4    263.1   0.001232332   0.01068   0.06299  -0.06934   0.04357
  31   38454.3    260.0   0.004476642   0.03833   0.07338  -0.06620  -0.16899
  32   38611.8    259.0   0.012090796   0.10309   0.10744  -0.05381  -0.29774
  33   38780.1    257.9   0.024435977   0.20744   0.22847  -0.14029  -0.36819
  34   38910.1    257.0   0.002471289   0.02091  -0.02521   0.13583   0.04271
  35   39224.2    254.9   0.000925467   0.00777   0.03459  -0.05215   0.06206
  36   39747.1    251.6   0.203637455   1.68666  -0.12038  -0.06964   1.29125

FINAL SINGLE POINT ENERGY     -8051.265180323227

DIPOLE MOMENT
-------------
                                X             Y             Z
Electronic contribution:   -107.52192     197.71935      21.22732
Nuclear contribution   :    107.68378    -198.63926     -24.20696
                        -----------------------------------------
Total Dipole Moment    :      0.16186      -0.91991      -2.97964
                        -----------------------------------------
Magnitude (a.u.)       :      3.12261
Magnitude (Debye)      :      7.93704

Rotational constants in cm-1:     0.001258     0.000257     0.000219
Rotational constants in MHz :    37.698972     7.699854     6.573673

                             ****ORCA TERMINATED NORMALLY****
TOTAL RUN TIME: 0 days 0 hours 10 minutes 48 seconds 426 msec
