                         Program Version 4.2.0 -  RELEASE  -
|  1> # ORCA input file
|  2> # SCF done       -171.081214567317          0.000792715476
|  3> ! CAM-B3LYP def2-SVP def2/J RIJCOSX Grid4 TightSCF
|  4> %maxcore 5000
|  5> %tddft
|  6>     Mode sTDDFT
|  7>     Ethresh 5.0
|  8>     maxcore 5000
|  9> end
| 10>
| 11> %pal
| 12>   nprocs 6
| 13>   end
| 14> * xyz 0 1
| 15>    C       -3.06984         3.85665         2.25519
| 16>    C       -3.14730         2.55521         2.69946
| 17>    C       -2.41417         2.04885         3.78973
| 18>    N       -1.85019         1.57628         4.67240
| 19>    C       -3.94205         1.53842         2.13583
| 20>    N       -4.54296         0.64604         1.72982
| 21>    C       -2.19808         4.88489         2.82323
| 22>    C       -2.35973         6.07695         2.07698
| 23>    C       -1.66611         7.22753         2.35685
| 24>    C       -0.76615         7.20302         3.42851
| 25>    C       -0.61223         6.00925         4.16914
| 26>    C       -1.31525         4.84382         3.88481
| 27>    S        0.54972         6.19645         5.44906
| 28>    C        0.80881         7.85406         4.97473
| 29>    C        0.06529         8.24945         3.91507
| 30>   Br        2.03805         8.90731         5.92414
| 31>    C       -3.35425         5.84850         1.00576
| 32>    O       -3.72250         6.66816         0.18519
| 33>    C       -3.78514         4.44787         1.15591
| 34>    C       -4.72813         3.82780         0.35739
| 35>    C       -5.36432         4.41312        -0.72980
| 36>    C       -6.26893         3.73471        -1.52592
| 37>    C       -6.89289         4.22283        -2.69571
| 38>    C       -7.69196         3.31271        -3.32441
| 39>    C       -7.74834         2.06347        -2.67221
| 40>    S       -6.76430         2.08574        -1.22307
| 41>    C       -8.41866         0.92178        -3.07122
| 42>    C       -9.12245         0.70453        -4.28024
| 43>    C       -9.59519        -0.56039        -4.41760
| 44>    C       -9.30346        -1.43002        -3.32453
| 45>    S       -8.42560        -0.52338        -2.09404
| 46>    C       -9.74657        -2.71682        -3.24738
| 47>    C       -9.57315        -3.74954        -2.26358
| 48>    C       -8.37581        -4.01875        -1.58986
| 49>    C       -8.27076        -5.13091        -0.75759
| 50>    S       -6.68120        -5.37225        -0.06432
| 51>    C       -5.96123        -4.18991        -1.26082
| 52>    C       -7.08748        -3.25339        -1.68100
| 53>    C       -9.35075        -5.97752        -0.57065
| 54>    C      -10.53931        -5.75026        -1.26658
| 55>    C      -11.55686        -6.83227        -1.05443
| 56>    C      -11.21105        -7.51273         0.26225
| 57>    S       -9.39255        -7.37632         0.46770
| 58>    C      -10.66848        -4.64898        -2.09120
| 59>    C      -11.93677        -4.38498        -2.76610
| 60>    S      -12.61024        -5.56038        -3.86244
| 61>    C      -13.93132        -4.51972        -4.21607
| 62>    C      -13.87177        -3.34798        -3.53066
| 63>    C      -12.73317        -3.27330        -2.68379
| 64>    C      -12.48653        -2.10249        -1.78609
| 65>    C      -13.74739        -1.25588        -1.57303
| 66>    C      -14.40055        -0.97887        -2.93570
| 67>    C      -14.87827        -2.24789        -3.63640
| 68>    C      -14.72190        -1.83096        -0.56653
| 69>    C      -15.28569        -1.04471         0.34389
| 70>    C      -15.00406        -3.27312        -0.53132
| 71>    S      -13.82195        -4.29045         0.23301
| 72>    C      -14.81755        -5.67808         0.01560
| 73>    C      -15.98414        -5.39068        -0.60669
| 74>    C      -17.01893        -6.42047        -0.91969
| 75>    C      -16.11773        -3.99046        -0.90683
| 76>    C      -17.31629        -3.49865        -1.55028
| 77>    C      -17.76159        -2.23328        -1.61125
| 78>    C      -18.97760        -1.81708        -2.27690
| 79>    C      -19.67856        -2.52305        -3.16093
| 80>    H       -1.81056         8.11945         1.76738
| 81>    H       -1.16053         3.96039         4.48111
| 82>    H        0.09990         9.23686         3.49198
| 83>    H       -4.98928         2.80002         0.57820
| 84>    H       -5.12770         5.43464        -0.98965
| 85>    H       -6.71900         5.22547        -3.04358
| 86>    H       -8.23588         3.50942        -4.23094
| 87>    H       -9.23967         1.48006        -5.01536
| 88>    H      -10.14214        -0.91564        -5.27346
| 89>    H      -10.40484        -3.00285        -4.06192
| 90>    H       -5.58214        -4.77397        -2.10101
| 91>    H       -5.13709        -3.66997        -0.77943
| 92>    H       -6.91250        -2.86745        -2.68571
| 93>    H       -7.12786        -2.40793        -0.98817
| 94>    H      -11.48056        -7.54520        -1.88169
| 95>    H      -12.57222        -6.43982        -1.04168
| 96>    H      -11.48027        -8.56563         0.28858
| 97>    H      -11.66386        -6.99819         1.11110
| 98>    H      -14.67560        -4.83762        -4.91883
| 99>    H      -11.72874        -1.45607        -2.23934
|100>    H      -12.08285        -2.44286        -0.82918
|101>    H      -13.42584        -0.28945        -1.16822
|102>    H      -13.65709        -0.47709        -3.56091
|103>    H      -15.24491        -0.29913        -2.80799
|104>    H      -15.07680        -2.03291        -4.68995
|105>    H      -15.82107        -2.58014        -3.19739
|106>    H      -15.97275        -1.43053         1.07854
|107>    H      -15.08729         0.01353         0.38172
|108>    H      -14.48288        -6.63121         0.37672
|109>    H      -17.16558        -6.50132        -1.99684
|110>    H      -17.97201        -6.15925        -0.46173
|111>    H      -16.70593        -7.39084        -0.54233
|112>    H      -17.92254        -4.27274        -2.00011
|113>    H      -17.20602        -1.44648        -1.12330
|114>    H      -19.31458        -0.81940        -2.02388
|115>    H      -19.38305        -3.50799        -3.47948
|116>    H      -20.57466        -2.13078        -3.60916
|117> *
|118>
|119>                          ****END OF INPUT****

CARTESIAN COORDINATES (ANGSTROEM)
---------------------------------
  C     -3.069840    3.856650    2.255190
  C     -3.147300    2.555210    2.699460
  C     -2.414170    2.048850    3.789730
  N     -1.850190    1.576280    4.672400
  C     -3.942050    1.538420    2.135830
  N     -4.542960    0.646040    1.729820
  C     -2.198080    4.884890    2.823230
  C     -2.359730    6.076950    2.076980
  C     -1.666110    7.227530    2.356850
  C     -0.766150    7.203020    3.428510
  C     -0.612230    6.009250    4.169140
  C     -1.315250    4.843820    3.884810
  S      0.549720    6.196450    5.449060
  C      0.808810    7.854060    4.974730
  C      0.065290    8.249450    3.915070
  Br     2.038050    8.907310    5.924140
  C     -3.354250    5.848500    1.005760
  O     -3.722500    6.668160    0.185190
  C     -3.785140    4.447870    1.155910
  C     -4.728130    3.827800    0.357390
  C     -5.364320    4.413120   -0.729800
  C     -6.268930    3.734710   -1.525920
  C     -6.892890    4.222830   -2.695710
  C     -7.691960    3.312710   -3.324410
  C     -7.748340    2.063470   -2.672210
  S     -6.764300    2.085740   -1.223070
  C     -8.418660    0.921780   -3.071220
  C     -9.122450    0.704530   -4.280240
  C     -9.595190   -0.560390   -4.417600
  C     -9.303460   -1.430020   -3.324530
  S     -8.425600   -0.523380   -2.094040
  C     -9.746570   -2.716820   -3.247380
  C     -9.573150   -3.749540   -2.263580
  C     -8.375810   -4.018750   -1.589860
  C     -8.270760   -5.130910   -0.757590
  S     -6.681200   -5.372250   -0.064320
  C     -5.961230   -4.189910   -1.260820
  C     -7.087480   -3.253390   -1.681000
  C     -9.350750   -5.977520   -0.570650
  C    -10.539310   -5.750260   -1.266580
  C    -11.556860   -6.832270   -1.054430
  C    -11.211050   -7.512730    0.262250
  S     -9.392550   -7.376320    0.467700
  C    -10.668480   -4.648980   -2.091200
  C    -11.936770   -4.384980   -2.766100
  S    -12.610240   -5.560380   -3.862440
  C    -13.931320   -4.519720   -4.216070
  C    -13.871770   -3.347980   -3.530660
  C    -12.733170   -3.273300   -2.683790
  C    -12.486530   -2.102490   -1.786090
  C    -13.747390   -1.255880   -1.573030
  C    -14.400550   -0.978870   -2.935700
  C    -14.878270   -2.247890   -3.636400
  C    -14.721900   -1.830960   -0.566530
  C    -15.285690   -1.044710    0.343890
  C    -15.004060   -3.273120   -0.531320
  S    -13.821950   -4.290450    0.233010
  C    -14.817550   -5.678080    0.015600
  C    -15.984140   -5.390680   -0.606690
  C    -17.018930   -6.420470   -0.919690
  C    -16.117730   -3.990460   -0.906830
  C    -17.316290   -3.498650   -1.550280
  C    -17.761590   -2.233280   -1.611250
  C    -18.977600   -1.817080   -2.276900
  C    -19.678560   -2.523050   -3.160930
  H     -1.810560    8.119450    1.767380
  H     -1.160530    3.960390    4.481110
  H      0.099900    9.236860    3.491980
  H     -4.989280    2.800020    0.578200
  H     -5.127700    5.434640   -0.989650
  H     -6.719000    5.225470   -3.043580
  H     -8.235880    3.509420   -4.230940
  H     -9.239670    1.480060   -5.015360
  H    -10.142140   -0.915640   -5.273460
  H    -10.404840   -3.002850   -4.061920
  H     -5.582140   -4.773970   -2.101010
  H     -5.137090   -3.669970   -0.779430
  H     -6.912500   -2.867450   -2.685710
  H     -7.127860   -2.407930   -0.988170
  H    -11.480560   -7.545200   -1.881690
  H    -12.572220   -6.439820   -1.041680
  H    -11.480270   -8.565630    0.288580
  H    -11.663860   -6.998190    1.111100
  H    -14.675600   -4.837620   -4.918830
  H    -11.728740   -1.456070   -2.239340
  H    -12.082850   -2.442860   -0.829180
  H    -13.425840   -0.289450   -1.168220
  H    -13.657090   -0.477090   -3.560910
  H    -15.244910   -0.299130   -2.807990
  H    -15.076800   -2.032910   -4.689950
  H    -15.821070   -2.580140   -3.197390
  H    -15.972750   -1.430530    1.078540
  H    -15.087290    0.013530    0.381720
  H    -14.482880   -6.631210    0.376720
  H    -17.165580   -6.501320   -1.996840
  H    -17.972010   -6.159250   -0.461730
  H    -16.705930   -7.390840   -0.542330
  H    -17.922540   -4.272740   -2.000110
  H    -17.206020   -1.446480   -1.123300
  H    -19.314580   -0.819400   -2.023880
  H    -19.383050   -3.507990   -3.479480
  H    -20.574660   -2.130780   -3.609160

 Total Charge           Charge          ....    0
 Multiplicity           Mult            ....    1
 Number of Electrons    NEL             ....  530
 Basis Dimension        Dim             .... 1141

ORBITAL ENERGIES
----------------

  NO   OCC          E(Eh)            E(eV)
   0   2.0000    -482.874676    -13139.6879
   1   2.0000     -88.961864     -2420.7754
   2   2.0000     -88.961489     -2420.7652
   3   2.0000     -88.955368     -2420.5986
   4   2.0000     -88.948379     -2420.4085
   5   2.0000     -88.946841     -2420.3666
   6   2.0000     -88.923999     -2419.7450
   7   2.0000     -88.917199     -2419.5600
   8   2.0000     -62.552379     -1702.1368
   9   2.0000     -56.386312     -1534.3495
  10   2.0000     -56.383629     -1534.2765
  11   2.0000     -56.383589     -1534.2755
  12   2.0000     -19.195577      -522.3382
  13   2.0000     -14.397318      -391.7709
  14   2.0000     -14.394304      -391.6889
  15   2.0000     -10.345908      -281.5265
  16   2.0000     -10.345582      -281.5176
  17   2.0000     -10.334669      -281.2206
  18   2.0000     -10.323367      -280.9131
  19   2.0000     -10.319946      -280.8200
  20   2.0000     -10.319517      -280.8083
  21   2.0000     -10.317397      -280.7506
  22   2.0000     -10.317140      -280.7436
  23   2.0000     -10.309790      -280.5437
  24   2.0000     -10.305305      -280.4216
  25   2.0000     -10.303096      -280.3615
  26   2.0000     -10.301505      -280.3182
  27   2.0000     -10.300781      -280.2985
  28   2.0000     -10.299897      -280.2744
  29   2.0000     -10.298907      -280.2475
  30   2.0000     -10.298901      -280.2474
  31   2.0000     -10.298426      -280.2344
  32   2.0000     -10.296146      -280.1724
  33   2.0000     -10.295658      -280.1591
  34   2.0000     -10.293504      -280.1005
  35   2.0000     -10.291987      -280.0592
  36   2.0000     -10.291703      -280.0515
  37   2.0000     -10.290080      -280.0073
  38   2.0000     -10.289078      -279.9801
  39   2.0000     -10.288544      -279.9655
  40   2.0000     -10.288165      -279.9552
  41   2.0000     -10.287729      -279.9433
  42   2.0000     -10.285642      -279.8865
  43   2.0000     -10.285341      -279.8784
  44   2.0000     -10.284917      -279.8668
  45   2.0000     -10.284301      -279.8501
  46   2.0000     -10.283939      -279.8402
  47   2.0000     -10.282414      -279.7987
  48   2.0000     -10.280163      -279.7375
  49   2.0000     -10.279646      -279.7234
  50   2.0000     -10.276932      -279.6495
  51   2.0000     -10.276305      -279.6325
  52   2.0000     -10.276275      -279.6317
  53   2.0000     -10.273948      -279.5683
  54   2.0000     -10.273604      -279.5590
  55   2.0000     -10.273416      -279.5539
  56   2.0000     -10.272870      -279.5390
  57   2.0000     -10.271116      -279.4913
  58   2.0000     -10.270157      -279.4652
  59   2.0000     -10.269621      -279.4506
  60   2.0000     -10.268408      -279.4176
  61   2.0000     -10.268045      -279.4077
  62   2.0000     -10.267734      -279.3992
  63   2.0000     -10.266770      -279.3730
  64   2.0000     -10.266013      -279.3524
  65   2.0000     -10.265949      -279.3507
  66   2.0000     -10.265033      -279.3257
  67   2.0000     -10.262047      -279.2445
  68   2.0000     -10.261090      -279.2185
  69   2.0000      -8.781802      -238.9650
  70   2.0000      -8.057806      -219.2640
  71   2.0000      -8.057228      -219.2483
  72   2.0000      -8.051347      -219.0883
  73   2.0000      -8.043343      -218.8705
  74   2.0000      -8.042092      -218.8365
  75   2.0000      -8.020217      -218.2412
  76   2.0000      -8.013493      -218.0582
  77   2.0000      -6.618014      -180.0853
  78   2.0000      -6.603562      -179.6920
  79   2.0000      -6.603411      -179.6879
  80   2.0000      -6.027497      -164.0165
  81   2.0000      -6.026963      -164.0020
  82   2.0000      -6.023244      -163.9008
  83   2.0000      -6.022829      -163.8895
  84   2.0000      -6.020925      -163.8377
  85   2.0000      -6.019038      -163.7864
  86   2.0000      -6.018212      -163.7639
  87   2.0000      -6.016948      -163.7295
  88   2.0000      -6.012705      -163.6140
  89   2.0000      -6.012513      -163.6088
  90   2.0000      -6.011366      -163.5776
  91   2.0000      -6.008348      -163.4955
  92   2.0000      -6.007207      -163.4644
  93   2.0000      -6.005658      -163.4223
  94   2.0000      -6.004398      -163.3880
  95   2.0000      -5.990556      -163.0113
  96   2.0000      -5.986434      -162.8991
  97   2.0000      -5.983931      -162.8311
  98   2.0000      -5.979985      -162.7237
  99   2.0000      -5.979829      -162.7194
 100   2.0000      -5.973038      -162.5346
 101   2.0000      -2.733929       -74.3940
 102   2.0000      -2.729842       -74.2828
 103   2.0000      -2.729696       -74.2788
 104   2.0000      -2.718223       -73.9666
 105   2.0000      -2.718209       -73.9662
 106   2.0000      -1.108740       -30.1703
 107   2.0000      -1.009298       -27.4644
 108   2.0000      -1.006074       -27.3767
 109   2.0000      -0.995696       -27.0943
 110   2.0000      -0.995255       -27.0823
 111   2.0000      -0.984968       -26.8024
 112   2.0000      -0.982929       -26.7468
 113   2.0000      -0.975074       -26.5331
 114   2.0000      -0.974101       -26.5066
 115   2.0000      -0.970707       -26.4143
 116   2.0000      -0.944740       -25.7077
 117   2.0000      -0.928609       -25.2687
 118   2.0000      -0.927199       -25.2304
 119   2.0000      -0.920252       -25.0413
 120   2.0000      -0.903555       -24.5870
 121   2.0000      -0.900329       -24.4992
 122   2.0000      -0.891748       -24.2657
 123   2.0000      -0.883692       -24.0465
 124   2.0000      -0.877180       -23.8693
 125   2.0000      -0.869764       -23.6675
 126   2.0000      -0.864924       -23.5358
 127   2.0000      -0.860213       -23.4076
 128   2.0000      -0.858381       -23.3577
 129   2.0000      -0.855912       -23.2906
 130   2.0000      -0.846192       -23.0260
 131   2.0000      -0.836944       -22.7744
 132   2.0000      -0.835165       -22.7260
 133   2.0000      -0.834443       -22.7063
 134   2.0000      -0.823447       -22.4071
 135   2.0000      -0.813482       -22.1360
 136   2.0000      -0.808748       -22.0071
 137   2.0000      -0.805251       -21.9120
 138   2.0000      -0.793690       -21.5974
 139   2.0000      -0.783982       -21.3332
 140   2.0000      -0.782007       -21.2795
 141   2.0000      -0.768823       -20.9207
 142   2.0000      -0.756453       -20.5841
 143   2.0000      -0.751376       -20.4460
 144   2.0000      -0.740078       -20.1386
 145   2.0000      -0.723789       -19.6953
 146   2.0000      -0.714710       -19.4482
 147   2.0000      -0.710176       -19.3249
 148   2.0000      -0.703268       -19.1369
 149   2.0000      -0.700517       -19.0620
 150   2.0000      -0.687641       -18.7117
 151   2.0000      -0.685002       -18.6398
 152   2.0000      -0.679810       -18.4986
 153   2.0000      -0.673670       -18.3315
 154   2.0000      -0.670007       -18.2318
 155   2.0000      -0.663313       -18.0497
 156   2.0000      -0.654189       -17.8014
 157   2.0000      -0.653279       -17.7766
 158   2.0000      -0.641652       -17.4602
 159   2.0000      -0.634910       -17.2768
 160   2.0000      -0.632710       -17.2169
 161   2.0000      -0.629045       -17.1172
 162   2.0000      -0.623459       -16.9652
 163   2.0000      -0.621755       -16.9188
 164   2.0000      -0.618026       -16.8173
 165   2.0000      -0.614778       -16.7290
 166   2.0000      -0.606440       -16.5021
 167   2.0000      -0.594845       -16.1865
 168   2.0000      -0.585348       -15.9281
 169   2.0000      -0.582592       -15.8531
 170   2.0000      -0.579796       -15.7771
 171   2.0000      -0.577204       -15.7065
 172   2.0000      -0.576511       -15.6877
 173   2.0000      -0.565524       -15.3887
 174   2.0000      -0.560352       -15.2480
 175   2.0000      -0.557996       -15.1838
 176   2.0000      -0.553603       -15.0643
 177   2.0000      -0.547652       -14.9024
 178   2.0000      -0.545934       -14.8556
 179   2.0000      -0.540526       -14.7085
 180   2.0000      -0.532724       -14.4962
 181   2.0000      -0.527336       -14.3495
 182   2.0000      -0.525985       -14.3128
 183   2.0000      -0.524230       -14.2650
 184   2.0000      -0.521436       -14.1890
 185   2.0000      -0.520279       -14.1575
 186   2.0000      -0.518014       -14.0959
 187   2.0000      -0.514890       -14.0109
 188   2.0000      -0.513440       -13.9714
 189   2.0000      -0.510953       -13.9037
 190   2.0000      -0.509314       -13.8591
 191   2.0000      -0.506535       -13.7835
 192   2.0000      -0.504927       -13.7398
 193   2.0000      -0.500361       -13.6155
 194   2.0000      -0.497137       -13.5278
 195   2.0000      -0.495776       -13.4908
 196   2.0000      -0.493299       -13.4233
 197   2.0000      -0.492252       -13.3948
 198   2.0000      -0.490857       -13.3569
 199   2.0000      -0.486432       -13.2365
 200   2.0000      -0.483621       -13.1600
 201   2.0000      -0.482684       -13.1345
 202   2.0000      -0.478395       -13.0178
 203   2.0000      -0.476206       -12.9582
 204   2.0000      -0.475694       -12.9443
 205   2.0000      -0.473506       -12.8848
 206   2.0000      -0.470583       -12.8052
 207   2.0000      -0.467628       -12.7248
 208   2.0000      -0.466363       -12.6904
 209   2.0000      -0.464128       -12.6296
 210   2.0000      -0.463431       -12.6106
 211   2.0000      -0.461155       -12.5487
 212   2.0000      -0.455830       -12.4038
 213   2.0000      -0.455450       -12.3934
 214   2.0000      -0.450146       -12.2491
 215   2.0000      -0.449212       -12.2237
 216   2.0000      -0.448099       -12.1934
 217   2.0000      -0.443294       -12.0626
 218   2.0000      -0.442897       -12.0518
 219   2.0000      -0.440502       -11.9867
 220   2.0000      -0.434761       -11.8304
 221   2.0000      -0.432960       -11.7814
 222   2.0000      -0.432368       -11.7653
 223   2.0000      -0.429117       -11.6769
 224   2.0000      -0.428478       -11.6595
 225   2.0000      -0.425788       -11.5863
 226   2.0000      -0.423964       -11.5366
 227   2.0000      -0.423432       -11.5222
 228   2.0000      -0.421241       -11.4626
 229   2.0000      -0.418118       -11.3776
 230   2.0000      -0.414981       -11.2922
 231   2.0000      -0.412499       -11.2247
 232   2.0000      -0.408526       -11.1165
 233   2.0000      -0.408373       -11.1124
 234   2.0000      -0.406703       -11.0670
 235   2.0000      -0.405143       -11.0245
 236   2.0000      -0.403824       -10.9886
 237   2.0000      -0.400450       -10.8968
 238   2.0000      -0.395211       -10.7542
 239   2.0000      -0.394069       -10.7232
 240   2.0000      -0.393401       -10.7050
 241   2.0000      -0.389622       -10.6022
 242   2.0000      -0.389001       -10.5853
 243   2.0000      -0.381201       -10.3730
 244   2.0000      -0.378931       -10.3112
 245   2.0000      -0.371100       -10.0981
 246   2.0000      -0.364235        -9.9113
 247   2.0000      -0.357949        -9.7403
 248   2.0000      -0.348268        -9.4769
 249   2.0000      -0.347692        -9.4612
 250   2.0000      -0.339886        -9.2488
 251   2.0000      -0.337215        -9.1761
 252   2.0000      -0.331171        -9.0116
 253   2.0000      -0.329549        -8.9675
 254   2.0000      -0.316085        -8.6011
 255   2.0000      -0.307743        -8.3741
 256   2.0000      -0.302701        -8.2369
 257   2.0000      -0.300038        -8.1645
 258   2.0000      -0.294077        -8.0022
 259   2.0000      -0.285814        -7.7774
 260   2.0000      -0.278502        -7.5784
 261   2.0000      -0.271605        -7.3908
 262   2.0000      -0.263199        -7.1620
 263   2.0000      -0.254949        -6.9375
 264   2.0000      -0.223584        -6.0840
 265   0.0000      -0.101503        -2.7620
 266   0.0000      -0.053203        -1.4477
 267   0.0000      -0.033766        -0.9188
 268   0.0000      -0.023105        -0.6287
 269   0.0000      -0.003164        -0.0861

MULLIKEN ATOMIC CHARGES
-----------------------
   0 C :    0.329163
   1 C :   -0.364840
   2 C :   -0.190057
   3 N :    0.134144
   4 C :   -0.191730
   5 N :    0.127696
   6 C :    0.012195
   7 C :   -0.008925
   8 C :   -0.078127
   9 C :    0.115170
  10 C :   -0.093361
  11 C :   -0.023787
  12 S :    0.177639
  13 C :   -0.123958
  14 C :    0.039202
  15 Br:    0.012407
  16 C :    0.137827
  17 O :   -0.170181
  18 C :   -0.092599
  19 C :   -0.037181
  20 C :   -0.028239
  21 C :    0.006576
  22 C :    0.023677
  23 C :    0.044161
  24 C :   -0.057122
  25 S :    0.107003
  26 C :   -0.034484
  27 C :    0.020012
  28 C :    0.049162
  29 C :   -0.033609
  30 S :    0.107804
  31 C :   -0.116157
  32 C :    0.078783
  33 C :   -0.109953
  34 C :   -0.090161
  35 S :    0.010690
  36 C :   -0.057820
  37 C :    0.093833
  38 C :   -0.081336
  39 C :   -0.105205
  40 C :    0.130513
  41 C :   -0.066448
  42 S :    0.019932
  43 C :    0.045253
  44 C :   -0.334368
  45 S :    0.114487
  46 C :   -0.140408
  47 C :   -0.043751
  48 C :   -0.009300
  49 C :    0.192620
  50 C :   -0.012340
  51 C :    0.068293
  52 C :    0.139808
  53 C :   -0.112105
  54 C :    0.038556
  55 C :   -0.218958
  56 S :    0.116972
  57 C :   -0.130571
  58 C :   -0.097085
  59 C :    0.124603
  60 C :    0.185841
  61 C :   -0.025385
  62 C :    0.013939
  63 C :   -0.006334
  64 C :   -0.016919
  65 H :   -0.016856
  66 H :   -0.009972
  67 H :   -0.007867
  68 H :    0.012757
  69 H :    0.014321
  70 H :   -0.002785
  71 H :   -0.007560
  72 H :   -0.007959
  73 H :   -0.000327
  74 H :    0.032528
  75 H :    0.059596
  76 H :    0.059381
  77 H :    0.029978
  78 H :    0.063221
  79 H :    0.031914
  80 H :    0.030358
  81 H :    0.049542
  82 H :    0.060462
  83 H :    0.001784
  84 H :    0.014316
  85 H :    0.016233
  86 H :   -0.020094
  87 H :   -0.004735
  88 H :   -0.005768
  89 H :    0.001641
  90 H :    0.017643
  91 H :    0.023742
  92 H :    0.011882
  93 H :    0.006919
  94 H :    0.028189
  95 H :    0.028198
  96 H :    0.005218
  97 H :   -0.031844
  98 H :   -0.022229
  99 H :   -0.009666
 100 H :    0.011316
 101 H :    0.021368
Sum of atomic charges:   -0.0000000

LOEWDIN ATOMIC CHARGES
----------------------
   0 C :    0.073741
   1 C :   -0.159857
   2 C :   -0.019115
   3 N :   -0.071372
   4 C :   -0.020232
   5 N :   -0.072108
   6 C :   -0.017930
   7 C :   -0.048049
   8 C :    0.016059
   9 C :   -0.036646
  10 C :   -0.146158
  11 C :   -0.014112
  12 S :    0.426018
  13 C :   -0.275487
  14 C :   -0.071128
  15 Br:    0.127988
  16 C :    0.081677
  17 O :   -0.161827
  18 C :   -0.112968
  19 C :    0.050459
  20 C :   -0.079020
  21 C :   -0.101517
  22 C :   -0.046679
  23 C :   -0.006914
  24 C :   -0.201495
  25 S :    0.408579
  26 C :   -0.144024
  27 C :   -0.047839
  28 C :   -0.005008
  29 C :   -0.171427
  30 S :    0.418114
  31 C :   -0.001074
  32 C :   -0.047926
  33 C :   -0.030934
  34 C :   -0.171071
  35 S :    0.278098
  36 C :   -0.108183
  37 C :   -0.049059
  38 C :   -0.163743
  39 C :   -0.039853
  40 C :   -0.045473
  41 C :   -0.111530
  42 S :    0.289525
  43 C :   -0.037124
  44 C :   -0.185815
  45 S :    0.428577
  46 C :   -0.198231
  47 C :   -0.061608
  48 C :   -0.062568
  49 C :   -0.026329
  50 C :   -0.018864
  51 C :   -0.017862
  52 C :   -0.031924
  53 C :   -0.036798
  54 C :   -0.031946
  55 C :   -0.155607
  56 S :    0.453768
  57 C :   -0.203062
  58 C :   -0.054394
  59 C :   -0.045681
  60 C :   -0.067144
  61 C :   -0.014462
  62 C :   -0.033539
  63 C :   -0.032107
  64 C :   -0.043312
  65 H :    0.038231
  66 H :    0.039922
  67 H :    0.037052
  68 H :    0.030906
  69 H :    0.037710
  70 H :    0.037759
  71 H :    0.034348
  72 H :    0.033921
  73 H :    0.038004
  74 H :    0.045869
  75 H :    0.022835
  76 H :    0.031270
  77 H :    0.032752
  78 H :    0.031300
  79 H :    0.034854
  80 H :    0.026607
  81 H :    0.026208
  82 H :    0.021365
  83 H :    0.017902
  84 H :    0.035221
  85 H :    0.025124
  86 H :    0.030445
  87 H :    0.020070
  88 H :    0.023179
  89 H :    0.031854
  90 H :    0.036134
  91 H :    0.025887
  92 H :    0.020874
  93 H :    0.016827
  94 H :    0.033702
  95 H :    0.035409
  96 H :    0.032343
  97 H :    0.024361
  98 H :    0.025598
  99 H :    0.027817
 100 H :    0.017625
 101 H :    0.024247

  Mayer bond orders larger than 0.100000
B(  0-C ,  1-C ) :   1.5741 B(  0-C ,  6-C ) :   0.9872 B(  0-C , 18-C ) :   1.1219
B(  1-C ,  2-C ) :   1.1506 B(  1-C ,  4-C ) :   1.1565 B(  2-C ,  3-N ) :   2.9607
B(  4-C ,  5-N ) :   2.9561 B(  6-C ,  7-C ) :   1.2788 B(  6-C , 11-C ) :   1.4212
B(  7-C ,  8-C ) :   1.4336 B(  7-C , 16-C ) :   0.9339 B(  8-C ,  9-C ) :   1.2373
B(  8-C , 65-H ) :   1.0157 B(  9-C , 10-C ) :   1.3184 B(  9-C , 14-C ) :   1.1611
B( 10-C , 11-C ) :   1.3193 B( 10-C , 12-S ) :   1.0820 B( 11-C , 66-H ) :   0.9785
B( 12-S , 13-C ) :   1.0856 B( 13-C , 14-C ) :   1.6206 B( 13-C , 15-Br) :   1.0122
B( 14-C , 67-H ) :   0.9997 B( 16-C , 17-O ) :   2.1806 B( 16-C , 18-C ) :   0.9698
B( 18-C , 19-C ) :   1.4658 B( 19-C , 20-C ) :   1.2758 B( 19-C , 68-H ) :   0.9419
B( 20-C , 21-C ) :   1.4038 B( 20-C , 69-H ) :   0.9777 B( 21-C , 22-C ) :   1.1844
B( 21-C , 25-S ) :   1.0924 B( 22-C , 23-C ) :   1.5369 B( 22-C , 70-H ) :   1.0022
B( 23-C , 24-C ) :   1.2173 B( 23-C , 71-H ) :   0.9950 B( 24-C , 25-S ) :   1.0389
B( 24-C , 26-C ) :   1.4695 B( 26-C , 27-C ) :   1.1789 B( 26-C , 30-S ) :   1.0875
B( 27-C , 28-C ) :   1.5997 B( 27-C , 72-H ) :   0.9940 B( 28-C , 29-C ) :   1.1172
B( 28-C , 73-H ) :   1.0010 B( 29-C , 30-S ) :   1.0094 B( 29-C , 31-C ) :   1.6399
B( 31-C , 32-C ) :   1.0588 B( 31-C , 74-H ) :   0.9476 B( 32-C , 33-C ) :   1.3707
B( 32-C , 43-C ) :   1.3053 B( 33-C , 34-C ) :   1.4089 B( 33-C , 37-C ) :   1.0471
B( 34-C , 35-S ) :   1.0041 B( 34-C , 38-C ) :   1.4573 B( 35-S , 36-C ) :   0.9891
B( 36-C , 37-C ) :   1.0487 B( 36-C , 75-H ) :   0.9531 B( 36-C , 76-H ) :   0.9513
B( 37-C , 77-H ) :   0.9247 B( 37-C , 78-H ) :   0.9025 B( 38-C , 39-C ) :   1.3661
B( 38-C , 42-S ) :   1.0198 B( 39-C , 40-C ) :   1.0442 B( 39-C , 43-C ) :   1.4675
B( 40-C , 41-C ) :   1.0517 B( 40-C , 79-H ) :   0.9059 B( 40-C , 80-H ) :   0.9071
B( 41-C , 42-S ) :   0.9843 B( 41-C , 81-H ) :   0.9525 B( 41-C , 82-H ) :   0.9507
B( 43-C , 44-C ) :   0.9684 B( 44-C , 45-S ) :   1.1546 B( 44-C , 46-C ) :   0.1037
B( 44-C , 48-C ) :   1.5610 B( 45-S , 46-C ) :   1.1385 B( 46-C , 47-C ) :   1.5863
B( 46-C , 83-H ) :   0.9727 B( 47-C , 48-C ) :   1.2708 B( 47-C , 52-C ) :   1.0189
B( 48-C , 49-C ) :   1.0451 B( 49-C , 50-C ) :   1.0575 B( 49-C , 84-H ) :   0.8781
B( 49-C , 85-H ) :   0.9103 B( 50-C , 51-C ) :   1.0560 B( 50-C , 53-C ) :   1.0063
B( 50-C , 86-H ) :   0.8887 B( 51-C , 52-C ) :   1.0975 B( 51-C , 87-H ) :   0.9391
B( 51-C , 88-H ) :   0.9249 B( 52-C , 89-H ) :   0.9087 B( 52-C , 90-H ) :   0.9040
B( 53-C , 54-C ) :   2.0201 B( 53-C , 55-C ) :   0.9467 B( 54-C , 91-H ) :   0.9407
B( 54-C , 92-H ) :   0.9406 B( 55-C , 56-S ) :   1.1706 B( 55-C , 60-C ) :   1.5460
B( 56-S , 57-C ) :   1.1184 B( 57-C , 58-C ) :   1.6294 B( 57-C , 93-H ) :   0.9539
B( 58-C , 59-C ) :   1.0982 B( 58-C , 60-C ) :   1.1996 B( 59-C , 94-H ) :   0.9388
B( 59-C , 95-H ) :   0.9421 B( 59-C , 96-H ) :   0.9489 B( 60-C , 61-C ) :   1.0999
B( 61-C , 62-C ) :   1.7463 B( 61-C , 97-H ) :   0.9512 B( 62-C , 63-C ) :   1.0873
B( 62-C , 98-H ) :   0.9669 B( 63-C , 64-C ) :   1.9514 B( 63-C , 99-H ) :   0.9626
B( 64-C ,100-H ) :   0.9503 B( 64-C ,101-H ) :   0.9525

-----------------------------------------------------------------------------
         ABSORPTION SPECTRUM VIA TRANSITION ELECTRIC DIPOLE MOMENTS
-----------------------------------------------------------------------------
State   Energy  Wavelength   fosc         T2         TX        TY        TZ
        (cm-1)    (nm)                  (au**2)     (au)      (au)      (au)
-----------------------------------------------------------------------------
   0   12409.4    805.8   1.289018613  34.19658  -3.59805  -3.91748  -2.42982
   1   19655.6    508.8   0.082974727   1.38974  -0.25953   0.44514  -1.06030
   2   22286.8    448.7   0.158037922   2.33448   0.20470   1.45164  -0.43050
   3   23188.3    431.3   0.288005618   4.08892   0.71725  -1.31847   1.35503
   4   24507.7    408.0   0.015672498   0.21053  -0.00315   0.45019  -0.08858
   5   25513.3    392.0   0.199502180   2.57428  -1.00187  -1.14067  -0.51904
   6   25673.3    389.5   0.201509440   2.58398  -0.12922  -1.49475   0.57706
   7   26881.6    372.0   0.131152530   1.60619  -0.38559   0.44545  -1.12209
   8   27195.5    367.7   0.000209882   0.00254   0.02253   0.04366  -0.01127
   9   28966.9    345.2   0.029320839   0.33323  -0.14327   0.42635  -0.36185
  10   29178.6    342.7   0.007805384   0.08807   0.00074   0.28255  -0.09072
  11   30089.7    332.3   0.049119094   0.53741  -0.15076   0.56726  -0.43920
  12   31529.1    317.2   0.042492178   0.44368   0.29704  -0.09557   0.58849
  13   31711.1    315.3   0.003345480   0.03473   0.01287   0.17807   0.05346
  14   31792.4    314.5   0.012089326   0.12519  -0.11938   0.33297   0.00805
  15   31995.1    312.5   0.073538277   0.75667  -0.50896   0.17431  -0.68355
  16   32250.0    310.1   0.213591082   2.18036  -0.59228  -1.26943  -0.46702
  17   32677.0    306.0   0.354350979   3.56999   1.34734   1.09221   0.74950
  18   33728.2    296.5   0.150141787   1.46549  -0.90299  -0.76790  -0.24583
  19   34220.1    292.2   0.032555545   0.31320  -0.54824   0.08660  -0.07165
  20   35029.7    285.5   0.114427593   1.07540   0.83673   0.44077   0.42545
  21   35297.1    283.3   0.318315821   2.96889  -1.53171   0.56306  -0.55293
  22   35657.0    280.4   0.033408514   0.30845   0.05726  -0.55058  -0.04508
  23   35955.4    278.1   0.048980781   0.44847   0.60229   0.29183   0.02355
  24   36381.8    274.9   0.248093048   2.24495   0.64428  -1.14308   0.72334
  25   36610.9    273.1   0.156779221   1.40979  -0.12001   0.94241  -0.71221
  26   37136.5    269.3   0.017562193   0.15569   0.01575  -0.37579   0.11927
  27   37589.8    266.0   0.019773955   0.17318  -0.30554   0.14598  -0.24190
  28   37660.4    265.5   0.149827737   1.30973   1.04192  -0.24730   0.40372
  29   37849.1    264.2   0.031312018   0.27235  -0.37605  -0.34400  -0.11228
  30   38332.1    260.9   0.051926665   0.44597  -0.31716   0.07661  -0.58267
  31   38866.7    257.3   0.064022524   0.54229  -0.48643  -0.03105  -0.55200
  32   39058.4    256.0   0.181372976   1.52874   0.61410  -0.80738   0.70694
  33   39343.9    254.2   0.009166984   0.07671   0.01221   0.23772  -0.14158
  34   39423.9    253.7   0.017016565   0.14210   0.18931   0.32489  -0.02659
  35   40039.8    249.8   0.022766116   0.18719   0.38659  -0.10287   0.16476

FINAL SINGLE POINT ENERGY     -7622.180562486707

DIPOLE MOMENT
-------------
                                X             Y             Z
Electronic contribution:    219.61363     142.03575     106.33568
Nuclear contribution   :   -223.28464    -142.24416    -109.75048
                        -----------------------------------------
Total Dipole Moment    :     -3.67101      -0.20841      -3.41480
                        -----------------------------------------
Magnitude (a.u.)       :      5.01802
Magnitude (Debye)      :     12.75480

Rotational constants in cm-1:     0.001820     0.000262     0.000250
Rotational constants in MHz :    54.565342     7.841224     7.481716

                             ****ORCA TERMINATED NORMALLY****
TOTAL RUN TIME: 0 days 0 hours 11 minutes 43 seconds 40 msec
