                         Program Version 4.2.0 -  RELEASE  -
|  1> # ORCA input file
|  2> # SCF done       -167.373955839943          0.000224864328
|  3> ! CAM-B3LYP def2-SVP def2/J RIJCOSX Grid4 TightSCF
|  4> %maxcore 5000
|  5> %tddft
|  6>     Mode sTDDFT
|  7>     Ethresh 5.0
|  8>     maxcore 5000
|  9> end
| 10>
| 11> %pal
| 12>   nprocs 6
| 13>   end
| 14> * xyz 0 1
| 15>    C        9.05524        -6.70408         9.59826
| 16>    C        9.02363        -7.90836         9.01217
| 17>    C       10.11825        -8.81676         8.81803
| 18>    C        9.79377        -9.95051         8.16130
| 19>    C        8.42286       -10.03974         7.78559
| 20>    S        7.55237        -8.61911         8.33131
| 21>    C        7.81355       -11.03716         7.06832
| 22>    C        8.39844       -12.18992         6.48087
| 23>    C        7.54460       -12.89763         5.70050
| 24>    C        6.23694       -12.33987         5.59112
| 25>    S        6.11032       -10.95308         6.65640
| 26>    C        5.25816       -12.81635         4.76148
| 27>    C        3.98012       -12.30099         4.43896
| 28>    S        2.78643       -13.49774         3.96878
| 29>    C        1.55382       -12.30338         3.89143
| 30>    C        2.00445       -11.05675         4.17838
| 31>    C        1.13980        -9.84032         4.15561
| 32>    C        3.40940       -11.02422         4.45431
| 33>    C        4.10511        -9.78568         4.62588
| 34>    C        5.40818        -9.58098         4.32155
| 35>    C        6.13592        -8.41995         4.69580
| 36>    C        7.47555        -8.31479         4.53801
| 37>    C        8.27375        -7.27327         5.06999
| 38>    N        9.56309        -7.18867         4.91679
| 39>    C       10.06713        -6.12236         5.54994
| 40>    C        9.15457        -5.34660         6.22953
| 41>    S        7.57408        -5.97866         6.08408
| 42>    C        9.88915        -4.32406         6.99692
| 43>    C       11.12020        -4.13796         6.09651
| 44>    C       11.47920        -5.58465         5.63778
| 45>    C       12.28943        -6.30066         6.73555
| 46>    C       12.52969        -7.78071         6.46078
| 47>    C       12.18576        -5.70832         4.28042
| 48>    C       11.42803        -5.10501         3.10159
| 49>    N       12.01126        -3.28795         6.86822
| 50>    C       11.25674        -2.49861         7.82944
| 51>    S        9.46918        -2.60209         7.40599
| 52>    C       13.09115        -2.67816         6.27900
| 53>    S       14.19887        -1.80656         7.30063
| 54>    C       15.24385        -1.43181         5.93747
| 55>    C       16.53338        -0.78744         6.17481
| 56>    O       17.42430        -0.74288         5.36644
| 57>    O       16.71365        -0.24745         7.40250
| 58>    C       14.73129        -1.97236         4.77078
| 59>    C       13.52361        -2.68105         4.98592
| 60>    C       15.25158        -1.84539         3.42705
| 61>    C       15.84642        -0.74988         2.93683
| 62>    C       16.34181        -0.57085         1.59163
| 63>    C       16.71030        -1.59503         0.72545
| 64>    O       16.53965        -2.87300         1.16088
| 65>    C       17.53093        -3.84801         0.89377
| 66>    C       17.21611        -1.30896        -0.59104
| 67>    O       17.46740        -2.40216        -1.36582
| 68>    C       17.94914        -2.20588        -2.67295
| 69>    C       17.39871        -0.02106        -1.02692
| 70>    C       17.05930         1.03299        -0.16687
| 71>    C       16.52009         0.76086         1.13463
| 72>    N       16.23992         1.87703         1.80162
| 73>    S       16.63118         3.13977         0.88280
| 74>    N       17.16254         2.33789        -0.41165
| 75>    H        9.97104        -6.32463        10.01860
| 76>    H        8.17666        -6.09155         9.68535
| 77>    H       11.10187        -8.57304         9.17793
| 78>    H       10.49010       -10.73455         7.92203
| 79>    H        9.43234       -12.44205         6.63332
| 80>    H        7.81424       -13.78381         5.15275
| 81>    H        5.46898       -13.78420         4.31817
| 82>    H        0.55620       -12.59805         3.63050
| 83>    H        0.11568       -10.11035         3.91134
| 84>    H        1.50182        -9.13038         3.41296
| 85>    H        1.14822        -9.34932         5.12813
| 86>    H        3.52988        -8.96500         5.03361
| 87>    H        5.96226       -10.36088         3.81595
| 88>    H        5.59972        -7.63902         5.22001
| 89>    H        8.02661        -9.08483         4.01473
| 90>    H       10.16522        -4.75638         7.96738
| 91>    H       10.77924        -3.59196         5.20252
| 92>    H       13.24476        -5.78248         6.84658
| 93>    H       11.75007        -6.20798         7.68047
| 94>    H       13.25307        -7.92354         5.66329
| 95>    H       11.59859        -8.26825         6.18171
| 96>    H       12.92092        -8.26281         7.35373
| 97>    H       13.18751        -5.28224         4.35617
| 98>    H       12.28820        -6.77435         4.07852
| 99>    H       10.45216        -5.57427         3.00549
|100>    H       11.98420        -5.28495         2.18437
|101>    H       11.28051        -4.03108         3.19518
|102>    H       11.55751        -1.45047         7.82146
|103>    H       11.37616        -2.90271         8.84023
|104>    H       15.93653        -0.33034         7.97017
|105>    H       12.98021        -3.12578         4.17675
|106>    H       15.04769        -2.68634         2.78133
|107>    H       15.95571         0.12811         3.55665
|108>    H       18.53183        -3.41348         0.89667
|109>    H       17.35376        -4.34929        -0.06006
|110>    H       17.45216        -4.57108         1.70650
|111>    H       18.07172        -3.20392        -3.09106
|112>    H       18.91497        -1.69166        -2.67183
|113>    H       17.23627        -1.64196        -3.28210
|114>    H       17.77748         0.21364        -2.00640
|115> *
|116>
|117>                          ****END OF INPUT****

CARTESIAN COORDINATES (ANGSTROEM)
---------------------------------
  C      9.055240   -6.704080    9.598260
  C      9.023630   -7.908360    9.012170
  C     10.118250   -8.816760    8.818030
  C      9.793770   -9.950510    8.161300
  C      8.422860  -10.039740    7.785590
  S      7.552370   -8.619110    8.331310
  C      7.813550  -11.037160    7.068320
  C      8.398440  -12.189920    6.480870
  C      7.544600  -12.897630    5.700500
  C      6.236940  -12.339870    5.591120
  S      6.110320  -10.953080    6.656400
  C      5.258160  -12.816350    4.761480
  C      3.980120  -12.300990    4.438960
  S      2.786430  -13.497740    3.968780
  C      1.553820  -12.303380    3.891430
  C      2.004450  -11.056750    4.178380
  C      1.139800   -9.840320    4.155610
  C      3.409400  -11.024220    4.454310
  C      4.105110   -9.785680    4.625880
  C      5.408180   -9.580980    4.321550
  C      6.135920   -8.419950    4.695800
  C      7.475550   -8.314790    4.538010
  C      8.273750   -7.273270    5.069990
  N      9.563090   -7.188670    4.916790
  C     10.067130   -6.122360    5.549940
  C      9.154570   -5.346600    6.229530
  S      7.574080   -5.978660    6.084080
  C      9.889150   -4.324060    6.996920
  C     11.120200   -4.137960    6.096510
  C     11.479200   -5.584650    5.637780
  C     12.289430   -6.300660    6.735550
  C     12.529690   -7.780710    6.460780
  C     12.185760   -5.708320    4.280420
  C     11.428030   -5.105010    3.101590
  N     12.011260   -3.287950    6.868220
  C     11.256740   -2.498610    7.829440
  S      9.469180   -2.602090    7.405990
  C     13.091150   -2.678160    6.279000
  S     14.198870   -1.806560    7.300630
  C     15.243850   -1.431810    5.937470
  C     16.533380   -0.787440    6.174810
  O     17.424300   -0.742880    5.366440
  O     16.713650   -0.247450    7.402500
  C     14.731290   -1.972360    4.770780
  C     13.523610   -2.681050    4.985920
  C     15.251580   -1.845390    3.427050
  C     15.846420   -0.749880    2.936830
  C     16.341810   -0.570850    1.591630
  C     16.710300   -1.595030    0.725450
  O     16.539650   -2.873000    1.160880
  C     17.530930   -3.848010    0.893770
  C     17.216110   -1.308960   -0.591040
  O     17.467400   -2.402160   -1.365820
  C     17.949140   -2.205880   -2.672950
  C     17.398710   -0.021060   -1.026920
  C     17.059300    1.032990   -0.166870
  C     16.520090    0.760860    1.134630
  N     16.239920    1.877030    1.801620
  S     16.631180    3.139770    0.882800
  N     17.162540    2.337890   -0.411650
  H      9.971040   -6.324630   10.018600
  H      8.176660   -6.091550    9.685350
  H     11.101870   -8.573040    9.177930
  H     10.490100  -10.734550    7.922030
  H      9.432340  -12.442050    6.633320
  H      7.814240  -13.783810    5.152750
  H      5.468980  -13.784200    4.318170
  H      0.556200  -12.598050    3.630500
  H      0.115680  -10.110350    3.911340
  H      1.501820   -9.130380    3.412960
  H      1.148220   -9.349320    5.128130
  H      3.529880   -8.965000    5.033610
  H      5.962260  -10.360880    3.815950
  H      5.599720   -7.639020    5.220010
  H      8.026610   -9.084830    4.014730
  H     10.165220   -4.756380    7.967380
  H     10.779240   -3.591960    5.202520
  H     13.244760   -5.782480    6.846580
  H     11.750070   -6.207980    7.680470
  H     13.253070   -7.923540    5.663290
  H     11.598590   -8.268250    6.181710
  H     12.920920   -8.262810    7.353730
  H     13.187510   -5.282240    4.356170
  H     12.288200   -6.774350    4.078520
  H     10.452160   -5.574270    3.005490
  H     11.984200   -5.284950    2.184370
  H     11.280510   -4.031080    3.195180
  H     11.557510   -1.450470    7.821460
  H     11.376160   -2.902710    8.840230
  H     15.936530   -0.330340    7.970170
  H     12.980210   -3.125780    4.176750
  H     15.047690   -2.686340    2.781330
  H     15.955710    0.128110    3.556650
  H     18.531830   -3.413480    0.896670
  H     17.353760   -4.349290   -0.060060
  H     17.452160   -4.571080    1.706500
  H     18.071720   -3.203920   -3.091060
  H     18.914970   -1.691660   -2.671830
  H     17.236270   -1.641960   -3.282100
  H     17.777480    0.213640   -2.006400

 Total Charge           Charge          ....    0
 Multiplicity           Mult            ....    1
 Number of Electrons    NEL             ....  482
 Basis Dimension        Dim             .... 1068

ORBITAL ENERGIES
----------------

  NO   OCC          E(Eh)            E(eV)
   0   2.0000     -88.996105     -2421.7071
   1   2.0000     -88.958482     -2420.6834
   2   2.0000     -88.954318     -2420.5701
   3   2.0000     -88.942674     -2420.2532
   4   2.0000     -88.941996     -2420.2347
   5   2.0000     -88.940723     -2420.2001
   6   2.0000     -88.920239     -2419.6427
   7   2.0000     -19.253435      -523.9126
   8   2.0000     -19.237545      -523.4802
   9   2.0000     -19.236403      -523.4491
  10   2.0000     -19.170105      -521.6451
  11   2.0000     -14.440997      -392.9595
  12   2.0000     -14.413932      -392.2230
  13   2.0000     -14.412759      -392.1911
  14   2.0000     -14.402011      -391.8987
  15   2.0000     -10.382981      -282.5353
  16   2.0000     -10.341976      -281.4195
  17   2.0000     -10.339163      -281.3429
  18   2.0000     -10.334627      -281.2195
  19   2.0000     -10.332177      -281.1528
  20   2.0000     -10.328478      -281.0522
  21   2.0000     -10.327338      -281.0211
  22   2.0000     -10.311841      -280.5995
  23   2.0000     -10.311269      -280.5839
  24   2.0000     -10.311123      -280.5799
  25   2.0000     -10.309657      -280.5400
  26   2.0000     -10.308467      -280.5076
  27   2.0000     -10.306448      -280.4527
  28   2.0000     -10.304036      -280.3871
  29   2.0000     -10.301547      -280.3193
  30   2.0000     -10.299537      -280.2646
  31   2.0000     -10.298050      -280.2242
  32   2.0000     -10.292827      -280.0821
  33   2.0000     -10.290449      -280.0173
  34   2.0000     -10.290286      -280.0129
  35   2.0000     -10.286160      -279.9007
  36   2.0000     -10.284301      -279.8501
  37   2.0000     -10.283816      -279.8369
  38   2.0000     -10.283081      -279.8169
  39   2.0000     -10.282974      -279.8140
  40   2.0000     -10.282475      -279.8004
  41   2.0000     -10.282405      -279.7985
  42   2.0000     -10.282051      -279.7888
  43   2.0000     -10.277175      -279.6561
  44   2.0000     -10.274103      -279.5725
  45   2.0000     -10.273300      -279.5507
  46   2.0000     -10.273114      -279.5456
  47   2.0000     -10.272689      -279.5341
  48   2.0000     -10.271622      -279.5050
  49   2.0000     -10.270743      -279.4811
  50   2.0000     -10.269579      -279.4495
  51   2.0000     -10.268204      -279.4120
  52   2.0000     -10.264710      -279.3170
  53   2.0000     -10.260105      -279.1917
  54   2.0000     -10.258927      -279.1596
  55   2.0000     -10.256060      -279.0816
  56   2.0000     -10.254699      -279.0445
  57   2.0000     -10.252245      -278.9778
  58   2.0000     -10.246590      -278.8239
  59   2.0000     -10.246439      -278.8198
  60   2.0000      -8.088337      -220.0948
  61   2.0000      -8.053278      -219.1408
  62   2.0000      -8.050574      -219.0673
  63   2.0000      -8.038952      -218.7510
  64   2.0000      -8.037274      -218.7053
  65   2.0000      -8.036770      -218.6916
  66   2.0000      -8.016363      -218.1363
  67   2.0000      -6.059643      -164.8913
  68   2.0000      -6.051985      -164.6829
  69   2.0000      -6.050384      -164.6393
  70   2.0000      -6.022394      -163.8777
  71   2.0000      -6.020058      -163.8141
  72   2.0000      -6.018532      -163.7726
  73   2.0000      -6.015945      -163.7022
  74   2.0000      -6.015554      -163.6915
  75   2.0000      -6.012216      -163.6007
  76   2.0000      -6.008297      -163.4941
  77   2.0000      -6.007043      -163.4600
  78   2.0000      -6.006604      -163.4480
  79   2.0000      -6.004094      -163.3797
  80   2.0000      -6.002859      -163.3461
  81   2.0000      -6.002697      -163.3417
  82   2.0000      -6.000966      -163.2946
  83   2.0000      -5.998307      -163.2222
  84   2.0000      -5.997365      -163.1966
  85   2.0000      -5.986618      -162.9042
  86   2.0000      -5.983637      -162.8230
  87   2.0000      -5.975134      -162.5917
  88   2.0000      -1.162380       -31.6300
  89   2.0000      -1.158408       -31.5219
  90   2.0000      -1.133378       -30.8408
  91   2.0000      -1.098581       -29.8939
  92   2.0000      -1.070692       -29.1350
  93   2.0000      -1.070411       -29.1274
  94   2.0000      -1.056377       -28.7455
  95   2.0000      -0.992301       -27.0019
  96   2.0000      -0.977903       -26.6101
  97   2.0000      -0.976643       -26.5758
  98   2.0000      -0.966225       -26.2923
  99   2.0000      -0.954713       -25.9791
 100   2.0000      -0.946059       -25.7436
 101   2.0000      -0.939242       -25.5581
 102   2.0000      -0.912102       -24.8195
 103   2.0000      -0.904698       -24.6181
 104   2.0000      -0.890713       -24.2375
 105   2.0000      -0.883672       -24.0459
 106   2.0000      -0.874696       -23.8017
 107   2.0000      -0.869680       -23.6652
 108   2.0000      -0.865341       -23.5471
 109   2.0000      -0.847900       -23.0725
 110   2.0000      -0.846154       -23.0250
 111   2.0000      -0.844808       -22.9884
 112   2.0000      -0.842839       -22.9348
 113   2.0000      -0.835401       -22.7324
 114   2.0000      -0.832224       -22.6460
 115   2.0000      -0.821311       -22.3490
 116   2.0000      -0.818071       -22.2608
 117   2.0000      -0.811969       -22.0948
 118   2.0000      -0.799001       -21.7419
 119   2.0000      -0.794616       -21.6226
 120   2.0000      -0.788337       -21.4517
 121   2.0000      -0.775142       -21.0927
 122   2.0000      -0.767944       -20.8968
 123   2.0000      -0.756622       -20.5887
 124   2.0000      -0.752187       -20.4680
 125   2.0000      -0.733563       -19.9613
 126   2.0000      -0.722290       -19.6545
 127   2.0000      -0.713356       -19.4114
 128   2.0000      -0.712641       -19.3920
 129   2.0000      -0.696399       -18.9500
 130   2.0000      -0.690891       -18.8001
 131   2.0000      -0.687485       -18.7074
 132   2.0000      -0.685102       -18.6426
 133   2.0000      -0.680969       -18.5301
 134   2.0000      -0.672158       -18.2904
 135   2.0000      -0.667524       -18.1643
 136   2.0000      -0.654455       -17.8086
 137   2.0000      -0.648219       -17.6389
 138   2.0000      -0.647245       -17.6124
 139   2.0000      -0.640496       -17.4288
 140   2.0000      -0.636624       -17.3234
 141   2.0000      -0.627504       -17.0752
 142   2.0000      -0.622472       -16.9383
 143   2.0000      -0.616048       -16.7635
 144   2.0000      -0.614000       -16.7078
 145   2.0000      -0.611847       -16.6492
 146   2.0000      -0.606285       -16.4979
 147   2.0000      -0.599457       -16.3121
 148   2.0000      -0.595898       -16.2152
 149   2.0000      -0.591475       -16.0949
 150   2.0000      -0.589962       -16.0537
 151   2.0000      -0.581269       -15.8171
 152   2.0000      -0.573188       -15.5972
 153   2.0000      -0.567826       -15.4513
 154   2.0000      -0.564199       -15.3526
 155   2.0000      -0.559331       -15.2202
 156   2.0000      -0.551253       -15.0003
 157   2.0000      -0.543985       -14.8026
 158   2.0000      -0.538946       -14.6655
 159   2.0000      -0.537554       -14.6276
 160   2.0000      -0.536432       -14.5971
 161   2.0000      -0.534123       -14.5342
 162   2.0000      -0.529145       -14.3988
 163   2.0000      -0.525241       -14.2925
 164   2.0000      -0.522821       -14.2267
 165   2.0000      -0.521027       -14.1779
 166   2.0000      -0.520937       -14.1754
 167   2.0000      -0.517655       -14.0861
 168   2.0000      -0.517374       -14.0785
 169   2.0000      -0.513821       -13.9818
 170   2.0000      -0.510214       -13.8836
 171   2.0000      -0.510015       -13.8782
 172   2.0000      -0.506426       -13.7805
 173   2.0000      -0.504343       -13.7239
 174   2.0000      -0.502648       -13.6777
 175   2.0000      -0.501123       -13.6362
 176   2.0000      -0.498536       -13.5658
 177   2.0000      -0.494783       -13.4637
 178   2.0000      -0.488771       -13.3001
 179   2.0000      -0.487319       -13.2606
 180   2.0000      -0.485950       -13.2234
 181   2.0000      -0.482626       -13.1329
 182   2.0000      -0.481748       -13.1090
 183   2.0000      -0.475478       -12.9384
 184   2.0000      -0.471301       -12.8248
 185   2.0000      -0.469518       -12.7762
 186   2.0000      -0.465563       -12.6686
 187   2.0000      -0.464002       -12.6261
 188   2.0000      -0.457958       -12.4617
 189   2.0000      -0.457122       -12.4389
 190   2.0000      -0.454130       -12.3575
 191   2.0000      -0.453031       -12.3276
 192   2.0000      -0.451485       -12.2855
 193   2.0000      -0.451250       -12.2791
 194   2.0000      -0.447602       -12.1799
 195   2.0000      -0.446387       -12.1468
 196   2.0000      -0.443348       -12.0641
 197   2.0000      -0.441446       -12.0124
 198   2.0000      -0.440324       -11.9818
 199   2.0000      -0.432779       -11.7765
 200   2.0000      -0.431370       -11.7382
 201   2.0000      -0.429948       -11.6995
 202   2.0000      -0.427550       -11.6342
 203   2.0000      -0.423001       -11.5105
 204   2.0000      -0.422525       -11.4975
 205   2.0000      -0.421166       -11.4605
 206   2.0000      -0.418744       -11.3946
 207   2.0000      -0.416239       -11.3264
 208   2.0000      -0.412302       -11.2193
 209   2.0000      -0.409063       -11.1312
 210   2.0000      -0.407471       -11.0879
 211   2.0000      -0.407028       -11.0758
 212   2.0000      -0.396473       -10.7886
 213   2.0000      -0.392087       -10.6692
 214   2.0000      -0.391191       -10.6449
 215   2.0000      -0.387525       -10.5451
 216   2.0000      -0.383578       -10.4377
 217   2.0000      -0.380498       -10.3539
 218   2.0000      -0.378009       -10.2861
 219   2.0000      -0.376456       -10.2439
 220   2.0000      -0.371618       -10.1122
 221   2.0000      -0.363146        -9.8817
 222   2.0000      -0.359758        -9.7895
 223   2.0000      -0.356263        -9.6944
 224   2.0000      -0.347971        -9.4688
 225   2.0000      -0.345299        -9.3961
 226   2.0000      -0.343337        -9.3427
 227   2.0000      -0.339814        -9.2468
 228   2.0000      -0.339571        -9.2402
 229   2.0000      -0.326847        -8.8940
 230   2.0000      -0.325624        -8.8607
 231   2.0000      -0.318872        -8.6770
 232   2.0000      -0.307742        -8.3741
 233   2.0000      -0.299689        -8.1550
 234   2.0000      -0.288833        -7.8596
 235   2.0000      -0.286840        -7.8053
 236   2.0000      -0.283360        -7.7106
 237   2.0000      -0.268097        -7.2953
 238   2.0000      -0.248685        -6.7671
 239   2.0000      -0.245595        -6.6830
 240   2.0000      -0.219569        -5.9748
 241   0.0000      -0.068731        -1.8703
 242   0.0000      -0.041183        -1.1207
 243   0.0000      -0.033955        -0.9240
 244   0.0000      -0.007689        -0.2092
 245   0.0000       0.003717         0.1011

MULLIKEN ATOMIC CHARGES
-----------------------
   0 C :   -0.032159
   1 C :   -0.066330
   2 C :    0.055579
   3 C :    0.041468
   4 C :   -0.064756
   5 S :    0.081518
   6 C :   -0.058445
   7 C :    0.027179
   8 C :    0.044365
   9 C :   -0.054917
  10 S :    0.101152
  11 C :    0.003610
  12 C :   -0.180087
  13 S :    0.096935
  14 C :   -0.121266
  15 C :   -0.086620
  16 C :    0.119258
  17 C :    0.141930
  18 C :   -0.064318
  19 C :    0.031360
  20 C :    0.010821
  21 C :    0.030452
  22 C :   -0.065413
  23 N :   -0.050705
  24 C :   -0.054615
  25 C :   -0.041163
  26 S :    0.111462
  27 C :   -0.135240
  28 C :    0.093681
  29 C :   -0.164086
  30 C :    0.076141
  31 C :    0.026342
  32 C :    0.048863
  33 C :    0.014454
  34 N :   -0.250666
  35 C :    0.111044
  36 S :   -0.023306
  37 C :    0.028613
  38 S :    0.037845
  39 C :   -0.234301
  40 C :    0.172820
  41 O :   -0.180213
  42 O :   -0.172222
  43 C :    0.139257
  44 C :   -0.022030
  45 C :   -0.028184
  46 C :    0.022933
  47 C :    0.027089
  48 C :    0.102028
  49 O :   -0.325220
  50 C :    0.205048
  51 C :    0.237063
  52 O :   -0.323651
  53 C :    0.178661
  54 C :   -0.202841
  55 C :    0.072193
  56 C :   -0.002738
  57 N :   -0.278558
  58 S :    0.472812
  59 N :   -0.274845
  60 H :    0.024778
  61 H :    0.021708
  62 H :   -0.010450
  63 H :   -0.009137
  64 H :   -0.017605
  65 H :   -0.014317
  66 H :   -0.008966
  67 H :    0.013571
  68 H :    0.007036
  69 H :    0.029344
  70 H :    0.028249
  71 H :   -0.018625
  72 H :    0.012252
  73 H :   -0.003753
  74 H :   -0.002827
  75 H :    0.061188
  76 H :    0.020286
  77 H :    0.007288
  78 H :   -0.030060
  79 H :    0.013568
  80 H :    0.027825
  81 H :   -0.002343
  82 H :    0.006693
  83 H :    0.010749
  84 H :    0.023378
  85 H :    0.010025
  86 H :    0.023763
  87 H :    0.054467
  88 H :    0.048847
  89 H :    0.169882
  90 H :   -0.048777
  91 H :    0.004526
  92 H :    0.009649
  93 H :    0.018574
  94 H :    0.027580
  95 H :    0.028682
  96 H :    0.037350
  97 H :    0.028826
  98 H :    0.029652
  99 H :   -0.037956
Sum of atomic charges:   -0.0000000

LOEWDIN ATOMIC CHARGES
----------------------
   0 C :   -0.083831
   1 C :   -0.136803
   2 C :   -0.026851
   3 C :   -0.021240
   4 C :   -0.173131
   5 S :    0.358645
   6 C :   -0.179687
   7 C :   -0.044067
   8 C :   -0.029410
   9 C :   -0.155978
  10 S :    0.430790
  11 C :   -0.083875
  12 C :   -0.167827
  13 S :    0.415711
  14 C :   -0.192616
  15 C :   -0.057127
  16 C :   -0.044682
  17 C :   -0.066749
  18 C :   -0.038496
  19 C :   -0.028344
  20 C :   -0.016922
  21 C :   -0.054928
  22 C :   -0.112126
  23 N :   -0.096011
  24 C :   -0.035171
  25 C :   -0.217580
  26 S :    0.414360
  27 C :   -0.132025
  28 C :    0.037893
  29 C :   -0.041290
  30 C :   -0.018887
  31 C :   -0.058938
  32 C :   -0.027907
  33 C :   -0.059903
  34 N :   -0.085872
  35 C :   -0.053637
  36 S :    0.215405
  37 C :   -0.098020
  38 S :    0.383553
  39 C :   -0.259834
  40 C :    0.061861
  41 O :   -0.167299
  42 O :   -0.047990
  43 C :   -0.002288
  44 C :   -0.106133
  45 C :   -0.026671
  46 C :    0.023271
  47 C :   -0.049119
  48 C :    0.049318
  49 O :   -0.096889
  50 C :    0.080657
  51 C :    0.045678
  52 O :   -0.094229
  53 C :    0.078509
  54 C :   -0.087459
  55 C :   -0.055687
  56 C :   -0.049131
  57 N :   -0.288295
  58 S :    0.612408
  59 N :   -0.298639
  60 H :    0.026390
  61 H :    0.025808
  62 H :    0.032520
  63 H :    0.033563
  64 H :    0.030351
  65 H :    0.032561
  66 H :    0.032863
  67 H :    0.020517
  68 H :    0.032384
  69 H :    0.036070
  70 H :    0.034218
  71 H :    0.025414
  72 H :    0.030739
  73 H :    0.020726
  74 H :    0.039378
  75 H :    0.024325
  76 H :    0.016927
  77 H :    0.023525
  78 H :    0.013608
  79 H :    0.021616
  80 H :    0.024793
  81 H :    0.018456
  82 H :    0.019854
  83 H :    0.029600
  84 H :    0.028194
  85 H :    0.028130
  86 H :    0.015261
  87 H :    0.016724
  88 H :    0.012866
  89 H :    0.067342
  90 H :    0.029923
  91 H :    0.027387
  92 H :    0.035128
  93 H :    0.016883
  94 H :    0.013510
  95 H :    0.022274
  96 H :    0.028881
  97 H :    0.018177
  98 H :    0.019066
  99 H :    0.035586

  Mayer bond orders larger than 0.100000
B(  0-C ,  1-C ) :   1.8566 B(  0-C , 60-H ) :   0.9408 B(  0-C , 61-H ) :   0.9388
B(  1-C ,  2-C ) :   1.0790 B(  1-C ,  5-S ) :   1.0131 B(  2-C ,  3-C ) :   1.6642
B(  2-C , 62-H ) :   0.9881 B(  3-C ,  4-C ) :   1.1486 B(  3-C , 63-H ) :   0.9907
B(  4-C ,  5-S ) :   1.0441 B(  4-C ,  6-C ) :   1.5588 B(  6-C ,  7-C ) :   1.1584
B(  6-C , 10-S ) :   1.0364 B(  7-C ,  8-C ) :   1.6181 B(  7-C , 64-H ) :   0.9917
B(  8-C ,  9-C ) :   1.1183 B(  8-C , 65-H ) :   0.9973 B(  9-C , 10-S ) :   1.0612
B(  9-C , 11-C ) :   1.6166 B( 11-C , 12-C ) :   1.1478 B( 11-C , 66-H ) :   0.9406
B( 12-C , 13-S ) :   1.1243 B( 12-C , 17-C ) :   1.4159 B( 13-S , 14-C ) :   1.1283
B( 14-C , 15-C ) :   1.6111 B( 14-C , 67-H ) :   0.9658 B( 15-C , 16-C ) :   1.0984
B( 15-C , 17-C ) :   1.2166 B( 16-C , 68-H ) :   0.9508 B( 16-C , 69-H ) :   0.9426
B( 16-C , 70-H ) :   0.9421 B( 17-C , 18-C ) :   1.1152 B( 18-C , 19-C ) :   1.6537
B( 18-C , 71-H ) :   0.9610 B( 19-C , 20-C ) :   1.1297 B( 19-C , 72-H ) :   0.9851
B( 20-C , 21-C ) :   1.6272 B( 20-C , 73-H ) :   0.9809 B( 21-C , 22-C ) :   1.1137
B( 21-C , 74-H ) :   0.9805 B( 22-C , 23-N ) :   1.6374 B( 22-C , 26-S ) :   1.0779
B( 23-N , 24-C ) :   1.3445 B( 24-C , 25-C ) :   1.5590 B( 24-C , 29-C ) :   0.9611
B( 25-C , 26-S ) :   1.1088 B( 25-C , 27-C ) :   1.0402 B( 27-C , 28-C ) :   0.9745
B( 27-C , 36-S ) :   1.0014 B( 27-C , 75-H ) :   0.8707 B( 28-C , 29-C ) :   0.9834
B( 28-C , 34-N ) :   0.9900 B( 28-C , 76-H ) :   0.9194 B( 29-C , 30-C ) :   1.0174
B( 29-C , 32-C ) :   1.0472 B( 30-C , 31-C ) :   1.1120 B( 30-C , 77-H ) :   0.9387
B( 30-C , 78-H ) :   0.9337 B( 31-C , 79-H ) :   0.9574 B( 31-C , 80-H ) :   0.9593
B( 31-C , 81-H ) :   0.9592 B( 32-C , 33-C ) :   1.1100 B( 32-C , 82-H ) :   0.9405
B( 32-C , 83-H ) :   0.9236 B( 33-C , 84-H ) :   0.9537 B( 33-C , 85-H ) :   0.9597
B( 33-C , 86-H ) :   0.9550 B( 34-N , 35-C ) :   0.9562 B( 34-N , 37-C ) :   1.1242
B( 35-C , 36-S ) :   1.0099 B( 35-C , 87-H ) :   0.9432 B( 35-C , 88-H ) :   0.9523
B( 37-C , 38-S ) :   1.1335 B( 37-C , 44-C ) :   1.4952 B( 38-S , 39-C ) :   1.0233
B( 39-C , 40-C ) :   0.9632 B( 39-C , 43-C ) :   1.5343 B( 40-C , 41-O ) :   2.1686
B( 40-C , 42-O ) :   1.2154 B( 42-O , 89-H ) :   0.9539 B( 43-C , 44-C ) :   1.2091
B( 43-C , 45-C ) :   1.0555 B( 44-C , 90-H ) :   1.0041 B( 45-C , 46-C ) :   1.7422
B( 45-C , 91-H ) :   0.9571 B( 46-C , 47-C ) :   1.1307 B( 46-C , 92-H ) :   0.9577
B( 47-C , 48-C ) :   1.4832 B( 47-C , 54-C ) :   0.1153 B( 47-C , 56-C ) :   1.1494
B( 48-C , 49-O ) :   1.1724 B( 48-C , 51-C ) :   1.1465 B( 49-O , 50-C ) :   0.9288
B( 50-C , 93-H ) :   0.9727 B( 50-C , 94-H ) :   0.9744 B( 50-C , 95-H ) :   0.9784
B( 51-C , 52-O ) :   1.1371 B( 51-C , 54-C ) :   1.3937 B( 52-O , 53-C ) :   0.9609
B( 53-C , 96-H ) :   0.9776 B( 53-C , 97-H ) :   0.9694 B( 53-C , 98-H ) :   0.9688
B( 54-C , 55-C ) :   1.1338 B( 54-C , 99-H ) :   1.0409 B( 55-C , 56-C ) :   1.1611
B( 55-C , 59-N ) :   1.5432 B( 56-C , 57-N ) :   1.5680 B( 57-N , 58-S ) :   1.2466
B( 57-N , 59-N ) :   0.1474 B( 58-S , 59-N ) :   1.2459

-----------------------------------------------------------------------------
         ABSORPTION SPECTRUM VIA TRANSITION ELECTRIC DIPOLE MOMENTS
-----------------------------------------------------------------------------
State   Energy  Wavelength   fosc         T2         TX        TY        TZ
        (cm-1)    (nm)                  (au**2)     (au)      (au)      (au)
-----------------------------------------------------------------------------
   0   16902.4    591.6   0.312538786   6.08739  -1.42294  -0.28681  -1.99509
   1   20300.3    492.6   0.040162262   0.65132  -0.39723  -0.53716  -0.45274
   2   24616.8    406.2   0.960236475  12.84168   2.10551   2.63258   1.21573
   3   27537.8    363.1   0.426699998   5.10116   0.78586   0.42033  -2.07531
   4   28904.7    346.0   0.003655252   0.04163   0.12205   0.04088   0.15831
   5   29302.9    341.3   1.164228488  13.07985  -2.41953  -2.52033  -0.93468
   6   29787.2    335.7   0.035365881   0.39087   0.31608   0.49734   0.20885
   7   30148.6    331.7   0.047346623   0.51701   0.21917   0.59578   0.33767
   8   31272.2    319.8   0.003729569   0.03926   0.14085  -0.00899  -0.13908
   9   32464.4    308.0   0.253770229   2.57341  -1.25478  -0.23200   0.97218
  10   32712.6    305.7   0.270558539   2.72283   1.45215  -0.28805   0.72879
  11   33144.8    301.7   0.061847649   0.61430  -0.68543   0.02958  -0.37897
  12   33174.0    301.4   0.046271772   0.45919   0.04265   0.02022   0.67599
  13   34123.2    293.1   0.341344976   3.29321   0.01943  -1.81119  -0.11150
  14   35099.4    284.9   0.053211128   0.49909   0.12074   0.68223  -0.13809
  15   35592.6    281.0   0.013952427   0.12905  -0.18361   0.28888  -0.10903
  16   35731.7    279.9   0.009321227   0.08588   0.21329  -0.20082  -0.00766
  17   35880.1    278.7   0.005071335   0.04653   0.16980  -0.11642  -0.06439
  18   35931.9    278.3   0.008790435   0.08054   0.07373  -0.24051  -0.13137
  19   36544.1    273.6   0.038962675   0.35100  -0.35807  -0.34707  -0.31990
  20   36895.5    271.0   0.015599012   0.13919   0.00826   0.36071   0.09492
  21   37098.8    269.6   0.087876118   0.77981  -0.59741  -0.60838  -0.22973
  22   37702.2    265.2   0.000948971   0.00829   0.08050  -0.00915  -0.04150
  23   38706.8    258.4   0.055439974   0.47153  -0.59574  -0.17333  -0.29425
  24   38852.3    257.4   0.018542953   0.15712   0.06262   0.08160   0.38281
  25   38879.5    257.2   0.105975003   0.89734   0.14034   0.93377   0.07560
  26   39192.6    255.2   0.001559810   0.01310   0.00033   0.07061   0.09009
  27   39300.4    254.5   0.009814539   0.08221   0.20068  -0.07660  -0.18993
  28   39848.4    251.0   0.001066284   0.00881  -0.06257  -0.06612   0.02287
  29   39878.6    250.8   0.226352300   1.86862  -1.07126  -0.66203   0.53173

FINAL SINGLE POINT ENERGY     -5042.270347545167

DIPOLE MOMENT
-------------
                                X             Y             Z
Electronic contribution:     -5.05890      26.17953      11.71103
Nuclear contribution   :      3.87406     -28.52414     -12.22856
                        -----------------------------------------
Total Dipole Moment    :     -1.18483      -2.34461      -0.51753
                        -----------------------------------------
Magnitude (a.u.)       :      2.67747
Magnitude (Debye)      :      6.80559

Rotational constants in cm-1:     0.002112     0.000391     0.000363
Rotational constants in MHz :    63.312878    11.719446    10.891058

                             ****ORCA TERMINATED NORMALLY****
TOTAL RUN TIME: 0 days 0 hours 9 minutes 3 seconds 984 msec
