                         Program Version 4.2.0 -  RELEASE  -
|  1> # ORCA input file
|  2> # SCF done       -215.348280854535          0.000499955635
|  3> ! CAM-B3LYP def2-SVP def2/J RIJCOSX Grid4 TightSCF
|  4> %maxcore 5000
|  5> %tddft
|  6>     Mode sTDDFT
|  7>     Ethresh 5.0
|  8>     maxcore 5000
|  9> end
| 10>
| 11> %pal
| 12>   nprocs 6
| 13>   end
| 14> * xyz 0 1
| 15>    C       -3.24177         2.17792        -4.32935
| 16>    C       -2.72010         3.40087        -4.66983
| 17>    C       -1.59460         3.57785        -5.50000
| 18>    N       -0.69008         3.78768        -6.17541
| 19>    C       -3.21674         4.64219        -4.22217
| 20>    N       -3.55444         5.68675        -3.88409
| 21>    C       -2.69091         0.88165        -4.70355
| 22>    C       -3.45486        -0.13423        -4.07576
| 23>    C       -3.17671        -1.47064        -4.22927
| 24>    C       -2.08982        -1.82278        -5.03558
| 25>    C       -1.33544        -0.80193        -5.66178
| 26>    C       -1.61890         0.55047        -5.50981
| 27>    S       -0.04698        -1.46754        -6.61487
| 28>    C       -0.51659        -3.07251        -6.17312
| 29>    C       -1.58806        -3.11666        -5.35159
| 30>    C       -4.53900         0.47860        -3.28767
| 31>    O       -5.43157        -0.10574        -2.70833
| 32>    C       -4.37952         1.94269        -3.46574
| 33>    C       -5.29265         2.88174        -3.06449
| 34>    C       -6.28554         2.71602        -2.08279
| 35>    S       -7.73398         3.69359        -2.17860
| 36>    C       -8.42749         2.98832        -0.74813
| 37>    C       -7.54211         2.07151        -0.21054
| 38>    C       -6.32985         1.91679        -0.93729
| 39>    C       -5.43258         1.04986        -0.27300
| 40>    C       -5.97260         0.53158         0.86724
| 41>    C       -5.31930        -0.41256         1.77818
| 42>    O       -4.18574        -0.80544         1.66038
| 43>    O       -6.14784        -0.77980         2.76477
| 44>    C       -5.62464        -1.69743         3.71227
| 45>    S       -7.58989         1.08901         1.21432
| 46>    C       -9.70538         3.38051        -0.27819
| 47>    C      -10.54626         4.30112        -0.84346
| 48>    C      -11.74209         4.49594        -0.11890
| 49>    C      -12.82079         5.34841        -0.43684
| 50>    C      -12.87277         6.11154        -1.66617
| 51>    C      -13.36252         7.37292        -1.85365
| 52>    C      -13.31168         7.78428        -3.20268
| 53>    C      -12.80272         6.85228        -4.06020
| 54>    S      -12.35788         5.42687        -3.18617
| 55>    C      -12.60420         6.94594        -5.52807
| 56>   Cl      -13.85548         9.33702        -3.70882
| 57>    C      -13.85697         5.40240         0.48899
| 58>    C      -13.88586         4.62942         1.67791
| 59>    C      -12.83596         3.73216         1.96526
| 60>    C      -11.77792         3.71041         1.06187
| 61>    S      -10.35874         2.70757         1.19879
| 62>    C      -12.85740         2.84435         3.10890
| 63>    C      -11.80544         2.43374         3.87768
| 64>    C      -12.17982         1.49088         4.85876
| 65>    C      -13.50360         1.15965         4.85071
| 66>    S      -14.32396         2.04101         3.60793
| 67>    C      -14.23214         0.20687         5.72526
| 68>   Cl      -11.04344         0.81833         5.96196
| 69>    C      -15.03791         4.90035         2.45204
| 70>    C      -15.88769         5.80221         1.87710
| 71>    S      -15.29165         6.37739         0.33532
| 72>    C      -17.11183         6.30230         2.39799
| 73>    C      -18.00911         7.14669         1.78217
| 74>    C      -19.12957         7.45220         2.55986
| 75>    C      -20.21836         8.36878         2.12500
| 76>    C      -19.07772         6.86300         3.81751
| 77>    S      -17.64100         5.88416         3.99506
| 78>    C      -20.06443         6.94381         4.82942
| 79>    C      -19.92406         6.76983         6.17028
| 80>    C      -18.75315         6.75089         7.02178
| 81>    C      -17.60212         7.46660         6.81515
| 82>    C      -16.51691         7.48683         7.71245
| 83>    N      -15.60183         7.51504         8.40511
| 84>    C      -17.43399         8.34584         5.72585
| 85>    N      -17.30007         9.11558         4.88458
| 86>    C      -19.13432         6.09634         8.26653
| 87>    C      -20.54566         5.94389         8.28329
| 88>    C      -21.10589         6.43509         7.00977
| 89>    O      -22.26947         6.50887         6.68466
| 90>    C      -21.21224         5.40753         9.35858
| 91>    C      -20.45401         4.99413        10.45848
| 92>    C      -19.04587         5.13694        10.42339
| 93>    C      -18.36966         5.68758         9.34101
| 94>    S      -18.31806         4.55137        11.88577
| 95>    C      -19.87213         4.13567        12.52181
| 96>    C      -20.89307         4.41576        11.68312
| 97>    H       -3.77643        -2.21994        -3.73635
| 98>    H       -1.01791         1.29036        -6.01160
| 99>    H        0.04831        -3.89681        -6.56310
|100>    H       -2.02043        -4.02543        -4.97380
|101>    H       -5.29791         3.84199        -3.56607
|102>    H       -4.43457         0.81663        -0.59049
|103>    H       -6.40134        -1.83684         4.45943
|104>    H       -4.71746        -1.29535         4.16799
|105>    H       -5.38333        -2.64541         3.22687
|106>    H      -10.29182         4.82708        -1.74519
|107>    H      -13.71173         8.00988        -1.06277
|108>    H      -13.02430         7.87893        -5.89508
|109>    H      -13.08836         6.11265        -6.03551
|110>    H      -11.54279         6.91691        -5.77418
|111>    H      -10.80372         2.80915         3.78506
|112>    H      -13.54713        -0.21422         6.45678
|113>    H      -14.66213        -0.60289         5.13617
|114>    H      -15.04538         0.70936         6.24775
|115>    H      -15.23751         4.46039         3.41195
|116>    H      -17.84947         7.52504         0.78772
|117>    H      -20.14796         8.55691         1.05733
|118>    H      -20.13386         9.31908         2.65152
|119>    H      -21.19699         7.94797         2.35001
|120>    H      -21.08462         7.09322         4.48709
|121>    H      -22.28698         5.31255         9.35265
|122>    H      -17.29562         5.77581         9.35334
|123>    H      -19.92469         3.70003        13.50062
|124>    H      -21.92685         4.22613        11.90868
|125> *
|126>
|127>                          ****END OF INPUT****

CARTESIAN COORDINATES (ANGSTROEM)
---------------------------------
  C     -3.241770    2.177920   -4.329350
  C     -2.720100    3.400870   -4.669830
  C     -1.594600    3.577850   -5.500000
  N     -0.690080    3.787680   -6.175410
  C     -3.216740    4.642190   -4.222170
  N     -3.554440    5.686750   -3.884090
  C     -2.690910    0.881650   -4.703550
  C     -3.454860   -0.134230   -4.075760
  C     -3.176710   -1.470640   -4.229270
  C     -2.089820   -1.822780   -5.035580
  C     -1.335440   -0.801930   -5.661780
  C     -1.618900    0.550470   -5.509810
  S     -0.046980   -1.467540   -6.614870
  C     -0.516590   -3.072510   -6.173120
  C     -1.588060   -3.116660   -5.351590
  C     -4.539000    0.478600   -3.287670
  O     -5.431570   -0.105740   -2.708330
  C     -4.379520    1.942690   -3.465740
  C     -5.292650    2.881740   -3.064490
  C     -6.285540    2.716020   -2.082790
  S     -7.733980    3.693590   -2.178600
  C     -8.427490    2.988320   -0.748130
  C     -7.542110    2.071510   -0.210540
  C     -6.329850    1.916790   -0.937290
  C     -5.432580    1.049860   -0.273000
  C     -5.972600    0.531580    0.867240
  C     -5.319300   -0.412560    1.778180
  O     -4.185740   -0.805440    1.660380
  O     -6.147840   -0.779800    2.764770
  C     -5.624640   -1.697430    3.712270
  S     -7.589890    1.089010    1.214320
  C     -9.705380    3.380510   -0.278190
  C    -10.546260    4.301120   -0.843460
  C    -11.742090    4.495940   -0.118900
  C    -12.820790    5.348410   -0.436840
  C    -12.872770    6.111540   -1.666170
  C    -13.362520    7.372920   -1.853650
  C    -13.311680    7.784280   -3.202680
  C    -12.802720    6.852280   -4.060200
  S    -12.357880    5.426870   -3.186170
  C    -12.604200    6.945940   -5.528070
  Cl   -13.855480    9.337020   -3.708820
  C    -13.856970    5.402400    0.488990
  C    -13.885860    4.629420    1.677910
  C    -12.835960    3.732160    1.965260
  C    -11.777920    3.710410    1.061870
  S    -10.358740    2.707570    1.198790
  C    -12.857400    2.844350    3.108900
  C    -11.805440    2.433740    3.877680
  C    -12.179820    1.490880    4.858760
  C    -13.503600    1.159650    4.850710
  S    -14.323960    2.041010    3.607930
  C    -14.232140    0.206870    5.725260
  Cl   -11.043440    0.818330    5.961960
  C    -15.037910    4.900350    2.452040
  C    -15.887690    5.802210    1.877100
  S    -15.291650    6.377390    0.335320
  C    -17.111830    6.302300    2.397990
  C    -18.009110    7.146690    1.782170
  C    -19.129570    7.452200    2.559860
  C    -20.218360    8.368780    2.125000
  C    -19.077720    6.863000    3.817510
  S    -17.641000    5.884160    3.995060
  C    -20.064430    6.943810    4.829420
  C    -19.924060    6.769830    6.170280
  C    -18.753150    6.750890    7.021780
  C    -17.602120    7.466600    6.815150
  C    -16.516910    7.486830    7.712450
  N    -15.601830    7.515040    8.405110
  C    -17.433990    8.345840    5.725850
  N    -17.300070    9.115580    4.884580
  C    -19.134320    6.096340    8.266530
  C    -20.545660    5.943890    8.283290
  C    -21.105890    6.435090    7.009770
  O    -22.269470    6.508870    6.684660
  C    -21.212240    5.407530    9.358580
  C    -20.454010    4.994130   10.458480
  C    -19.045870    5.136940   10.423390
  C    -18.369660    5.687580    9.341010
  S    -18.318060    4.551370   11.885770
  C    -19.872130    4.135670   12.521810
  C    -20.893070    4.415760   11.683120
  H     -3.776430   -2.219940   -3.736350
  H     -1.017910    1.290360   -6.011600
  H      0.048310   -3.896810   -6.563100
  H     -2.020430   -4.025430   -4.973800
  H     -5.297910    3.841990   -3.566070
  H     -4.434570    0.816630   -0.590490
  H     -6.401340   -1.836840    4.459430
  H     -4.717460   -1.295350    4.167990
  H     -5.383330   -2.645410    3.226870
  H    -10.291820    4.827080   -1.745190
  H    -13.711730    8.009880   -1.062770
  H    -13.024300    7.878930   -5.895080
  H    -13.088360    6.112650   -6.035510
  H    -11.542790    6.916910   -5.774180
  H    -10.803720    2.809150    3.785060
  H    -13.547130   -0.214220    6.456780
  H    -14.662130   -0.602890    5.136170
  H    -15.045380    0.709360    6.247750
  H    -15.237510    4.460390    3.411950
  H    -17.849470    7.525040    0.787720
  H    -20.147960    8.556910    1.057330
  H    -20.133860    9.319080    2.651520
  H    -21.196990    7.947970    2.350010
  H    -21.084620    7.093220    4.487090
  H    -22.286980    5.312550    9.352650
  H    -17.295620    5.775810    9.353340
  H    -19.924690    3.700030   13.500620
  H    -21.926850    4.226130   11.908680

 Total Charge           Charge          ....    0
 Multiplicity           Mult            ....    1
 Number of Electrons    NEL             ....  644
 Basis Dimension        Dim             .... 1332

ORBITAL ENERGIES
----------------

  NO   OCC          E(Eh)            E(eV)
   0   2.0000    -101.586478     -2764.3086
   1   2.0000    -101.585675     -2764.2868
   2   2.0000     -88.979092     -2421.2442
   3   2.0000     -88.967785     -2420.9365
   4   2.0000     -88.966010     -2420.8882
   5   2.0000     -88.964918     -2420.8585
   6   2.0000     -88.964793     -2420.8551
   7   2.0000     -88.963063     -2420.8080
   8   2.0000     -88.962712     -2420.7985
   9   2.0000     -88.962600     -2420.7954
  10   2.0000     -88.961215     -2420.7577
  11   2.0000     -19.266757      -524.2751
  12   2.0000     -19.211622      -522.7748
  13   2.0000     -19.209973      -522.7299
  14   2.0000     -19.208321      -522.6850
  15   2.0000     -14.412939      -392.1960
  16   2.0000     -14.410117      -392.1192
  17   2.0000     -14.409502      -392.1025
  18   2.0000     -14.409445      -392.1009
  19   2.0000     -10.408492      -283.2295
  20   2.0000     -10.363054      -281.9930
  21   2.0000     -10.361289      -281.9450
  22   2.0000     -10.339408      -281.3496
  23   2.0000     -10.338269      -281.3186
  24   2.0000     -10.337093      -281.2866
  25   2.0000     -10.335935      -281.2551
  26   2.0000     -10.335273      -281.2371
  27   2.0000     -10.326015      -280.9851
  28   2.0000     -10.324684      -280.9489
  29   2.0000     -10.324048      -280.9316
  30   2.0000     -10.322144      -280.8798
  31   2.0000     -10.321860      -280.8721
  32   2.0000     -10.321165      -280.8532
  33   2.0000     -10.320344      -280.8308
  34   2.0000     -10.319898      -280.8187
  35   2.0000     -10.319725      -280.8140
  36   2.0000     -10.318023      -280.7677
  37   2.0000     -10.316557      -280.7278
  38   2.0000     -10.316182      -280.7176
  39   2.0000     -10.316162      -280.7170
  40   2.0000     -10.315912      -280.7102
  41   2.0000     -10.315415      -280.6967
  42   2.0000     -10.315132      -280.6890
  43   2.0000     -10.313232      -280.6373
  44   2.0000     -10.313195      -280.6363
  45   2.0000     -10.312524      -280.6181
  46   2.0000     -10.312187      -280.6089
  47   2.0000     -10.312059      -280.6054
  48   2.0000     -10.311862      -280.6000
  49   2.0000     -10.310618      -280.5662
  50   2.0000     -10.310226      -280.5555
  51   2.0000     -10.308224      -280.5010
  52   2.0000     -10.307930      -280.4930
  53   2.0000     -10.307408      -280.4788
  54   2.0000     -10.307237      -280.4742
  55   2.0000     -10.305402      -280.4243
  56   2.0000     -10.303562      -280.3742
  57   2.0000     -10.302006      -280.3318
  58   2.0000     -10.301310      -280.3129
  59   2.0000     -10.301159      -280.3088
  60   2.0000     -10.300438      -280.2892
  61   2.0000     -10.299120      -280.2533
  62   2.0000     -10.298712      -280.2422
  63   2.0000     -10.298640      -280.2403
  64   2.0000     -10.297999      -280.2228
  65   2.0000     -10.297456      -280.2080
  66   2.0000     -10.294701      -280.1331
  67   2.0000     -10.294213      -280.1198
  68   2.0000     -10.294131      -280.1175
  69   2.0000     -10.293417      -280.0981
  70   2.0000     -10.289764      -279.9987
  71   2.0000     -10.289455      -279.9903
  72   2.0000     -10.288447      -279.9629
  73   2.0000     -10.287258      -279.9305
  74   2.0000     -10.285642      -279.8865
  75   2.0000     -10.285487      -279.8823
  76   2.0000     -10.285021      -279.8696
  77   2.0000     -10.283550      -279.8296
  78   2.0000     -10.283500      -279.8283
  79   2.0000     -10.280098      -279.7357
  80   2.0000     -10.278898      -279.7030
  81   2.0000     -10.277678      -279.6698
  82   2.0000      -9.541254      -259.6307
  83   2.0000      -9.540464      -259.6092
  84   2.0000      -8.074156      -219.7090
  85   2.0000      -8.062705      -219.3974
  86   2.0000      -8.062195      -219.3835
  87   2.0000      -8.059971      -219.3230
  88   2.0000      -8.059760      -219.3172
  89   2.0000      -8.059234      -219.3029
  90   2.0000      -8.058279      -219.2769
  91   2.0000      -8.058237      -219.2758
  92   2.0000      -8.056427      -219.2265
  93   2.0000      -7.311508      -198.9562
  94   2.0000      -7.310683      -198.9338
  95   2.0000      -7.301317      -198.6789
  96   2.0000      -7.301243      -198.6769
  97   2.0000      -7.300561      -198.6584
  98   2.0000      -7.300454      -198.6555
  99   2.0000      -6.043496      -164.4519
 100   2.0000      -6.039328      -164.3385
 101   2.0000      -6.036206      -164.2535
 102   2.0000      -6.032097      -164.1417
 103   2.0000      -6.031725      -164.1316
 104   2.0000      -6.029770      -164.0784
 105   2.0000      -6.029495      -164.0709
 106   2.0000      -6.028747      -164.0506
 107   2.0000      -6.028022      -164.0308
 108   2.0000      -6.027597      -164.0192
 109   2.0000      -6.027547      -164.0179
 110   2.0000      -6.027404      -164.0140
 111   2.0000      -6.026137      -163.9795
 112   2.0000      -6.025411      -163.9598
 113   2.0000      -6.025280      -163.9562
 114   2.0000      -6.024592      -163.9375
 115   2.0000      -6.024452      -163.9337
 116   2.0000      -6.023891      -163.9184
 117   2.0000      -6.023412      -163.9054
 118   2.0000      -6.023379      -163.9045
 119   2.0000      -6.021931      -163.8651
 120   2.0000      -6.021164      -163.8442
 121   2.0000      -6.021018      -163.8402
 122   2.0000      -6.020935      -163.8380
 123   2.0000      -6.020366      -163.8225
 124   2.0000      -6.020297      -163.8206
 125   2.0000      -6.017699      -163.7499
 126   2.0000      -1.197691       -32.5908
 127   2.0000      -1.126426       -30.6516
 128   2.0000      -1.125397       -30.6236
 129   2.0000      -1.102381       -29.9973
 130   2.0000      -1.027406       -27.9571
 131   2.0000      -1.020149       -27.7597
 132   2.0000      -1.018255       -27.7081
 133   2.0000      -1.014860       -27.6158
 134   2.0000      -1.007191       -27.4070
 135   2.0000      -1.006179       -27.3795
 136   2.0000      -1.003627       -27.3101
 137   2.0000      -1.003570       -27.3085
 138   2.0000      -0.998812       -27.1791
 139   2.0000      -0.990118       -26.9425
 140   2.0000      -0.988533       -26.8994
 141   2.0000      -0.984906       -26.8007
 142   2.0000      -0.981554       -26.7094
 143   2.0000      -0.980442       -26.6792
 144   2.0000      -0.961978       -26.1767
 145   2.0000      -0.948789       -25.8179
 146   2.0000      -0.945560       -25.7300
 147   2.0000      -0.931852       -25.3570
 148   2.0000      -0.928602       -25.2685
 149   2.0000      -0.923066       -25.1179
 150   2.0000      -0.907605       -24.6972
 151   2.0000      -0.904888       -24.6233
 152   2.0000      -0.899485       -24.4762
 153   2.0000      -0.885078       -24.0842
 154   2.0000      -0.880221       -23.9520
 155   2.0000      -0.878313       -23.9001
 156   2.0000      -0.876396       -23.8479
 157   2.0000      -0.871928       -23.7264
 158   2.0000      -0.866145       -23.5690
 159   2.0000      -0.859710       -23.3939
 160   2.0000      -0.854942       -23.2641
 161   2.0000      -0.849546       -23.1173
 162   2.0000      -0.846516       -23.0349
 163   2.0000      -0.837536       -22.7905
 164   2.0000      -0.821997       -22.3677
 165   2.0000      -0.820959       -22.3394
 166   2.0000      -0.818722       -22.2786
 167   2.0000      -0.813491       -22.1362
 168   2.0000      -0.812026       -22.0964
 169   2.0000      -0.809563       -22.0293
 170   2.0000      -0.804738       -21.8980
 171   2.0000      -0.799468       -21.7546
 172   2.0000      -0.788531       -21.4570
 173   2.0000      -0.784312       -21.3422
 174   2.0000      -0.773813       -21.0565
 175   2.0000      -0.759763       -20.6742
 176   2.0000      -0.752563       -20.4783
 177   2.0000      -0.750826       -20.4310
 178   2.0000      -0.750284       -20.4163
 179   2.0000      -0.731435       -19.9033
 180   2.0000      -0.723114       -19.6769
 181   2.0000      -0.712196       -19.3798
 182   2.0000      -0.704316       -19.1654
 183   2.0000      -0.695838       -18.9347
 184   2.0000      -0.689672       -18.7669
 185   2.0000      -0.686102       -18.6698
 186   2.0000      -0.683352       -18.5950
 187   2.0000      -0.679673       -18.4949
 188   2.0000      -0.673442       -18.3253
 189   2.0000      -0.667054       -18.1515
 190   2.0000      -0.660006       -17.9597
 191   2.0000      -0.658211       -17.9108
 192   2.0000      -0.656883       -17.8747
 193   2.0000      -0.648028       -17.6337
 194   2.0000      -0.647009       -17.6060
 195   2.0000      -0.637709       -17.3529
 196   2.0000      -0.636221       -17.3125
 197   2.0000      -0.633057       -17.2264
 198   2.0000      -0.629845       -17.1390
 199   2.0000      -0.619330       -16.8528
 200   2.0000      -0.617355       -16.7991
 201   2.0000      -0.614901       -16.7323
 202   2.0000      -0.611441       -16.6382
 203   2.0000      -0.602533       -16.3958
 204   2.0000      -0.599085       -16.3019
 205   2.0000      -0.591976       -16.1085
 206   2.0000      -0.591616       -16.0987
 207   2.0000      -0.588297       -16.0084
 208   2.0000      -0.587128       -15.9766
 209   2.0000      -0.584391       -15.9021
 210   2.0000      -0.582474       -15.8499
 211   2.0000      -0.576328       -15.6827
 212   2.0000      -0.572035       -15.5659
 213   2.0000      -0.570313       -15.5190
 214   2.0000      -0.560579       -15.2541
 215   2.0000      -0.556215       -15.1354
 216   2.0000      -0.549803       -14.9609
 217   2.0000      -0.547111       -14.8876
 218   2.0000      -0.545262       -14.8373
 219   2.0000      -0.544180       -14.8079
 220   2.0000      -0.537259       -14.6196
 221   2.0000      -0.535341       -14.5674
 222   2.0000      -0.533974       -14.5302
 223   2.0000      -0.533017       -14.5041
 224   2.0000      -0.530807       -14.4440
 225   2.0000      -0.529630       -14.4120
 226   2.0000      -0.527414       -14.3517
 227   2.0000      -0.526508       -14.3270
 228   2.0000      -0.525606       -14.3025
 229   2.0000      -0.522769       -14.2253
 230   2.0000      -0.522180       -14.2092
 231   2.0000      -0.520387       -14.1605
 232   2.0000      -0.517567       -14.0837
 233   2.0000      -0.515843       -14.0368
 234   2.0000      -0.514022       -13.9873
 235   2.0000      -0.508033       -13.8243
 236   2.0000      -0.506501       -13.7826
 237   2.0000      -0.506135       -13.7726
 238   2.0000      -0.504055       -13.7160
 239   2.0000      -0.501769       -13.6538
 240   2.0000      -0.500241       -13.6122
 241   2.0000      -0.498240       -13.5578
 242   2.0000      -0.496625       -13.5139
 243   2.0000      -0.495593       -13.4858
 244   2.0000      -0.492320       -13.3967
 245   2.0000      -0.489855       -13.3296
 246   2.0000      -0.488781       -13.3004
 247   2.0000      -0.488146       -13.2831
 248   2.0000      -0.486164       -13.2292
 249   2.0000      -0.484391       -13.1810
 250   2.0000      -0.482933       -13.1413
 251   2.0000      -0.482134       -13.1195
 252   2.0000      -0.480102       -13.0642
 253   2.0000      -0.476865       -12.9761
 254   2.0000      -0.473785       -12.8923
 255   2.0000      -0.472241       -12.8503
 256   2.0000      -0.469693       -12.7810
 257   2.0000      -0.468675       -12.7533
 258   2.0000      -0.467212       -12.7135
 259   2.0000      -0.465206       -12.6589
 260   2.0000      -0.462316       -12.5803
 261   2.0000      -0.459181       -12.4949
 262   2.0000      -0.456733       -12.4283
 263   2.0000      -0.453360       -12.3366
 264   2.0000      -0.451689       -12.2911
 265   2.0000      -0.449150       -12.2220
 266   2.0000      -0.448389       -12.2013
 267   2.0000      -0.445490       -12.1224
 268   2.0000      -0.444248       -12.0886
 269   2.0000      -0.443440       -12.0666
 270   2.0000      -0.439915       -11.9707
 271   2.0000      -0.438745       -11.9388
 272   2.0000      -0.437765       -11.9122
 273   2.0000      -0.433338       -11.7917
 274   2.0000      -0.431048       -11.7294
 275   2.0000      -0.430502       -11.7146
 276   2.0000      -0.429808       -11.6957
 277   2.0000      -0.428803       -11.6683
 278   2.0000      -0.428478       -11.6595
 279   2.0000      -0.425905       -11.5895
 280   2.0000      -0.425594       -11.5810
 281   2.0000      -0.424672       -11.5559
 282   2.0000      -0.423513       -11.5244
 283   2.0000      -0.422658       -11.5011
 284   2.0000      -0.421193       -11.4613
 285   2.0000      -0.420251       -11.4356
 286   2.0000      -0.417651       -11.3649
 287   2.0000      -0.416847       -11.3430
 288   2.0000      -0.415506       -11.3065
 289   2.0000      -0.413357       -11.2480
 290   2.0000      -0.409236       -11.1359
 291   2.0000      -0.404417       -11.0047
 292   2.0000      -0.403121       -10.9695
 293   2.0000      -0.399653       -10.8751
 294   2.0000      -0.390374       -10.6226
 295   2.0000      -0.385771       -10.4974
 296   2.0000      -0.383772       -10.4430
 297   2.0000      -0.381759       -10.3882
 298   2.0000      -0.380259       -10.3474
 299   2.0000      -0.378327       -10.2948
 300   2.0000      -0.373406       -10.1609
 301   2.0000      -0.366334        -9.9684
 302   2.0000      -0.360806        -9.8180
 303   2.0000      -0.355282        -9.6677
 304   2.0000      -0.341751        -9.2995
 305   2.0000      -0.337291        -9.1782
 306   2.0000      -0.332791        -9.0557
 307   2.0000      -0.326898        -8.8954
 308   2.0000      -0.323881        -8.8133
 309   2.0000      -0.321713        -8.7543
 310   2.0000      -0.319503        -8.6941
 311   2.0000      -0.318558        -8.6684
 312   2.0000      -0.315328        -8.5805
 313   2.0000      -0.311153        -8.4669
 314   2.0000      -0.308300        -8.3893
 315   2.0000      -0.306658        -8.3446
 316   2.0000      -0.299072        -8.1382
 317   2.0000      -0.293360        -7.9827
 318   2.0000      -0.290812        -7.9134
 319   2.0000      -0.272502        -7.4152
 320   2.0000      -0.266319        -7.2469
 321   2.0000      -0.242297        -6.5932
 322   0.0000      -0.103518        -2.8169
 323   0.0000      -0.089948        -2.4476
 324   0.0000      -0.063227        -1.7205
 325   0.0000      -0.057041        -1.5522
 326   0.0000      -0.043659        -1.1880

MULLIKEN ATOMIC CHARGES
-----------------------
   0 C :    0.302621
   1 C :   -0.345708
   2 C :   -0.186194
   3 N :    0.146508
   4 C :   -0.204807
   5 N :    0.158138
   6 C :    0.021859
   7 C :   -0.021293
   8 C :   -0.063310
   9 C :    0.112725
  10 C :   -0.094626
  11 C :   -0.025440
  12 S :    0.138637
  13 C :   -0.050305
  14 C :    0.026660
  15 C :    0.123676
  16 O :   -0.148708
  17 C :   -0.104070
  18 C :    0.017240
  19 C :   -0.133117
  20 S :    0.175452
  21 C :   -0.094574
  22 C :   -0.076756
  23 C :    0.178497
  24 C :    0.028324
  25 C :   -0.127616
  26 C :    0.205552
  27 O :   -0.192008
  28 O :   -0.308530
  29 C :    0.188479
  30 S :    0.172306
  31 C :   -0.023448
  32 C :   -0.091512
  33 C :    0.091780
  34 C :    0.146047
  35 C :   -0.216386
  36 C :    0.035387
  37 C :    0.084186
  38 C :   -0.264265
  39 S :    0.136089
  40 C :    0.124259
  41 Cl:   -0.084919
  42 C :   -0.134775
  43 C :    0.080948
  44 C :    0.148985
  45 C :   -0.133545
  46 S :    0.115285
  47 C :   -0.208674
  48 C :    0.031581
  49 C :    0.086076
  50 C :   -0.265387
  51 S :    0.135356
  52 C :    0.125934
  53 Cl:   -0.087055
  54 C :   -0.088613
  55 C :    0.006718
  56 S :    0.119741
  57 C :   -0.022155
  58 C :   -0.046248
  59 C :   -0.002586
  60 C :    0.117755
  61 C :   -0.146453
  62 S :    0.149095
  63 C :    0.030587
  64 C :   -0.131283
  65 C :    0.241982
  66 C :   -0.323165
  67 C :   -0.175292
  68 N :    0.152305
  69 C :   -0.195176
  70 N :    0.163666
  71 C :    0.007135
  72 C :    0.000569
  73 C :    0.137831
  74 O :   -0.148756
  75 C :   -0.071504
  76 C :    0.109699
  77 C :   -0.090511
  78 C :   -0.028486
  79 S :    0.137338
  80 C :   -0.048429
  81 C :    0.024494
  82 H :   -0.013047
  83 H :   -0.007543
  84 H :    0.037343
  85 H :   -0.008028
  86 H :    0.025646
  87 H :    0.007415
  88 H :    0.039760
  89 H :    0.036944
  90 H :    0.035449
  91 H :   -0.002444
  92 H :   -0.003036
  93 H :    0.025754
  94 H :    0.033713
  95 H :    0.039094
  96 H :   -0.002182
  97 H :    0.024716
  98 H :    0.037172
  99 H :    0.033734
 100 H :   -0.002354
 101 H :   -0.010162
 102 H :    0.016802
 103 H :    0.053786
 104 H :    0.033095
 105 H :    0.019812
 106 H :   -0.010577
 107 H :   -0.003239
 108 H :    0.037326
 109 H :   -0.006763
Sum of atomic charges:   -0.0000000

LOEWDIN ATOMIC CHARGES
----------------------
   0 C :    0.074894
   1 C :   -0.144403
   2 C :   -0.018528
   3 N :   -0.056472
   4 C :   -0.024499
   5 N :   -0.054895
   6 C :   -0.022809
   7 C :   -0.052165
   8 C :    0.022571
   9 C :   -0.035408
  10 C :   -0.146368
  11 C :   -0.009199
  12 S :    0.428302
  13 C :   -0.150527
  14 C :   -0.057751
  15 C :    0.075778
  16 O :   -0.140443
  17 C :   -0.101778
  18 C :    0.041917
  19 C :   -0.176315
  20 S :    0.479488
  21 C :   -0.177641
  22 C :   -0.191673
  23 C :   -0.037047
  24 C :    0.006710
  25 C :   -0.188340
  26 C :    0.069070
  27 O :   -0.168387
  28 O :   -0.097656
  29 C :    0.084067
  30 S :    0.429081
  31 C :   -0.174642
  32 C :   -0.055555
  33 C :   -0.040076
  34 C :   -0.051296
  35 C :   -0.174399
  36 C :   -0.073668
  37 C :   -0.177135
  38 C :   -0.196075
  39 S :    0.447918
  40 C :   -0.060556
  41 Cl:    0.131398
  42 C :   -0.139195
  43 C :   -0.038759
  44 C :   -0.051339
  45 C :   -0.139267
  46 S :    0.427171
  47 C :   -0.172939
  48 C :   -0.074902
  49 C :   -0.176603
  50 C :   -0.196504
  51 S :    0.447854
  52 C :   -0.060734
  53 Cl:    0.130627
  54 C :   -0.058378
  55 C :   -0.165637
  56 S :    0.428005
  57 C :   -0.153381
  58 C :   -0.058485
  59 C :   -0.007587
  60 C :   -0.041160
  61 C :   -0.191180
  62 S :    0.464381
  63 C :    0.050939
  64 C :   -0.099536
  65 C :    0.061241
  66 C :   -0.143099
  67 C :   -0.019876
  68 N :   -0.053217
  69 C :   -0.030181
  70 N :   -0.052594
  71 C :   -0.018716
  72 C :   -0.055376
  73 C :    0.083001
  74 O :   -0.147702
  75 C :    0.023045
  76 C :   -0.036853
  77 C :   -0.145012
  78 C :   -0.013058
  79 S :    0.427299
  80 C :   -0.150853
  81 C :   -0.057660
  82 H :    0.040024
  83 H :    0.040407
  84 H :    0.028877
  85 H :    0.034840
  86 H :    0.044649
  87 H :    0.041196
  88 H :    0.028470
  89 H :    0.025341
  90 H :    0.025181
  91 H :    0.015948
  92 H :    0.027496
  93 H :    0.034799
  94 H :    0.039028
  95 H :    0.040941
  96 H :    0.026720
  97 H :    0.034327
  98 H :    0.040095
  99 H :    0.039022
 100 H :    0.016484
 101 H :    0.028709
 102 H :    0.036070
 103 H :    0.050006
 104 H :    0.039021
 105 H :    0.047849
 106 H :    0.040641
 107 H :    0.040437
 108 H :    0.028997
 109 H :    0.035159

  Mayer bond orders larger than 0.100000
B(  0-C ,  1-C ) :   1.6275 B(  0-C ,  6-C ) :   1.0054 B(  0-C , 17-C ) :   1.0819
B(  1-C ,  2-C ) :   1.1438 B(  1-C ,  4-C ) :   1.1426 B(  2-C ,  3-N ) :   2.9692
B(  4-C ,  5-N ) :   2.9901 B(  6-C ,  7-C ) :   1.2670 B(  6-C , 11-C ) :   1.4120
B(  7-C ,  8-C ) :   1.4322 B(  7-C , 15-C ) :   0.9392 B(  8-C ,  9-C ) :   1.2430
B(  8-C , 82-H ) :   1.0162 B(  9-C , 10-C ) :   1.3038 B(  9-C , 14-C ) :   1.1724
B( 10-C , 11-C ) :   1.3220 B( 10-C , 12-S ) :   1.0973 B( 11-C , 83-H ) :   0.9827
B( 12-S , 13-C ) :   1.1270 B( 13-C , 14-C ) :   1.6262 B( 13-C , 84-H ) :   0.9691
B( 14-C , 85-H ) :   0.9997 B( 15-C , 16-O ) :   2.2087 B( 15-C , 17-C ) :   0.9520
B( 17-C , 18-C ) :   1.5589 B( 18-C , 19-C ) :   1.2174 B( 18-C , 86-H ) :   0.9320
B( 19-C , 20-S ) :   1.0925 B( 19-C , 23-C ) :   1.3459 B( 20-S , 21-C ) :   1.1713
B( 21-C , 22-C ) :   1.4632 B( 21-C , 31-C ) :   1.1703 B( 22-C , 23-C ) :   1.2664
B( 22-C , 30-S ) :   1.0458 B( 23-C , 24-C ) :   1.1479 B( 24-C , 25-C ) :   1.6287
B( 24-C , 87-H ) :   0.9963 B( 25-C , 26-C ) :   0.9510 B( 25-C , 30-S ) :   1.0648
B( 26-C , 27-O ) :   2.1460 B( 26-C , 28-O ) :   1.2350 B( 28-O , 29-C ) :   0.9173
B( 29-C , 88-H ) :   0.9813 B( 29-C , 89-H ) :   0.9759 B( 29-C , 90-H ) :   0.9778
B( 31-C , 32-C ) :   1.5433 B( 31-C , 46-S ) :   1.0627 B( 32-C , 33-C ) :   1.1953
B( 32-C , 91-H ) :   0.9727 B( 33-C , 34-C ) :   1.2863 B( 33-C , 45-C ) :   1.2610
B( 34-C , 35-C ) :   0.9929 B( 34-C , 42-C ) :   1.4252 B( 35-C , 36-C ) :   1.5470
B( 35-C , 39-S ) :   1.1280 B( 36-C , 37-C ) :   1.2238 B( 36-C , 92-H ) :   0.9935
B( 37-C , 38-C ) :   1.6034 B( 37-C , 41-Cl) :   1.0096 B( 38-C , 39-S ) :   1.1298
B( 38-C , 40-C ) :   1.0815 B( 40-C , 93-H ) :   0.9442 B( 40-C , 94-H ) :   0.9484
B( 40-C , 95-H ) :   0.9482 B( 42-C , 43-C ) :   1.2666 B( 42-C , 56-S ) :   1.0610
B( 43-C , 44-C ) :   1.2882 B( 43-C , 54-C ) :   1.1878 B( 44-C , 45-C ) :   1.4204
B( 44-C , 47-C ) :   0.9968 B( 45-C , 46-S ) :   1.0642 B( 47-C , 48-C ) :   1.5459
B( 47-C , 51-S ) :   1.1275 B( 48-C , 49-C ) :   1.2233 B( 48-C , 96-H ) :   0.9921
B( 49-C , 50-C ) :   1.6058 B( 49-C , 53-Cl) :   1.0071 B( 50-C , 51-S ) :   1.1293
B( 50-C , 52-C ) :   1.0816 B( 52-C , 97-H ) :   0.9438 B( 52-C , 98-H ) :   0.9485
B( 52-C , 99-H ) :   0.9478 B( 54-C , 55-C ) :   1.5657 B( 54-C ,100-H ) :   0.9715
B( 55-C , 56-S ) :   1.0666 B( 55-C , 57-C ) :   1.1496 B( 57-C , 58-C ) :   1.4695
B( 57-C , 62-S ) :   1.1489 B( 58-C , 59-C ) :   1.2919 B( 58-C ,101-H ) :   0.9915
B( 59-C , 60-C ) :   1.1144 B( 59-C , 61-C ) :   1.4452 B( 60-C ,102-H ) :   0.9471
B( 60-C ,103-H ) :   0.9400 B( 60-C ,104-H ) :   0.9357 B( 61-C , 62-S ) :   1.0955
B( 61-C , 63-C ) :   1.1325 B( 63-C , 64-C ) :   1.6630 B( 63-C ,105-H ) :   0.9380
B( 64-C , 65-C ) :   1.0349 B( 64-C , 73-C ) :   0.9406 B( 65-C , 66-C ) :   1.6568
B( 65-C , 71-C ) :   1.0178 B( 66-C , 67-C ) :   1.1315 B( 66-C , 69-C ) :   1.1573
B( 67-C , 68-N ) :   2.9911 B( 69-C , 70-N ) :   3.0132 B( 71-C , 72-C ) :   1.2676
B( 71-C , 78-C ) :   1.4165 B( 72-C , 73-C ) :   0.9245 B( 72-C , 75-C ) :   1.4262
B( 73-C , 74-O ) :   2.2615 B( 75-C , 76-C ) :   1.2503 B( 75-C ,106-H ) :   1.0169
B( 76-C , 77-C ) :   1.3044 B( 76-C , 81-C ) :   1.1721 B( 77-C , 78-C ) :   1.3163
B( 77-C , 79-S ) :   1.0966 B( 78-C ,107-H ) :   0.9878 B( 79-S , 80-C ) :   1.1254
B( 80-C , 81-C ) :   1.6310 B( 80-C ,108-H ) :   0.9680 B( 81-C ,109-H ) :   0.9996

-----------------------------------------------------------------------------
         ABSORPTION SPECTRUM VIA TRANSITION ELECTRIC DIPOLE MOMENTS
-----------------------------------------------------------------------------
State   Energy  Wavelength   fosc         T2         TX        TY        TZ
        (cm-1)    (nm)                  (au**2)     (au)      (au)      (au)
-----------------------------------------------------------------------------
   0   15841.4    631.3   1.605629118  33.36783  -4.72672   1.60074   2.90922
   1   19159.5    521.9   0.069002449   1.18565  -0.05460  -0.60340  -0.90475
   2   20970.7    476.9   0.473554653   7.43416   1.29309   0.37350  -2.37120
   3   23336.0    428.5   0.095377433   1.34553  -0.02435   0.07775   1.15711
   4   24485.9    408.4   0.009574373   0.12873  -0.09033   0.31117  -0.15408
   5   25569.7    391.1   0.205604113   2.64717   1.29103  -0.99016   0.00391
   6   25888.9    386.3   0.247340340   3.14526   1.34952  -1.11061   0.30101
   7   26287.0    380.4   0.048752693   0.61057  -0.12875  -0.49700  -0.58905
   8   26701.9    374.5   0.046822466   0.57728   0.15958   0.60160  -0.43577
   9   27068.4    369.4   0.076124779   0.92585   0.92615   0.18464   0.18441
  10   28016.2    356.9   0.057322451   0.67358   0.17460  -0.10897  -0.79450
  11   28469.6    351.3   0.021048710   0.24340  -0.29297  -0.31622   0.23995
  12   28814.5    347.0   0.394206480   4.50390  -0.48897  -0.85269   1.88089
  13   29034.5    344.4   0.127379158   1.44431  -0.06831   0.79190  -0.90141
  14   29277.5    341.6   0.081353486   0.91478   0.88633  -0.01832  -0.35899
  15   30517.2    327.7   0.053780976   0.58018  -0.28343  -0.31886   0.63101
  16   30685.4    325.9   0.086284508   0.92571  -0.48915   0.57172  -0.59965
  17   30907.4    323.5   0.041845435   0.44572  -0.02327   0.34870  -0.56885
  18   31043.2    322.1   0.110979920   1.17694  -0.29790   0.51404  -0.90772
  19   31453.4    317.9   0.093632302   0.98002  -0.31210  -0.34067   0.87553
  20   31863.0    313.8   0.063358657   0.65463   0.04521   0.79872  -0.12093
  21   32358.4    309.0   0.536731810   5.46068  -1.45358   1.52302   1.01400
  22   32601.3    306.7   0.091226260   0.92121   0.04820  -0.92840   0.23869
  23   32733.5    305.5   0.259929873   2.61420  -0.76175  -1.27579   0.63742
  24   32765.3    305.2   0.030046099   0.30189   0.47390  -0.07812  -0.26684
  25   33029.0    302.8   0.003804758   0.03792  -0.11120  -0.15957  -0.00982
  26   33174.8    301.4   0.231666680   2.29896  -1.29516  -0.56868   0.54602
  27   33493.8    298.6   0.059126115   0.58115  -0.23750   0.49724  -0.52678
  28   33595.9    297.7   0.110266779   1.08052  -0.69881   0.16694   0.75121
  29   33923.3    294.8   0.190682826   1.85050  -0.22566  -0.41253   1.27648
  30   34016.8    294.0   0.004901381   0.04744   0.15328  -0.15293   0.02348
  31   34292.6    291.6   0.334060301   3.20701   1.39953  -0.18159  -1.10243
  32   34438.4    290.4   0.199107424   1.90335   0.54353  -1.26655   0.06151
  33   34602.0    289.0   0.069662412   0.66279   0.21823  -0.78430  -0.00621
  34   34988.9    285.8   0.023596330   0.22202  -0.21697  -0.25230  -0.33360
  35   35468.6    281.9   0.037031701   0.34372  -0.17201   0.28696  -0.48144
  36   35924.6    278.4   0.088561667   0.81158  -0.57143   0.54953  -0.42787
  37   36482.6    274.1   0.074201657   0.66958  -0.24993  -0.67311   0.39249
  38   36824.8    271.6   0.249679424   2.23212   0.81922   1.06425  -0.65449
  39   37121.5    269.4   0.013118127   0.11634   0.33272  -0.02162  -0.07187
  40   37348.1    267.8   0.006452480   0.05688  -0.10709   0.10273   0.18670
  41   37511.9    266.6   0.043610498   0.38273   0.15415   0.39894  -0.44701
  42   37732.8    265.0   0.016419470   0.14326  -0.06732   0.33499  -0.16281
  43   37902.5    263.8   0.040212763   0.34928   0.55074   0.05851   0.20625
  44   38286.1    261.2   0.095575577   0.82183  -0.86064  -0.24280  -0.14894
  45   38554.8    259.4   0.006054195   0.05170   0.18706   0.04813  -0.11995
  46   39148.5    255.4   0.004866104   0.04092   0.13556   0.10518  -0.10715
  47   39319.3    254.3   0.019733467   0.16522   0.25206  -0.28660  -0.13980
  48   39362.5    254.0   0.019816782   0.16574  -0.21775  -0.24711   0.23930
  49   39774.6    251.4   0.156298694   1.29368   0.16442  -0.58321   0.96255
  50   39866.2    250.8   0.025220045   0.20827  -0.20221  -0.18876   0.36297
  51   39949.8    250.3   0.005915173   0.04874   0.07800   0.09592   0.18292
  52   39979.9    250.1   0.008754727   0.07209   0.26404   0.02464  -0.04205
  53   40111.6    249.3   0.031831727   0.26126  -0.47728   0.07167   0.16830

FINAL SINGLE POINT ENERGY     -7436.491680230056

DIPOLE MOMENT
-------------
                                X             Y             Z
Electronic contribution:     17.64510      12.86025      -8.79622
Nuclear contribution   :    -20.25763     -16.56474       9.66478
                        -----------------------------------------
Total Dipole Moment    :     -2.61253      -3.70449       0.86857
                        -----------------------------------------
Magnitude (a.u.)       :      4.61552
Magnitude (Debye)      :     11.73171

Rotational constants in cm-1:     0.001079     0.000213     0.000185
Rotational constants in MHz :    32.353246     6.384203     5.544491

                             ****ORCA TERMINATED NORMALLY****
TOTAL RUN TIME: 0 days 0 hours 11 minutes 34 seconds 402 msec
