                         Program Version 4.2.0 -  RELEASE  -
|  1> # ORCA input file
|  2> # SCF done       -198.602368720489          0.000446508808
|  3> ! CAM-B3LYP def2-SVP def2/J RIJCOSX Grid4 TightSCF
|  4> %maxcore 5000
|  5> %tddft
|  6>     Mode sTDDFT
|  7>     Ethresh 5.0
|  8>     maxcore 5000
|  9> end
| 10>
| 11> %pal
| 12>   nprocs 6
| 13>   end
| 14> * xyz 0 1
| 15>    C        7.45911        10.09657         4.48594
| 16>    C        6.43961        10.88689         4.93884
| 17>    F        6.67934        11.78239         5.91470
| 18>    C        5.13890        10.80328         4.42463
| 19>    C        4.87650         9.89847         3.43355
| 20>    C        5.89012         9.05858         2.92913
| 21>    C        7.20707         9.16134         3.46378
| 22>    C        8.24430         8.33823         2.96530
| 23>    C        7.96939         7.44239         1.96876
| 24>    C        6.64689         7.33076         1.45098
| 25>    C        5.62936         8.11685         1.90768
| 26>    C        6.61825         6.27174         0.42301
| 27>    O        5.68211         5.92569        -0.26375
| 28>    C        7.97707         5.67081         0.43833
| 29>    C        8.82995         6.51140         1.24077
| 30>    C       10.19679         6.61666         1.15208
| 31>    C       10.97768         5.90414         0.22262
| 32>    N       11.65419         5.37937        -0.54275
| 33>    C       10.96861         7.51069         1.91881
| 34>    N       11.65041         8.19623         2.53892
| 35>    C        8.18124         4.47831        -0.20109
| 36>    C        9.19934         3.52526        -0.01863
| 37>    N        9.38347         2.50352        -0.93341
| 38>    C       10.40311         1.72059        -0.50894
| 39>    C       11.19321         0.62577        -0.83691
| 40>    C       12.09953         0.47117         0.22285
| 41>    N       11.85072         1.43094         1.18369
| 42>    C       10.83704         2.22223         0.75186
| 43>    C       10.09087         3.34665         1.05628
| 44>    C       13.17124        -0.43675         0.39084
| 45>    C       13.58602        -1.35531        -0.51963
| 46>    C       14.72464        -2.19176        -0.36185
| 47>    C       15.16657        -3.01105        -1.38329
| 48>    C       16.31937        -3.78781        -1.34778
| 49>    C       17.22306        -3.73457        -0.19302
| 50>    C       16.96575        -3.04888         0.94237
| 51>    S       15.56144        -2.10007         1.18082
| 52>    C       18.35848        -4.51386        -0.55048
| 53>    C       18.19032        -5.01863        -1.83785
| 54>    C       19.29115        -5.80066        -2.25088
| 55>    C       20.24674        -5.86250        -1.28668
| 56>    S       19.85225        -4.98610         0.15339
| 57>    C       16.90475        -4.60846        -2.34564
| 58>    C       16.42401        -5.02947        -3.59843
| 59>    C       15.12933        -5.02972        -4.03787
| 60>    C       14.73332        -5.51612        -5.29702
| 61>    C       15.59035        -5.90824        -6.42594
| 62>    N       14.94878        -6.37447        -7.45411
| 63>    C       13.62497        -6.34270        -7.10619
| 64>    C       13.45539        -5.77562        -5.77004
| 65>    C       12.07218        -5.78771        -5.40018
| 66>    S       11.38103        -5.23904        -4.01011
| 67>    C       11.41128        -6.41789        -6.52390
| 68>    C       12.38813        -6.73011        -7.56773
| 69>    N       11.79002        -7.37169        -8.61132
| 70>    C       10.53160        -7.45539        -8.29842
| 71>    C       10.19854        -6.88521        -6.98492
| 72>    C        8.94609        -6.95441        -6.32488
| 73>    C        7.72335        -7.10316        -6.90032
| 74>    C        6.57830        -7.65435        -6.12266
| 75>    O        6.49901        -7.76318        -4.92171
| 76>    C        5.60761        -8.10045        -7.14318
| 77>    C        4.45487        -8.81275        -6.97774
| 78>    C        3.69680        -9.17177        -8.11478
| 79>    C        4.15039        -8.78312        -9.40937
| 80>    C        3.39544        -9.15549       -10.53861
| 81>    C        2.24735        -9.87817       -10.36978
| 82>    C        1.78394       -10.26869        -9.10589
| 83>    C        2.50413        -9.91513        -7.99903
| 84>    F        1.52564       -10.23627       -11.44704
| 85>    C        5.34312        -8.03635        -9.55114
| 86>    C        6.05835        -7.69865        -8.43438
| 87>    C        7.29778        -6.94515        -8.27553
| 88>    C        7.83124        -6.06872        -9.18264
| 89>    C        8.88746        -5.18471        -8.87278
| 90>    N        9.69650        -4.40414        -8.64285
| 91>    C        7.32246        -5.88798       -10.48462
| 92>    N        6.94253        -5.72304       -11.55496
| 93>    H        8.44992        10.19120         4.90219
| 94>    H        4.37484        11.45320         4.82070
| 95>    H        3.88198         9.81574         3.02164
| 96>    H        9.23037         8.43359         3.39173
| 97>    H        4.63614         8.02383         1.49467
| 98>    H        7.39090         4.20268        -0.89411
| 99>    H        8.90837         2.44579        -1.81830
|100>    H       11.14194         0.01303        -1.71320
|101>    H       12.39791         1.55813         2.01773
|102>    H       10.13404         3.94931         1.94108
|103>    H       13.71890        -0.34333         1.32113
|104>    H       13.05491        -1.45395        -1.45500
|105>    H       14.58055        -2.99417        -2.29059
|106>    H       17.63838        -3.04943         1.78538
|107>    H       19.38050        -6.29142        -3.20292
|108>    H       21.18484        -6.38079        -1.32467
|109>    H       17.17494        -5.46587        -4.24493
|110>    H       14.32785        -4.72477        -3.38072
|111>    H       16.66219        -5.81746        -6.45983
|112>    H        9.84280        -7.96674        -8.94800
|113>    H        8.97308        -6.98335        -5.23958
|114>    H        4.12680        -9.10402        -5.99114
|115>    H        3.72082        -8.86991       -11.52674
|116>    H        0.87148       -10.83914        -9.03461
|117>    H        2.16752       -10.20488        -7.01499
|118>    H        5.67043        -7.76193       -10.54175
|119> *
|120>
|121>                          ****END OF INPUT****

CARTESIAN COORDINATES (ANGSTROEM)
---------------------------------
  C      7.459110   10.096570    4.485940
  C      6.439610   10.886890    4.938840
  F      6.679340   11.782390    5.914700
  C      5.138900   10.803280    4.424630
  C      4.876500    9.898470    3.433550
  C      5.890120    9.058580    2.929130
  C      7.207070    9.161340    3.463780
  C      8.244300    8.338230    2.965300
  C      7.969390    7.442390    1.968760
  C      6.646890    7.330760    1.450980
  C      5.629360    8.116850    1.907680
  C      6.618250    6.271740    0.423010
  O      5.682110    5.925690   -0.263750
  C      7.977070    5.670810    0.438330
  C      8.829950    6.511400    1.240770
  C     10.196790    6.616660    1.152080
  C     10.977680    5.904140    0.222620
  N     11.654190    5.379370   -0.542750
  C     10.968610    7.510690    1.918810
  N     11.650410    8.196230    2.538920
  C      8.181240    4.478310   -0.201090
  C      9.199340    3.525260   -0.018630
  N      9.383470    2.503520   -0.933410
  C     10.403110    1.720590   -0.508940
  C     11.193210    0.625770   -0.836910
  C     12.099530    0.471170    0.222850
  N     11.850720    1.430940    1.183690
  C     10.837040    2.222230    0.751860
  C     10.090870    3.346650    1.056280
  C     13.171240   -0.436750    0.390840
  C     13.586020   -1.355310   -0.519630
  C     14.724640   -2.191760   -0.361850
  C     15.166570   -3.011050   -1.383290
  C     16.319370   -3.787810   -1.347780
  C     17.223060   -3.734570   -0.193020
  C     16.965750   -3.048880    0.942370
  S     15.561440   -2.100070    1.180820
  C     18.358480   -4.513860   -0.550480
  C     18.190320   -5.018630   -1.837850
  C     19.291150   -5.800660   -2.250880
  C     20.246740   -5.862500   -1.286680
  S     19.852250   -4.986100    0.153390
  C     16.904750   -4.608460   -2.345640
  C     16.424010   -5.029470   -3.598430
  C     15.129330   -5.029720   -4.037870
  C     14.733320   -5.516120   -5.297020
  C     15.590350   -5.908240   -6.425940
  N     14.948780   -6.374470   -7.454110
  C     13.624970   -6.342700   -7.106190
  C     13.455390   -5.775620   -5.770040
  C     12.072180   -5.787710   -5.400180
  S     11.381030   -5.239040   -4.010110
  C     11.411280   -6.417890   -6.523900
  C     12.388130   -6.730110   -7.567730
  N     11.790020   -7.371690   -8.611320
  C     10.531600   -7.455390   -8.298420
  C     10.198540   -6.885210   -6.984920
  C      8.946090   -6.954410   -6.324880
  C      7.723350   -7.103160   -6.900320
  C      6.578300   -7.654350   -6.122660
  O      6.499010   -7.763180   -4.921710
  C      5.607610   -8.100450   -7.143180
  C      4.454870   -8.812750   -6.977740
  C      3.696800   -9.171770   -8.114780
  C      4.150390   -8.783120   -9.409370
  C      3.395440   -9.155490  -10.538610
  C      2.247350   -9.878170  -10.369780
  C      1.783940  -10.268690   -9.105890
  C      2.504130   -9.915130   -7.999030
  F      1.525640  -10.236270  -11.447040
  C      5.343120   -8.036350   -9.551140
  C      6.058350   -7.698650   -8.434380
  C      7.297780   -6.945150   -8.275530
  C      7.831240   -6.068720   -9.182640
  C      8.887460   -5.184710   -8.872780
  N      9.696500   -4.404140   -8.642850
  C      7.322460   -5.887980  -10.484620
  N      6.942530   -5.723040  -11.554960
  H      8.449920   10.191200    4.902190
  H      4.374840   11.453200    4.820700
  H      3.881980    9.815740    3.021640
  H      9.230370    8.433590    3.391730
  H      4.636140    8.023830    1.494670
  H      7.390900    4.202680   -0.894110
  H      8.908370    2.445790   -1.818300
  H     11.141940    0.013030   -1.713200
  H     12.397910    1.558130    2.017730
  H     10.134040    3.949310    1.941080
  H     13.718900   -0.343330    1.321130
  H     13.054910   -1.453950   -1.455000
  H     14.580550   -2.994170   -2.290590
  H     17.638380   -3.049430    1.785380
  H     19.380500   -6.291420   -3.202920
  H     21.184840   -6.380790   -1.324670
  H     17.174940   -5.465870   -4.244930
  H     14.327850   -4.724770   -3.380720
  H     16.662190   -5.817460   -6.459830
  H      9.842800   -7.966740   -8.948000
  H      8.973080   -6.983350   -5.239580
  H      4.126800   -9.104020   -5.991140
  H      3.720820   -8.869910  -11.526740
  H      0.871480  -10.839140   -9.034610
  H      2.167520  -10.204880   -7.014990
  H      5.670430   -7.761930  -10.541750

 Total Charge           Charge          ....    0
 Multiplicity           Mult            ....    1
 Number of Electrons    NEL             ....  542
 Basis Dimension        Dim             .... 1234

ORBITAL ENERGIES
----------------

  NO   OCC          E(Eh)            E(eV)
   0   2.0000     -88.985605     -2421.4214
   1   2.0000     -88.963624     -2420.8233
   2   2.0000     -88.899264     -2419.0719
   3   2.0000     -24.787142      -674.4924
   4   2.0000     -24.780948      -674.3239
   5   2.0000     -19.216069      -522.8958
   6   2.0000     -19.203391      -522.5508
   7   2.0000     -14.472832      -393.8258
   8   2.0000     -14.470927      -393.7740
   9   2.0000     -14.418836      -392.3565
  10   2.0000     -14.417790      -392.3280
  11   2.0000     -14.416258      -392.2863
  12   2.0000     -14.410621      -392.1329
  13   2.0000     -14.407259      -392.0414
  14   2.0000     -14.406377      -392.0174
  15   2.0000     -10.371194      -282.2145
  16   2.0000     -10.367931      -282.1257
  17   2.0000     -10.363947      -282.0173
  18   2.0000     -10.355280      -281.7815
  19   2.0000     -10.348424      -281.5949
  20   2.0000     -10.344018      -281.4750
  21   2.0000     -10.338622      -281.3282
  22   2.0000     -10.337554      -281.2991
  23   2.0000     -10.337516      -281.2981
  24   2.0000     -10.333753      -281.1957
  25   2.0000     -10.332374      -281.1582
  26   2.0000     -10.331357      -281.1305
  27   2.0000     -10.331020      -281.1213
  28   2.0000     -10.328272      -281.0466
  29   2.0000     -10.328049      -281.0405
  30   2.0000     -10.321981      -280.8754
  31   2.0000     -10.320720      -280.8411
  32   2.0000     -10.319937      -280.8198
  33   2.0000     -10.318649      -280.7847
  34   2.0000     -10.317385      -280.7503
  35   2.0000     -10.314318      -280.6668
  36   2.0000     -10.311934      -280.6020
  37   2.0000     -10.310966      -280.5757
  38   2.0000     -10.308955      -280.5209
  39   2.0000     -10.308578      -280.5107
  40   2.0000     -10.308486      -280.5082
  41   2.0000     -10.308217      -280.5009
  42   2.0000     -10.308125      -280.4983
  43   2.0000     -10.304325      -280.3949
  44   2.0000     -10.304070      -280.3880
  45   2.0000     -10.304050      -280.3875
  46   2.0000     -10.303500      -280.3725
  47   2.0000     -10.303264      -280.3661
  48   2.0000     -10.302409      -280.3428
  49   2.0000     -10.302130      -280.3352
  50   2.0000     -10.301946      -280.3302
  51   2.0000     -10.300946      -280.3030
  52   2.0000     -10.300926      -280.3025
  53   2.0000     -10.300281      -280.2849
  54   2.0000     -10.299846      -280.2730
  55   2.0000     -10.299619      -280.2669
  56   2.0000     -10.299466      -280.2627
  57   2.0000     -10.298311      -280.2313
  58   2.0000     -10.297407      -280.2067
  59   2.0000     -10.296127      -280.1719
  60   2.0000     -10.294591      -280.1301
  61   2.0000     -10.293802      -280.1086
  62   2.0000     -10.292591      -280.0756
  63   2.0000     -10.292241      -280.0661
  64   2.0000     -10.292114      -280.0627
  65   2.0000     -10.290751      -280.0256
  66   2.0000     -10.290745      -280.0254
  67   2.0000     -10.288926      -279.9759
  68   2.0000     -10.286301      -279.9045
  69   2.0000     -10.285249      -279.8759
  70   2.0000     -10.284868      -279.8655
  71   2.0000     -10.283505      -279.8284
  72   2.0000     -10.283423      -279.8262
  73   2.0000     -10.282468      -279.8002
  74   2.0000     -10.282232      -279.7938
  75   2.0000     -10.282091      -279.7899
  76   2.0000     -10.280776      -279.7541
  77   2.0000     -10.278401      -279.6895
  78   2.0000      -8.081049      -219.8965
  79   2.0000      -8.059028      -219.2973
  80   2.0000      -7.994611      -217.5444
  81   2.0000      -6.050459      -164.6414
  82   2.0000      -6.046013      -164.5204
  83   2.0000      -6.043142      -164.4423
  84   2.0000      -6.028504      -164.0439
  85   2.0000      -6.024211      -163.9271
  86   2.0000      -6.021041      -163.8409
  87   2.0000      -5.963377      -162.2717
  88   2.0000      -5.963089      -162.2639
  89   2.0000      -5.954116      -162.0197
  90   2.0000      -1.302088       -35.4316
  91   2.0000      -1.295658       -35.2566
  92   2.0000      -1.131268       -30.7834
  93   2.0000      -1.118503       -30.4360
  94   2.0000      -1.105889       -30.0928
  95   2.0000      -1.081874       -29.4393
  96   2.0000      -1.069100       -29.0917
  97   2.0000      -1.062691       -28.9173
  98   2.0000      -1.021189       -27.7880
  99   2.0000      -1.014849       -27.6154
 100   2.0000      -1.009962       -27.4825
 101   2.0000      -1.002516       -27.2799
 102   2.0000      -0.995775       -27.0964
 103   2.0000      -0.992938       -27.0192
 104   2.0000      -0.985598       -26.8195
 105   2.0000      -0.983110       -26.7518
 106   2.0000      -0.978858       -26.6361
 107   2.0000      -0.968729       -26.3605
 108   2.0000      -0.960985       -26.1497
 109   2.0000      -0.941361       -25.6157
 110   2.0000      -0.932581       -25.3768
 111   2.0000      -0.923895       -25.1404
 112   2.0000      -0.921706       -25.0809
 113   2.0000      -0.912791       -24.8383
 114   2.0000      -0.907041       -24.6819
 115   2.0000      -0.901651       -24.5352
 116   2.0000      -0.892127       -24.2760
 117   2.0000      -0.891908       -24.2700
 118   2.0000      -0.885586       -24.0980
 119   2.0000      -0.883866       -24.0512
 120   2.0000      -0.878485       -23.9048
 121   2.0000      -0.874821       -23.8051
 122   2.0000      -0.863844       -23.5064
 123   2.0000      -0.858963       -23.3736
 124   2.0000      -0.853216       -23.2172
 125   2.0000      -0.843217       -22.9451
 126   2.0000      -0.835836       -22.7443
 127   2.0000      -0.831361       -22.6225
 128   2.0000      -0.828500       -22.5446
 129   2.0000      -0.822438       -22.3797
 130   2.0000      -0.807065       -21.9614
 131   2.0000      -0.798280       -21.7223
 132   2.0000      -0.792009       -21.5517
 133   2.0000      -0.776382       -21.1264
 134   2.0000      -0.767554       -20.8862
 135   2.0000      -0.761878       -20.7318
 136   2.0000      -0.755280       -20.5522
 137   2.0000      -0.749233       -20.3877
 138   2.0000      -0.741163       -20.1681
 139   2.0000      -0.732625       -19.9357
 140   2.0000      -0.723698       -19.6928
 141   2.0000      -0.717850       -19.5337
 142   2.0000      -0.711607       -19.3638
 143   2.0000      -0.710168       -19.3247
 144   2.0000      -0.707740       -19.2586
 145   2.0000      -0.702510       -19.1163
 146   2.0000      -0.701949       -19.1010
 147   2.0000      -0.696962       -18.9653
 148   2.0000      -0.692444       -18.8424
 149   2.0000      -0.686435       -18.6789
 150   2.0000      -0.682249       -18.5649
 151   2.0000      -0.672534       -18.3006
 152   2.0000      -0.669790       -18.2259
 153   2.0000      -0.653587       -17.7850
 154   2.0000      -0.652512       -17.7558
 155   2.0000      -0.650610       -17.7040
 156   2.0000      -0.646717       -17.5981
 157   2.0000      -0.644808       -17.5461
 158   2.0000      -0.636167       -17.3110
 159   2.0000      -0.631560       -17.1856
 160   2.0000      -0.630701       -17.1623
 161   2.0000      -0.627084       -17.0638
 162   2.0000      -0.623238       -16.9592
 163   2.0000      -0.614184       -16.7128
 164   2.0000      -0.611082       -16.6284
 165   2.0000      -0.604804       -16.4575
 166   2.0000      -0.600066       -16.3286
 167   2.0000      -0.595340       -16.2000
 168   2.0000      -0.588274       -16.0077
 169   2.0000      -0.586830       -15.9685
 170   2.0000      -0.578660       -15.7461
 171   2.0000      -0.577129       -15.7045
 172   2.0000      -0.572584       -15.5808
 173   2.0000      -0.569177       -15.4881
 174   2.0000      -0.565761       -15.3952
 175   2.0000      -0.562850       -15.3159
 176   2.0000      -0.559733       -15.2311
 177   2.0000      -0.558770       -15.2049
 178   2.0000      -0.555686       -15.1210
 179   2.0000      -0.554177       -15.0799
 180   2.0000      -0.553268       -15.0552
 181   2.0000      -0.552583       -15.0365
 182   2.0000      -0.548375       -14.9220
 183   2.0000      -0.547434       -14.8964
 184   2.0000      -0.545254       -14.8371
 185   2.0000      -0.541744       -14.7416
 186   2.0000      -0.540571       -14.7097
 187   2.0000      -0.535750       -14.5785
 188   2.0000      -0.534243       -14.5375
 189   2.0000      -0.529394       -14.4056
 190   2.0000      -0.527708       -14.3597
 191   2.0000      -0.525399       -14.2968
 192   2.0000      -0.524681       -14.2773
 193   2.0000      -0.522054       -14.2058
 194   2.0000      -0.520616       -14.1667
 195   2.0000      -0.519108       -14.1257
 196   2.0000      -0.517441       -14.0803
 197   2.0000      -0.514941       -14.0123
 198   2.0000      -0.512348       -13.9417
 199   2.0000      -0.509028       -13.8513
 200   2.0000      -0.507395       -13.8069
 201   2.0000      -0.502077       -13.6622
 202   2.0000      -0.501132       -13.6365
 203   2.0000      -0.500106       -13.6086
 204   2.0000      -0.492594       -13.4042
 205   2.0000      -0.492267       -13.3953
 206   2.0000      -0.487861       -13.2754
 207   2.0000      -0.487598       -13.2682
 208   2.0000      -0.486583       -13.2406
 209   2.0000      -0.485176       -13.2023
 210   2.0000      -0.482333       -13.1249
 211   2.0000      -0.479807       -13.0562
 212   2.0000      -0.478032       -13.0079
 213   2.0000      -0.477107       -12.9827
 214   2.0000      -0.476353       -12.9622
 215   2.0000      -0.473100       -12.8737
 216   2.0000      -0.471663       -12.8346
 217   2.0000      -0.467340       -12.7170
 218   2.0000      -0.459417       -12.5014
 219   2.0000      -0.458910       -12.4876
 220   2.0000      -0.458094       -12.4654
 221   2.0000      -0.456906       -12.4331
 222   2.0000      -0.453942       -12.3524
 223   2.0000      -0.451130       -12.2759
 224   2.0000      -0.450284       -12.2528
 225   2.0000      -0.444537       -12.0965
 226   2.0000      -0.443008       -12.0549
 227   2.0000      -0.442621       -12.0443
 228   2.0000      -0.440242       -11.9796
 229   2.0000      -0.436679       -11.8826
 230   2.0000      -0.435942       -11.8626
 231   2.0000      -0.432601       -11.7717
 232   2.0000      -0.432289       -11.7632
 233   2.0000      -0.431020       -11.7286
 234   2.0000      -0.429247       -11.6804
 235   2.0000      -0.427254       -11.6262
 236   2.0000      -0.425054       -11.5663
 237   2.0000      -0.423791       -11.5319
 238   2.0000      -0.422674       -11.5016
 239   2.0000      -0.420584       -11.4447
 240   2.0000      -0.419131       -11.4051
 241   2.0000      -0.417014       -11.3475
 242   2.0000      -0.416509       -11.3338
 243   2.0000      -0.416011       -11.3202
 244   2.0000      -0.406570       -11.0633
 245   2.0000      -0.401044       -10.9130
 246   2.0000      -0.393413       -10.7053
 247   2.0000      -0.387718       -10.5504
 248   2.0000      -0.382993       -10.4218
 249   2.0000      -0.377750       -10.2791
 250   2.0000      -0.374237       -10.1835
 251   2.0000      -0.366459        -9.9719
 252   2.0000      -0.357689        -9.7332
 253   2.0000      -0.354131        -9.6364
 254   2.0000      -0.348952        -9.4955
 255   2.0000      -0.346648        -9.4328
 256   2.0000      -0.336801        -9.1648
 257   2.0000      -0.329866        -8.9761
 258   2.0000      -0.323242        -8.7958
 259   2.0000      -0.319109        -8.6834
 260   2.0000      -0.315633        -8.5888
 261   2.0000      -0.310136        -8.4392
 262   2.0000      -0.308037        -8.3821
 263   2.0000      -0.302512        -8.2318
 264   2.0000      -0.301354        -8.2003
 265   2.0000      -0.293725        -7.9927
 266   2.0000      -0.292353        -7.9553
 267   2.0000      -0.287302        -7.8179
 268   2.0000      -0.285983        -7.7820
 269   2.0000      -0.253865        -6.9080
 270   2.0000      -0.226567        -6.1652
 271   0.0000      -0.118118        -3.2142
 272   0.0000      -0.101972        -2.7748
 273   0.0000      -0.087521        -2.3816
 274   0.0000      -0.072693        -1.9781
 275   0.0000      -0.057922        -1.5761

MULLIKEN ATOMIC CHARGES
-----------------------
   0 C :   -0.097388
   1 C :    0.302092
   2 F :   -0.192971
   3 C :   -0.033470
   4 C :   -0.008083
   5 C :    0.098271
   6 C :    0.100735
   7 C :   -0.089871
   8 C :    0.039852
   9 C :    0.010790
  10 C :   -0.082339
  11 C :    0.138327
  12 O :   -0.155849
  13 C :   -0.158290
  14 C :    0.279039
  15 C :   -0.355234
  16 C :   -0.207038
  17 N :    0.163843
  18 C :   -0.172195
  19 N :    0.142442
  20 C :    0.029786
  21 C :    0.079749
  22 N :   -0.027595
  23 C :    0.134171
  24 C :   -0.160972
  25 C :    0.114831
  26 N :   -0.036191
  27 C :    0.117042
  28 C :   -0.116596
  29 C :    0.010321
  30 C :   -0.015291
  31 C :   -0.025382
  32 C :   -0.053300
  33 C :    0.067797
  34 C :    0.052731
  35 C :   -0.118299
  36 S :    0.119673
  37 C :   -0.106793
  38 C :    0.052760
  39 C :    0.007509
  40 C :   -0.066241
  41 S :    0.132864
  42 C :    0.092343
  43 C :   -0.021506
  44 C :   -0.046741
  45 C :    0.010885
  46 C :    0.059609
  47 N :   -0.026730
  48 C :    0.020541
  49 C :   -0.010212
  50 C :   -0.003267
  51 S :   -0.141063
  52 C :    0.054865
  53 C :    0.006830
  54 N :   -0.019659
  55 C :    0.056140
  56 C :   -0.066744
  57 C :    0.031954
  58 C :   -0.127983
  59 C :    0.144078
  60 O :   -0.134231
  61 C :    0.007847
  62 C :   -0.081738
  63 C :    0.101981
  64 C :    0.104121
  65 C :   -0.099472
  66 C :    0.304717
  67 C :   -0.026937
  68 C :   -0.010438
  69 F :   -0.189242
  70 C :   -0.088010
  71 C :    0.043961
  72 C :    0.258782
  73 C :   -0.322599
  74 C :   -0.201770
  75 N :    0.175249
  76 C :   -0.177041
  77 N :    0.162543
  78 H :   -0.004607
  79 H :    0.001423
  80 H :   -0.011236
  81 H :   -0.008020
  82 H :   -0.014521
  83 H :    0.006247
  84 H :    0.130310
  85 H :   -0.022240
  86 H :    0.127120
  87 H :   -0.011117
  88 H :   -0.010054
  89 H :    0.004588
  90 H :   -0.009129
  91 H :    0.039800
  92 H :   -0.016449
  93 H :    0.029332
  94 H :   -0.024084
  95 H :   -0.007259
  96 H :    0.014755
  97 H :    0.017791
  98 H :    0.030665
  99 H :   -0.010493
 100 H :   -0.001514
 101 H :    0.004692
 102 H :   -0.008542
 103 H :   -0.003760
Sum of atomic charges:   -0.0000000

LOEWDIN ATOMIC CHARGES
----------------------
   0 C :   -0.043392
   1 C :    0.091554
   2 F :   -0.067008
   3 C :   -0.039722
   4 C :    0.003712
   5 C :   -0.020002
   6 C :    0.002358
   7 C :    0.006458
   8 C :   -0.015750
   9 C :   -0.057703
  10 C :    0.030878
  11 C :    0.079740
  12 O :   -0.156647
  13 C :   -0.109129
  14 C :    0.065349
  15 C :   -0.153963
  16 C :   -0.018229
  17 N :   -0.053887
  18 C :   -0.021205
  19 N :   -0.064360
  20 C :    0.049727
  21 C :   -0.010855
  22 N :    0.080686
  23 C :    0.010310
  24 C :   -0.088529
  25 C :    0.020244
  26 N :    0.073795
  27 C :   -0.012426
  28 C :   -0.041162
  29 C :   -0.038923
  30 C :   -0.032926
  31 C :   -0.153117
  32 C :   -0.018164
  33 C :   -0.004263
  34 C :   -0.046289
  35 C :   -0.138744
  36 S :    0.463181
  37 C :   -0.205260
  38 C :   -0.038637
  39 C :   -0.064296
  40 C :   -0.161638
  41 S :    0.425059
  42 C :   -0.056351
  43 C :    0.012540
  44 C :   -0.039197
  45 C :   -0.025691
  46 C :    0.094560
  47 N :   -0.074369
  48 C :    0.056924
  49 C :   -0.068301
  50 C :   -0.138859
  51 S :    0.034958
  52 C :    0.005864
  53 C :    0.020585
  54 N :   -0.072900
  55 C :    0.074687
  56 C :   -0.060323
  57 C :    0.079228
  58 C :   -0.080997
  59 C :    0.083122
  60 O :   -0.135883
  61 C :   -0.059816
  62 C :    0.035816
  63 C :   -0.017934
  64 C :    0.003615
  65 C :   -0.041404
  66 C :    0.093977
  67 C :   -0.035599
  68 C :    0.005296
  69 F :   -0.063989
  70 C :    0.012411
  71 C :   -0.019102
  72 C :    0.064233
  73 C :   -0.130468
  74 C :   -0.022121
  75 N :   -0.035911
  76 C :   -0.019061
  77 N :   -0.044503
  78 H :    0.042197
  79 H :    0.040935
  80 H :    0.034886
  81 H :    0.037882
  82 H :    0.038521
  83 H :    0.043784
  84 H :    0.095998
  85 H :    0.028682
  86 H :    0.092781
  87 H :    0.031375
  88 H :    0.020015
  89 H :    0.039522
  90 H :    0.041207
  91 H :    0.037984
  92 H :    0.030154
  93 H :    0.024791
  94 H :    0.028928
  95 H :    0.027293
  96 H :    0.024607
  97 H :    0.023772
  98 H :    0.051162
  99 H :    0.040182
 100 H :    0.043523
 101 H :    0.042433
 102 H :    0.036019
 103 H :    0.039508

  Mayer bond orders larger than 0.100000
B(  0-C ,  1-C ) :   1.4394 B(  0-C ,  6-C ) :   1.2042 B(  0-C , 78-H ) :   1.0064
B(  1-C ,  2-F ) :   1.0859 B(  1-C ,  3-C ) :   1.2580 B(  3-C ,  4-C ) :   1.4577
B(  3-C , 79-H ) :   0.9927 B(  4-C ,  5-C ) :   1.2369 B(  4-C , 80-H ) :   0.9967
B(  5-C ,  6-C ) :   1.2587 B(  5-C , 10-C ) :   1.1865 B(  6-C ,  7-C ) :   1.1986
B(  7-C ,  8-C ) :   1.4672 B(  7-C , 81-H ) :   0.9941 B(  8-C ,  9-C ) :   1.2182
B(  8-C , 14-C ) :   0.9928 B(  9-C , 10-C ) :   1.4784 B(  9-C , 11-C ) :   0.9161
B( 10-C , 82-H ) :   1.0149 B( 11-C , 12-O ) :   2.2546 B( 11-C , 13-C ) :   0.9600
B( 13-C , 14-C ) :   1.0733 B( 13-C , 20-C ) :   1.5738 B( 14-C , 15-C ) :   1.6143
B( 15-C , 16-C ) :   1.1718 B( 15-C , 18-C ) :   1.1341 B( 16-C , 17-N ) :   2.9965
B( 18-C , 19-N ) :   2.9802 B( 20-C , 21-C ) :   1.1595 B( 20-C , 83-H ) :   0.9369
B( 21-C , 22-N ) :   1.1546 B( 21-C , 28-C ) :   1.3135 B( 22-N , 23-C ) :   1.1968
B( 22-N , 84-H ) :   0.9342 B( 23-C , 24-C ) :   1.2726 B( 23-C , 27-C ) :   1.2699
B( 24-C , 25-C ) :   1.3955 B( 24-C , 85-H ) :   1.0296 B( 25-C , 26-N ) :   1.1805
B( 25-C , 29-C ) :   1.1343 B( 26-N , 27-C ) :   1.1546 B( 26-N , 86-H ) :   0.9361
B( 27-C , 28-C ) :   1.3414 B( 28-C , 87-H ) :   1.0223 B( 29-C , 30-C ) :   1.6299
B( 29-C , 88-H ) :   0.9458 B( 30-C , 31-C ) :   1.1664 B( 30-C , 89-H ) :   0.9895
B( 31-C , 32-C ) :   1.4796 B( 31-C , 36-S ) :   1.0564 B( 32-C , 33-C ) :   1.2410
B( 32-C , 90-H ) :   0.9797 B( 33-C , 34-C ) :   1.0663 B( 33-C , 42-C ) :   1.3357
B( 34-C , 35-C ) :   1.5995 B( 34-C , 37-C ) :   1.1737 B( 35-C , 36-S ) :   1.1466
B( 35-C , 91-H ) :   0.9410 B( 37-C , 38-C ) :   1.4487 B( 37-C , 41-S ) :   1.0771
B( 38-C , 39-C ) :   1.2229 B( 38-C , 42-C ) :   1.0961 B( 39-C , 40-C ) :   1.5866
B( 39-C , 92-H ) :   0.9969 B( 40-C , 41-S ) :   1.1569 B( 40-C , 93-H ) :   0.9657
B( 42-C , 43-C ) :   1.1982 B( 43-C , 44-C ) :   1.5270 B( 43-C , 94-H ) :   0.9613
B( 44-C , 45-C ) :   1.1825 B( 44-C , 95-H ) :   0.9676 B( 45-C , 46-C ) :   0.9968
B( 45-C , 49-C ) :   1.4384 B( 46-C , 47-N ) :   1.7492 B( 46-C , 96-H ) :   0.9861
B( 47-N , 48-C ) :   1.2460 B( 48-C , 49-C ) :   1.0809 B( 48-C , 53-C ) :   1.4918
B( 49-C , 50-C ) :   1.0651 B( 50-C , 51-S ) :   1.6596 B( 50-C , 52-C ) :   1.0166
B( 52-C , 53-C ) :   1.0944 B( 52-C , 56-C ) :   1.5252 B( 53-C , 54-N ) :   1.2661
B( 54-N , 55-C ) :   1.7459 B( 55-C , 56-C ) :   1.0101 B( 55-C , 97-H ) :   0.9861
B( 56-C , 57-C ) :   1.0691 B( 57-C , 58-C ) :   1.6647 B( 57-C , 98-H ) :   0.9526
B( 58-C , 59-C ) :   0.9292 B( 58-C , 72-C ) :   1.0319 B( 59-C , 60-O ) :   2.2849
B( 59-C , 61-C ) :   0.9167 B( 61-C , 62-C ) :   1.4693 B( 61-C , 71-C ) :   1.2165
B( 62-C , 63-C ) :   1.1926 B( 62-C , 99-H ) :   1.0161 B( 63-C , 64-C ) :   1.2552
B( 63-C , 68-C ) :   1.2343 B( 64-C , 65-C ) :   1.1997 B( 64-C , 70-C ) :   1.2032
B( 65-C , 66-C ) :   1.4421 B( 65-C ,100-H ) :   1.0076 B( 66-C , 67-C ) :   1.2526
B( 66-C , 69-F ) :   1.0901 B( 67-C , 68-C ) :   1.4621 B( 67-C ,101-H ) :   0.9928
B( 68-C ,102-H ) :   0.9976 B( 70-C , 71-C ) :   1.4595 B( 70-C ,103-H ) :   0.9967
B( 71-C , 72-C ) :   0.9995 B( 72-C , 73-C ) :   1.6613 B( 73-C , 74-C ) :   1.1457
B( 73-C , 76-C ) :   1.1359 B( 74-C , 75-N ) :   3.0140 B( 76-C , 77-N ) :   2.9881

-----------------------------------------------------------------------------
         ABSORPTION SPECTRUM VIA TRANSITION ELECTRIC DIPOLE MOMENTS
-----------------------------------------------------------------------------
State   Energy  Wavelength   fosc         T2         TX        TY        TZ
        (cm-1)    (nm)                  (au**2)     (au)      (au)      (au)
-----------------------------------------------------------------------------
   0    9540.0   1048.2   0.330101361  11.39132  -0.72498  -2.39647  -2.26332
   1   12902.6    775.0   0.837079712  21.35827  -1.18083   3.91208   2.15859
   2   15428.7    648.1   0.000600598   0.01282  -0.07062   0.08578   0.02168
   3   16801.5    595.2   0.731453178  14.33221  -2.86089   2.39235  -0.65129
   4   17496.8    571.5   0.079735976   1.50027  -0.48053  -0.89366  -0.68611
   5   18167.6    550.4   0.000248579   0.00450   0.03817  -0.05506   0.00400
   6   20305.8    492.5   0.064027925   1.03807  -0.56961   0.01897  -0.84454
   7   20420.4    489.7   0.008019352   0.12929  -0.26719  -0.10375   0.21710
   8   20827.7    480.1   0.136002401   2.14972  -1.31434   0.23958  -0.60401
   9   22420.0    446.0   0.171479976   2.51799   1.40295   0.06200   0.73884
  10   22806.3    438.5   0.009677085   0.13969  -0.35126   0.11314   0.05919
  11   23223.5    430.6   0.388796239   5.51149  -2.22890   0.48921  -0.55153
  12   24085.9    415.2   0.129843112   1.77473  -0.65920  -0.68310  -0.93464
  13   24850.1    402.4   0.197850309   2.62110  -1.27317   0.96947  -0.24549
  14   25064.9    399.0   0.108128121   1.42020  -1.04151   0.56997  -0.10285
  15   25212.0    396.6   0.265609204   3.46826   1.31979   0.78575   1.05310
  16   25799.6    387.6   0.049325060   0.62940   0.65030   0.21446   0.40065
  17   25969.8    385.1   0.003636110   0.04609   0.19700  -0.07122   0.04704
  18   26652.2    375.2   0.005792817   0.07155   0.00540  -0.10809   0.24462
  19   26733.5    374.1   0.012188438   0.15010  -0.28802  -0.22575  -0.12718
  20   27006.0    370.3   0.124332307   1.51565  -0.98371  -0.46761  -0.57386
  21   27199.2    367.7   0.063818000   0.77244  -0.87288  -0.09420   0.04055
  22   27693.3    361.1   0.220176712   2.61741  -1.57508   0.28083  -0.24018
  23   27975.0    357.5   0.229306862   2.69850  -1.04071  -0.76500  -1.01498
  24   28150.1    355.2   0.003896581   0.04557   0.13064  -0.02174   0.16743
  25   28412.5    352.0   0.001474151   0.01708   0.03724  -0.09463  -0.08209
  26   28730.8    348.1   0.005077147   0.05818  -0.16159   0.04092  -0.17433
  27   28895.7    346.1   0.055480704   0.63210  -0.74876  -0.23998  -0.11775
  28   28998.2    344.8   0.182980978   2.07736  -1.19150   0.66346   0.46639
  29   29740.9    336.2   0.041792699   0.46262  -0.67151  -0.08586   0.06576
  30   30166.7    331.5   0.007311844   0.07979  -0.07561   0.22165   0.15795
  31   30363.5    329.3   0.066481067   0.72081  -0.58977   0.43203   0.43167
  32   30490.3    328.0   0.063784628   0.68870   0.82800   0.02436   0.05025
  33   30613.8    326.7   0.115872366   1.24606   1.05559   0.14334   0.33352
  34   30744.8    325.3   0.102491469   1.09747  -0.95111  -0.43383  -0.06814
  35   30850.0    324.1   0.204068388   2.17769   1.06265   1.01525   0.13310
  36   31529.1    317.2   0.033074408   0.34535   0.26567   0.39077  -0.34938
  37   31935.3    313.1   0.204159239   2.10462  -1.14129   0.76120   0.47187
  38   32105.4    311.5   0.095443852   0.97869  -0.55049   0.74099   0.35579
  39   32309.2    309.5   0.239264991   2.43797  -0.49633  -1.26266  -0.77286
  40   32382.9    308.8   0.316857536   3.22125   1.70294  -0.55871   0.09537
  41   32852.7    304.4   0.059942722   0.60068  -0.64118   0.34323   0.26788
  42   33023.0    302.8   0.001575921   0.01571   0.05880  -0.08139   0.07502
  43   33222.2    301.0   0.135962768   1.34731  -0.86814   0.53230   0.55704
  44   33549.7    298.1   0.053754791   0.52748  -0.58710  -0.36875   0.21636
  45   33639.8    297.3   0.008774001   0.08587   0.29145  -0.02156   0.02140
  46   33749.2    296.3   0.076625040   0.74745  -0.62267  -0.01745  -0.59952
  47   34352.6    291.1   0.062344052   0.59746   0.67694   0.19313  -0.31925
  48   34589.8    289.1   0.078936529   0.75129  -0.66656  -0.49204  -0.25471
  49   34763.0    287.7   0.139614502   1.32218   0.52912  -0.67411  -0.76668
  50   34884.1    286.7   0.102601223   0.96828   0.69017   0.60926   0.34748
  51   35004.8    285.7   0.058318861   0.54847  -0.72211  -0.14790   0.07181
  52   35196.8    284.1   0.167089533   1.56287  -1.12676  -0.35170   0.41181
  53   35338.9    283.0   0.036672925   0.34164   0.47077   0.33559  -0.08602
  54   35425.5    282.3   0.039105476   0.36341  -0.11702  -0.51825  -0.28484
  55   35614.2    280.8   0.076303304   0.70534   0.58681  -0.23411  -0.55334
  56   35778.2    279.5   0.061124888   0.56244   0.46674   0.58653   0.02397
  57   35880.8    278.7   0.052249063   0.47939  -0.50701  -0.39691  -0.25456
  58   35998.1    277.8   0.103049318   0.94241   0.63080  -0.32561  -0.66218
  59   36067.0    277.3   0.047509642   0.43366  -0.59370  -0.08757   0.27113
  60   36381.8    274.9   0.028387175   0.25687  -0.47604  -0.16297   0.06080
  61   36636.3    273.0   0.180828212   1.62491   1.19867  -0.39018   0.18939
  62   36778.6    271.9   0.131317109   1.17544   1.03395  -0.31410   0.08787
  63   37083.7    269.7   0.038438885   0.34124  -0.44537  -0.18885   0.32745
  64   37256.3    268.4   0.102429393   0.90511  -0.20003   0.62450   0.68927
  65   37584.6    266.1   0.023548903   0.20627   0.35780  -0.21504   0.17890
  66   37645.6    265.6   0.052200749   0.45650   0.58346   0.01274  -0.34046
  67   37830.7    264.3   0.054392459   0.47334   0.22491  -0.42655  -0.49072
  68   37929.6    263.6   0.019537647   0.16958  -0.13976  -0.05990  -0.38270
  69   38063.2    262.7   0.158716501   1.37275  -1.15883  -0.16066   0.06364
  70   38364.8    260.7   0.276034030   2.36867  -0.85129  -0.63757   1.11242
  71   38622.7    258.9   0.108010303   0.92066   0.02913   0.32298   0.90305
  72   38843.1    257.4   0.012092853   0.10249   0.29286   0.04290  -0.12200
  73   38915.8    257.0   0.014001360   0.11845  -0.07120  -0.33563   0.02698
  74   39096.8    255.8   0.097365234   0.81986  -0.81898   0.38577   0.01749
  75   39435.9    253.6   0.021325389   0.17802  -0.05370   0.39707  -0.13219
  76   39697.4    251.9   0.197678000   1.63935  -1.01720   0.48113   0.61088
  77   39845.9    251.0   0.076312791   0.63051   0.23380   0.46666   0.59839
  78   39981.8    250.1   0.026991435   0.22225   0.44173  -0.05033   0.15681
  79   40153.7    249.0   0.020946027   0.17173  -0.10705  -0.28318  -0.28299

FINAL SINGLE POINT ENERGY     -4394.497499258875

DIPOLE MOMENT
-------------
                                X             Y             Z
Electronic contribution:     -6.55190      -1.62475      -9.23588
Nuclear contribution   :      6.67231      -0.38381      12.35567
                        -----------------------------------------
Total Dipole Moment    :      0.12041      -2.00857       3.11979
                        -----------------------------------------
Magnitude (a.u.)       :      3.71240
Magnitude (Debye)      :      9.43617

Rotational constants in cm-1:     0.000606     0.000259     0.000189
Rotational constants in MHz :    18.179307     7.763857     5.676691

                             ****ORCA TERMINATED NORMALLY****
TOTAL RUN TIME: 0 days 0 hours 11 minutes 27 seconds 707 msec
