                         Program Version 4.2.0 -  RELEASE  -
|  1> # ORCA input file
|  2> # SCF done       -173.089317071495          0.000869178704
|  3> ! CAM-B3LYP def2-SVP def2/J RIJCOSX Grid4 TightSCF
|  4> %maxcore 5000
|  5> %tddft
|  6>     Mode sTDDFT
|  7>     Ethresh 5.0
|  8>     maxcore 5000
|  9> end
| 10>
| 11> %pal
| 12>   nprocs 6
| 13>   end
| 14> * xyz 0 1
| 15>    C        2.69331        -0.43520        -0.32908
| 16>    C        1.99311         0.70100        -0.07589
| 17>    S        1.27851         1.31727        -1.52519
| 18>    C        1.92155         0.01792        -2.49946
| 19>    C        1.69451        -0.05181        -3.96002
| 20>    C        2.63926        -0.82372        -1.70634
| 21>    C        3.39840        -2.05682        -1.89962
| 22>    O        3.46103        -2.70599        -2.93030
| 23>    C        4.05632        -2.31795        -0.59438
| 24>    C        3.52453        -1.38162         0.38500
| 25>    C        3.70633        -1.38755         1.74452
| 26>    C        3.10462        -0.40750         2.55954
| 27>    N        2.62159         0.38810         3.23088
| 28>    C        4.43897        -2.34428         2.47264
| 29>    N        5.00381        -3.10347         3.12396
| 30>    C        5.14920        -3.10911        -0.33348
| 31>    C        5.81140        -4.07110        -1.12786
| 32>    C        5.27164        -4.75572        -2.20078
| 33>    C        5.94913        -5.66866        -2.99181
| 34>    C        7.32826        -6.06559        -2.67532
| 35>    C        8.04399        -5.57062        -1.63897
| 36>    S        7.45778        -4.38093        -0.55995
| 37>    C        7.67277        -7.05596        -3.63235
| 38>    C        6.59297        -7.27285        -4.49248
| 39>    C        6.88053        -8.25071        -5.47162
| 40>    C        8.13885        -8.74021        -5.33031
| 41>    S        9.02581        -8.04078        -4.01458
| 42>    C        5.50727        -6.40830        -4.12264
| 43>    C        4.28519        -6.39381        -4.82324
| 44>    C        3.25740        -5.50283        -4.70687
| 45>    C        2.03566        -5.62261        -5.38779
| 46>    S        1.69881        -6.86335        -6.56873
| 47>    C        0.05526        -6.32296        -6.81537
| 48>    C       -0.20199        -5.23020        -6.00736
| 49>    C        0.89862        -4.82807        -5.20310
| 50>    C        0.56943        -3.75752        -4.34313
| 51>    C       -0.72792        -3.36374        -4.49272
| 52>    C       -1.48066        -2.35166        -3.75522
| 53>    O       -2.59721        -1.99519        -4.03951
| 54>    O       -0.79136        -1.88008        -2.69876
| 55>    C       -1.48076        -0.93837        -1.88844
| 56>    S       -1.60862        -4.26296        -5.71464
| 57>    C       -0.81315        -6.99955        -7.70469
| 58>    S       -0.29302        -8.44982        -8.53139
| 59>    C       -1.83553        -8.65579        -9.31974
| 60>    C       -2.68511        -7.60948        -8.93683
| 61>    C       -2.10661        -6.69318        -8.03360
| 62>    N       -4.00763        -7.41946        -9.36678
| 63>    O       -4.48186        -8.21337       -10.17443
| 64>    O       -4.62469        -6.47304        -8.92163
| 65>    C       -1.99037        -9.78813       -10.15268
| 66>    C       -0.98131       -10.73179       -10.34659
| 67>    C       -1.37616       -11.76195       -11.18337
| 68>    C       -2.69962       -11.60624       -11.63791
| 69>    S       -3.45232       -10.20013       -11.04190
| 70>    C       -3.00333       -12.71596       -12.47619
| 71>    C       -1.88418       -13.55715       -12.54625
| 72>    C       -0.82154       -12.99016       -11.73953
| 73>    C        0.43096       -13.49213       -11.53562
| 74>    C        1.37651       -12.83683       -10.71992
| 75>    N        2.14811       -12.30665       -10.05724
| 76>    C        0.86343       -14.69842       -12.12489
| 77>    N        1.22037       -15.67873       -12.60082
| 78>    C       -2.10854       -14.68504       -13.35795
| 79>    C       -3.36805       -14.67682       -13.87694
| 80>    S       -4.31279       -13.30638       -13.39765
| 81>    H        1.85176         1.23036         0.84495
| 82>    H        1.99042         0.88052        -4.43943
| 83>    H        0.64123        -0.21998        -4.18026
| 84>    H        2.27461        -0.87249        -4.37560
| 85>    H        5.64317        -2.91905         0.61392
| 86>    H        4.23325        -4.56277        -2.40213
| 87>    H        9.05057        -5.89570        -1.42670
| 88>    H        6.20034        -8.57777        -6.23671
| 89>    H        8.62343        -9.48797        -5.92710
| 90>    H        4.16184        -7.19537        -5.54416
| 91>    H        3.33878        -4.62919        -4.08152
| 92>    H        1.25191        -3.30185        -3.64994
| 93>    H       -0.93929        -0.88809        -0.94740
| 94>    H       -2.50932        -1.26335        -1.72385
| 95>    H       -1.49603         0.04138        -2.37077
| 96>    H       -2.64677        -5.84510        -7.65484
| 97>    H       -0.01406       -10.64913        -9.88328
| 98>    H       -1.38767       -15.45859       -13.54988
| 99>    H       -3.81356       -15.40465       -14.52536
|100> *
|101>
|102>                          ****END OF INPUT****

CARTESIAN COORDINATES (ANGSTROEM)
---------------------------------
  C      2.693310   -0.435200   -0.329080
  C      1.993110    0.701000   -0.075890
  S      1.278510    1.317270   -1.525190
  C      1.921550    0.017920   -2.499460
  C      1.694510   -0.051810   -3.960020
  C      2.639260   -0.823720   -1.706340
  C      3.398400   -2.056820   -1.899620
  O      3.461030   -2.705990   -2.930300
  C      4.056320   -2.317950   -0.594380
  C      3.524530   -1.381620    0.385000
  C      3.706330   -1.387550    1.744520
  C      3.104620   -0.407500    2.559540
  N      2.621590    0.388100    3.230880
  C      4.438970   -2.344280    2.472640
  N      5.003810   -3.103470    3.123960
  C      5.149200   -3.109110   -0.333480
  C      5.811400   -4.071100   -1.127860
  C      5.271640   -4.755720   -2.200780
  C      5.949130   -5.668660   -2.991810
  C      7.328260   -6.065590   -2.675320
  C      8.043990   -5.570620   -1.638970
  S      7.457780   -4.380930   -0.559950
  C      7.672770   -7.055960   -3.632350
  C      6.592970   -7.272850   -4.492480
  C      6.880530   -8.250710   -5.471620
  C      8.138850   -8.740210   -5.330310
  S      9.025810   -8.040780   -4.014580
  C      5.507270   -6.408300   -4.122640
  C      4.285190   -6.393810   -4.823240
  C      3.257400   -5.502830   -4.706870
  C      2.035660   -5.622610   -5.387790
  S      1.698810   -6.863350   -6.568730
  C      0.055260   -6.322960   -6.815370
  C     -0.201990   -5.230200   -6.007360
  C      0.898620   -4.828070   -5.203100
  C      0.569430   -3.757520   -4.343130
  C     -0.727920   -3.363740   -4.492720
  C     -1.480660   -2.351660   -3.755220
  O     -2.597210   -1.995190   -4.039510
  O     -0.791360   -1.880080   -2.698760
  C     -1.480760   -0.938370   -1.888440
  S     -1.608620   -4.262960   -5.714640
  C     -0.813150   -6.999550   -7.704690
  S     -0.293020   -8.449820   -8.531390
  C     -1.835530   -8.655790   -9.319740
  C     -2.685110   -7.609480   -8.936830
  C     -2.106610   -6.693180   -8.033600
  N     -4.007630   -7.419460   -9.366780
  O     -4.481860   -8.213370  -10.174430
  O     -4.624690   -6.473040   -8.921630
  C     -1.990370   -9.788130  -10.152680
  C     -0.981310  -10.731790  -10.346590
  C     -1.376160  -11.761950  -11.183370
  C     -2.699620  -11.606240  -11.637910
  S     -3.452320  -10.200130  -11.041900
  C     -3.003330  -12.715960  -12.476190
  C     -1.884180  -13.557150  -12.546250
  C     -0.821540  -12.990160  -11.739530
  C      0.430960  -13.492130  -11.535620
  C      1.376510  -12.836830  -10.719920
  N      2.148110  -12.306650  -10.057240
  C      0.863430  -14.698420  -12.124890
  N      1.220370  -15.678730  -12.600820
  C     -2.108540  -14.685040  -13.357950
  C     -3.368050  -14.676820  -13.876940
  S     -4.312790  -13.306380  -13.397650
  H      1.851760    1.230360    0.844950
  H      1.990420    0.880520   -4.439430
  H      0.641230   -0.219980   -4.180260
  H      2.274610   -0.872490   -4.375600
  H      5.643170   -2.919050    0.613920
  H      4.233250   -4.562770   -2.402130
  H      9.050570   -5.895700   -1.426700
  H      6.200340   -8.577770   -6.236710
  H      8.623430   -9.487970   -5.927100
  H      4.161840   -7.195370   -5.544160
  H      3.338780   -4.629190   -4.081520
  H      1.251910   -3.301850   -3.649940
  H     -0.939290   -0.888090   -0.947400
  H     -2.509320   -1.263350   -1.723850
  H     -1.496030    0.041380   -2.370770
  H     -2.646770   -5.845100   -7.654840
  H     -0.014060  -10.649130   -9.883280
  H     -1.387670  -15.458590  -13.549880
  H     -3.813560  -15.404650  -14.525360

 Total Charge           Charge          ....    0
 Multiplicity           Mult            ....    1
 Number of Electrons    NEL             ....  510
 Basis Dimension        Dim             .... 1051

ORBITAL ENERGIES
----------------

  NO   OCC          E(Eh)            E(eV)
   0   2.0000     -88.988917     -2421.5115
   1   2.0000     -88.987391     -2421.4700
   2   2.0000     -88.983292     -2421.3585
   3   2.0000     -88.981840     -2421.3190
   4   2.0000     -88.981632     -2421.3133
   5   2.0000     -88.976032     -2421.1609
   6   2.0000     -88.967433     -2420.9269
   7   2.0000     -88.963312     -2420.8148
   8   2.0000     -19.268234      -524.3153
   9   2.0000     -19.246941      -523.7359
  10   2.0000     -19.245599      -523.6994
  11   2.0000     -19.228850      -523.2436
  12   2.0000     -19.211546      -522.7728
  13   2.0000     -14.653851      -398.7515
  14   2.0000     -14.430127      -392.6637
  15   2.0000     -14.428310      -392.6143
  16   2.0000     -14.415795      -392.2737
  17   2.0000     -14.414530      -392.2393
  18   2.0000     -10.410852      -283.2937
  19   2.0000     -10.382440      -282.5206
  20   2.0000     -10.361934      -281.9625
  21   2.0000     -10.352005      -281.6924
  22   2.0000     -10.350948      -281.6636
  23   2.0000     -10.343875      -281.4711
  24   2.0000     -10.341213      -281.3987
  25   2.0000     -10.338190      -281.3165
  26   2.0000     -10.337635      -281.3014
  27   2.0000     -10.333398      -281.1860
  28   2.0000     -10.330963      -281.1198
  29   2.0000     -10.330607      -281.1101
  30   2.0000     -10.330530      -281.1080
  31   2.0000     -10.329674      -281.0847
  32   2.0000     -10.328924      -281.0643
  33   2.0000     -10.328892      -281.0634
  34   2.0000     -10.328007      -281.0394
  35   2.0000     -10.326169      -280.9893
  36   2.0000     -10.326140      -280.9886
  37   2.0000     -10.324439      -280.9423
  38   2.0000     -10.322545      -280.8907
  39   2.0000     -10.322331      -280.8849
  40   2.0000     -10.318641      -280.7845
  41   2.0000     -10.317271      -280.7472
  42   2.0000     -10.315303      -280.6937
  43   2.0000     -10.315039      -280.6865
  44   2.0000     -10.312883      -280.6278
  45   2.0000     -10.310181      -280.5543
  46   2.0000     -10.307499      -280.4813
  47   2.0000     -10.307258      -280.4747
  48   2.0000     -10.306887      -280.4647
  49   2.0000     -10.306283      -280.4482
  50   2.0000     -10.304256      -280.3930
  51   2.0000     -10.302725      -280.3514
  52   2.0000     -10.300818      -280.2995
  53   2.0000     -10.300637      -280.2946
  54   2.0000     -10.297918      -280.2206
  55   2.0000     -10.297402      -280.2065
  56   2.0000     -10.297269      -280.2029
  57   2.0000     -10.296864      -280.1919
  58   2.0000     -10.296321      -280.1771
  59   2.0000     -10.296311      -280.1769
  60   2.0000     -10.292100      -280.0623
  61   2.0000     -10.291528      -280.0467
  62   2.0000     -10.288803      -279.9726
  63   2.0000     -10.287419      -279.9349
  64   2.0000     -10.285675      -279.8874
  65   2.0000     -10.285377      -279.8793
  66   2.0000      -8.082458      -219.9349
  67   2.0000      -8.081097      -219.8978
  68   2.0000      -8.078720      -219.8332
  69   2.0000      -8.077378      -219.7966
  70   2.0000      -8.077187      -219.7914
  71   2.0000      -8.070930      -219.6212
  72   2.0000      -8.063036      -219.4064
  73   2.0000      -8.058226      -219.2755
  74   2.0000      -6.051665      -164.6742
  75   2.0000      -6.050631      -164.6460
  76   2.0000      -6.048318      -164.5831
  77   2.0000      -6.047221      -164.5532
  78   2.0000      -6.046696      -164.5390
  79   2.0000      -6.046693      -164.5389
  80   2.0000      -6.045818      -164.5151
  81   2.0000      -6.045117      -164.4960
  82   2.0000      -6.043961      -164.4645
  83   2.0000      -6.043559      -164.4536
  84   2.0000      -6.042202      -164.4167
  85   2.0000      -6.042085      -164.4135
  86   2.0000      -6.040317      -164.3654
  87   2.0000      -6.040296      -164.3648
  88   2.0000      -6.039879      -164.3535
  89   2.0000      -6.039062      -164.3312
  90   2.0000      -6.036199      -164.2533
  91   2.0000      -6.032961      -164.1652
  92   2.0000      -6.032509      -164.1529
  93   2.0000      -6.028221      -164.0362
  94   2.0000      -6.028073      -164.0322
  95   2.0000      -6.024955      -163.9473
  96   2.0000      -6.023764      -163.9150
  97   2.0000      -6.019343      -163.7947
  98   2.0000      -1.325396       -36.0659
  99   2.0000      -1.197862       -32.5955
 100   2.0000      -1.142805       -31.0973
 101   2.0000      -1.142744       -31.0956
 102   2.0000      -1.105154       -30.0728
 103   2.0000      -1.042624       -28.3713
 104   2.0000      -1.027480       -27.9592
 105   2.0000      -1.025436       -27.9035
 106   2.0000      -1.020646       -27.7732
 107   2.0000      -1.017598       -27.6903
 108   2.0000      -1.013138       -27.5689
 109   2.0000      -1.007488       -27.4151
 110   2.0000      -1.006852       -27.3978
 111   2.0000      -0.993963       -27.0471
 112   2.0000      -0.990601       -26.9556
 113   2.0000      -0.984590       -26.7921
 114   2.0000      -0.965438       -26.2709
 115   2.0000      -0.960789       -26.1444
 116   2.0000      -0.955087       -25.9892
 117   2.0000      -0.940456       -25.5911
 118   2.0000      -0.924243       -25.1499
 119   2.0000      -0.914106       -24.8741
 120   2.0000      -0.912701       -24.8359
 121   2.0000      -0.901011       -24.5177
 122   2.0000      -0.896679       -24.3999
 123   2.0000      -0.879269       -23.9261
 124   2.0000      -0.876548       -23.8521
 125   2.0000      -0.866376       -23.5753
 126   2.0000      -0.862175       -23.4610
 127   2.0000      -0.855867       -23.2893
 128   2.0000      -0.852811       -23.2062
 129   2.0000      -0.852384       -23.1945
 130   2.0000      -0.845948       -23.0194
 131   2.0000      -0.820611       -22.3300
 132   2.0000      -0.814041       -22.1512
 133   2.0000      -0.807828       -21.9821
 134   2.0000      -0.798612       -21.7313
 135   2.0000      -0.797171       -21.6921
 136   2.0000      -0.790288       -21.5048
 137   2.0000      -0.778507       -21.1843
 138   2.0000      -0.774060       -21.0633
 139   2.0000      -0.759446       -20.6656
 140   2.0000      -0.748435       -20.3660
 141   2.0000      -0.744174       -20.2500
 142   2.0000      -0.726531       -19.7699
 143   2.0000      -0.722325       -19.6555
 144   2.0000      -0.712354       -19.3841
 145   2.0000      -0.703298       -19.1377
 146   2.0000      -0.694712       -18.9041
 147   2.0000      -0.683903       -18.6099
 148   2.0000      -0.679728       -18.4963
 149   2.0000      -0.672807       -18.3080
 150   2.0000      -0.668210       -18.1829
 151   2.0000      -0.666941       -18.1484
 152   2.0000      -0.660269       -17.9668
 153   2.0000      -0.655834       -17.8461
 154   2.0000      -0.645967       -17.5776
 155   2.0000      -0.644505       -17.5379
 156   2.0000      -0.636893       -17.3307
 157   2.0000      -0.636130       -17.3100
 158   2.0000      -0.631002       -17.1704
 159   2.0000      -0.622866       -16.9490
 160   2.0000      -0.617422       -16.8009
 161   2.0000      -0.615820       -16.7573
 162   2.0000      -0.611062       -16.6278
 163   2.0000      -0.604722       -16.4553
 164   2.0000      -0.603153       -16.4126
 165   2.0000      -0.598410       -16.2836
 166   2.0000      -0.590520       -16.0689
 167   2.0000      -0.585442       -15.9307
 168   2.0000      -0.581585       -15.8257
 169   2.0000      -0.579168       -15.7600
 170   2.0000      -0.573268       -15.5994
 171   2.0000      -0.570885       -15.5346
 172   2.0000      -0.561934       -15.2910
 173   2.0000      -0.559325       -15.2200
 174   2.0000      -0.557353       -15.1664
 175   2.0000      -0.548954       -14.9378
 176   2.0000      -0.545066       -14.8320
 177   2.0000      -0.544200       -14.8084
 178   2.0000      -0.538713       -14.6591
 179   2.0000      -0.537268       -14.6198
 180   2.0000      -0.531735       -14.4692
 181   2.0000      -0.527304       -14.3487
 182   2.0000      -0.525479       -14.2990
 183   2.0000      -0.525042       -14.2871
 184   2.0000      -0.522112       -14.2074
 185   2.0000      -0.520130       -14.1535
 186   2.0000      -0.517762       -14.0890
 187   2.0000      -0.516312       -14.0496
 188   2.0000      -0.509935       -13.8760
 189   2.0000      -0.507769       -13.8171
 190   2.0000      -0.505938       -13.7673
 191   2.0000      -0.504475       -13.7275
 192   2.0000      -0.498702       -13.5704
 193   2.0000      -0.497048       -13.5254
 194   2.0000      -0.495737       -13.4897
 195   2.0000      -0.492159       -13.3923
 196   2.0000      -0.488759       -13.2998
 197   2.0000      -0.484299       -13.1784
 198   2.0000      -0.482419       -13.1273
 199   2.0000      -0.481807       -13.1106
 200   2.0000      -0.476761       -12.9733
 201   2.0000      -0.474208       -12.9038
 202   2.0000      -0.471716       -12.8360
 203   2.0000      -0.469649       -12.7798
 204   2.0000      -0.466012       -12.6808
 205   2.0000      -0.461751       -12.5649
 206   2.0000      -0.461335       -12.5536
 207   2.0000      -0.459093       -12.4926
 208   2.0000      -0.458766       -12.4836
 209   2.0000      -0.456986       -12.4352
 210   2.0000      -0.451565       -12.2877
 211   2.0000      -0.448612       -12.2074
 212   2.0000      -0.446792       -12.1578
 213   2.0000      -0.445605       -12.1255
 214   2.0000      -0.443713       -12.0740
 215   2.0000      -0.441609       -12.0168
 216   2.0000      -0.439885       -11.9699
 217   2.0000      -0.439548       -11.9607
 218   2.0000      -0.439029       -11.9466
 219   2.0000      -0.438070       -11.9205
 220   2.0000      -0.436837       -11.8869
 221   2.0000      -0.432589       -11.7713
 222   2.0000      -0.429778       -11.6949
 223   2.0000      -0.427745       -11.6395
 224   2.0000      -0.426861       -11.6155
 225   2.0000      -0.426085       -11.5944
 226   2.0000      -0.425129       -11.5684
 227   2.0000      -0.424334       -11.5467
 228   2.0000      -0.421144       -11.4599
 229   2.0000      -0.415062       -11.2944
 230   2.0000      -0.413453       -11.2506
 231   2.0000      -0.411344       -11.1932
 232   2.0000      -0.403319       -10.9749
 233   2.0000      -0.398168       -10.8347
 234   2.0000      -0.391910       -10.6644
 235   2.0000      -0.387250       -10.5376
 236   2.0000      -0.385412       -10.4876
 237   2.0000      -0.377265       -10.2659
 238   2.0000      -0.365340        -9.9414
 239   2.0000      -0.364008        -9.9052
 240   2.0000      -0.359982        -9.7956
 241   2.0000      -0.352571        -9.5939
 242   2.0000      -0.352292        -9.5864
 243   2.0000      -0.344157        -9.3650
 244   2.0000      -0.339392        -9.2353
 245   2.0000      -0.335500        -9.1294
 246   2.0000      -0.334760        -9.1093
 247   2.0000      -0.333840        -9.0842
 248   2.0000      -0.319648        -8.6981
 249   2.0000      -0.318453        -8.6656
 250   2.0000      -0.308850        -8.4042
 251   2.0000      -0.294212        -8.0059
 252   2.0000      -0.281794        -7.6680
 253   2.0000      -0.261950        -7.1280
 254   2.0000      -0.226760        -6.1705
 255   0.0000      -0.109116        -2.9692
 256   0.0000      -0.100584        -2.7370
 257   0.0000      -0.073748        -2.0068
 258   0.0000      -0.063984        -1.7411
 259   0.0000      -0.051933        -1.4132

MULLIKEN ATOMIC CHARGES
-----------------------
   0 C :    0.054243
   1 C :   -0.154712
   2 S :    0.141462
   3 C :   -0.315408
   4 C :    0.121815
   5 C :    0.070827
   6 C :    0.163643
   7 O :   -0.189181
   8 C :   -0.095022
   9 C :    0.271653
  10 C :   -0.334279
  11 C :   -0.192661
  12 N :    0.149560
  13 C :   -0.202191
  14 N :    0.160957
  15 C :    0.030848
  16 C :   -0.130283
  17 C :    0.025895
  18 C :    0.024992
  19 C :    0.054919
  20 C :   -0.118293
  21 S :    0.150406
  22 C :   -0.094434
  23 C :    0.037570
  24 C :    0.014981
  25 C :   -0.064583
  26 S :    0.139362
  27 C :    0.121364
  28 C :   -0.040952
  29 C :   -0.017205
  30 C :   -0.080350
  31 S :    0.136645
  32 C :   -0.103721
  33 C :   -0.035831
  34 C :    0.113709
  35 C :    0.021017
  36 C :   -0.132816
  37 C :    0.204622
  38 O :   -0.194316
  39 O :   -0.313533
  40 C :    0.188317
  41 S :    0.160639
  42 C :   -0.019056
  43 S :    0.142097
  44 C :   -0.130648
  45 C :    0.141890
  46 C :   -0.076226
  47 N :    0.286653
  48 O :   -0.284200
  49 O :   -0.230958
  50 C :   -0.064745
  51 C :   -0.084320
  52 C :    0.035093
  53 C :   -0.078318
  54 S :    0.244148
  55 C :   -0.120903
  56 C :   -0.030631
  57 C :    0.304711
  58 C :   -0.301140
  59 C :   -0.185933
  60 N :    0.163196
  61 C :   -0.195573
  62 N :    0.177581
  63 C :    0.034388
  64 C :   -0.079115
  65 S :    0.190916
  66 H :    0.048914
  67 H :    0.034599
  68 H :    0.036292
  69 H :    0.045365
  70 H :    0.026776
  71 H :   -0.003934
  72 H :    0.040588
  73 H :   -0.007297
  74 H :    0.033925
  75 H :   -0.018523
  76 H :    0.003971
  77 H :   -0.013874
  78 H :    0.036569
  79 H :    0.044161
  80 H :    0.024864
  81 H :    0.006528
  82 H :    0.021902
  83 H :    0.013131
  84 H :    0.037462
Sum of atomic charges:   -0.0000000

LOEWDIN ATOMIC CHARGES
----------------------
   0 C :   -0.060955
   1 C :   -0.152993
   2 S :    0.465038
   3 C :   -0.122908
   4 C :   -0.058414
   5 C :   -0.102250
   6 C :    0.094687
   7 O :   -0.166278
   8 C :   -0.096873
   9 C :    0.075054
  10 C :   -0.146282
  11 C :   -0.015512
  12 N :   -0.057786
  13 C :   -0.029308
  14 N :   -0.051254
  15 C :    0.039373
  16 C :   -0.188821
  17 C :    0.036668
  18 C :   -0.032422
  19 C :   -0.054712
  20 C :   -0.133593
  21 S :    0.463020
  22 C :   -0.186238
  23 C :   -0.042778
  24 C :   -0.058666
  25 C :   -0.156843
  26 S :    0.429220
  27 C :   -0.015808
  28 C :   -0.023412
  29 C :   -0.029760
  30 C :   -0.151949
  31 S :    0.444399
  32 C :   -0.213207
  33 C :   -0.177987
  34 C :   -0.072714
  35 C :   -0.007492
  36 C :   -0.199913
  37 C :    0.062111
  38 O :   -0.172701
  39 O :   -0.095106
  40 C :    0.077967
  41 S :    0.436233
  42 C :   -0.175428
  43 S :    0.460216
  44 C :   -0.138577
  45 C :   -0.085248
  46 C :   -0.049858
  47 N :    0.291537
  48 O :   -0.243668
  49 O :   -0.195093
  50 C :   -0.204012
  51 C :   -0.024161
  52 C :   -0.073791
  53 C :   -0.183590
  54 S :    0.543589
  55 C :   -0.183754
  56 C :   -0.073057
  57 C :    0.083875
  58 C :   -0.108264
  59 C :   -0.015207
  60 N :   -0.040120
  61 C :   -0.017857
  62 N :   -0.034584
  63 C :   -0.035082
  64 C :   -0.174141
  65 S :    0.484513
  66 H :    0.035091
  67 H :    0.042056
  68 H :    0.040828
  69 H :    0.045953
  70 H :    0.041984
  71 H :    0.038886
  72 H :    0.038851
  73 H :    0.033967
  74 H :    0.026639
  75 H :    0.023811
  76 H :    0.037090
  77 H :    0.035593
  78 H :    0.024254
  79 H :    0.026101
  80 H :    0.015324
  81 H :    0.033775
  82 H :    0.031604
  83 H :    0.042836
  84 H :    0.028283

  Mayer bond orders larger than 0.100000
B(  0-C ,  1-C ) :   1.5453 B(  0-C ,  5-C ) :   1.1970 B(  0-C ,  9-C ) :   0.9867
B(  1-C ,  2-S ) :   1.1494 B(  1-C , 66-H ) :   0.9598 B(  2-S ,  3-C ) :   1.1609
B(  3-C ,  4-C ) :   1.0866 B(  3-C ,  5-C ) :   1.5431 B(  4-C , 67-H ) :   0.9398
B(  4-C , 68-H ) :   0.9388 B(  4-C , 69-H ) :   0.9445 B(  5-C ,  6-C ) :   0.9885
B(  6-C ,  7-O ) :   2.0237 B(  6-C ,  8-C ) :   0.9808 B(  8-C ,  9-C ) :   1.0897
B(  8-C , 15-C ) :   1.5611 B(  9-C , 10-C ) :   1.6379 B( 10-C , 11-C ) :   1.1515
B( 10-C , 13-C ) :   1.1313 B( 11-C , 12-N ) :   2.9929 B( 13-C , 14-N ) :   2.9998
B( 15-C , 16-C ) :   1.2239 B( 15-C , 70-H ) :   0.9275 B( 16-C , 17-C ) :   1.4457
B( 16-C , 21-S ) :   1.0390 B( 17-C , 18-C ) :   1.3154 B( 17-C , 71-H ) :   0.9524
B( 18-C , 19-C ) :   1.0413 B( 18-C , 27-C ) :   1.3027 B( 19-C , 20-C ) :   1.5864
B( 19-C , 22-C ) :   1.1979 B( 20-C , 21-S ) :   1.1604 B( 20-C , 72-H ) :   0.9427
B( 22-C , 23-C ) :   1.4125 B( 22-C , 26-S ) :   1.0863 B( 23-C , 24-C ) :   1.2094
B( 23-C , 27-C ) :   1.1317 B( 24-C , 25-C ) :   1.6026 B( 24-C , 73-H ) :   0.9977
B( 25-C , 26-S ) :   1.1428 B( 25-C , 74-H ) :   0.9658 B( 27-C , 28-C ) :   1.2012
B( 28-C , 29-C ) :   1.5491 B( 28-C , 75-H ) :   0.9611 B( 29-C , 30-C ) :   1.2209
B( 29-C , 76-H ) :   0.9569 B( 30-C , 31-S ) :   1.1088 B( 30-C , 32-C ) :   0.1083
B( 30-C , 34-C ) :   1.3411 B( 31-S , 32-C ) :   1.1108 B( 32-C , 33-C ) :   1.5249
B( 32-C , 42-C ) :   1.1575 B( 33-C , 34-C ) :   1.2437 B( 33-C , 41-S ) :   1.0606
B( 34-C , 35-C ) :   1.1550 B( 35-C , 36-C ) :   1.5952 B( 35-C , 77-H ) :   0.9937
B( 36-C , 37-C ) :   0.9686 B( 36-C , 41-S ) :   1.0586 B( 37-C , 38-O ) :   2.1449
B( 37-C , 39-O ) :   1.2163 B( 39-O , 40-C ) :   0.9133 B( 40-C , 78-H ) :   0.9800
B( 40-C , 79-H ) :   0.9687 B( 40-C , 80-H ) :   0.9760 B( 42-C , 43-S ) :   1.0669
B( 42-C , 46-C ) :   1.5029 B( 43-S , 44-C ) :   1.1678 B( 44-C , 45-C ) :   1.4296
B( 44-C , 50-C ) :   1.2253 B( 45-C , 46-C ) :   1.2238 B( 45-C , 47-N ) :   0.9760
B( 46-C , 81-H ) :   0.9924 B( 47-N , 48-O ) :   1.4256 B( 47-N , 49-O ) :   1.5597
B( 48-O , 49-O ) :   0.2449 B( 50-C , 51-C ) :   1.3807 B( 50-C , 54-S ) :   1.0988
B( 51-C , 52-C ) :   1.3506 B( 51-C , 82-H ) :   0.9778 B( 52-C , 53-C ) :   1.4077
B( 52-C , 57-C ) :   0.9876 B( 53-C , 54-S ) :   1.1179 B( 53-C , 55-C ) :   1.1818
B( 55-C , 56-C ) :   1.4492 B( 55-C , 65-S ) :   1.1383 B( 56-C , 57-C ) :   1.0186
B( 56-C , 63-C ) :   1.2774 B( 57-C , 58-C ) :   1.7041 B( 58-C , 59-C ) :   1.1358
B( 58-C , 61-C ) :   1.1327 B( 59-C , 60-N ) :   2.9852 B( 61-C , 62-N ) :   3.0049
B( 63-C , 64-C ) :   1.5459 B( 63-C , 83-H ) :   0.9956 B( 64-C , 65-S ) :   1.1547
B( 64-C , 84-H ) :   0.9643

-----------------------------------------------------------------------------
         ABSORPTION SPECTRUM VIA TRANSITION ELECTRIC DIPOLE MOMENTS
-----------------------------------------------------------------------------
State   Energy  Wavelength   fosc         T2         TX        TY        TZ
        (cm-1)    (nm)                  (au**2)     (au)      (au)      (au)
-----------------------------------------------------------------------------
   0   11089.4    901.8   0.778459174  23.11022   1.94938   2.68088   3.48181
   1   13944.3    717.1   0.025606891   0.60455  -0.22143  -0.63878  -0.38404
   2   18456.3    541.8   0.303988091   5.42236  -1.56334  -0.99608  -1.40931
   3   19715.5    507.2   0.185176836   3.09210  -1.70527  -0.09954  -0.41743
   4   20072.3    498.2   0.019939021   0.32703  -0.16765  -0.26930  -0.47581
   5   20881.2    478.9   0.326531166   5.14807   1.70758  -1.43939  -0.40050
   6   22058.4    453.3   0.044091366   0.65804  -0.42079   0.06894  -0.69009
   7   23203.2    431.0   0.150923671   2.14133   1.40684  -0.17999   0.36018
   8   23807.6    420.0   0.577349085   7.98358   2.03995  -1.80678  -0.74681
   9   25828.5    387.2   0.256546393   3.26996  -0.80677   1.46630   0.68488
  10   26973.8    370.7   0.123304061   1.50491   0.15526  -1.02068  -0.66258
  11   27247.9    367.0   0.049473909   0.59775  -0.46549   0.39374  -0.47544
  12   27806.9    359.6   0.050652668   0.59969  -0.41440   0.61343   0.22729
  13   28402.4    352.1   0.324482468   3.76107  -0.38851  -1.37541  -1.31087
  14   28599.6    349.7   0.012864157   0.14808  -0.10063  -0.25524  -0.26982
  15   28906.5    345.9   0.009242111   0.10526  -0.08143   0.11451  -0.29243
  16   30413.7    328.8   0.073478550   0.79537  -0.47923   0.68639   0.30753
  17   31176.8    320.8   0.173685224   1.83403   0.83911  -1.03001  -0.26269
  18   31462.5    317.8   0.154002517   1.61143   0.77479   0.22186   0.98077
  19   31730.3    315.2   0.122731342   1.27338  -1.03928   0.33437   0.28542
  20   31880.1    313.7   0.142669711   1.47329   0.97784  -0.67285  -0.25376
  21   31928.7    313.2   0.195868246   2.01957   1.15154  -0.66625   0.49963
  22   32577.3    307.0   0.240436754   2.42975  -1.26809  -0.38416  -0.82105
  23   32832.7    304.6   0.086274979   0.86508   0.88865  -0.23631   0.13980
  24   33347.5    299.9   0.081761522   0.80716   0.31874   0.66238   0.51655
  25   33465.6    298.8   0.046978633   0.46214   0.03471  -0.54596  -0.40357
  26   33718.3    296.6   0.001150475   0.01123   0.01901   0.05605   0.08792
  27   33787.4    296.0   0.027177318   0.26481  -0.09687   0.39581   0.31426
  28   34708.3    288.1   0.202954493   1.92504  -0.99002   0.94733   0.21786
  29   34960.9    286.0   0.161227950   1.51822  -0.74153   0.93043   0.32038
  30   35053.7    285.3   0.010327099   0.09699  -0.11575   0.26580   0.11376
  31   35551.8    281.3   0.080896714   0.74911   0.67227  -0.48580  -0.24731
  32   35872.1    278.8   0.006840889   0.06278  -0.12493   0.21665  -0.01532
  33   36348.7    275.1   0.316399688   2.86565   0.91313  -0.66506   1.26077
  34   36601.4    273.2   0.151837372   1.36570   0.45021  -1.06445  -0.17309
  35   36757.7    272.1   0.276004272   2.47197   0.77664  -1.33008   0.31574
  36   36977.2    270.4   0.078565035   0.69947  -0.53399   0.62686  -0.14623
  37   37218.0    268.7   0.258696627   2.28830  -0.38995  -0.16844  -1.45185
  38   37384.0    267.5   0.000841267   0.00741   0.03350  -0.01962   0.07682
  39   38012.9    263.1   0.052155412   0.45169   0.52612  -0.39543  -0.13612
  40   38184.9    261.9   0.079062972   0.68164  -0.03875   0.43087   0.70320
  41   38485.3    259.8   0.040585405   0.34718  -0.37015  -0.36099  -0.28257
  42   38559.7    259.3   0.029924215   0.25548  -0.02783  -0.24114  -0.44335
  43   38964.6    256.6   0.044710475   0.37776  -0.59448  -0.03168  -0.15281
  44   39122.9    255.6   0.051013178   0.42927   0.49634  -0.38821  -0.17945
  45   39485.9    253.3   0.034199229   0.28513   0.04253  -0.35728  -0.39456
  46   39687.1    252.0   0.099715397   0.82716   0.01247  -0.56231  -0.71471
  47   39719.3    251.8   0.019845908   0.16449  -0.16297   0.28893   0.23335
  48   40139.1    249.1   0.123584786   1.01361  -0.47586   0.57872   0.67250
  49   40304.8    248.1   0.001718995   0.01404  -0.07125   0.06464  -0.06918

FINAL SINGLE POINT ENERGY     -5671.644587218494

DIPOLE MOMENT
-------------
                                X             Y             Z
Electronic contribution:     -8.37184     -24.56432     -17.42648
Nuclear contribution   :      9.42524      24.43905      15.64505
                        -----------------------------------------
Total Dipole Moment    :      1.05341      -0.12526      -1.78143
                        -----------------------------------------
Magnitude (a.u.)       :      2.07336
Magnitude (Debye)      :      5.27007

Rotational constants in cm-1:     0.001438     0.000385     0.000311
Rotational constants in MHz :    43.111957    11.539365     9.335004

                             ****ORCA TERMINATED NORMALLY****
TOTAL RUN TIME: 0 days 0 hours 8 minutes 8 seconds 233 msec
