                         Program Version 4.2.0 -  RELEASE  -
|  1> # ORCA input file
|  2> # SCF done       -184.573066050306          0.000422308207
|  3> ! CAM-B3LYP def2-SVP def2/J RIJCOSX Grid4 TightSCF
|  4> %maxcore 5000
|  5> %tddft
|  6>     Mode sTDDFT
|  7>     Ethresh 5.0
|  8>     maxcore 5000
|  9> end
| 10>
| 11> %pal
| 12>   nprocs 6
| 13>   end
| 14> * xyz 0 1
| 15>    C       -3.61415        -0.56737        -1.41325
| 16>    C       -3.26913         0.71076        -1.68830
| 17>    C       -3.89962         1.49015        -2.67814
| 18>    C       -4.98955         0.92565        -3.47966
| 19>    C       -5.47144        -0.33110        -3.35191
| 20>    S       -4.86487        -1.46152        -2.21235
| 21>    C       -5.37852         1.96865        -4.36420
| 22>    C       -4.59629         3.10228        -4.14336
| 23>    C       -4.97260         4.16255        -4.99916
| 24>    C       -5.99528         3.81087        -5.82266
| 25>    S       -6.55017         2.18942        -5.60219
| 26>    C       -3.65610         2.81003        -3.08173
| 27>    C       -2.66602         3.65170        -2.51993
| 28>    C       -2.34438         4.90185        -2.94193
| 29>    C       -1.35135         5.71997        -2.35053
| 30>    C       -0.54956         5.48395        -1.24287
| 31>    C        0.30801         6.54742        -0.97500
| 32>    C        0.17007         7.61251        -1.88278
| 33>    S       -1.02385         7.29643        -3.06437
| 34>    C        1.08004         8.63279        -1.52278
| 35>    C        1.79471         8.21903        -0.38311
| 36>    C        1.33513         6.89618        -0.00321
| 37>    C        1.77268         6.13348         1.04195
| 38>    C        1.24726         4.85238         1.30411
| 39>    N        0.82093         3.80878         1.51811
| 40>    C        2.77895         6.57474         1.92494
| 41>    N        3.59731         6.92791         2.64707
| 42>    C        2.72313         9.16667         0.04992
| 43>    C        2.72580        10.29403        -0.74893
| 44>    S        1.55428        10.18367        -2.06137
| 45>    C        3.53295        11.45068        -0.62352
| 46>    C        3.55858        12.55363        -1.45608
| 47>    C        4.48665        13.50673        -1.03693
| 48>    C        5.17292        13.12732         0.13209
| 49>    S        4.67497        11.59448         0.70937
| 50>    C        6.08665        14.14956         0.46931
| 51>    C        5.98688        15.17686        -0.48651
| 52>    C        4.97341        14.80559        -1.46185
| 53>    C        4.56636        15.52992        -2.54670
| 54>    C        3.56665        15.06632        -3.42532
| 55>    N        2.75375        14.69246        -4.14332
| 56>    C        5.11828        16.78893        -2.85705
| 57>    N        5.56754        17.81357        -3.11113
| 58>    C        6.85838        16.23522        -0.24462
| 59>    C        7.62441        16.03655         0.89168
| 60>    S        7.25219        14.49807         1.67245
| 61>    C        8.60985        16.90219         1.43959
| 62>    C        9.26624        16.63242         2.61725
| 63>    C       10.23568        17.44442         3.19796
| 64>    C       10.65189        18.69728         2.56132
| 65>    C       10.14214        19.16464         1.40209
| 66>    S        8.92861        18.35695         0.49518
| 67>    C       11.64074        19.24182         3.42512
| 68>    C       11.83085        18.40619         4.52864
| 69>    C       12.82135        18.91811         5.39860
| 70>    C       13.33387        20.09251         4.94712
| 71>    S       12.64769        20.63259         3.45400
| 72>    C       10.94830        17.27133         4.40393
| 73>    C       10.76851        16.17852         5.27866
| 74>    C       11.35163        16.01486         6.49623
| 75>    C       11.14758        14.91322         7.37318
| 76>    C       10.39259        13.79792         7.09714
| 77>    C       10.19096        12.72456         7.96510
| 78>    C       10.88156        12.66323         9.26670
| 79>    C       11.66517        13.64781         9.75513
| 80>    S       11.97702        15.11132         8.91955
| 81>    C       10.53803        11.39989         9.81456
| 82>    C        9.69476        10.72223         8.92954
| 83>    C        9.31360         9.45392         9.42533
| 84>    C        9.86532         9.20627        10.64040
| 85>    S       10.86326        10.49273        11.23858
| 86>    C        9.45343        11.54734         7.78229
| 87>    C        8.59472        11.15554         6.69676
| 88>    C        7.92029        11.96262         5.87818
| 89>    H       -3.12116        -1.14701        -0.65152
| 90>    H       -2.46617         1.14755        -1.11146
| 91>    H       -6.27514        -0.70839        -3.96407
| 92>    H       -4.53347         5.14271        -5.02139
| 93>    H       -6.47403         4.41722        -6.56668
| 94>    H       -2.12050         3.23891        -1.68267
| 95>    H       -2.85341         5.32808        -3.79193
| 96>    H       -0.59757         4.58094        -0.66342
| 97>    H        3.37288         9.05524         0.89960
| 98>    H        2.92844        12.64160        -2.32303
| 99>    H        6.94070        17.11637        -0.85521
|100>    H        8.99053        15.71277         3.11696
|101>    H       10.46194        20.09352         0.95706
|102>    H       13.15797        18.45796         6.30909
|103>    H       14.09338        20.69477         5.40620
|104>    H       10.08223        15.41989         4.92922
|105>    H       12.01229        16.78264         6.86895
|106>    H        9.94547        13.73427         6.11695
|107>    H       12.14915        13.58365        10.71709
|108>    H        8.66843         8.76183         8.91497
|109>    H        9.75219         8.33003        11.24862
|110>    H        8.47381        10.08396         6.58755
|111>    H        7.93027        13.03367         5.98264
|112>    H        7.29514        11.56702         5.09619
|113> *
|114>
|115>                          ****END OF INPUT****

CARTESIAN COORDINATES (ANGSTROEM)
---------------------------------
  C     -3.614150   -0.567370   -1.413250
  C     -3.269130    0.710760   -1.688300
  C     -3.899620    1.490150   -2.678140
  C     -4.989550    0.925650   -3.479660
  C     -5.471440   -0.331100   -3.351910
  S     -4.864870   -1.461520   -2.212350
  C     -5.378520    1.968650   -4.364200
  C     -4.596290    3.102280   -4.143360
  C     -4.972600    4.162550   -4.999160
  C     -5.995280    3.810870   -5.822660
  S     -6.550170    2.189420   -5.602190
  C     -3.656100    2.810030   -3.081730
  C     -2.666020    3.651700   -2.519930
  C     -2.344380    4.901850   -2.941930
  C     -1.351350    5.719970   -2.350530
  C     -0.549560    5.483950   -1.242870
  C      0.308010    6.547420   -0.975000
  C      0.170070    7.612510   -1.882780
  S     -1.023850    7.296430   -3.064370
  C      1.080040    8.632790   -1.522780
  C      1.794710    8.219030   -0.383110
  C      1.335130    6.896180   -0.003210
  C      1.772680    6.133480    1.041950
  C      1.247260    4.852380    1.304110
  N      0.820930    3.808780    1.518110
  C      2.778950    6.574740    1.924940
  N      3.597310    6.927910    2.647070
  C      2.723130    9.166670    0.049920
  C      2.725800   10.294030   -0.748930
  S      1.554280   10.183670   -2.061370
  C      3.532950   11.450680   -0.623520
  C      3.558580   12.553630   -1.456080
  C      4.486650   13.506730   -1.036930
  C      5.172920   13.127320    0.132090
  S      4.674970   11.594480    0.709370
  C      6.086650   14.149560    0.469310
  C      5.986880   15.176860   -0.486510
  C      4.973410   14.805590   -1.461850
  C      4.566360   15.529920   -2.546700
  C      3.566650   15.066320   -3.425320
  N      2.753750   14.692460   -4.143320
  C      5.118280   16.788930   -2.857050
  N      5.567540   17.813570   -3.111130
  C      6.858380   16.235220   -0.244620
  C      7.624410   16.036550    0.891680
  S      7.252190   14.498070    1.672450
  C      8.609850   16.902190    1.439590
  C      9.266240   16.632420    2.617250
  C     10.235680   17.444420    3.197960
  C     10.651890   18.697280    2.561320
  C     10.142140   19.164640    1.402090
  S      8.928610   18.356950    0.495180
  C     11.640740   19.241820    3.425120
  C     11.830850   18.406190    4.528640
  C     12.821350   18.918110    5.398600
  C     13.333870   20.092510    4.947120
  S     12.647690   20.632590    3.454000
  C     10.948300   17.271330    4.403930
  C     10.768510   16.178520    5.278660
  C     11.351630   16.014860    6.496230
  C     11.147580   14.913220    7.373180
  C     10.392590   13.797920    7.097140
  C     10.190960   12.724560    7.965100
  C     10.881560   12.663230    9.266700
  C     11.665170   13.647810    9.755130
  S     11.977020   15.111320    8.919550
  C     10.538030   11.399890    9.814560
  C      9.694760   10.722230    8.929540
  C      9.313600    9.453920    9.425330
  C      9.865320    9.206270   10.640400
  S     10.863260   10.492730   11.238580
  C      9.453430   11.547340    7.782290
  C      8.594720   11.155540    6.696760
  C      7.920290   11.962620    5.878180
  H     -3.121160   -1.147010   -0.651520
  H     -2.466170    1.147550   -1.111460
  H     -6.275140   -0.708390   -3.964070
  H     -4.533470    5.142710   -5.021390
  H     -6.474030    4.417220   -6.566680
  H     -2.120500    3.238910   -1.682670
  H     -2.853410    5.328080   -3.791930
  H     -0.597570    4.580940   -0.663420
  H      3.372880    9.055240    0.899600
  H      2.928440   12.641600   -2.323030
  H      6.940700   17.116370   -0.855210
  H      8.990530   15.712770    3.116960
  H     10.461940   20.093520    0.957060
  H     13.157970   18.457960    6.309090
  H     14.093380   20.694770    5.406200
  H     10.082230   15.419890    4.929220
  H     12.012290   16.782640    6.868950
  H      9.945470   13.734270    6.116950
  H     12.149150   13.583650   10.717090
  H      8.668430    8.761830    8.914970
  H      9.752190    8.330030   11.248620
  H      8.473810   10.083960    6.587550
  H      7.930270   13.033670    5.982640
  H      7.295140   11.567020    5.096190

 Total Charge           Charge          ....    0
 Multiplicity           Mult            ....    1
 Number of Electrons    NEL             ....  572
 Basis Dimension        Dim             .... 1196

ORBITAL ENERGIES
----------------

  NO   OCC          E(Eh)            E(eV)
   0   2.0000     -88.987813     -2421.4815
   1   2.0000     -88.987723     -2421.4791
   2   2.0000     -88.985413     -2421.4162
   3   2.0000     -88.978370     -2421.2245
   4   2.0000     -88.974904     -2421.1302
   5   2.0000     -88.973235     -2421.0848
   6   2.0000     -88.957757     -2420.6636
   7   2.0000     -88.955495     -2420.6021
   8   2.0000     -88.955182     -2420.5936
   9   2.0000     -88.941841     -2420.2305
  10   2.0000     -14.429416      -392.6444
  11   2.0000     -14.428919      -392.6308
  12   2.0000     -14.426586      -392.5674
  13   2.0000     -14.426493      -392.5648
  14   2.0000     -10.362970      -281.9908
  15   2.0000     -10.358731      -281.8754
  16   2.0000     -10.349992      -281.6376
  17   2.0000     -10.346766      -281.5498
  18   2.0000     -10.329774      -281.0874
  19   2.0000     -10.329262      -281.0735
  20   2.0000     -10.329141      -281.0702
  21   2.0000     -10.328413      -281.0504
  22   2.0000     -10.328309      -281.0476
  23   2.0000     -10.327518      -281.0261
  24   2.0000     -10.327163      -281.0164
  25   2.0000     -10.326641      -281.0022
  26   2.0000     -10.326532      -280.9992
  27   2.0000     -10.326383      -280.9952
  28   2.0000     -10.325643      -280.9750
  29   2.0000     -10.324771      -280.9513
  30   2.0000     -10.322578      -280.8916
  31   2.0000     -10.318073      -280.7690
  32   2.0000     -10.314249      -280.6650
  33   2.0000     -10.312962      -280.6300
  34   2.0000     -10.312029      -280.6046
  35   2.0000     -10.304613      -280.4028
  36   2.0000     -10.300325      -280.2861
  37   2.0000     -10.299608      -280.2666
  38   2.0000     -10.298249      -280.2296
  39   2.0000     -10.297980      -280.2223
  40   2.0000     -10.297786      -280.2170
  41   2.0000     -10.297125      -280.1990
  42   2.0000     -10.296893      -280.1927
  43   2.0000     -10.295601      -280.1576
  44   2.0000     -10.295393      -280.1519
  45   2.0000     -10.295362      -280.1510
  46   2.0000     -10.295076      -280.1433
  47   2.0000     -10.294875      -280.1378
  48   2.0000     -10.294198      -280.1194
  49   2.0000     -10.287816      -279.9457
  50   2.0000     -10.285713      -279.8885
  51   2.0000     -10.284818      -279.8641
  52   2.0000     -10.284386      -279.8524
  53   2.0000     -10.283126      -279.8181
  54   2.0000     -10.283004      -279.8148
  55   2.0000     -10.281286      -279.7680
  56   2.0000     -10.281244      -279.7669
  57   2.0000     -10.277965      -279.6777
  58   2.0000     -10.275525      -279.6112
  59   2.0000     -10.275187      -279.6021
  60   2.0000     -10.274559      -279.5850
  61   2.0000     -10.274468      -279.5825
  62   2.0000     -10.274442      -279.5818
  63   2.0000     -10.273586      -279.5585
  64   2.0000     -10.273428      -279.5542
  65   2.0000     -10.273124      -279.5459
  66   2.0000     -10.272856      -279.5386
  67   2.0000     -10.269732      -279.4536
  68   2.0000     -10.267969      -279.4056
  69   2.0000     -10.261943      -279.2417
  70   2.0000     -10.260951      -279.2147
  71   2.0000     -10.256877      -279.1038
  72   2.0000     -10.254442      -279.0376
  73   2.0000     -10.249176      -278.8943
  74   2.0000      -8.082025      -219.9231
  75   2.0000      -8.081818      -219.9174
  76   2.0000      -8.079773      -219.8618
  77   2.0000      -8.073015      -219.6779
  78   2.0000      -8.070776      -219.6170
  79   2.0000      -8.068402      -219.5524
  80   2.0000      -8.053342      -219.1426
  81   2.0000      -8.050922      -219.0767
  82   2.0000      -8.050641      -219.0691
  83   2.0000      -8.037220      -218.7039
  84   2.0000      -6.051348      -164.6655
  85   2.0000      -6.051154      -164.6603
  86   2.0000      -6.049092      -164.6042
  87   2.0000      -6.047186      -164.5523
  88   2.0000      -6.047046      -164.5485
  89   2.0000      -6.044938      -164.4911
  90   2.0000      -6.044279      -164.4732
  91   2.0000      -6.044065      -164.4674
  92   2.0000      -6.042212      -164.4170
  93   2.0000      -6.042036      -164.4122
  94   2.0000      -6.040276      -164.3643
  95   2.0000      -6.038115      -164.3055
  96   2.0000      -6.038104      -164.3052
  97   2.0000      -6.035602      -164.2371
  98   2.0000      -6.035457      -164.2331
  99   2.0000      -6.033506      -164.1800
 100   2.0000      -6.032875      -164.1629
 101   2.0000      -6.030078      -164.0868
 102   2.0000      -6.022823      -163.8893
 103   2.0000      -6.020320      -163.8212
 104   2.0000      -6.020053      -163.8140
 105   2.0000      -6.018445      -163.7702
 106   2.0000      -6.016121      -163.7070
 107   2.0000      -6.015809      -163.6985
 108   2.0000      -6.015242      -163.6831
 109   2.0000      -6.013014      -163.6224
 110   2.0000      -6.012733      -163.6148
 111   2.0000      -6.006684      -163.4502
 112   2.0000      -6.002493      -163.3361
 113   2.0000      -5.999179      -163.2460
 114   2.0000      -1.042346       -28.3637
 115   2.0000      -1.036915       -28.2159
 116   2.0000      -1.020583       -27.7715
 117   2.0000      -1.017427       -27.6856
 118   2.0000      -1.006864       -27.3982
 119   2.0000      -1.005702       -27.3665
 120   2.0000      -1.004075       -27.3223
 121   2.0000      -1.003820       -27.3153
 122   2.0000      -0.998549       -27.1719
 123   2.0000      -0.988735       -26.9048
 124   2.0000      -0.986261       -26.8375
 125   2.0000      -0.969578       -26.3836
 126   2.0000      -0.967109       -26.3164
 127   2.0000      -0.956330       -26.0231
 128   2.0000      -0.955599       -26.0032
 129   2.0000      -0.949695       -25.8425
 130   2.0000      -0.927143       -25.2288
 131   2.0000      -0.925876       -25.1944
 132   2.0000      -0.916185       -24.9307
 133   2.0000      -0.911494       -24.8030
 134   2.0000      -0.905564       -24.6416
 135   2.0000      -0.892005       -24.2727
 136   2.0000      -0.886088       -24.1117
 137   2.0000      -0.882296       -24.0085
 138   2.0000      -0.873587       -23.7715
 139   2.0000      -0.866738       -23.5851
 140   2.0000      -0.861218       -23.4349
 141   2.0000      -0.858039       -23.3484
 142   2.0000      -0.852443       -23.1962
 143   2.0000      -0.846210       -23.0266
 144   2.0000      -0.844069       -22.9683
 145   2.0000      -0.839601       -22.8467
 146   2.0000      -0.830400       -22.5963
 147   2.0000      -0.824208       -22.4278
 148   2.0000      -0.820574       -22.3290
 149   2.0000      -0.806992       -21.9594
 150   2.0000      -0.803231       -21.8570
 151   2.0000      -0.799588       -21.7579
 152   2.0000      -0.790702       -21.5161
 153   2.0000      -0.781747       -21.2724
 154   2.0000      -0.774015       -21.0620
 155   2.0000      -0.768177       -20.9032
 156   2.0000      -0.761670       -20.7261
 157   2.0000      -0.750809       -20.4306
 158   2.0000      -0.739192       -20.1144
 159   2.0000      -0.725965       -19.7545
 160   2.0000      -0.721442       -19.6314
 161   2.0000      -0.711002       -19.3473
 162   2.0000      -0.709595       -19.3091
 163   2.0000      -0.703950       -19.1554
 164   2.0000      -0.695619       -18.9288
 165   2.0000      -0.689731       -18.7685
 166   2.0000      -0.683664       -18.6034
 167   2.0000      -0.678332       -18.4583
 168   2.0000      -0.674872       -18.3642
 169   2.0000      -0.665803       -18.1174
 170   2.0000      -0.656427       -17.8623
 171   2.0000      -0.652486       -17.7550
 172   2.0000      -0.649876       -17.6840
 173   2.0000      -0.646806       -17.6005
 174   2.0000      -0.641552       -17.4575
 175   2.0000      -0.635768       -17.3001
 176   2.0000      -0.627686       -17.0802
 177   2.0000      -0.624852       -17.0031
 178   2.0000      -0.621405       -16.9093
 179   2.0000      -0.619493       -16.8573
 180   2.0000      -0.617111       -16.7924
 181   2.0000      -0.614565       -16.7232
 182   2.0000      -0.607404       -16.5283
 183   2.0000      -0.607082       -16.5195
 184   2.0000      -0.602791       -16.4028
 185   2.0000      -0.589711       -16.0469
 186   2.0000      -0.588533       -16.0148
 187   2.0000      -0.578890       -15.7524
 188   2.0000      -0.573205       -15.5977
 189   2.0000      -0.569282       -15.4909
 190   2.0000      -0.563485       -15.3332
 191   2.0000      -0.560747       -15.2587
 192   2.0000      -0.558799       -15.2057
 193   2.0000      -0.558057       -15.1855
 194   2.0000      -0.548795       -14.9335
 195   2.0000      -0.546957       -14.8835
 196   2.0000      -0.545667       -14.8483
 197   2.0000      -0.543466       -14.7885
 198   2.0000      -0.539870       -14.6906
 199   2.0000      -0.536082       -14.5875
 200   2.0000      -0.528056       -14.3691
 201   2.0000      -0.525710       -14.3053
 202   2.0000      -0.519645       -14.1403
 203   2.0000      -0.512538       -13.9469
 204   2.0000      -0.511781       -13.9263
 205   2.0000      -0.511404       -13.9160
 206   2.0000      -0.508358       -13.8331
 207   2.0000      -0.507408       -13.8073
 208   2.0000      -0.506402       -13.7799
 209   2.0000      -0.505367       -13.7517
 210   2.0000      -0.504710       -13.7339
 211   2.0000      -0.499477       -13.5915
 212   2.0000      -0.498700       -13.5703
 213   2.0000      -0.496979       -13.5235
 214   2.0000      -0.494811       -13.4645
 215   2.0000      -0.492635       -13.4053
 216   2.0000      -0.491944       -13.3865
 217   2.0000      -0.491149       -13.3648
 218   2.0000      -0.487934       -13.2774
 219   2.0000      -0.484239       -13.1768
 220   2.0000      -0.482179       -13.1208
 221   2.0000      -0.475607       -12.9419
 222   2.0000      -0.474597       -12.9144
 223   2.0000      -0.471552       -12.8316
 224   2.0000      -0.467078       -12.7098
 225   2.0000      -0.460441       -12.5292
 226   2.0000      -0.458597       -12.4791
 227   2.0000      -0.458530       -12.4772
 228   2.0000      -0.457851       -12.4588
 229   2.0000      -0.456257       -12.4154
 230   2.0000      -0.455645       -12.3987
 231   2.0000      -0.454602       -12.3704
 232   2.0000      -0.454327       -12.3629
 233   2.0000      -0.453180       -12.3317
 234   2.0000      -0.450130       -12.2487
 235   2.0000      -0.448711       -12.2100
 236   2.0000      -0.444059       -12.0835
 237   2.0000      -0.440900       -11.9975
 238   2.0000      -0.439170       -11.9504
 239   2.0000      -0.439109       -11.9488
 240   2.0000      -0.437750       -11.9118
 241   2.0000      -0.437035       -11.8923
 242   2.0000      -0.436087       -11.8665
 243   2.0000      -0.434524       -11.8240
 244   2.0000      -0.433352       -11.7921
 245   2.0000      -0.431926       -11.7533
 246   2.0000      -0.430666       -11.7190
 247   2.0000      -0.429641       -11.6911
 248   2.0000      -0.429293       -11.6817
 249   2.0000      -0.426213       -11.5978
 250   2.0000      -0.424678       -11.5561
 251   2.0000      -0.420479       -11.4418
 252   2.0000      -0.420147       -11.4328
 253   2.0000      -0.418859       -11.3977
 254   2.0000      -0.416822       -11.3423
 255   2.0000      -0.416043       -11.3211
 256   2.0000      -0.415281       -11.3004
 257   2.0000      -0.413671       -11.2566
 258   2.0000      -0.410135       -11.1604
 259   2.0000      -0.404456       -11.0058
 260   2.0000      -0.402428       -10.9506
 261   2.0000      -0.395776       -10.7696
 262   2.0000      -0.394129       -10.7248
 263   2.0000      -0.391728       -10.6595
 264   2.0000      -0.386984       -10.5304
 265   2.0000      -0.385767       -10.4972
 266   2.0000      -0.381570       -10.3830
 267   2.0000      -0.366321        -9.9681
 268   2.0000      -0.349399        -9.5076
 269   2.0000      -0.346233        -9.4215
 270   2.0000      -0.342937        -9.3318
 271   2.0000      -0.340800        -9.2736
 272   2.0000      -0.339501        -9.2383
 273   2.0000      -0.326099        -8.8736
 274   2.0000      -0.319625        -8.6974
 275   2.0000      -0.319185        -8.6855
 276   2.0000      -0.316399        -8.6096
 277   2.0000      -0.312469        -8.5027
 278   2.0000      -0.297755        -8.1023
 279   2.0000      -0.281449        -7.6586
 280   2.0000      -0.277472        -7.5504
 281   2.0000      -0.269203        -7.3254
 282   2.0000      -0.256699        -6.9851
 283   2.0000      -0.239697        -6.5225
 284   2.0000      -0.220708        -6.0058
 285   2.0000      -0.206502        -5.6192
 286   0.0000      -0.105339        -2.8664
 287   0.0000      -0.098499        -2.6803
 288   0.0000      -0.065222        -1.7748
 289   0.0000      -0.053046        -1.4434
 290   0.0000      -0.033612        -0.9146

MULLIKEN ATOMIC CHARGES
-----------------------
   0 C :   -0.101773
   1 C :    0.037844
   2 C :    0.014037
   3 C :    0.076571
   4 C :   -0.145574
   5 S :    0.131361
   6 C :   -0.121579
   7 C :    0.057705
   8 C :   -0.008548
   9 C :   -0.069193
  10 S :    0.125787
  11 C :    0.084712
  12 C :   -0.011145
  13 C :    0.037652
  14 C :   -0.066598
  15 C :   -0.045833
  16 C :    0.008779
  17 C :   -0.110686
  18 S :    0.177529
  19 C :   -0.092713
  20 C :    0.004868
  21 C :    0.306415
  22 C :   -0.302166
  23 C :   -0.180347
  24 N :    0.163347
  25 C :   -0.188694
  26 N :    0.165457
  27 C :   -0.064936
  28 C :   -0.055808
  29 S :    0.185357
  30 C :   -0.045544
  31 C :   -0.070536
  32 C :    0.012368
  33 C :   -0.098490
  34 S :    0.191890
  35 C :   -0.092212
  36 C :    0.013929
  37 C :    0.303789
  38 C :   -0.296753
  39 C :   -0.186922
  40 N :    0.167155
  41 C :   -0.187024
  42 N :    0.174875
  43 C :   -0.056802
  44 C :   -0.064382
  45 S :    0.166627
  46 C :   -0.019942
  47 C :   -0.092440
  48 C :    0.051257
  49 C :    0.064285
  50 C :   -0.119317
  51 S :    0.124425
  52 C :   -0.115272
  53 C :    0.049794
  54 C :   -0.007068
  55 C :   -0.069949
  56 S :    0.129058
  57 C :    0.100853
  58 C :   -0.002818
  59 C :    0.033048
  60 C :   -0.073657
  61 C :   -0.045801
  62 C :    0.050646
  63 C :    0.063242
  64 C :   -0.135275
  65 S :    0.112995
  66 C :   -0.114608
  67 C :    0.057280
  68 C :    0.005353
  69 C :   -0.070250
  70 S :    0.113670
  71 C :    0.035464
  72 C :   -0.034771
  73 C :   -0.034476
  74 H :    0.047770
  75 H :   -0.005864
  76 H :    0.034806
  77 H :   -0.014162
  78 H :    0.024254
  79 H :   -0.033363
  80 H :   -0.052114
  81 H :    0.000749
  82 H :    0.008338
  83 H :    0.009661
  84 H :    0.019383
  85 H :   -0.009785
  86 H :    0.036004
  87 H :   -0.010245
  88 H :    0.025194
  89 H :   -0.041326
  90 H :   -0.045002
  91 H :   -0.034062
  92 H :    0.029120
  93 H :   -0.019362
  94 H :    0.021822
  95 H :   -0.012678
  96 H :    0.010658
  97 H :    0.010678
Sum of atomic charges:   -0.0000000

LOEWDIN ATOMIC CHARGES
----------------------
   0 C :   -0.181097
   1 C :   -0.026449
   2 C :   -0.017717
   3 C :   -0.047078
   4 C :   -0.143623
   5 S :    0.454654
   6 C :   -0.204053
   7 C :   -0.037156
   8 C :   -0.068216
   9 C :   -0.167830
  10 S :    0.422211
  11 C :   -0.058091
  12 C :    0.000929
  13 C :   -0.071933
  14 C :   -0.148526
  15 C :   -0.040561
  16 C :   -0.063021
  17 C :   -0.201508
  18 S :    0.467081
  19 C :   -0.167887
  20 C :   -0.079309
  21 C :    0.086679
  22 C :   -0.107523
  23 C :   -0.013767
  24 N :   -0.041021
  25 C :   -0.016071
  26 N :   -0.037995
  27 C :   -0.037311
  28 C :   -0.187165
  29 S :    0.476778
  30 C :   -0.175983
  31 C :   -0.043758
  32 C :   -0.069108
  33 C :   -0.181979
  34 S :    0.478625
  35 C :   -0.178240
  36 C :   -0.070875
  37 C :    0.084731
  38 C :   -0.102371
  39 C :   -0.015736
  40 N :   -0.034761
  41 C :   -0.016297
  42 N :   -0.032957
  43 C :   -0.041507
  44 C :   -0.178480
  45 S :    0.473501
  46 C :   -0.182876
  47 C :   -0.031413
  48 C :   -0.023338
  49 C :   -0.050101
  50 C :   -0.139353
  51 S :    0.453464
  52 C :   -0.198795
  53 C :   -0.037901
  54 C :   -0.065619
  55 C :   -0.166677
  56 S :    0.424420
  57 C :   -0.045028
  58 C :   -0.012088
  59 C :   -0.060451
  60 C :   -0.165690
  61 C :   -0.025135
  62 C :   -0.019263
  63 C :   -0.050433
  64 C :   -0.146129
  65 S :    0.436091
  66 C :   -0.208729
  67 C :   -0.039372
  68 C :   -0.065729
  69 C :   -0.168075
  70 S :    0.408789
  71 C :   -0.062748
  72 C :   -0.016245
  73 C :   -0.068651
  74 H :    0.032746
  75 H :    0.040487
  76 H :    0.035030
  77 H :    0.027143
  78 H :    0.023105
  79 H :    0.027597
  80 H :    0.023001
  81 H :    0.035853
  82 H :    0.034866
  83 H :    0.034485
  84 H :    0.034549
  85 H :    0.024975
  86 H :    0.036861
  87 H :    0.028841
  88 H :    0.023426
  89 H :    0.024505
  90 H :    0.020638
  91 H :    0.032516
  92 H :    0.033616
  93 H :    0.029382
  94 H :    0.021091
  95 H :    0.029055
  96 H :    0.015640
  97 H :    0.019438

  Mayer bond orders larger than 0.100000
B(  0-C ,  1-C ) :   1.6597 B(  0-C ,  5-S ) :   1.1026 B(  0-C , 74-H ) :   0.9386
B(  1-C ,  2-C ) :   1.2073 B(  1-C , 75-H ) :   0.9712 B(  2-C ,  3-C ) :   1.0549
B(  2-C , 11-C ) :   1.4122 B(  3-C ,  4-C ) :   1.5989 B(  3-C ,  6-C ) :   1.1838
B(  4-C ,  5-S ) :   1.1443 B(  4-C , 76-H ) :   0.9427 B(  6-C ,  7-C ) :   1.4631
B(  6-C , 10-S ) :   1.0758 B(  7-C ,  8-C ) :   1.2136 B(  7-C , 11-C ) :   1.0681
B(  8-C ,  9-C ) :   1.5861 B(  8-C , 77-H ) :   0.9991 B(  9-C , 10-S ) :   1.1596
B(  9-C , 78-H ) :   0.9646 B( 11-C , 12-C ) :   1.1808 B( 12-C , 13-C ) :   1.6370
B( 12-C , 79-H ) :   0.9608 B( 13-C , 14-C ) :   1.1263 B( 13-C , 80-H ) :   0.9629
B( 14-C , 15-C ) :   1.4401 B( 14-C , 18-S ) :   1.1136 B( 15-C , 16-C ) :   1.3085
B( 15-C , 81-H ) :   0.9890 B( 16-C , 17-C ) :   1.4350 B( 16-C , 21-C ) :   0.9951
B( 17-C , 18-S ) :   1.1031 B( 17-C , 19-C ) :   1.1999 B( 19-C , 20-C ) :   1.4380
B( 19-C , 29-S ) :   1.1248 B( 20-C , 21-C ) :   0.9994 B( 20-C , 27-C ) :   1.2942
B( 21-C , 22-C ) :   1.7050 B( 22-C , 23-C ) :   1.1369 B( 22-C , 25-C ) :   1.1316
B( 23-C , 24-N ) :   2.9825 B( 25-C , 26-N ) :   2.9919 B( 27-C , 28-C ) :   1.4657
B( 27-C , 82-H ) :   0.9875 B( 28-C , 29-S ) :   1.0937 B( 28-C , 30-C ) :   1.1717
B( 30-C , 31-C ) :   1.4582 B( 30-C , 34-S ) :   1.1065 B( 31-C , 32-C ) :   1.2978
B( 31-C , 83-H ) :   0.9866 B( 32-C , 33-C ) :   1.4429 B( 32-C , 37-C ) :   0.9958
B( 33-C , 34-S ) :   1.1117 B( 33-C , 35-C ) :   1.1947 B( 35-C , 36-C ) :   1.4425
B( 35-C , 45-S ) :   1.1194 B( 36-C , 37-C ) :   0.9984 B( 36-C , 43-C ) :   1.3042
B( 37-C , 38-C ) :   1.7084 B( 38-C , 39-C ) :   1.1334 B( 38-C , 41-C ) :   1.1345
B( 39-C , 40-N ) :   2.9893 B( 41-C , 42-N ) :   2.9900 B( 43-C , 44-C ) :   1.4527
B( 43-C , 84-H ) :   0.9795 B( 44-C , 45-S ) :   1.1013 B( 44-C , 46-C ) :   1.1713
B( 46-C , 47-C ) :   1.5271 B( 46-C , 51-S ) :   1.0495 B( 47-C , 48-C ) :   1.2516
B( 47-C , 85-H ) :   0.9588 B( 48-C , 49-C ) :   1.0483 B( 48-C , 57-C ) :   1.3726
B( 49-C , 50-C ) :   1.6187 B( 49-C , 52-C ) :   1.1746 B( 50-C , 51-S ) :   1.1296
B( 50-C , 86-H ) :   0.9400 B( 52-C , 53-C ) :   1.4534 B( 52-C , 56-S ) :   1.0806
B( 53-C , 54-C ) :   1.2124 B( 53-C , 57-C ) :   1.0685 B( 54-C , 55-C ) :   1.5882
B( 54-C , 87-H ) :   1.0000 B( 55-C , 56-S ) :   1.1555 B( 55-C , 88-H ) :   0.9645
B( 57-C , 58-C ) :   1.1994 B( 58-C , 59-C ) :   1.6437 B( 58-C , 89-H ) :   0.9492
B( 59-C , 60-C ) :   1.1092 B( 59-C , 90-H ) :   0.9651 B( 60-C , 61-C ) :   1.5401
B( 60-C , 65-S ) :   1.0462 B( 61-C , 62-C ) :   1.2336 B( 61-C , 91-H ) :   0.9594
B( 62-C , 63-C ) :   1.0417 B( 62-C , 71-C ) :   1.4292 B( 63-C , 64-C ) :   1.6103
B( 63-C , 66-C ) :   1.1872 B( 64-C , 65-S ) :   1.1377 B( 64-C , 92-H ) :   0.9412
B( 66-C , 67-C ) :   1.4320 B( 66-C , 70-S ) :   1.0669 B( 67-C , 68-C ) :   1.2101
B( 67-C , 71-C ) :   1.1284 B( 68-C , 69-C ) :   1.5881 B( 68-C , 93-H ) :   0.9982
B( 69-C , 70-S ) :   1.1497 B( 69-C , 94-H ) :   0.9667 B( 71-C , 72-C ) :   1.1011
B( 72-C , 73-C ) :   1.9205 B( 72-C , 95-H ) :   0.9555 B( 73-C , 96-H ) :   0.9551
B( 73-C , 97-H ) :   0.9461

-----------------------------------------------------------------------------
         ABSORPTION SPECTRUM VIA TRANSITION ELECTRIC DIPOLE MOMENTS
-----------------------------------------------------------------------------
State   Energy  Wavelength   fosc         T2         TX        TY        TZ
        (cm-1)    (nm)                  (au**2)     (au)      (au)      (au)
-----------------------------------------------------------------------------
   0    8110.1   1233.0   0.235884207   9.57518  -2.09771  -1.75952  -1.44183
   1    9114.3   1097.2   0.088007937   3.17888  -1.04166  -1.42784  -0.23474
   2   12628.5    791.9   0.089376470   2.32996  -0.55858  -1.34853   0.44654
   3   15178.2    658.8   0.041682210   0.90408   0.57426   0.08523   0.75302
   4   16410.8    609.4   0.557171758  11.17728  -1.72376   0.19828  -2.85773
   5   17547.1    569.9   0.104876087   1.96764   0.18656  -0.89392   1.06477
   6   18974.7    527.0   0.014801193   0.25680  -0.27837  -0.40391  -0.12715
   7   19953.2    501.2   0.451425503   7.44815  -1.60502  -2.15428  -0.48075
   8   20893.7    478.6   0.446990357   7.04302   1.21409   2.33840  -0.31760
   9   21063.4    474.8   0.512901063   8.01641   1.39023   2.46460   0.09717
  10   21403.5    467.2   0.114524886   1.76153  -0.40553  -1.18412   0.44153
  11   22617.8    442.1   0.716057007  10.42253  -2.15905  -2.25659  -0.81781
  12   23240.1    430.3   0.032123429   0.45505  -0.45532  -0.42433  -0.26016
  13   24346.7    410.7   0.561619502   7.59413  -1.44229  -2.34208   0.16916
  14   24714.4    404.6   0.202110415   2.69224   0.85773   1.39844  -0.03023
  15   25704.7    389.0   0.063322985   0.81101  -0.53564  -0.72300   0.03710
  16   26225.6    381.3   0.095704854   1.20139   0.31219  -0.40045   0.97137
  17   26473.3    377.7   0.034301760   0.42656   0.12456  -0.29203   0.57076
  18   26672.6    374.9   0.028790842   0.35536   0.27160  -0.02359   0.53013
  19   27584.2    362.5   0.190446031   2.27294   1.03327   0.92948   0.58427
  20   27608.5    362.2   0.013595227   0.16211   0.13126   0.34004  -0.17106
  21   27891.1    358.5   0.038689785   0.45667  -0.25838  -0.58341   0.22259
  22   28958.8    345.3   0.002274102   0.02585   0.02512   0.06210   0.14617
  23   29419.1    339.9   0.130886817   1.46468   0.17418   0.97994  -0.68851
  24   29662.3    337.1   0.024672592   0.27383  -0.29732  -0.04016  -0.42874
  25   30132.6    331.9   0.097141498   1.06132  -0.53338   0.16002  -0.86672
  26   30665.6    326.1   0.140128303   1.50435  -0.38490   0.50618  -1.04880
  27   31076.0    321.8   0.080951811   0.85759   0.62221   0.43998   0.52617
  28   31318.6    319.3   0.000694117   0.00730  -0.03887  -0.01877   0.07371
  29   31410.4    318.4   0.021722525   0.22767  -0.33623  -0.06693  -0.33188
  30   31541.3    317.0   0.224517730   2.34340   0.43277  -0.86677   1.18525
  31   31830.2    314.2   0.570431455   5.89982  -0.82461   1.19477  -1.94740
  32   31852.5    313.9   0.335395704   3.46649  -0.75098   0.81670  -1.49517
  33   32191.9    310.6   0.210190333   2.14952  -1.00527  -0.27973  -1.02991
  34   32223.5    310.3   0.067141952   0.68596   0.33341   0.74509  -0.14013
  35   32846.6    304.4   0.122985437   1.23265  -0.43410  -1.02066  -0.04962
  36   33045.9    302.6   0.170914699   1.70270   0.88018   0.91840   0.29072
  37   33180.0    301.4   0.468859592   4.65202  -0.40118  -1.88376   0.97084
  38   33516.4    298.4   0.119536551   1.17414  -0.20540   0.66293  -0.83215
  39   33895.2    295.0   0.001503736   0.01461   0.07752  -0.02428   0.08948
  40   34515.8    289.7   0.304457060   2.90391   1.01575   1.36580   0.08212
  41   34714.0    288.1   0.035452147   0.33621  -0.09695   0.36852  -0.43704
  42   35135.4    284.6   0.027637949   0.25896  -0.33329   0.02359  -0.38383
  43   35214.1    284.0   0.071642603   0.66978  -0.17901  -0.70613   0.37298
  44   35344.2    282.9   0.006406693   0.05967   0.16612   0.04134   0.17427
  45   35477.3    281.9   0.008213074   0.07621   0.13824   0.16045   0.17708
  46   35680.0    280.3   0.043751254   0.40368  -0.12969  -0.56075   0.26912
  47   35766.1    279.6   0.072519078   0.66751   0.43998   0.67302   0.14482
  48   36161.8    276.5   0.038503014   0.35053   0.35374  -0.03481   0.47348
  49   36209.5    276.2   0.323964489   2.94544   0.76322   1.50908  -0.29259
  50   36417.2    274.6   0.032492571   0.29373   0.20122  -0.29087   0.41066
  51   36763.5    272.0   0.000203346   0.00182   0.02474   0.02572   0.02339
  52   37273.3    268.3   0.109354235   0.96586  -0.63743  -0.33814  -0.66724
  53   37566.1    266.2   0.195057156   1.70939   0.89420   0.52405   0.79697
  54   38142.0    262.2   0.027136408   0.23422   0.38578   0.15670   0.24666
  55   38247.6    261.5   0.222237137   1.91288   0.95897   0.44901   0.88975
  56   38412.3    260.3   0.054057071   0.46329  -0.47152  -0.18573  -0.45439
  57   38513.3    259.7   0.001994441   0.01705   0.04071  -0.08282   0.09237
  58   38549.4    259.4   0.033573720   0.28672   0.18973   0.48590  -0.12092
  59   38610.1    259.0   0.059640468   0.50853   0.18469   0.64611  -0.23866
  60   39063.8    256.0   0.032067323   0.27025   0.33714   0.29040   0.26881
  61   39080.7    255.9   0.018205029   0.15336   0.09404  -0.30742   0.22362
  62   39561.6    252.8   0.059750546   0.49721  -0.10108   0.47120  -0.51475
  63   39810.1    251.2   0.057160823   0.47269   0.46489   0.42162   0.28073
  64   39979.3    250.1   0.004679882   0.03854  -0.13865  -0.10365   0.09257
  65   40159.5    249.0   0.007761833   0.06363  -0.19435  -0.02820  -0.15831

FINAL SINGLE POINT ENERGY     -6497.072065587398

DIPOLE MOMENT
-------------
                                X             Y             Z
Electronic contribution:     -9.58653      10.09278     -23.12020
Nuclear contribution   :      8.71468     -11.11428      22.66203
                        -----------------------------------------
Total Dipole Moment    :     -0.87185      -1.02150      -0.45818
                        -----------------------------------------
Magnitude (a.u.)       :      1.41898
Magnitude (Debye)      :      3.60677

Rotational constants in cm-1:     0.001020     0.000195     0.000164
Rotational constants in MHz :    30.592506     5.851549     4.920674

                             ****ORCA TERMINATED NORMALLY****
TOTAL RUN TIME: 0 days 0 hours 11 minutes 26 seconds 343 msec
