                         Program Version 4.2.0 -  RELEASE  -
|  1> # ORCA input file
|  2> # SCF done       -158.708767411729          0.000955568151
|  3> ! CAM-B3LYP def2-SVP def2/J RIJCOSX Grid4 TightSCF
|  4> %maxcore 5000
|  5> %tddft
|  6>     Mode sTDDFT
|  7>     Ethresh 5.0
|  8>     maxcore 5000
|  9> end
| 10>
| 11> %pal
| 12>   nprocs 6
| 13>   end
| 14> * xyz 0 1
| 15>    C        4.21776         1.37145        -1.11662
| 16>    C        3.47907         2.36455        -1.65568
| 17>    C        2.83198         2.27325        -2.90709
| 18>    C        3.03766         1.07865        -3.74577
| 19>    C        3.72470        -0.02122        -3.37123
| 20>    S        4.49442        -0.18369        -1.84283
| 21>    C        2.36852         1.35966        -4.96886
| 22>    C        1.79002         2.62372        -4.90243
| 23>    C        1.10016         2.95751        -6.08851
| 24>    C        1.17608         1.95988        -7.00793
| 25>    S        2.07399         0.57855        -6.47439
| 26>    C        2.05343         3.19737        -3.60330
| 27>    C        1.54510         4.46941        -3.21050
| 28>    C        1.32949         4.89434        -1.94366
| 29>    C        0.82392         6.17468        -1.58802
| 30>    N        0.52390         6.46475        -0.27019
| 31>    C        0.06665         7.74319        -0.19762
| 32>    C       -0.40245         8.72273         0.67197
| 33>    C       -0.65883         9.85111        -0.11558
| 34>    N       -0.35312         9.56194        -1.43296
| 35>    C        0.08976         8.27973        -1.50728
| 36>    C        0.56115         7.29786        -2.37657
| 37>    C       -1.13396        11.13420         0.25130
| 38>    C       -1.48420        11.50709         1.50775
| 39>    C       -1.93553        12.79905         1.89532
| 40>    C       -2.28380        13.08137         3.19531
| 41>    C       -2.72972        14.31439         3.67580
| 42>    C       -2.94597        15.43314         2.74263
| 43>    C       -2.66382        15.39387         1.42476
| 44>    S       -2.00934        14.02268         0.62470
| 45>    C       -3.49545        16.48305         3.52728
| 46>    C       -3.61351        16.06215         4.84869
| 47>    C       -4.14992        17.06954         5.68143
| 48>    C       -4.42223        18.20306         4.98420
| 49>    S       -4.03795        18.10015         3.29760
| 50>    C       -3.11959        14.71181         4.96677
| 51>    C       -3.09297        14.03269         6.21199
| 52>    C       -2.39304        12.91847         6.54430
| 53>    C       -2.44552        12.28394         7.81322
| 54>    N       -1.66223        11.17507         8.07538
| 55>    C       -1.91333        10.75129         9.34321
| 56>    C       -1.58652         9.79038        10.29458
| 57>    C       -2.36062        10.08161        11.42382
| 58>    N       -3.13775        11.19636        11.16335
| 59>    C       -2.88382        11.61999         9.89803
| 60>    C       -3.21670        12.57690         8.94275
| 61>    C       -2.43748         9.42773        12.67912
| 62>    C       -1.74416         8.31192        13.01487
| 63>    C       -1.79981         7.62027        14.26188
| 64>    C       -2.51059         8.00796        15.36808
| 65>    C       -2.56184         7.31582        16.58391
| 66>    C       -1.74315         6.10589        16.79545
| 67>    C       -0.97226         5.53477        15.84646
| 68>    S       -0.82973         6.14377        14.25037
| 69>    C       -1.95790         5.73848        18.14917
| 70>    C       -2.84196         6.64117        18.74069
| 71>    C       -3.10357         6.32032        20.09236
| 72>    C       -2.42627         5.21055        20.48370
| 73>    S       -1.44709         4.50676        19.23842
| 74>    C       -3.24010         7.61934        17.76634
| 75>    C       -4.17404         8.67413        18.05929
| 76>    C       -4.96812         9.30800        17.19767
| 77>    H        4.71364         1.46840        -0.16605
| 78>    H        3.41367         3.29348        -1.10785
| 79>    H        3.83348        -0.88287        -4.01069
| 80>    H        0.57571         3.88052        -6.25896
| 81>    H        0.74992         1.93778        -7.99173
| 82>    H        1.26089         5.12213        -4.02521
| 83>    H        1.50745         4.21851        -1.11788
| 84>    H        0.60897         5.81134         0.48904
| 85>    H       -0.54401         8.65044         1.73118
| 86>    H       -0.45394        10.21100        -2.19383
| 87>    H        0.70936         7.37142        -3.43473
| 88>    H       -1.21183        11.85934        -0.54973
| 89>    H       -1.42093        10.78102         2.30600
| 90>    H       -2.22872        12.25247         3.88598
| 91>    H       -2.82620        16.23597         0.77050
| 92>    H       -4.32669        16.96926         6.73731
| 93>    H       -4.83385        19.12167         5.35492
| 94>    H       -3.68473        14.49908         6.98879
| 95>    H       -1.71766        12.47104         5.82874
| 96>    H       -1.01354        10.77057         7.42323
| 97>    H       -0.88703         8.98434        10.20425
| 98>    H       -3.78575        11.60251        11.81575
| 99>    H       -3.92111        13.37846         9.03307
|100>    H       -3.11359         9.87521        13.39596
|101>    H       -1.08739         7.87456        12.27607
|102>    H       -3.05090         8.94000        15.30348
|103>    H       -0.39087         4.64444        16.02721
|104>    H       -3.75620         6.87491        20.74285
|105>    H       -2.43362         4.74035        21.44798
|106>    H       -4.24021         8.92991        19.11104
|107>    H       -5.00677         9.05524        16.15263
|108>    H       -5.63796        10.08499        17.52472
|109> *
|110>
|111>                          ****END OF INPUT****

CARTESIAN COORDINATES (ANGSTROEM)
---------------------------------
  C      4.217760    1.371450   -1.116620
  C      3.479070    2.364550   -1.655680
  C      2.831980    2.273250   -2.907090
  C      3.037660    1.078650   -3.745770
  C      3.724700   -0.021220   -3.371230
  S      4.494420   -0.183690   -1.842830
  C      2.368520    1.359660   -4.968860
  C      1.790020    2.623720   -4.902430
  C      1.100160    2.957510   -6.088510
  C      1.176080    1.959880   -7.007930
  S      2.073990    0.578550   -6.474390
  C      2.053430    3.197370   -3.603300
  C      1.545100    4.469410   -3.210500
  C      1.329490    4.894340   -1.943660
  C      0.823920    6.174680   -1.588020
  N      0.523900    6.464750   -0.270190
  C      0.066650    7.743190   -0.197620
  C     -0.402450    8.722730    0.671970
  C     -0.658830    9.851110   -0.115580
  N     -0.353120    9.561940   -1.432960
  C      0.089760    8.279730   -1.507280
  C      0.561150    7.297860   -2.376570
  C     -1.133960   11.134200    0.251300
  C     -1.484200   11.507090    1.507750
  C     -1.935530   12.799050    1.895320
  C     -2.283800   13.081370    3.195310
  C     -2.729720   14.314390    3.675800
  C     -2.945970   15.433140    2.742630
  C     -2.663820   15.393870    1.424760
  S     -2.009340   14.022680    0.624700
  C     -3.495450   16.483050    3.527280
  C     -3.613510   16.062150    4.848690
  C     -4.149920   17.069540    5.681430
  C     -4.422230   18.203060    4.984200
  S     -4.037950   18.100150    3.297600
  C     -3.119590   14.711810    4.966770
  C     -3.092970   14.032690    6.211990
  C     -2.393040   12.918470    6.544300
  C     -2.445520   12.283940    7.813220
  N     -1.662230   11.175070    8.075380
  C     -1.913330   10.751290    9.343210
  C     -1.586520    9.790380   10.294580
  C     -2.360620   10.081610   11.423820
  N     -3.137750   11.196360   11.163350
  C     -2.883820   11.619990    9.898030
  C     -3.216700   12.576900    8.942750
  C     -2.437480    9.427730   12.679120
  C     -1.744160    8.311920   13.014870
  C     -1.799810    7.620270   14.261880
  C     -2.510590    8.007960   15.368080
  C     -2.561840    7.315820   16.583910
  C     -1.743150    6.105890   16.795450
  C     -0.972260    5.534770   15.846460
  S     -0.829730    6.143770   14.250370
  C     -1.957900    5.738480   18.149170
  C     -2.841960    6.641170   18.740690
  C     -3.103570    6.320320   20.092360
  C     -2.426270    5.210550   20.483700
  S     -1.447090    4.506760   19.238420
  C     -3.240100    7.619340   17.766340
  C     -4.174040    8.674130   18.059290
  C     -4.968120    9.308000   17.197670
  H      4.713640    1.468400   -0.166050
  H      3.413670    3.293480   -1.107850
  H      3.833480   -0.882870   -4.010690
  H      0.575710    3.880520   -6.258960
  H      0.749920    1.937780   -7.991730
  H      1.260890    5.122130   -4.025210
  H      1.507450    4.218510   -1.117880
  H      0.608970    5.811340    0.489040
  H     -0.544010    8.650440    1.731180
  H     -0.453940   10.211000   -2.193830
  H      0.709360    7.371420   -3.434730
  H     -1.211830   11.859340   -0.549730
  H     -1.420930   10.781020    2.306000
  H     -2.228720   12.252470    3.885980
  H     -2.826200   16.235970    0.770500
  H     -4.326690   16.969260    6.737310
  H     -4.833850   19.121670    5.354920
  H     -3.684730   14.499080    6.988790
  H     -1.717660   12.471040    5.828740
  H     -1.013540   10.770570    7.423230
  H     -0.887030    8.984340   10.204250
  H     -3.785750   11.602510   11.815750
  H     -3.921110   13.378460    9.033070
  H     -3.113590    9.875210   13.395960
  H     -1.087390    7.874560   12.276070
  H     -3.050900    8.940000   15.303480
  H     -0.390870    4.644440   16.027210
  H     -3.756200    6.874910   20.742850
  H     -2.433620    4.740350   21.447980
  H     -4.240210    8.929910   19.111040
  H     -5.006770    9.055240   16.152630
  H     -5.637960   10.084990   17.524720

 Total Charge           Charge          ....    0
 Multiplicity           Mult            ....    1
 Number of Electrons    NEL             ....  468
 Basis Dimension        Dim             .... 1052

ORBITAL ENERGIES
----------------

  NO   OCC          E(Eh)            E(eV)
   0   2.0000     -88.961889     -2420.7761
   1   2.0000     -88.955578     -2420.6043
   2   2.0000     -88.953228     -2420.5404
   3   2.0000     -88.945899     -2420.3410
   4   2.0000     -88.943331     -2420.2711
   5   2.0000     -88.938587     -2420.1420
   6   2.0000     -14.447156      -393.1271
   7   2.0000     -14.445949      -393.0943
   8   2.0000     -14.444983      -393.0680
   9   2.0000     -14.443349      -393.0235
  10   2.0000     -10.314623      -280.6752
  11   2.0000     -10.310428      -280.5610
  12   2.0000     -10.307583      -280.4836
  13   2.0000     -10.303597      -280.3751
  14   2.0000     -10.301132      -280.3080
  15   2.0000     -10.300627      -280.2943
  16   2.0000     -10.293562      -280.1021
  17   2.0000     -10.293085      -280.0891
  18   2.0000     -10.291209      -280.0380
  19   2.0000     -10.291179      -280.0372
  20   2.0000     -10.286371      -279.9064
  21   2.0000     -10.286008      -279.8965
  22   2.0000     -10.283806      -279.8366
  23   2.0000     -10.283630      -279.8318
  24   2.0000     -10.280960      -279.7591
  25   2.0000     -10.280797      -279.7547
  26   2.0000     -10.280183      -279.7380
  27   2.0000     -10.279819      -279.7281
  28   2.0000     -10.278706      -279.6978
  29   2.0000     -10.277610      -279.6680
  30   2.0000     -10.277282      -279.6591
  31   2.0000     -10.275390      -279.6076
  32   2.0000     -10.275071      -279.5989
  33   2.0000     -10.274541      -279.5845
  34   2.0000     -10.273374      -279.5527
  35   2.0000     -10.270710      -279.4802
  36   2.0000     -10.270352      -279.4705
  37   2.0000     -10.269502      -279.4474
  38   2.0000     -10.269498      -279.4472
  39   2.0000     -10.268053      -279.4079
  40   2.0000     -10.266582      -279.3679
  41   2.0000     -10.266456      -279.3645
  42   2.0000     -10.265409      -279.3360
  43   2.0000     -10.264932      -279.3230
  44   2.0000     -10.264001      -279.2977
  45   2.0000     -10.263495      -279.2839
  46   2.0000     -10.262738      -279.2633
  47   2.0000     -10.262329      -279.2522
  48   2.0000     -10.261136      -279.2197
  49   2.0000     -10.260422      -279.2003
  50   2.0000     -10.260172      -279.1935
  51   2.0000     -10.258219      -279.1403
  52   2.0000     -10.258162      -279.1388
  53   2.0000     -10.257977      -279.1337
  54   2.0000     -10.257011      -279.1074
  55   2.0000     -10.253571      -279.0139
  56   2.0000     -10.253039      -278.9994
  57   2.0000     -10.251564      -278.9592
  58   2.0000     -10.249843      -278.9124
  59   2.0000     -10.249119      -278.8927
  60   2.0000     -10.247025      -278.8357
  61   2.0000     -10.244640      -278.7708
  62   2.0000      -8.057816      -219.2643
  63   2.0000      -8.050945      -219.0774
  64   2.0000      -8.048893      -219.0215
  65   2.0000      -8.041260      -218.8138
  66   2.0000      -8.038661      -218.7431
  67   2.0000      -8.033987      -218.6159
  68   2.0000      -6.027361      -164.0128
  69   2.0000      -6.022786      -163.8883
  70   2.0000      -6.020491      -163.8259
  71   2.0000      -6.019733      -163.8053
  72   2.0000      -6.018385      -163.7686
  73   2.0000      -6.016106      -163.7066
  74   2.0000      -6.014006      -163.6494
  75   2.0000      -6.012775      -163.6159
  76   2.0000      -6.010752      -163.5609
  77   2.0000      -6.010735      -163.5604
  78   2.0000      -6.008097      -163.4886
  79   2.0000      -6.006503      -163.4452
  80   2.0000      -6.003931      -163.3753
  81   2.0000      -6.003452      -163.3622
  82   2.0000      -6.003248      -163.3567
  83   2.0000      -6.000669      -163.2865
  84   2.0000      -5.999271      -163.2485
  85   2.0000      -5.995935      -163.1577
  86   2.0000      -1.077415       -29.3179
  87   2.0000      -1.075111       -29.2553
  88   2.0000      -1.041274       -28.3345
  89   2.0000      -1.038876       -28.2692
  90   2.0000      -0.992176       -26.9985
  91   2.0000      -0.988943       -26.9105
  92   2.0000      -0.984729       -26.7958
  93   2.0000      -0.955796       -26.0085
  94   2.0000      -0.955128       -25.9904
  95   2.0000      -0.951953       -25.9040
  96   2.0000      -0.914522       -24.8854
  97   2.0000      -0.913425       -24.8556
  98   2.0000      -0.909224       -24.7412
  99   2.0000      -0.894363       -24.3369
 100   2.0000      -0.890872       -24.2419
 101   2.0000      -0.882305       -24.0087
 102   2.0000      -0.875344       -23.8193
 103   2.0000      -0.866935       -23.5905
 104   2.0000      -0.862754       -23.4767
 105   2.0000      -0.860080       -23.4040
 106   2.0000      -0.851564       -23.1722
 107   2.0000      -0.849514       -23.1164
 108   2.0000      -0.845237       -23.0001
 109   2.0000      -0.840437       -22.8694
 110   2.0000      -0.835045       -22.7227
 111   2.0000      -0.828089       -22.5335
 112   2.0000      -0.823671       -22.4132
 113   2.0000      -0.816855       -22.2278
 114   2.0000      -0.797440       -21.6994
 115   2.0000      -0.795461       -21.6456
 116   2.0000      -0.792711       -21.5708
 117   2.0000      -0.782725       -21.2990
 118   2.0000      -0.776586       -21.1320
 119   2.0000      -0.763055       -20.7638
 120   2.0000      -0.752266       -20.4702
 121   2.0000      -0.741136       -20.1673
 122   2.0000      -0.731752       -19.9120
 123   2.0000      -0.724011       -19.7014
 124   2.0000      -0.706992       -19.2382
 125   2.0000      -0.702901       -19.1269
 126   2.0000      -0.696423       -18.9506
 127   2.0000      -0.690823       -18.7982
 128   2.0000      -0.684114       -18.6157
 129   2.0000      -0.680641       -18.5212
 130   2.0000      -0.679516       -18.4906
 131   2.0000      -0.678502       -18.4630
 132   2.0000      -0.663035       -18.0421
 133   2.0000      -0.657155       -17.8821
 134   2.0000      -0.650409       -17.6985
 135   2.0000      -0.643137       -17.5006
 136   2.0000      -0.642203       -17.4752
 137   2.0000      -0.632536       -17.2122
 138   2.0000      -0.626374       -17.0445
 139   2.0000      -0.625598       -17.0234
 140   2.0000      -0.620803       -16.8929
 141   2.0000      -0.615044       -16.7362
 142   2.0000      -0.613641       -16.6980
 143   2.0000      -0.604828       -16.4582
 144   2.0000      -0.602896       -16.4056
 145   2.0000      -0.600986       -16.3536
 146   2.0000      -0.593870       -16.1600
 147   2.0000      -0.584298       -15.8996
 148   2.0000      -0.577743       -15.7212
 149   2.0000      -0.575220       -15.6525
 150   2.0000      -0.568732       -15.4760
 151   2.0000      -0.561963       -15.2918
 152   2.0000      -0.554448       -15.0873
 153   2.0000      -0.550345       -14.9757
 154   2.0000      -0.549007       -14.9392
 155   2.0000      -0.545804       -14.8521
 156   2.0000      -0.540834       -14.7168
 157   2.0000      -0.538614       -14.6564
 158   2.0000      -0.535738       -14.5782
 159   2.0000      -0.532846       -14.4995
 160   2.0000      -0.532448       -14.4886
 161   2.0000      -0.522777       -14.2255
 162   2.0000      -0.520394       -14.1606
 163   2.0000      -0.518560       -14.1107
 164   2.0000      -0.513852       -13.9826
 165   2.0000      -0.512238       -13.9387
 166   2.0000      -0.509665       -13.8687
 167   2.0000      -0.507634       -13.8134
 168   2.0000      -0.506115       -13.7721
 169   2.0000      -0.501685       -13.6515
 170   2.0000      -0.497301       -13.5323
 171   2.0000      -0.494707       -13.4617
 172   2.0000      -0.494480       -13.4555
 173   2.0000      -0.493272       -13.4226
 174   2.0000      -0.491094       -13.3634
 175   2.0000      -0.488482       -13.2923
 176   2.0000      -0.486634       -13.2420
 177   2.0000      -0.483172       -13.1478
 178   2.0000      -0.481737       -13.1087
 179   2.0000      -0.476990       -12.9795
 180   2.0000      -0.474542       -12.9129
 181   2.0000      -0.464898       -12.6505
 182   2.0000      -0.461872       -12.5682
 183   2.0000      -0.457505       -12.4493
 184   2.0000      -0.453171       -12.3314
 185   2.0000      -0.452034       -12.3005
 186   2.0000      -0.450241       -12.2517
 187   2.0000      -0.448037       -12.1917
 188   2.0000      -0.447979       -12.1901
 189   2.0000      -0.446620       -12.1532
 190   2.0000      -0.444004       -12.0820
 191   2.0000      -0.438264       -11.9258
 192   2.0000      -0.437312       -11.8999
 193   2.0000      -0.435163       -11.8414
 194   2.0000      -0.432813       -11.7774
 195   2.0000      -0.429223       -11.6798
 196   2.0000      -0.427426       -11.6309
 197   2.0000      -0.424658       -11.5555
 198   2.0000      -0.422222       -11.4893
 199   2.0000      -0.420914       -11.4536
 200   2.0000      -0.413058       -11.2399
 201   2.0000      -0.411983       -11.2106
 202   2.0000      -0.409383       -11.1399
 203   2.0000      -0.407138       -11.0788
 204   2.0000      -0.404005       -10.9935
 205   2.0000      -0.402301       -10.9472
 206   2.0000      -0.399155       -10.8616
 207   2.0000      -0.398090       -10.8326
 208   2.0000      -0.396726       -10.7955
 209   2.0000      -0.394216       -10.7272
 210   2.0000      -0.391346       -10.6491
 211   2.0000      -0.390064       -10.6142
 212   2.0000      -0.386792       -10.5251
 213   2.0000      -0.372661       -10.1406
 214   2.0000      -0.363064        -9.8795
 215   2.0000      -0.360684        -9.8147
 216   2.0000      -0.351715        -9.5706
 217   2.0000      -0.349423        -9.5083
 218   2.0000      -0.336678        -9.1615
 219   2.0000      -0.326373        -8.8810
 220   2.0000      -0.323083        -8.7915
 221   2.0000      -0.310083        -8.4378
 222   2.0000      -0.307259        -8.3610
 223   2.0000      -0.303980        -8.2717
 224   2.0000      -0.279357        -7.6017
 225   2.0000      -0.277010        -7.5378
 226   2.0000      -0.272229        -7.4077
 227   2.0000      -0.268544        -7.3074
 228   2.0000      -0.264413        -7.1950
 229   2.0000      -0.253573        -6.9001
 230   2.0000      -0.240643        -6.5482
 231   2.0000      -0.222766        -6.0618
 232   2.0000      -0.203008        -5.5241
 233   2.0000      -0.185303        -5.0424
 234   0.0000      -0.057324        -1.5599
 235   0.0000      -0.039298        -1.0694
 236   0.0000      -0.031058        -0.8451
 237   0.0000      -0.014728        -0.4008
 238   0.0000      -0.013487        -0.3670

MULLIKEN ATOMIC CHARGES
-----------------------
   0 C :   -0.108372
   1 C :    0.033885
   2 C :    0.000142
   3 C :    0.066119
   4 C :   -0.149788
   5 S :    0.112080
   6 C :   -0.114450
   7 C :    0.052944
   8 C :    0.006950
   9 C :   -0.071618
  10 S :    0.117564
  11 C :    0.083924
  12 C :   -0.042124
  13 C :   -0.006772
  14 C :    0.102165
  15 N :   -0.039957
  16 C :    0.110494
  17 C :   -0.181298
  18 C :    0.100668
  19 N :   -0.037761
  20 C :    0.116498
  21 C :   -0.186024
  22 C :    0.013485
  23 C :   -0.034320
  24 C :   -0.015401
  25 C :   -0.068874
  26 C :    0.053329
  27 C :    0.062823
  28 C :   -0.128976
  29 S :    0.086193
  30 C :   -0.110934
  31 C :    0.049109
  32 C :    0.005416
  33 C :   -0.072677
  34 S :    0.115978
  35 C :    0.094018
  36 C :   -0.045454
  37 C :   -0.007258
  38 C :    0.106809
  39 N :   -0.040838
  40 C :    0.111791
  41 C :   -0.180892
  42 C :    0.096949
  43 N :   -0.038607
  44 C :    0.118533
  45 C :   -0.188768
  46 C :    0.027354
  47 C :    0.018437
  48 C :   -0.067192
  49 C :   -0.052302
  50 C :    0.051461
  51 C :    0.060434
  52 C :   -0.136407
  53 S :    0.112273
  54 C :   -0.114865
  55 C :    0.055916
  56 C :    0.005511
  57 C :   -0.072919
  58 S :    0.111347
  59 C :    0.032163
  60 C :   -0.033633
  61 C :   -0.037102
  62 H :    0.037444
  63 H :   -0.018464
  64 H :    0.030754
  65 H :   -0.022471
  66 H :    0.021237
  67 H :   -0.027348
  68 H :   -0.038163
  69 H :    0.115372
  70 H :   -0.044154
  71 H :    0.116802
  72 H :   -0.040377
  73 H :   -0.020552
  74 H :   -0.019936
  75 H :   -0.035640
  76 H :    0.028118
  77 H :   -0.021262
  78 H :    0.020164
  79 H :   -0.032568
  80 H :   -0.043580
  81 H :    0.114898
  82 H :   -0.040870
  83 H :    0.117623
  84 H :   -0.040973
  85 H :   -0.032301
  86 H :   -0.023121
  87 H :   -0.035093
  88 H :    0.027759
  89 H :   -0.022376
  90 H :    0.019539
  91 H :   -0.017684
  92 H :    0.008358
  93 H :    0.011685
Sum of atomic charges:   -0.0000000

LOEWDIN ATOMIC CHARGES
----------------------
   0 C :   -0.191235
   1 C :   -0.030624
   2 C :   -0.034576
   3 C :   -0.044894
   4 C :   -0.147306
   5 S :    0.433378
   6 C :   -0.207146
   7 C :   -0.040828
   8 C :   -0.065700
   9 C :   -0.170129
  10 S :    0.412261
  11 C :   -0.053304
  12 C :   -0.021504
  13 C :   -0.047341
  14 C :    0.000029
  15 N :    0.064940
  16 C :   -0.026166
  17 C :   -0.095992
  18 C :   -0.009746
  19 N :    0.067890
  20 C :   -0.021099
  21 C :   -0.104078
  22 C :   -0.044167
  23 C :   -0.056792
  24 C :   -0.159727
  25 C :   -0.034172
  26 C :   -0.029792
  27 C :   -0.048167
  28 C :   -0.146610
  29 S :    0.426856
  30 C :   -0.205644
  31 C :   -0.040843
  32 C :   -0.066034
  33 C :   -0.171042
  34 S :    0.411209
  35 C :   -0.053156
  36 C :   -0.020326
  37 C :   -0.051290
  38 C :    0.003500
  39 N :    0.064355
  40 C :   -0.025969
  41 C :   -0.094010
  42 C :   -0.010964
  43 N :    0.067574
  44 C :   -0.019927
  45 C :   -0.105562
  46 C :   -0.022644
  47 C :   -0.065143
  48 C :   -0.162089
  49 C :   -0.032912
  50 C :   -0.018030
  51 C :   -0.049845
  52 C :   -0.148438
  53 S :    0.433701
  54 C :   -0.210297
  55 C :   -0.039333
  56 C :   -0.067263
  57 C :   -0.170731
  58 S :    0.406143
  59 C :   -0.067834
  60 C :   -0.017608
  61 C :   -0.070328
  62 H :    0.027688
  63 H :    0.035567
  64 H :    0.032937
  65 H :    0.028241
  66 H :    0.021056
  67 H :    0.026307
  68 H :    0.021785
  69 H :    0.085577
  70 H :    0.019797
  71 H :    0.086688
  72 H :    0.020619
  73 H :    0.017369
  74 H :    0.029878
  75 H :    0.030679
  76 H :    0.032766
  77 H :    0.027994
  78 H :    0.020635
  79 H :    0.026527
  80 H :    0.019962
  81 H :    0.085108
  82 H :    0.020866
  83 H :    0.086513
  84 H :    0.020189
  85 H :    0.025169
  86 H :    0.021831
  87 H :    0.031683
  88 H :    0.032713
  89 H :    0.027999
  90 H :    0.020258
  91 H :    0.027178
  92 H :    0.015190
  93 H :    0.019755

  Mayer bond orders larger than 0.100000
B(  0-C ,  1-C ) :   1.6651 B(  0-C ,  5-S ) :   1.0878 B(  0-C , 62-H ) :   0.9415
B(  1-C ,  2-C ) :   1.1938 B(  1-C , 63-H ) :   0.9666 B(  2-C ,  3-C ) :   1.0471
B(  2-C , 11-C ) :   1.4560 B(  3-C ,  4-C ) :   1.6180 B(  3-C ,  6-C ) :   1.1805
B(  4-C ,  5-S ) :   1.1307 B(  4-C , 64-H ) :   0.9413 B(  6-C ,  7-C ) :   1.4553
B(  6-C , 10-S ) :   1.0691 B(  7-C ,  8-C ) :   1.2214 B(  7-C , 11-C ) :   1.0959
B(  8-C ,  9-C ) :   1.5827 B(  8-C , 65-H ) :   0.9974 B(  9-C , 10-S ) :   1.1553
B(  9-C , 66-H ) :   0.9661 B( 11-C , 12-C ) :   1.1191 B( 12-C , 13-C ) :   1.6689
B( 12-C , 67-H ) :   0.9651 B( 13-C , 14-C ) :   1.1001 B( 13-C , 68-H ) :   0.9624
B( 14-C , 15-N ) :   1.1711 B( 14-C , 21-C ) :   1.4154 B( 15-N , 16-C ) :   1.1568
B( 15-N , 69-H ) :   0.9385 B( 16-C , 17-C ) :   1.2637 B( 16-C , 20-C ) :   1.3207
B( 17-C , 18-C ) :   1.4015 B( 17-C , 70-H ) :   1.0306 B( 18-C , 19-N ) :   1.1668
B( 18-C , 22-C ) :   1.1342 B( 19-N , 20-C ) :   1.1665 B( 19-N , 71-H ) :   0.9379
B( 20-C , 21-C ) :   1.2466 B( 21-C , 72-H ) :   1.0317 B( 22-C , 23-C ) :   1.6260
B( 22-C , 73-H ) :   0.9486 B( 23-C , 24-C ) :   1.1635 B( 23-C , 74-H ) :   0.9883
B( 24-C , 25-C ) :   1.5145 B( 24-C , 29-S ) :   1.0299 B( 25-C , 26-C ) :   1.1973
B( 25-C , 75-H ) :   0.9769 B( 26-C , 27-C ) :   1.0512 B( 26-C , 35-C ) :   1.3935
B( 27-C , 28-C ) :   1.6227 B( 27-C , 30-C ) :   1.1704 B( 28-C , 29-S ) :   1.1235
B( 28-C , 76-H ) :   0.9413 B( 30-C , 31-C ) :   1.4540 B( 30-C , 34-S ) :   1.0692
B( 31-C , 32-C ) :   1.2173 B( 31-C , 35-C ) :   1.0940 B( 32-C , 33-C ) :   1.5845
B( 32-C , 77-H ) :   0.9969 B( 33-C , 34-S ) :   1.1533 B( 33-C , 78-H ) :   0.9662
B( 35-C , 36-C ) :   1.1519 B( 36-C , 37-C ) :   1.6340 B( 36-C , 79-H ) :   0.9649
B( 37-C , 38-C ) :   1.1084 B( 37-C , 80-H ) :   0.9612 B( 38-C , 39-N ) :   1.1714
B( 38-C , 45-C ) :   1.4079 B( 39-N , 40-C ) :   1.1554 B( 39-N , 81-H ) :   0.9384
B( 40-C , 41-C ) :   1.2658 B( 40-C , 44-C ) :   1.3158 B( 41-C , 42-C ) :   1.3967
B( 41-C , 82-H ) :   1.0316 B( 42-C , 43-N ) :   1.1645 B( 42-C , 46-C ) :   1.1288
B( 43-N , 44-C ) :   1.1685 B( 43-N , 83-H ) :   0.9371 B( 44-C , 45-C ) :   1.2482
B( 45-C , 84-H ) :   1.0322 B( 46-C , 47-C ) :   1.6902 B( 46-C , 85-H ) :   0.9540
B( 47-C , 48-C ) :   1.1020 B( 47-C , 86-H ) :   0.9621 B( 48-C , 49-C ) :   1.5525
B( 48-C , 53-S ) :   1.0484 B( 49-C , 50-C ) :   1.2213 B( 49-C , 87-H ) :   0.9619
B( 50-C , 51-C ) :   1.0415 B( 50-C , 59-C ) :   1.4415 B( 51-C , 52-C ) :   1.6147
B( 51-C , 54-C ) :   1.1848 B( 52-C , 53-S ) :   1.1327 B( 52-C , 88-H ) :   0.9418
B( 54-C , 55-C ) :   1.4395 B( 54-C , 58-S ) :   1.0639 B( 55-C , 56-C ) :   1.2105
B( 55-C , 59-C ) :   1.1235 B( 56-C , 57-C ) :   1.5850 B( 56-C , 89-H ) :   0.9979
B( 57-C , 58-S ) :   1.1521 B( 57-C , 90-H ) :   0.9668 B( 59-C , 60-C ) :   1.0999
B( 60-C , 61-C ) :   1.9210 B( 60-C , 91-H ) :   0.9554 B( 61-C , 92-H ) :   0.9560
B( 61-C , 93-H ) :   0.9468

-----------------------------------------------------------------------------
         ABSORPTION SPECTRUM VIA TRANSITION ELECTRIC DIPOLE MOMENTS
-----------------------------------------------------------------------------
State   Energy  Wavelength   fosc         T2         TX        TY        TZ
        (cm-1)    (nm)                  (au**2)     (au)      (au)      (au)
-----------------------------------------------------------------------------
   0   14237.5    702.4   1.617185163  37.39388  -1.53638   1.38918   5.75357
   1   18980.6    526.9   1.664196101  28.86493   1.25443  -4.61769   2.44301
   2   19812.8    504.7   0.150701459   2.50407  -0.88776   1.01774   0.82471
   3   20305.8    492.5   0.031147013   0.50498  -0.32011   0.63345  -0.03538
   4   21629.0    462.3   0.143369263   2.18220  -0.13525   0.49980   1.38351
   5   22251.7    449.4   0.263140400   3.89315  -0.20794   1.85001  -0.65374
   6   24421.5    409.5   0.116302226   1.56780  -0.70614   0.99312   0.28789
   7   25391.0    393.8   0.334028434   4.33092  -0.78855   1.85899   0.50324
   8   26406.2    378.7   0.136333826   1.69971   0.52291  -0.79974  -0.88696
   9   27005.5    370.3   0.054732006   0.66721   0.36101  -0.46276  -0.56811
  10   28228.5    354.3   0.007051109   0.08223  -0.07628  -0.16995  -0.21802
  11   28432.6    351.7   0.285247094   3.30279   0.31741  -1.16347   1.35955
  12   28773.1    347.5   0.012571175   0.14384   0.37847  -0.02152  -0.01162
  13   29730.9    336.4   0.013025368   0.14423   0.08493  -0.36957  -0.02087
  14   30264.0    330.4   0.159986972   1.74034  -0.44500   0.89479   0.86120
  15   30929.1    323.3   0.062214650   0.66222   0.02870  -0.04572  -0.81198
  16   31860.2    313.9   0.271020252   2.80045  -0.58926   1.55980  -0.14235
  17   32293.9    309.7   0.102941905   1.04942  -0.54930   0.85693  -0.11560
  18   32374.1    308.9   0.026002957   0.26442   0.41750  -0.29986  -0.01406
  19   32851.2    304.4   0.075529282   0.75690   0.48417  -0.72093  -0.05235
  20   32977.8    303.2   0.020025807   0.19991   0.12541   0.20813  -0.37533
  21   33326.7    300.1   0.041675120   0.41168   0.01272   0.25919  -0.58680
  22   33578.1    297.8   0.027154276   0.26623   0.08282   0.16522  -0.48174
  23   33681.1    296.9   0.138053004   1.34938  -0.23963   0.40938   1.06036
  24   34507.2    289.8   0.130618132   1.24615   0.21969  -0.60893   0.90944
  25   34781.2    287.5   0.005604836   0.05305   0.18908  -0.11167  -0.06948
  26   35065.1    285.2   0.022107231   0.20756  -0.28738   0.33565   0.11093
  27   36275.9    275.7   0.114844220   1.04224  -0.05684   0.24022   0.99061
  28   36940.6    270.7   0.114318039   1.01880   0.00148  -0.41818   0.91865
  29   37113.1    269.4   0.013341383   0.11834  -0.31017  -0.00276   0.14876
  30   37785.4    264.7   0.114164946   0.99468   0.57353  -0.64261  -0.50280
  31   37864.5    264.1   0.049068106   0.42662   0.19519   0.18857  -0.59411
  32   38060.2    262.7   0.287058002   2.48298  -0.95623   1.04646   0.68815
  33   38465.3    260.0   0.014895906   0.12749  -0.03330  -0.30249   0.18677
  34   38603.7    259.0   0.017486563   0.14913   0.04610  -0.21905  -0.31467
  35   38919.7    256.9   0.008982026   0.07598   0.23383  -0.14521  -0.01466
  36   39097.2    255.8   0.054867784   0.46201   0.01547   0.37344   0.56772
  37   39519.8    253.0   0.127341072   1.06079  -0.36302   0.28779  -0.91988
  38   39691.8    251.9   0.177124796   1.46911  -0.75249   0.78530   0.53495
  39   40110.7    249.3   0.086310650   0.70840   0.25726   0.05810  -0.79928

FINAL SINGLE POINT ENERGY     -4605.226137033465

DIPOLE MOMENT
-------------
                                X             Y             Z
Electronic contribution:     12.27942     -12.30968     -20.33419
Nuclear contribution   :    -11.71278      12.02413      18.89631
                        -----------------------------------------
Total Dipole Moment    :      0.56664      -0.28555      -1.43788
                        -----------------------------------------
Magnitude (a.u.)       :      1.57166
Magnitude (Debye)      :      3.99485

Rotational constants in cm-1:     0.000675     0.000262     0.000190
Rotational constants in MHz :    20.248361     7.842618     5.701682

                             ****ORCA TERMINATED NORMALLY****
TOTAL RUN TIME: 0 days 0 hours 7 minutes 16 seconds 200 msec
