                         Program Version 4.2.0 -  RELEASE  -
|  1> # ORCA input file
|  2> # SCF done       -186.953384036029          0.000800391588
|  3> ! CAM-B3LYP def2-SVP def2/J RIJCOSX Grid4 TightSCF
|  4> %maxcore 5000
|  5> %tddft
|  6>     Mode sTDDFT
|  7>     Ethresh 5.0
|  8>     maxcore 5000
|  9> end
| 10>
| 11> %pal
| 12>   nprocs 6
| 13>   end
| 14> * xyz 0 1
| 15>    C        1.47437        -4.72067        -0.71400
| 16>    C        1.69282        -3.56549         0.03062
| 17>    C        0.60469        -2.83922         0.64006
| 18>    N        0.83636        -1.65682         1.23889
| 19>    C        2.06297        -1.23026         1.33417
| 20>    C        3.16642        -2.01199         0.82285
| 21>    N        2.95953        -3.12197         0.17508
| 22>    C        4.49560        -1.54814         1.00755
| 23>    N        5.55346        -1.14553         1.17793
| 24>    C        2.32120         0.03318         1.92707
| 25>    N        2.57942         1.04426         2.39743
| 26>    C       -0.71972        -3.30343         0.54992
| 27>    C       -0.92679        -4.48171        -0.18245
| 28>    C        0.16716        -5.16750        -0.83793
| 29>    N       -0.26952        -6.23513        -1.52622
| 30>    S       -1.84405        -6.37643        -1.34055
| 31>    N       -2.09349        -5.10925        -0.39254
| 32>    C       -1.82809        -2.58483         1.14148
| 33>    N       -1.85781        -2.20206         2.39186
| 34>    C       -3.09845        -1.69224         2.59797
| 35>    C       -3.91770        -1.79296         1.37547
| 36>    C       -5.27639        -1.26435         1.60945
| 37>    O       -6.21138        -1.23819         0.84542
| 38>    C       -5.19660        -0.80989         3.01210
| 39>    C       -3.85277        -1.10573         3.57611
| 40>    N       -3.77362        -0.67717         4.86118
| 41>    C       -4.93509        -0.13733         5.11713
| 42>    C       -5.87006        -0.17617         4.00097
| 43>    C       -3.09968        -2.30795         0.41434
| 44>    C       -3.29153        -2.60771        -0.96829
| 45>    C       -2.27154        -2.53504        -1.84992
| 46>    C       -2.22052        -3.20681        -3.09850
| 47>    C       -1.05799        -3.53276        -3.76027
| 48>    C        0.37527        -3.29140        -3.54936
| 49>    O        0.92590        -2.60715        -2.71657
| 50>    N        1.00681        -4.08185        -4.49110
| 51>    C        2.44114        -4.16873        -4.61673
| 52>    C        0.13720        -4.85445        -5.27094
| 53>    O        0.49073        -5.65849        -6.08564
| 54>    C       -1.21439        -4.47567        -4.79834
| 55>    C       -2.50852        -4.90704        -4.95435
| 56>    S       -3.55465        -4.07102        -3.82069
| 57>    C       -3.01384        -5.93797        -5.81125
| 58>    N       -2.64737        -6.05022        -7.06477
| 59>    C       -3.29461        -7.14430        -7.54128
| 60>    C       -4.11879        -7.76919        -6.49651
| 61>    C       -4.80842        -8.96191        -7.02250
| 62>    O       -5.55790        -9.71427        -6.44498
| 63>    C       -4.35359        -8.99764        -8.42718
| 64>    C       -3.43347        -7.86329        -8.69825
| 65>    N       -3.01147        -7.89236        -9.98763
| 66>    C       -3.58626        -8.94060       -10.51440
| 67>    C       -4.43775        -9.68108        -9.59237
| 68>    C       -3.95285        -7.00559        -5.36822
| 69>    C       -4.44898        -7.14384        -4.04561
| 70>    C       -5.30144        -8.11585        -3.64048
| 71>    C       -5.82308        -8.20620        -2.31253
| 72>    C       -6.72746        -9.25435        -2.00227
| 73>    C       -7.34772        -9.37264        -0.70664
| 74>    N       -8.20500       -10.38676        -0.45456
| 75>    C       -8.45553       -11.24695        -1.40087
| 76>    C       -7.83449       -11.12981        -2.69769
| 77>    N       -7.00507       -10.15659        -2.95847
| 78>    C       -8.12619       -12.09153        -3.69879
| 79>    N       -8.39437       -12.89616        -4.46797
| 80>    C       -9.35168       -12.31914        -1.14927
| 81>    N      -10.06730       -13.19707        -0.98295
| 82>    C       -7.09093        -8.45248         0.30506
| 83>    C       -6.20095        -7.42537         0.02633
| 84>    C       -5.54915        -7.30119        -1.26338
| 85>    N       -4.72255        -6.24478        -1.28128
| 86>    S       -4.78751        -5.49164         0.13607
| 87>    N       -5.83067        -6.44389         0.86396
| 88>    H        2.29998        -5.23670        -1.17457
| 89>    H       -5.13862         0.28226         6.08701
| 90>    H       -6.86620         0.21955         4.01042
| 91>    H       -4.26563        -2.96301        -1.27894
| 92>    H       -1.33424        -2.07345        -1.56447
| 93>    H        2.75436        -5.21038        -4.53791
| 94>    H        2.88417        -3.57769        -3.81651
| 95>    H        2.75790        -3.77862        -5.58530
| 96>    H       -3.41556        -9.19441       -11.54627
| 97>    H       -4.99170       -10.56704        -9.83136
| 98>    H       -4.12462        -6.41676        -3.31634
| 99>    H       -5.64817        -8.87205        -4.33313
|100>    H       -7.57530        -8.54053         1.26249
|101> *
|102>
|103>                          ****END OF INPUT****

CARTESIAN COORDINATES (ANGSTROEM)
---------------------------------
  C      1.474370   -4.720670   -0.714000
  C      1.692820   -3.565490    0.030620
  C      0.604690   -2.839220    0.640060
  N      0.836360   -1.656820    1.238890
  C      2.062970   -1.230260    1.334170
  C      3.166420   -2.011990    0.822850
  N      2.959530   -3.121970    0.175080
  C      4.495600   -1.548140    1.007550
  N      5.553460   -1.145530    1.177930
  C      2.321200    0.033180    1.927070
  N      2.579420    1.044260    2.397430
  C     -0.719720   -3.303430    0.549920
  C     -0.926790   -4.481710   -0.182450
  C      0.167160   -5.167500   -0.837930
  N     -0.269520   -6.235130   -1.526220
  S     -1.844050   -6.376430   -1.340550
  N     -2.093490   -5.109250   -0.392540
  C     -1.828090   -2.584830    1.141480
  N     -1.857810   -2.202060    2.391860
  C     -3.098450   -1.692240    2.597970
  C     -3.917700   -1.792960    1.375470
  C     -5.276390   -1.264350    1.609450
  O     -6.211380   -1.238190    0.845420
  C     -5.196600   -0.809890    3.012100
  C     -3.852770   -1.105730    3.576110
  N     -3.773620   -0.677170    4.861180
  C     -4.935090   -0.137330    5.117130
  C     -5.870060   -0.176170    4.000970
  C     -3.099680   -2.307950    0.414340
  C     -3.291530   -2.607710   -0.968290
  C     -2.271540   -2.535040   -1.849920
  C     -2.220520   -3.206810   -3.098500
  C     -1.057990   -3.532760   -3.760270
  C      0.375270   -3.291400   -3.549360
  O      0.925900   -2.607150   -2.716570
  N      1.006810   -4.081850   -4.491100
  C      2.441140   -4.168730   -4.616730
  C      0.137200   -4.854450   -5.270940
  O      0.490730   -5.658490   -6.085640
  C     -1.214390   -4.475670   -4.798340
  C     -2.508520   -4.907040   -4.954350
  S     -3.554650   -4.071020   -3.820690
  C     -3.013840   -5.937970   -5.811250
  N     -2.647370   -6.050220   -7.064770
  C     -3.294610   -7.144300   -7.541280
  C     -4.118790   -7.769190   -6.496510
  C     -4.808420   -8.961910   -7.022500
  O     -5.557900   -9.714270   -6.444980
  C     -4.353590   -8.997640   -8.427180
  C     -3.433470   -7.863290   -8.698250
  N     -3.011470   -7.892360   -9.987630
  C     -3.586260   -8.940600  -10.514400
  C     -4.437750   -9.681080   -9.592370
  C     -3.952850   -7.005590   -5.368220
  C     -4.448980   -7.143840   -4.045610
  C     -5.301440   -8.115850   -3.640480
  C     -5.823080   -8.206200   -2.312530
  C     -6.727460   -9.254350   -2.002270
  C     -7.347720   -9.372640   -0.706640
  N     -8.205000  -10.386760   -0.454560
  C     -8.455530  -11.246950   -1.400870
  C     -7.834490  -11.129810   -2.697690
  N     -7.005070  -10.156590   -2.958470
  C     -8.126190  -12.091530   -3.698790
  N     -8.394370  -12.896160   -4.467970
  C     -9.351680  -12.319140   -1.149270
  N    -10.067300  -13.197070   -0.982950
  C     -7.090930   -8.452480    0.305060
  C     -6.200950   -7.425370    0.026330
  C     -5.549150   -7.301190   -1.263380
  N     -4.722550   -6.244780   -1.281280
  S     -4.787510   -5.491640    0.136070
  N     -5.830670   -6.443890    0.863960
  H      2.299980   -5.236700   -1.174570
  H     -5.138620    0.282260    6.087010
  H     -6.866200    0.219550    4.010420
  H     -4.265630   -2.963010   -1.278940
  H     -1.334240   -2.073450   -1.564470
  H      2.754360   -5.210380   -4.537910
  H      2.884170   -3.577690   -3.816510
  H      2.757900   -3.778620   -5.585300
  H     -3.415560   -9.194410  -11.546270
  H     -4.991700  -10.567040   -9.831360
  H     -4.124620   -6.416760   -3.316340
  H     -5.648170   -8.872050   -4.333130
  H     -7.575300   -8.540530    1.262490

 Total Charge           Charge          ....    0
 Multiplicity           Mult            ....    1
 Number of Electrons    NEL             ....  506
 Basis Dimension        Dim             .... 1099

ORBITAL ENERGIES
----------------

  NO   OCC          E(Eh)            E(eV)
   0   2.0000     -89.073540     -2423.8142
   1   2.0000     -89.064171     -2423.5593
   2   2.0000     -89.005124     -2421.9526
   3   2.0000     -19.234918      -523.4087
   4   2.0000     -19.228514      -523.2345
   5   2.0000     -19.227696      -523.2122
   6   2.0000     -19.225623      -523.1558
   7   2.0000     -14.477008      -393.9394
   8   2.0000     -14.476179      -393.9169
   9   2.0000     -14.475670      -393.9030
  10   2.0000     -14.474005      -393.8577
  11   2.0000     -14.472131      -393.8067
  12   2.0000     -14.469870      -393.7452
  13   2.0000     -14.468822      -393.7167
  14   2.0000     -14.468673      -393.7126
  15   2.0000     -14.466464      -393.6525
  16   2.0000     -14.437968      -392.8771
  17   2.0000     -14.437782      -392.8720
  18   2.0000     -14.434612      -392.7858
  19   2.0000     -14.433156      -392.7461
  20   2.0000     -14.432389      -392.7253
  21   2.0000     -14.429809      -392.6551
  22   2.0000     -14.424135      -392.5007
  23   2.0000     -14.419979      -392.3876
  24   2.0000     -10.417228      -283.4672
  25   2.0000     -10.412088      -283.3273
  26   2.0000     -10.395553      -282.8774
  27   2.0000     -10.393892      -282.8322
  28   2.0000     -10.389645      -282.7166
  29   2.0000     -10.389389      -282.7096
  30   2.0000     -10.388904      -282.6965
  31   2.0000     -10.384988      -282.5899
  32   2.0000     -10.368299      -282.1358
  33   2.0000     -10.367341      -282.1097
  34   2.0000     -10.366361      -282.0830
  35   2.0000     -10.364176      -282.0236
  36   2.0000     -10.362894      -281.9887
  37   2.0000     -10.362554      -281.9794
  38   2.0000     -10.358763      -281.8763
  39   2.0000     -10.358022      -281.8561
  40   2.0000     -10.356724      -281.8208
  41   2.0000     -10.356546      -281.8160
  42   2.0000     -10.354521      -281.7608
  43   2.0000     -10.354123      -281.7500
  44   2.0000     -10.350710      -281.6571
  45   2.0000     -10.346857      -281.5523
  46   2.0000     -10.346053      -281.5304
  47   2.0000     -10.345492      -281.5152
  48   2.0000     -10.342008      -281.4203
  49   2.0000     -10.341196      -281.3983
  50   2.0000     -10.337826      -281.3065
  51   2.0000     -10.331578      -281.1365
  52   2.0000     -10.330879      -281.1175
  53   2.0000     -10.330463      -281.1062
  54   2.0000     -10.330207      -281.0992
  55   2.0000     -10.327401      -281.0229
  56   2.0000     -10.325406      -280.9686
  57   2.0000     -10.325215      -280.9634
  58   2.0000     -10.323082      -280.9053
  59   2.0000     -10.320872      -280.8452
  60   2.0000     -10.320358      -280.8312
  61   2.0000     -10.319366      -280.8042
  62   2.0000     -10.318297      -280.7751
  63   2.0000     -10.318167      -280.7716
  64   2.0000     -10.316965      -280.7389
  65   2.0000     -10.311741      -280.5967
  66   2.0000     -10.309385      -280.5326
  67   2.0000     -10.307778      -280.4889
  68   2.0000     -10.305448      -280.4255
  69   2.0000     -10.305055      -280.4148
  70   2.0000     -10.302921      -280.3567
  71   2.0000     -10.301210      -280.3102
  72   2.0000     -10.299525      -280.2643
  73   2.0000      -8.162949      -222.1251
  74   2.0000      -8.153719      -221.8740
  75   2.0000      -8.099306      -220.3933
  76   2.0000      -6.133710      -166.9067
  77   2.0000      -6.126531      -166.7114
  78   2.0000      -6.125993      -166.6968
  79   2.0000      -6.124546      -166.6574
  80   2.0000      -6.117310      -166.4605
  81   2.0000      -6.116556      -166.4400
  82   2.0000      -6.068726      -165.1384
  83   2.0000      -6.064335      -165.0189
  84   2.0000      -6.061489      -164.9415
  85   2.0000      -1.178279       -32.0626
  86   2.0000      -1.166336       -31.7376
  87   2.0000      -1.156979       -31.4830
  88   2.0000      -1.154446       -31.4141
  89   2.0000      -1.144066       -31.1316
  90   2.0000      -1.140858       -31.0443
  91   2.0000      -1.133318       -30.8391
  92   2.0000      -1.127845       -30.6902
  93   2.0000      -1.099502       -29.9190
  94   2.0000      -1.095538       -29.8111
  95   2.0000      -1.080191       -29.3935
  96   2.0000      -1.076004       -29.2795
  97   2.0000      -1.070025       -29.1169
  98   2.0000      -1.059140       -28.8207
  99   2.0000      -1.054418       -28.6922
 100   2.0000      -1.027110       -27.9491
 101   2.0000      -1.022846       -27.8330
 102   2.0000      -1.018443       -27.7132
 103   2.0000      -1.017872       -27.6977
 104   2.0000      -1.011565       -27.5261
 105   2.0000      -1.009992       -27.4833
 106   2.0000      -1.006635       -27.3919
 107   2.0000      -0.994400       -27.0590
 108   2.0000      -0.986808       -26.8524
 109   2.0000      -0.955941       -26.0125
 110   2.0000      -0.953636       -25.9497
 111   2.0000      -0.946587       -25.7579
 112   2.0000      -0.934296       -25.4235
 113   2.0000      -0.921961       -25.0878
 114   2.0000      -0.915539       -24.9131
 115   2.0000      -0.913360       -24.8538
 116   2.0000      -0.907966       -24.7070
 117   2.0000      -0.899776       -24.4842
 118   2.0000      -0.893106       -24.3027
 119   2.0000      -0.877059       -23.8660
 120   2.0000      -0.874099       -23.7854
 121   2.0000      -0.852283       -23.1918
 122   2.0000      -0.849630       -23.1196
 123   2.0000      -0.847184       -23.0530
 124   2.0000      -0.839295       -22.8384
 125   2.0000      -0.820489       -22.3267
 126   2.0000      -0.818794       -22.2805
 127   2.0000      -0.803832       -21.8734
 128   2.0000      -0.801739       -21.8164
 129   2.0000      -0.795063       -21.6348
 130   2.0000      -0.782530       -21.2937
 131   2.0000      -0.777756       -21.1638
 132   2.0000      -0.762742       -20.7553
 133   2.0000      -0.758508       -20.6401
 134   2.0000      -0.754477       -20.5304
 135   2.0000      -0.744053       -20.2467
 136   2.0000      -0.741320       -20.1723
 137   2.0000      -0.735972       -20.0268
 138   2.0000      -0.720928       -19.6174
 139   2.0000      -0.717612       -19.5272
 140   2.0000      -0.712852       -19.3977
 141   2.0000      -0.704067       -19.1586
 142   2.0000      -0.702267       -19.1097
 143   2.0000      -0.693076       -18.8596
 144   2.0000      -0.685342       -18.6491
 145   2.0000      -0.683389       -18.5959
 146   2.0000      -0.678253       -18.4562
 147   2.0000      -0.670422       -18.2431
 148   2.0000      -0.663580       -18.0569
 149   2.0000      -0.662275       -18.0214
 150   2.0000      -0.656882       -17.8747
 151   2.0000      -0.650608       -17.7040
 152   2.0000      -0.644730       -17.5440
 153   2.0000      -0.641540       -17.4572
 154   2.0000      -0.635392       -17.2899
 155   2.0000      -0.629939       -17.1415
 156   2.0000      -0.625997       -17.0343
 157   2.0000      -0.623359       -16.9625
 158   2.0000      -0.617806       -16.8114
 159   2.0000      -0.607789       -16.5388
 160   2.0000      -0.603175       -16.4132
 161   2.0000      -0.595118       -16.1940
 162   2.0000      -0.594414       -16.1748
 163   2.0000      -0.588548       -16.0152
 164   2.0000      -0.588054       -16.0018
 165   2.0000      -0.583662       -15.8823
 166   2.0000      -0.582361       -15.8468
 167   2.0000      -0.580299       -15.7907
 168   2.0000      -0.574502       -15.6330
 169   2.0000      -0.569844       -15.5062
 170   2.0000      -0.566853       -15.4248
 171   2.0000      -0.565711       -15.3938
 172   2.0000      -0.562799       -15.3145
 173   2.0000      -0.558772       -15.2050
 174   2.0000      -0.557249       -15.1635
 175   2.0000      -0.553388       -15.0585
 176   2.0000      -0.551471       -15.0063
 177   2.0000      -0.548404       -14.9228
 178   2.0000      -0.546016       -14.8579
 179   2.0000      -0.540957       -14.7202
 180   2.0000      -0.538386       -14.6502
 181   2.0000      -0.536105       -14.5881
 182   2.0000      -0.534015       -14.5313
 183   2.0000      -0.531789       -14.4707
 184   2.0000      -0.528318       -14.3763
 185   2.0000      -0.526993       -14.3402
 186   2.0000      -0.519846       -14.1457
 187   2.0000      -0.517016       -14.0687
 188   2.0000      -0.510302       -13.8860
 189   2.0000      -0.507703       -13.8153
 190   2.0000      -0.505175       -13.7465
 191   2.0000      -0.504949       -13.7404
 192   2.0000      -0.499053       -13.5799
 193   2.0000      -0.497010       -13.5243
 194   2.0000      -0.493821       -13.4375
 195   2.0000      -0.492625       -13.4050
 196   2.0000      -0.491598       -13.3771
 197   2.0000      -0.491307       -13.3692
 198   2.0000      -0.490164       -13.3380
 199   2.0000      -0.488710       -13.2985
 200   2.0000      -0.487648       -13.2696
 201   2.0000      -0.486324       -13.2335
 202   2.0000      -0.483920       -13.1681
 203   2.0000      -0.481499       -13.1023
 204   2.0000      -0.480550       -13.0764
 205   2.0000      -0.476649       -12.9703
 206   2.0000      -0.474569       -12.9137
 207   2.0000      -0.462963       -12.5979
 208   2.0000      -0.461215       -12.5503
 209   2.0000      -0.460921       -12.5423
 210   2.0000      -0.459485       -12.5032
 211   2.0000      -0.457860       -12.4590
 212   2.0000      -0.456470       -12.4212
 213   2.0000      -0.454804       -12.3758
 214   2.0000      -0.452373       -12.3097
 215   2.0000      -0.448339       -12.1999
 216   2.0000      -0.447240       -12.1700
 217   2.0000      -0.444470       -12.0946
 218   2.0000      -0.442276       -12.0350
 219   2.0000      -0.434409       -11.8209
 220   2.0000      -0.429742       -11.6939
 221   2.0000      -0.426832       -11.6147
 222   2.0000      -0.424971       -11.5640
 223   2.0000      -0.422269       -11.4905
 224   2.0000      -0.421887       -11.4801
 225   2.0000      -0.416667       -11.3381
 226   2.0000      -0.414133       -11.2691
 227   2.0000      -0.408816       -11.1244
 228   2.0000      -0.401565       -10.9271
 229   2.0000      -0.396220       -10.7817
 230   2.0000      -0.386676       -10.5220
 231   2.0000      -0.385776       -10.4975
 232   2.0000      -0.376650       -10.2492
 233   2.0000      -0.375159       -10.2086
 234   2.0000      -0.372750       -10.1430
 235   2.0000      -0.370903       -10.0928
 236   2.0000      -0.367405        -9.9976
 237   2.0000      -0.366547        -9.9742
 238   2.0000      -0.366105        -9.9622
 239   2.0000      -0.363764        -9.8985
 240   2.0000      -0.362434        -9.8623
 241   2.0000      -0.358492        -9.7551
 242   2.0000      -0.354174        -9.6376
 243   2.0000      -0.353586        -9.6216
 244   2.0000      -0.352887        -9.6025
 245   2.0000      -0.351579        -9.5670
 246   2.0000      -0.346695        -9.4341
 247   2.0000      -0.344700        -9.3798
 248   2.0000      -0.342928        -9.3315
 249   2.0000      -0.341260        -9.2862
 250   2.0000      -0.316867        -8.6224
 251   2.0000      -0.299394        -8.1469
 252   2.0000      -0.284199        -7.7334
 253   0.0000      -0.142309        -3.8724
 254   0.0000      -0.136617        -3.7175
 255   0.0000      -0.122341        -3.3291
 256   0.0000      -0.115657        -3.1472
 257   0.0000      -0.080742        -2.1971

MULLIKEN ATOMIC CHARGES
-----------------------
   0 C :   -0.068873
   1 C :    0.036080
   2 C :   -0.005352
   3 N :    0.086594
   4 C :   -0.135855
   5 C :   -0.143439
   6 N :    0.054289
   7 C :   -0.192346
   8 N :    0.239148
   9 C :   -0.187666
  10 N :    0.241654
  11 C :    0.028549
  12 C :    0.025230
  13 C :    0.096168
  14 N :   -0.250377
  15 S :    0.564235
  16 N :   -0.295782
  17 C :   -0.087263
  18 N :    0.002484
  19 C :    0.088942
  20 C :   -0.142870
  21 C :    0.205530
  22 O :   -0.115746
  23 C :   -0.043943
  24 C :   -0.014216
  25 N :   -0.047974
  26 C :    0.099681
  27 C :   -0.083173
  28 C :    0.035585
  29 C :   -0.028170
  30 C :    0.049789
  31 C :   -0.157142
  32 C :   -0.034196
  33 C :    0.215208
  34 O :   -0.187942
  35 N :   -0.317919
  36 C :    0.132732
  37 C :    0.181435
  38 O :   -0.118403
  39 C :    0.112103
  40 C :   -0.258870
  41 S :    0.191347
  42 C :    0.029675
  43 N :   -0.000110
  44 C :    0.084400
  45 C :   -0.166207
  46 C :    0.222429
  47 O :   -0.118404
  48 C :   -0.013719
  49 C :   -0.019477
  50 N :   -0.046603
  51 C :    0.096831
  52 C :   -0.090898
  53 C :    0.069677
  54 C :   -0.037903
  55 C :   -0.062862
  56 C :    0.109680
  57 C :   -0.053464
  58 C :    0.016888
  59 N :    0.055470
  60 C :   -0.153243
  61 C :   -0.136862
  62 N :    0.070666
  63 C :   -0.186556
  64 N :    0.233749
  65 C :   -0.193917
  66 N :    0.237236
  67 C :   -0.063559
  68 C :    0.086759
  69 C :    0.020907
  70 N :   -0.354209
  71 S :    0.571067
  72 N :   -0.238929
  73 H :   -0.011980
  74 H :    0.019587
  75 H :    0.003476
  76 H :    0.018703
  77 H :    0.038047
  78 H :    0.046043
  79 H :    0.053235
  80 H :    0.048462
  81 H :    0.018942
  82 H :    0.004606
  83 H :    0.014676
  84 H :    0.020238
  85 H :   -0.011812
Sum of atomic charges:   -0.0000000

LOEWDIN ATOMIC CHARGES
----------------------
   0 C :    0.030380
   1 C :   -0.003047
   2 C :    0.016264
   3 N :    0.011289
   4 C :   -0.013462
   5 C :   -0.021450
   6 N :    0.007490
   7 C :   -0.035999
   8 N :    0.003475
   9 C :   -0.034012
  10 N :    0.006977
  11 C :   -0.036905
  12 C :   -0.031536
  13 C :   -0.053417
  14 N :   -0.279158
  15 S :    0.725387
  16 N :   -0.308665
  17 C :    0.074553
  18 N :   -0.067567
  19 C :    0.043096
  20 C :   -0.039502
  21 C :    0.063997
  22 O :   -0.130180
  23 C :   -0.039168
  24 C :    0.040723
  25 N :   -0.088771
  26 C :    0.089697
  27 C :   -0.024863
  28 C :   -0.034094
  29 C :   -0.005151
  30 C :   -0.028155
  31 C :   -0.136428
  32 C :   -0.098187
  33 C :    0.087701
  34 O :   -0.178795
  35 N :   -0.034352
  36 C :    0.036814
  37 C :    0.092725
  38 O :   -0.124712
  39 C :   -0.059175
  40 C :   -0.151372
  41 S :    0.497474
  42 C :    0.038322
  43 N :   -0.066094
  44 C :    0.043437
  45 C :   -0.039446
  46 C :    0.068684
  47 O :   -0.122247
  48 C :   -0.037044
  49 C :    0.041653
  50 N :   -0.088878
  51 C :    0.088078
  52 C :   -0.023554
  53 C :   -0.032081
  54 C :   -0.031857
  55 C :    0.013973
  56 C :   -0.015152
  57 C :   -0.004517
  58 C :   -0.012634
  59 N :    0.001259
  60 C :   -0.024147
  61 C :   -0.023694
  62 N :    0.012267
  63 C :   -0.034464
  64 N :    0.001863
  65 C :   -0.035443
  66 N :    0.001022
  67 C :    0.005173
  68 C :   -0.049533
  69 C :   -0.035828
  70 N :   -0.322236
  71 S :    0.734524
  72 N :   -0.276286
  73 H :    0.051064
  74 H :    0.028160
  75 H :    0.038100
  76 H :    0.026600
  77 H :    0.043659
  78 H :    0.035490
  79 H :    0.037063
  80 H :    0.037087
  81 H :    0.027522
  82 H :    0.038517
  83 H :    0.004290
  84 H :    0.036575
  85 H :    0.050830

  Mayer bond orders larger than 0.100000
B(  0-C ,  1-C ) :   1.2756 B(  0-C , 11-C ) :   0.1545 B(  0-C , 13-C ) :   1.1725
B(  0-C , 73-H ) :   1.0658 B(  1-C ,  2-C ) :   1.1385 B(  1-C ,  6-N ) :   1.3363
B(  2-C ,  3-N ) :   1.4488 B(  2-C , 11-C ) :   1.3606 B(  3-N ,  4-C ) :   1.7751
B(  4-C ,  5-C ) :   1.1677 B(  4-C ,  9-C ) :   1.1440 B(  5-C ,  6-N ) :   1.7933
B(  5-C ,  7-C ) :   1.1424 B(  7-C ,  8-N ) :   3.0536 B(  9-C , 10-N ) :   3.0473
B( 11-C , 12-C ) :   1.3045 B( 11-C , 17-C ) :   0.9193 B( 12-C , 13-C ) :   1.1313
B( 12-C , 16-N ) :   1.4763 B( 13-C , 14-N ) :   1.4282 B( 14-N , 15-S ) :   1.3477
B( 14-N , 16-N ) :   0.1577 B( 15-S , 16-N ) :   1.2710 B( 17-C , 18-N ) :   1.7212
B( 17-C , 19-C ) :   0.1386 B( 17-C , 28-C ) :   1.0572 B( 18-N , 19-C ) :   1.2934
B( 19-C , 20-C ) :   1.0441 B( 19-C , 24-C ) :   1.4495 B( 20-C , 21-C ) :   0.8841
B( 20-C , 28-C ) :   1.5728 B( 21-C , 22-O ) :   2.3156 B( 21-C , 23-C ) :   0.8821
B( 23-C , 24-C ) :   1.0370 B( 23-C , 27-C ) :   1.6409 B( 24-C , 25-N ) :   1.2972
B( 25-N , 26-C ) :   1.6746 B( 26-C , 27-C ) :   1.0507 B( 26-C , 74-H ) :   0.9883
B( 27-C , 75-H ) :   1.0087 B( 28-C , 29-C ) :   1.0987 B( 29-C , 30-C ) :   1.6845
B( 29-C , 76-H ) :   0.9568 B( 30-C , 31-C ) :   1.1677 B( 30-C , 77-H ) :   0.9482
B( 31-C , 32-C ) :   1.5019 B( 31-C , 41-S ) :   1.1329 B( 32-C , 33-C ) :   0.9078
B( 32-C , 39-C ) :   1.2479 B( 33-C , 34-O ) :   2.1102 B( 33-C , 35-N ) :   1.1082
B( 35-N , 36-C ) :   0.9357 B( 35-N , 37-C ) :   1.0378 B( 36-C , 78-H ) :   0.9715
B( 36-C , 79-H ) :   0.9609 B( 36-C , 80-H ) :   0.9769 B( 37-C , 38-O ) :   2.2649
B( 37-C , 39-C ) :   0.8710 B( 39-C , 40-C ) :   1.5776 B( 40-C , 41-S ) :   1.1644
B( 40-C , 42-C ) :   0.9993 B( 42-C , 43-N ) :   1.6895 B( 42-C , 44-C ) :   0.1261
B( 42-C , 53-C ) :   1.0316 B( 43-N , 44-C ) :   1.2962 B( 44-C , 45-C ) :   1.0603
B( 44-C , 49-C ) :   1.4456 B( 45-C , 46-C ) :   0.8881 B( 45-C , 53-C ) :   1.5449
B( 46-C , 47-O ) :   2.2170 B( 46-C , 48-C ) :   0.9151 B( 48-C , 49-C ) :   1.0536
B( 48-C , 52-C ) :   1.6335 B( 49-C , 50-N ) :   1.2956 B( 50-N , 51-C ) :   1.6761
B( 51-C , 52-C ) :   1.0440 B( 51-C , 81-H ) :   0.9883 B( 52-C , 82-H ) :   1.0110
B( 53-C , 54-C ) :   1.0999 B( 54-C , 55-C ) :   1.6146 B( 54-C , 83-H ) :   0.9458
B( 55-C , 56-C ) :   1.1559 B( 55-C , 84-H ) :   0.9578 B( 56-C , 57-C ) :   1.2475
B( 56-C , 67-C ) :   0.1410 B( 56-C , 69-C ) :   1.2064 B( 57-C , 58-C ) :   1.1379
B( 57-C , 62-N ) :   1.4365 B( 58-C , 59-N ) :   1.3374 B( 58-C , 67-C ) :   1.3008
B( 59-N , 60-C ) :   1.7906 B( 60-C , 61-C ) :   1.1762 B( 60-C , 65-C ) :   1.1491
B( 61-C , 62-N ) :   1.7752 B( 61-C , 63-C ) :   1.1419 B( 63-C , 64-N ) :   3.0423
B( 65-C , 66-N ) :   3.0534 B( 67-C , 68-C ) :   1.1924 B( 67-C , 85-H ) :   1.0537
B( 68-C , 69-C ) :   1.1328 B( 68-C , 72-N ) :   1.4411 B( 69-C , 70-N ) :   1.4360
B( 70-N , 71-S ) :   1.2605 B( 70-N , 72-N ) :   0.1493 B( 71-S , 72-N ) :   1.3524

-----------------------------------------------------------------------------
         ABSORPTION SPECTRUM VIA TRANSITION ELECTRIC DIPOLE MOMENTS
-----------------------------------------------------------------------------
State   Energy  Wavelength   fosc         T2         TX        TY        TZ
        (cm-1)    (nm)                  (au**2)     (au)      (au)      (au)
-----------------------------------------------------------------------------
   0   16011.2    624.6   0.032885321   0.67617  -0.19963  -0.50478   0.61766
   1   16091.6    621.4   0.303742477   6.21415  -0.96347  -0.04461   2.29867
   2   17721.6    564.3   0.051994808   0.96590  -0.53773  -0.45768   0.68358
   3   18267.7    547.4   0.021092025   0.38011   0.29564   0.49380   0.22107
   4   20277.1    493.2   0.218165449   3.54206   0.62266   0.97834   1.48230
   5   20930.5    477.8   0.165263589   2.59940   1.06794  -0.86096  -0.84716
   6   21339.7    468.6   0.096510709   1.48889  -0.38766   0.72374   0.90267
   7   21619.8    462.5   0.010886435   0.16577   0.32672   0.18296  -0.15985
   8   22377.9    446.9   0.295378143   4.34545   1.27554  -0.85422  -1.41023
   9   23150.8    432.0   0.359507750   5.11232  -0.05634  -1.11046  -1.96876
  10   24075.1    415.4   0.030547012   0.41771  -0.30358   0.16292   0.54682
  11   24771.6    403.7   0.003248800   0.04318   0.00902  -0.04892  -0.20175
  12   25111.4    398.2   0.012045387   0.15792   0.04673   0.28794   0.26986
  13   25297.4    395.3   0.017526932   0.22809  -0.21598   0.17772   0.38712
  14   25388.0    393.9   0.000478600   0.00621   0.07600   0.00221   0.02064
  15   25754.9    388.3   0.003052435   0.03902  -0.09141  -0.09963   0.14400
  16   26079.9    383.4   0.000469048   0.00592   0.00033   0.06222   0.04527
  17   26206.2    381.6   0.010996597   0.13814  -0.35838   0.07433  -0.06467
  18   26526.2    377.0   0.010737266   0.13326   0.34923   0.09321  -0.05110
  19   26768.8    373.6   0.000585682   0.00720   0.02995  -0.05952   0.05257
  20   26984.8    370.6   0.042384778   0.51709  -0.60823  -0.10857   0.36791
  21   27539.2    363.1   0.110496505   1.32091   0.27287  -0.09394  -1.11249
  22   28327.2    353.0   0.041071020   0.47732  -0.65060  -0.18472   0.14110
  23   28528.4    350.5   0.018038989   0.20817  -0.05465  -0.34120   0.29793
  24   28663.3    348.9   0.035583416   0.40869   0.57917   0.21614   0.16289
  25   28695.4    348.5   0.147102182   1.68765  -0.94856  -0.85284  -0.24606
  26   28923.2    345.7   0.128641878   1.46424  -0.55515  -1.02898  -0.31186
  27   29046.9    344.3   0.236510774   2.68057  -0.80494  -1.12869  -0.87103
  28   29443.2    339.6   0.065387107   0.73111   0.37936   0.39821  -0.65470
  29   29708.3    336.6   0.023302519   0.25823  -0.19063  -0.16857  -0.43985
  30   29813.0    335.4   0.107488221   1.18695   0.24039  -0.00041  -1.06262
  31   29969.9    333.7   0.437220782   4.80277  -1.29381   0.15453   1.76209
  32   30152.7    331.6   0.048834072   0.53318   0.08174  -0.48668  -0.53818
  33   30287.8    330.2   0.284458433   3.09191  -0.34919   0.89256   1.47421
  34   30509.9    327.8   0.022587132   0.24372  -0.19678  -0.39163   0.22722
  35   30871.3    323.9   0.028161930   0.30032  -0.46848   0.08261   0.27206
  36   31206.7    320.4   0.032469170   0.34253  -0.45230   0.03250   0.37000
  37   31222.6    320.3   0.001843643   0.01944   0.05957  -0.01309  -0.12538
  38   31369.7    318.8   0.001869033   0.01961  -0.03537   0.07814   0.11071
  39   31654.3    315.9   0.001855873   0.01930   0.11875   0.01914   0.06953
  40   31702.1    315.4   0.004099022   0.04257  -0.04989  -0.15317  -0.12890
  41   32040.4    312.1   0.000538185   0.00553  -0.03972  -0.00084   0.06286
  42   32254.7    310.0   0.006508659   0.06643   0.09367   0.20022  -0.13255
  43   32779.3    305.1   0.000995954   0.01000   0.05091  -0.02294   0.08298
  44   32858.7    304.3   0.000790509   0.00792  -0.06953  -0.05542   0.00371
  45   33037.2    302.7   0.001750361   0.01744  -0.08468   0.05278  -0.08651
  46   33284.2    300.4   0.018031684   0.17835  -0.10346   0.39375  -0.11228
  47   33351.6    299.8   0.059597712   0.58829  -0.75459   0.10504  -0.08854
  48   33667.1    297.0   0.108579250   1.06174   0.63520  -0.31402  -0.74810
  49   33733.0    296.4   0.021232821   0.20722  -0.00310  -0.07194  -0.44948
  50   33976.7    294.3   0.026462901   0.25641   0.13725   0.34378   0.34553
  51   34339.2    291.2   0.049505504   0.47461   0.57357   0.29426  -0.24299
  52   34466.9    290.1   0.132450613   1.26511  -0.06095  -0.88799  -0.68765
  53   34597.3    289.0   0.472124635   4.49252   1.47097   1.45432   0.46230
  54   34690.4    288.3   0.035505494   0.33695  -0.48912  -0.30854  -0.05008
  55   34852.8    286.9   0.049047407   0.46329  -0.42155  -0.50544  -0.17355
  56   35007.3    285.7   0.151016996   1.42018  -0.44416  -0.96844  -0.53387
  57   35067.9    285.2   0.148328209   1.39248   0.29491   0.85037   0.76313
  58   35092.3    285.0   0.292520953   2.74423  -0.37440  -1.11553  -1.16604
  59   35260.5    283.6   0.013766002   0.12853  -0.19887   0.04005  -0.29559
  60   35381.4    282.6   0.153063745   1.42421  -0.38057  -0.78841  -0.81104
  61   35689.4    280.2   0.075353037   0.69508   0.03146  -0.56907  -0.60848
  62   35726.9    279.9   0.014500145   0.13361   0.35099  -0.06133  -0.08162
  63   35760.9    279.6   0.023725858   0.21842  -0.02648   0.24362   0.39795
  64   36009.2    277.7   0.192610863   1.76094   0.61618   0.99170   0.63071
  65   36061.2    277.3   0.293323819   2.67783  -1.19007  -1.07014  -0.34111
  66   36126.5    276.8   0.085165718   0.77609   0.32216   0.77127   0.27830
  67   36213.6    276.1   0.087001106   0.79091  -0.55738  -0.62775  -0.29355
  68   36330.3    275.3   0.032553340   0.29499  -0.45856  -0.27761   0.08744
  69   36365.4    275.0   0.014127253   0.12789   0.03428  -0.15591  -0.32001
  70   36498.6    274.0   0.008146799   0.07348  -0.25381  -0.05836  -0.07521
  71   36651.6    272.8   0.001571795   0.01412  -0.04118   0.11119   0.00771
  72   36652.3    272.8   0.032215848   0.28936  -0.19358   0.27721   0.41839
  73   36714.2    272.4   0.025671853   0.23020   0.10781   0.33812   0.32287
  74   36805.6    271.7   0.004992322   0.04465  -0.17130  -0.05658   0.11004
  75   36819.8    271.6   0.066714011   0.59650   0.30818   0.67512   0.21388
  76   36973.5    270.5   0.091767969   0.81710  -0.28256  -0.73462  -0.44452
  77   37290.6    268.2   0.010488552   0.09260  -0.24813  -0.16336   0.06589
  78   37367.4    267.6   0.017234176   0.15184   0.13727   0.25985   0.25588
  79   37436.7    267.1   0.012069284   0.10614   0.19430   0.25344   0.06446
  80   37628.8    265.8   0.024956592   0.21834  -0.38931  -0.03948   0.25538
  81   37817.2    264.4   0.005631021   0.04902  -0.20851  -0.02029   0.07163
  82   38101.6    262.5   0.017753876   0.15340  -0.26705  -0.28146   0.05352
  83   38139.4    262.2   0.006273746   0.05415   0.09283   0.02088  -0.21237
  84   38185.5    261.9   0.012160465   0.10484  -0.27518  -0.16370   0.04818
  85   38218.7    261.7   0.001646849   0.01419   0.00639   0.11782   0.01625
  86   38309.5    261.0   0.036216197   0.31122  -0.48458  -0.25407  -0.10888
  87   38434.6    260.2   0.005776901   0.04948  -0.20752  -0.02051   0.07743
  88   38532.9    259.5   0.022879311   0.19547   0.41191   0.09420  -0.13010
  89   38615.3    259.0   0.015608753   0.13307  -0.32356  -0.16556  -0.03117
  90   38631.4    258.9   0.070611503   0.60174   0.60494   0.45925   0.15773
  91   38683.7    258.5   0.017850793   0.15192   0.31309   0.22798  -0.04379
  92   38962.0    256.7   0.000720447   0.00609   0.00379   0.07755   0.00773
  93   39023.5    256.3   0.005310609   0.04480  -0.14533  -0.14725   0.04468
  94   39044.1    256.1   0.027530610   0.23213   0.23362   0.39170   0.15533
  95   39173.3    255.3   0.003885605   0.03265  -0.09447  -0.15318  -0.01632
  96   39278.3    254.6   0.081186709   0.68047  -0.72441  -0.13173   0.37195
  97   39345.5    254.2   0.045296410   0.37900  -0.48485  -0.32276  -0.19936
  98   39581.6    252.6   0.095897707   0.79761  -0.78156  -0.34538  -0.25976
  99   39719.9    251.8   0.331947736   2.75129  -1.17724  -1.08694  -0.42891
 100   39810.1    251.2   0.091472906   0.75644  -0.67878  -0.53225  -0.11143
 101   39940.8    250.4   0.030926286   0.25491  -0.26898  -0.15397  -0.39856
 102   40131.7    249.2   0.023486443   0.19267  -0.06343  -0.36916  -0.22883
 103   40164.2    249.0   0.004456036   0.03652  -0.10230  -0.05712   0.15098
 104   40216.6    248.7   0.026839495   0.21971   0.32316   0.33814  -0.03053

FINAL SINGLE POINT ENERGY     -4296.789536743981

DIPOLE MOMENT
-------------
                                X             Y             Z
Electronic contribution:     -6.07106      -2.86113      10.37314
Nuclear contribution   :      5.44464       3.30897     -10.47871
                        -----------------------------------------
Total Dipole Moment    :     -0.62642       0.44785      -0.10557
                        -----------------------------------------
Magnitude (a.u.)       :      0.77725
Magnitude (Debye)      :      1.97560

Rotational constants in cm-1:     0.001289     0.000675     0.000500
Rotational constants in MHz :    38.635244    20.246744    14.978798

                             ****ORCA TERMINATED NORMALLY****
TOTAL RUN TIME: 0 days 0 hours 9 minutes 15 seconds 907 msec
