                         Program Version 4.2.0 -  RELEASE  -
|  1> # ORCA input file
|  2> # SCF done       -193.684002360222          0.000705037902
|  3> ! CAM-B3LYP def2-SVP def2/J RIJCOSX Grid4 TightSCF
|  4> %maxcore 5000
|  5> %tddft
|  6>     Mode sTDDFT
|  7>     Ethresh 5.0
|  8>     maxcore 5000
|  9> end
| 10>
| 11> %pal
| 12>   nprocs 6
| 13>   end
| 14> * xyz 0 1
| 15>    C        1.30443         3.02650        -1.12227
| 16>    C        1.00527         4.45332        -1.47070
| 17>    O        0.76476         5.33218        -0.67601
| 18>    C        1.12146         4.50979        -2.93303
| 19>    C        1.30752         3.21918        -3.44230
| 20>    C        1.25526         2.25424        -2.35340
| 21>    C        0.99416         0.91856        -2.45481
| 22>    C        0.69598         0.10751        -1.33883
| 23>    N        0.37752        -0.56572        -0.46539
| 24>    C        0.88045         0.22370        -3.67864
| 25>    N        0.77909        -0.38414        -4.64577
| 26>    C        1.47741         3.01244        -4.81714
| 27>    C        1.44290         4.09727        -5.65440
| 28>    C        1.23558         5.41053        -5.17639
| 29>    C        1.07356         5.63694        -3.77778
| 30>    C        0.87154         6.94907        -3.30517
| 31>    C        0.82580         7.99620        -4.18493
| 32>    C        0.98193         7.77911        -5.56302
| 33>    C        1.18330         6.51567        -6.04923
| 34>    C        1.67484         2.68151         0.12567
| 35>    C        2.27419         1.43344         0.50510
| 36>    N        3.20995         0.88512        -0.24197
| 37>    C        3.61806        -0.22428         0.42243
| 38>    C        2.89175        -0.37062         1.68790
| 39>    C        3.31616        -1.58938         2.40143
| 40>    O        2.94871        -1.99811         3.47673
| 41>    C        4.30488        -2.16821         1.46648
| 42>    C        4.46221        -1.29152         0.27755
| 43>    N        5.35157        -1.82818        -0.59566
| 44>    C        5.73351        -2.95212        -0.04812
| 45>    C        5.10992        -3.23223         1.23701
| 46>    C        2.00132         0.66968         1.74820
| 47>    C        0.99825         0.87088         2.73416
| 48>    C       -0.01304         1.76543         2.68172
| 49>    C       -1.01799         1.87777         3.68224
| 50>    S       -1.14199         0.76029         5.00874
| 51>    C       -2.52469         1.57810         5.65274
| 52>    C       -2.85065         2.66904         4.85540
| 53>    C       -2.01310         2.83343         3.75046
| 54>    N       -4.00660         3.50834         5.05289
| 55>    O       -3.84980         4.68720         4.83855
| 56>    O       -5.04271         2.96771         5.34863
| 57>    C       -3.12560         1.23382         6.89847
| 58>    N       -3.67146         2.17663         7.64398
| 59>    C       -4.13857         1.55110         8.74494
| 60>    C       -3.84206         0.11033         8.70376
| 61>    C       -4.38803        -0.55930         9.89674
| 62>    O       -4.29575        -1.72421        10.22227
| 63>    C       -5.05690         0.54254        10.60768
| 64>    C       -4.85477         1.82077         9.88242
| 65>    N       -5.47853         2.83664        10.52634
| 66>    C       -6.05920         2.28351        11.56007
| 67>    C       -5.84810         0.84865        11.66446
| 68>    C       -3.20374        -0.11496         7.50775
| 69>    C       -2.79881        -1.33543         6.89886
| 70>    C       -2.94282        -2.52980         7.52017
| 71>    C       -2.64217        -3.77782         6.91286
| 72>    C       -3.07271        -4.98221         7.36427
| 73>    C       -2.44288        -6.25378         6.90436
| 74>    O       -1.74406        -6.38828         5.92507
| 75>    C       -2.81665        -7.25002         7.92307
| 76>    C       -3.70708        -6.67820         8.83518
| 77>    C       -4.01202        -5.31273         8.42009
| 78>    C       -5.10720        -4.58206         8.78961
| 79>    C       -5.53770        -3.41185         8.12428
| 80>    N       -5.98173        -2.51103         7.56938
| 81>    C       -6.01867        -4.97421         9.79329
| 82>    N       -6.78550        -5.24283        10.60352
| 83>    C       -4.19031        -7.42039         9.92064
| 84>    C       -3.78057        -8.72033        10.06408
| 85>    C       -2.89452        -9.33391         9.15098
| 86>    C       -2.38894        -8.58671         8.04757
| 87>    C       -1.50122        -9.20111         7.14129
| 88>    C       -1.13231       -10.50622         7.31913
| 89>    C       -1.62905       -11.24785         8.40280
| 90>    C       -2.48976       -10.67592         9.29934
| 91>    H        1.64244         2.02180        -5.20832
| 92>    H        1.57423         3.95625        -6.71740
| 93>    H        0.75304         7.10583        -2.24474
| 94>    H        0.66813         9.00082        -3.82270
| 95>    H        0.94189         8.62011        -6.23895
| 96>    H        1.30275         6.34633        -7.10935
| 97>    H        1.58923         3.44311         0.89418
| 98>    H        6.45458        -3.58017        -0.54215
| 99>    H        5.28543        -4.10355         1.83613
|100>    H        1.05669         0.18969         3.57546
|101>    H       -0.11433         2.44482         1.84696
|102>    H       -2.13750         3.62340         3.03153
|103>    H       -6.63043         2.88244        12.24810
|104>    H       -6.24847         0.21355        12.42959
|105>    H       -2.43732        -1.30033         5.88003
|106>    H       -3.30937        -2.54615         8.53756
|107>    H       -1.98232        -3.78953         6.05206
|108>    H       -4.86274        -6.97556        10.63594
|109>    H       -4.14128        -9.30602        10.89735
|110>    H       -1.12564        -8.62175         6.31273
|111>    H       -0.45353       -10.97682         6.62369
|112>    H       -1.32464       -12.27696         8.52367
|113>    H       -2.87351       -11.24476        10.13391
|114> *
|115>
|116>                          ****END OF INPUT****

CARTESIAN COORDINATES (ANGSTROEM)
---------------------------------
  C      1.304430    3.026500   -1.122270
  C      1.005270    4.453320   -1.470700
  O      0.764760    5.332180   -0.676010
  C      1.121460    4.509790   -2.933030
  C      1.307520    3.219180   -3.442300
  C      1.255260    2.254240   -2.353400
  C      0.994160    0.918560   -2.454810
  C      0.695980    0.107510   -1.338830
  N      0.377520   -0.565720   -0.465390
  C      0.880450    0.223700   -3.678640
  N      0.779090   -0.384140   -4.645770
  C      1.477410    3.012440   -4.817140
  C      1.442900    4.097270   -5.654400
  C      1.235580    5.410530   -5.176390
  C      1.073560    5.636940   -3.777780
  C      0.871540    6.949070   -3.305170
  C      0.825800    7.996200   -4.184930
  C      0.981930    7.779110   -5.563020
  C      1.183300    6.515670   -6.049230
  C      1.674840    2.681510    0.125670
  C      2.274190    1.433440    0.505100
  N      3.209950    0.885120   -0.241970
  C      3.618060   -0.224280    0.422430
  C      2.891750   -0.370620    1.687900
  C      3.316160   -1.589380    2.401430
  O      2.948710   -1.998110    3.476730
  C      4.304880   -2.168210    1.466480
  C      4.462210   -1.291520    0.277550
  N      5.351570   -1.828180   -0.595660
  C      5.733510   -2.952120   -0.048120
  C      5.109920   -3.232230    1.237010
  C      2.001320    0.669680    1.748200
  C      0.998250    0.870880    2.734160
  C     -0.013040    1.765430    2.681720
  C     -1.017990    1.877770    3.682240
  S     -1.141990    0.760290    5.008740
  C     -2.524690    1.578100    5.652740
  C     -2.850650    2.669040    4.855400
  C     -2.013100    2.833430    3.750460
  N     -4.006600    3.508340    5.052890
  O     -3.849800    4.687200    4.838550
  O     -5.042710    2.967710    5.348630
  C     -3.125600    1.233820    6.898470
  N     -3.671460    2.176630    7.643980
  C     -4.138570    1.551100    8.744940
  C     -3.842060    0.110330    8.703760
  C     -4.388030   -0.559300    9.896740
  O     -4.295750   -1.724210   10.222270
  C     -5.056900    0.542540   10.607680
  C     -4.854770    1.820770    9.882420
  N     -5.478530    2.836640   10.526340
  C     -6.059200    2.283510   11.560070
  C     -5.848100    0.848650   11.664460
  C     -3.203740   -0.114960    7.507750
  C     -2.798810   -1.335430    6.898860
  C     -2.942820   -2.529800    7.520170
  C     -2.642170   -3.777820    6.912860
  C     -3.072710   -4.982210    7.364270
  C     -2.442880   -6.253780    6.904360
  O     -1.744060   -6.388280    5.925070
  C     -2.816650   -7.250020    7.923070
  C     -3.707080   -6.678200    8.835180
  C     -4.012020   -5.312730    8.420090
  C     -5.107200   -4.582060    8.789610
  C     -5.537700   -3.411850    8.124280
  N     -5.981730   -2.511030    7.569380
  C     -6.018670   -4.974210    9.793290
  N     -6.785500   -5.242830   10.603520
  C     -4.190310   -7.420390    9.920640
  C     -3.780570   -8.720330   10.064080
  C     -2.894520   -9.333910    9.150980
  C     -2.388940   -8.586710    8.047570
  C     -1.501220   -9.201110    7.141290
  C     -1.132310  -10.506220    7.319130
  C     -1.629050  -11.247850    8.402800
  C     -2.489760  -10.675920    9.299340
  H      1.642440    2.021800   -5.208320
  H      1.574230    3.956250   -6.717400
  H      0.753040    7.105830   -2.244740
  H      0.668130    9.000820   -3.822700
  H      0.941890    8.620110   -6.238950
  H      1.302750    6.346330   -7.109350
  H      1.589230    3.443110    0.894180
  H      6.454580   -3.580170   -0.542150
  H      5.285430   -4.103550    1.836130
  H      1.056690    0.189690    3.575460
  H     -0.114330    2.444820    1.846960
  H     -2.137500    3.623400    3.031530
  H     -6.630430    2.882440   12.248100
  H     -6.248470    0.213550   12.429590
  H     -2.437320   -1.300330    5.880030
  H     -3.309370   -2.546150    8.537560
  H     -1.982320   -3.789530    6.052060
  H     -4.862740   -6.975560   10.635940
  H     -4.141280   -9.306020   10.897350
  H     -1.125640   -8.621750    6.312730
  H     -0.453530  -10.976820    6.623690
  H     -1.324640  -12.276960    8.523670
  H     -2.873510  -11.244760   10.133910

 Total Charge           Charge          ....    0
 Multiplicity           Mult            ....    1
 Number of Electrons    NEL             ....  510
 Basis Dimension        Dim             .... 1183

ORBITAL ENERGIES
----------------

  NO   OCC          E(Eh)            E(eV)
   0   2.0000     -88.995142     -2421.6809
   1   2.0000     -19.242074      -523.6035
   2   2.0000     -19.241613      -523.5909
   3   2.0000     -19.238268      -523.4999
   4   2.0000     -19.221590      -523.0461
   5   2.0000     -19.217662      -522.9392
   6   2.0000     -19.215249      -522.8735
   7   2.0000     -14.649665      -398.6377
   8   2.0000     -14.430585      -392.6762
   9   2.0000     -14.429933      -392.6584
  10   2.0000     -14.428286      -392.6136
  11   2.0000     -14.418911      -392.3585
  12   2.0000     -14.416171      -392.2839
  13   2.0000     -14.410998      -392.1432
  14   2.0000     -14.408633      -392.0788
  15   2.0000     -14.407272      -392.0418
  16   2.0000     -10.387960      -282.6708
  17   2.0000     -10.381720      -282.5010
  18   2.0000     -10.377072      -282.3745
  19   2.0000     -10.365451      -282.0583
  20   2.0000     -10.362517      -281.9784
  21   2.0000     -10.361914      -281.9620
  22   2.0000     -10.355916      -281.7988
  23   2.0000     -10.354737      -281.7667
  24   2.0000     -10.346453      -281.5413
  25   2.0000     -10.344322      -281.4833
  26   2.0000     -10.342284      -281.4278
  27   2.0000     -10.340723      -281.3854
  28   2.0000     -10.340644      -281.3832
  29   2.0000     -10.340176      -281.3705
  30   2.0000     -10.338853      -281.3345
  31   2.0000     -10.336295      -281.2649
  32   2.0000     -10.335526      -281.2440
  33   2.0000     -10.332395      -281.1588
  34   2.0000     -10.331263      -281.1280
  35   2.0000     -10.329727      -281.0862
  36   2.0000     -10.329552      -281.0814
  37   2.0000     -10.329464      -281.0790
  38   2.0000     -10.327594      -281.0281
  39   2.0000     -10.325419      -280.9689
  40   2.0000     -10.318079      -280.7692
  41   2.0000     -10.313561      -280.6463
  42   2.0000     -10.313082      -280.6332
  43   2.0000     -10.311420      -280.5880
  44   2.0000     -10.311206      -280.5822
  45   2.0000     -10.310603      -280.5658
  46   2.0000     -10.310433      -280.5611
  47   2.0000     -10.309414      -280.5334
  48   2.0000     -10.309024      -280.5228
  49   2.0000     -10.308914      -280.5198
  50   2.0000     -10.307374      -280.4779
  51   2.0000     -10.307268      -280.4750
  52   2.0000     -10.306612      -280.4572
  53   2.0000     -10.303455      -280.3713
  54   2.0000     -10.303080      -280.3611
  55   2.0000     -10.302124      -280.3350
  56   2.0000     -10.301355      -280.3141
  57   2.0000     -10.299554      -280.2651
  58   2.0000     -10.296815      -280.1906
  59   2.0000     -10.295339      -280.1504
  60   2.0000     -10.294476      -280.1269
  61   2.0000     -10.293878      -280.1107
  62   2.0000     -10.293755      -280.1073
  63   2.0000     -10.293442      -280.0988
  64   2.0000     -10.292933      -280.0849
  65   2.0000     -10.292322      -280.0683
  66   2.0000     -10.292309      -280.0680
  67   2.0000     -10.292259      -280.0666
  68   2.0000     -10.292077      -280.0617
  69   2.0000     -10.288972      -279.9772
  70   2.0000     -10.288451      -279.9630
  71   2.0000     -10.287971      -279.9499
  72   2.0000     -10.281322      -279.7690
  73   2.0000     -10.280804      -279.7549
  74   2.0000     -10.278900      -279.7031
  75   2.0000     -10.274740      -279.5899
  76   2.0000      -8.089989      -220.1398
  77   2.0000      -6.059168      -164.8784
  78   2.0000      -6.055044      -164.7661
  79   2.0000      -6.052319      -164.6920
  80   2.0000      -1.325333       -36.0641
  81   2.0000      -1.153219       -31.3807
  82   2.0000      -1.145696       -31.1760
  83   2.0000      -1.136889       -30.9363
  84   2.0000      -1.131809       -30.7981
  85   2.0000      -1.129904       -30.7463
  86   2.0000      -1.094835       -29.7920
  87   2.0000      -1.084872       -29.5209
  88   2.0000      -1.074691       -29.2438
  89   2.0000      -1.064769       -28.9738
  90   2.0000      -1.033368       -28.1194
  91   2.0000      -1.024400       -27.8753
  92   2.0000      -1.014174       -27.5971
  93   2.0000      -1.014152       -27.5965
  94   2.0000      -1.007380       -27.4122
  95   2.0000      -0.994858       -27.0715
  96   2.0000      -0.987579       -26.8734
  97   2.0000      -0.982885       -26.7457
  98   2.0000      -0.965914       -26.2839
  99   2.0000      -0.952512       -25.9192
 100   2.0000      -0.946592       -25.7581
 101   2.0000      -0.938293       -25.5323
 102   2.0000      -0.934529       -25.4298
 103   2.0000      -0.931872       -25.3575
 104   2.0000      -0.920087       -25.0368
 105   2.0000      -0.917176       -24.9576
 106   2.0000      -0.908129       -24.7114
 107   2.0000      -0.900732       -24.5102
 108   2.0000      -0.898702       -24.4549
 109   2.0000      -0.890592       -24.2342
 110   2.0000      -0.879955       -23.9448
 111   2.0000      -0.874679       -23.8012
 112   2.0000      -0.866592       -23.5812
 113   2.0000      -0.863512       -23.4974
 114   2.0000      -0.857116       -23.3233
 115   2.0000      -0.850778       -23.1508
 116   2.0000      -0.844833       -22.9891
 117   2.0000      -0.840284       -22.8653
 118   2.0000      -0.821075       -22.3426
 119   2.0000      -0.809350       -22.0235
 120   2.0000      -0.799874       -21.7657
 121   2.0000      -0.788595       -21.4588
 122   2.0000      -0.782519       -21.2934
 123   2.0000      -0.779487       -21.2109
 124   2.0000      -0.768914       -20.9232
 125   2.0000      -0.762733       -20.7550
 126   2.0000      -0.754529       -20.5318
 127   2.0000      -0.753350       -20.4997
 128   2.0000      -0.735818       -20.0226
 129   2.0000      -0.727420       -19.7941
 130   2.0000      -0.726227       -19.7616
 131   2.0000      -0.717142       -19.5144
 132   2.0000      -0.713677       -19.4201
 133   2.0000      -0.708240       -19.2722
 134   2.0000      -0.704680       -19.1753
 135   2.0000      -0.699097       -19.0234
 136   2.0000      -0.691655       -18.8209
 137   2.0000      -0.681055       -18.5324
 138   2.0000      -0.674664       -18.3586
 139   2.0000      -0.671881       -18.2828
 140   2.0000      -0.664988       -18.0953
 141   2.0000      -0.659797       -17.9540
 142   2.0000      -0.651516       -17.7287
 143   2.0000      -0.648671       -17.6512
 144   2.0000      -0.644900       -17.5486
 145   2.0000      -0.641866       -17.4661
 146   2.0000      -0.630529       -17.1576
 147   2.0000      -0.628043       -17.0899
 148   2.0000      -0.627685       -17.0802
 149   2.0000      -0.626192       -17.0396
 150   2.0000      -0.625149       -17.0112
 151   2.0000      -0.618804       -16.8385
 152   2.0000      -0.612560       -16.6686
 153   2.0000      -0.606844       -16.5131
 154   2.0000      -0.602362       -16.3911
 155   2.0000      -0.601213       -16.3598
 156   2.0000      -0.591634       -16.0992
 157   2.0000      -0.590081       -16.0569
 158   2.0000      -0.585421       -15.9301
 159   2.0000      -0.585325       -15.9275
 160   2.0000      -0.583952       -15.8902
 161   2.0000      -0.578653       -15.7460
 162   2.0000      -0.575323       -15.6553
 163   2.0000      -0.571775       -15.5588
 164   2.0000      -0.567206       -15.4345
 165   2.0000      -0.561163       -15.2700
 166   2.0000      -0.557464       -15.1694
 167   2.0000      -0.555272       -15.1097
 168   2.0000      -0.552410       -15.0318
 169   2.0000      -0.551953       -15.0194
 170   2.0000      -0.550285       -14.9740
 171   2.0000      -0.544932       -14.8283
 172   2.0000      -0.541804       -14.7432
 173   2.0000      -0.536632       -14.6025
 174   2.0000      -0.534090       -14.5333
 175   2.0000      -0.531402       -14.4602
 176   2.0000      -0.531081       -14.4514
 177   2.0000      -0.526366       -14.3231
 178   2.0000      -0.525110       -14.2890
 179   2.0000      -0.522176       -14.2091
 180   2.0000      -0.521085       -14.1795
 181   2.0000      -0.520468       -14.1627
 182   2.0000      -0.518982       -14.1222
 183   2.0000      -0.515007       -14.0141
 184   2.0000      -0.514030       -13.9875
 185   2.0000      -0.513821       -13.9818
 186   2.0000      -0.509876       -13.8744
 187   2.0000      -0.505496       -13.7552
 188   2.0000      -0.503335       -13.6964
 189   2.0000      -0.501733       -13.6528
 190   2.0000      -0.500757       -13.6263
 191   2.0000      -0.496471       -13.5097
 192   2.0000      -0.492888       -13.4122
 193   2.0000      -0.492746       -13.4083
 194   2.0000      -0.491006       -13.3610
 195   2.0000      -0.489305       -13.3147
 196   2.0000      -0.485376       -13.2077
 197   2.0000      -0.484241       -13.1769
 198   2.0000      -0.482174       -13.1206
 199   2.0000      -0.478091       -13.0095
 200   2.0000      -0.477324       -12.9887
 201   2.0000      -0.474974       -12.9247
 202   2.0000      -0.474491       -12.9116
 203   2.0000      -0.473602       -12.8874
 204   2.0000      -0.467592       -12.7238
 205   2.0000      -0.465337       -12.6625
 206   2.0000      -0.463766       -12.6197
 207   2.0000      -0.457012       -12.4359
 208   2.0000      -0.455834       -12.4039
 209   2.0000      -0.451017       -12.2728
 210   2.0000      -0.447280       -12.1711
 211   2.0000      -0.447046       -12.1647
 212   2.0000      -0.442888       -12.0516
 213   2.0000      -0.441941       -12.0258
 214   2.0000      -0.440555       -11.9881
 215   2.0000      -0.439420       -11.9572
 216   2.0000      -0.435821       -11.8593
 217   2.0000      -0.434099       -11.8124
 218   2.0000      -0.432487       -11.7686
 219   2.0000      -0.429163       -11.6781
 220   2.0000      -0.427441       -11.6313
 221   2.0000      -0.426434       -11.6039
 222   2.0000      -0.424642       -11.5551
 223   2.0000      -0.417937       -11.3726
 224   2.0000      -0.412817       -11.2333
 225   2.0000      -0.411170       -11.1885
 226   2.0000      -0.398848       -10.8532
 227   2.0000      -0.389520       -10.5994
 228   2.0000      -0.387254       -10.5377
 229   2.0000      -0.384089       -10.4516
 230   2.0000      -0.383225       -10.4281
 231   2.0000      -0.381559       -10.3828
 232   2.0000      -0.378661       -10.3039
 233   2.0000      -0.370023       -10.0688
 234   2.0000      -0.369149       -10.0451
 235   2.0000      -0.368682       -10.0324
 236   2.0000      -0.366163        -9.9638
 237   2.0000      -0.362394        -9.8612
 238   2.0000      -0.356317        -9.6959
 239   2.0000      -0.352533        -9.5929
 240   2.0000      -0.349347        -9.5062
 241   2.0000      -0.347783        -9.4636
 242   2.0000      -0.346619        -9.4320
 243   2.0000      -0.340857        -9.2752
 244   2.0000      -0.338341        -9.2067
 245   2.0000      -0.336178        -9.1479
 246   2.0000      -0.334587        -9.1046
 247   2.0000      -0.331788        -9.0284
 248   2.0000      -0.328480        -8.9384
 249   2.0000      -0.321522        -8.7491
 250   2.0000      -0.314038        -8.5454
 251   2.0000      -0.305529        -8.3139
 252   2.0000      -0.291157        -7.9228
 253   2.0000      -0.285298        -7.7633
 254   2.0000      -0.278142        -7.5686
 255   0.0000      -0.130451        -3.5498
 256   0.0000      -0.120553        -3.2804
 257   0.0000      -0.093583        -2.5465
 258   0.0000      -0.087688        -2.3861
 259   0.0000      -0.075907        -2.0655

MULLIKEN ATOMIC CHARGES
-----------------------
   0 C :   -0.073966
   1 C :    0.114970
   2 O :   -0.136529
   3 C :    0.003412
   4 C :   -0.000176
   5 C :    0.282922
   6 C :   -0.291325
   7 C :   -0.179731
   8 N :    0.164337
   9 C :   -0.186431
  10 N :    0.169068
  11 C :   -0.015303
  12 C :    0.010932
  13 C :    0.076848
  14 C :    0.039964
  15 C :   -0.024229
  16 C :    0.039979
  17 C :    0.039446
  18 C :   -0.019315
  19 C :   -0.012299
  20 C :   -0.056647
  21 N :   -0.025666
  22 C :    0.088141
  23 C :   -0.118451
  24 C :    0.214510
  25 O :   -0.116895
  26 C :   -0.035464
  27 C :   -0.025338
  28 N :   -0.053175
  29 C :    0.096842
  30 C :   -0.085872
  31 C :    0.081073
  32 C :   -0.018579
  33 C :    0.029105
  34 C :   -0.031967
  35 S :    0.186667
  36 C :   -0.183995
  37 C :    0.236573
  38 C :   -0.036815
  39 N :    0.256081
  40 O :   -0.231631
  41 O :   -0.206134
  42 C :    0.034635
  43 N :   -0.032197
  44 C :    0.067485
  45 C :   -0.152535
  46 C :    0.244155
  47 O :   -0.150967
  48 C :   -0.007677
  49 C :   -0.018515
  50 N :   -0.042748
  51 C :    0.096231
  52 C :   -0.093098
  53 C :    0.053526
  54 C :   -0.029791
  55 C :    0.022050
  56 C :    0.022383
  57 C :   -0.089636
  58 C :    0.124466
  59 O :   -0.145398
  60 C :    0.000204
  61 C :   -0.001004
  62 C :    0.257847
  63 C :   -0.301525
  64 C :   -0.201319
  65 N :    0.166210
  66 C :   -0.179918
  67 N :    0.154217
  68 C :   -0.019932
  69 C :    0.005395
  70 C :    0.079621
  71 C :    0.034913
  72 C :   -0.026552
  73 C :    0.036408
  74 C :    0.038636
  75 C :   -0.019782
  76 H :    0.006396
  77 H :   -0.005070
  78 H :    0.004157
  79 H :   -0.001849
  80 H :   -0.000390
  81 H :   -0.015841
  82 H :    0.047035
  83 H :    0.018445
  84 H :    0.002395
  85 H :    0.016757
  86 H :    0.004235
  87 H :    0.010026
  88 H :    0.015885
  89 H :    0.002343
  90 H :   -0.009288
  91 H :    0.041993
  92 H :    0.017273
  93 H :    0.002814
  94 H :   -0.012785
  95 H :    0.001008
  96 H :   -0.007238
  97 H :   -0.007290
  98 H :   -0.021739
Sum of atomic charges:   -0.0000000

LOEWDIN ATOMIC CHARGES
----------------------
   0 C :   -0.027368
   1 C :    0.087303
   2 O :   -0.129759
   3 C :   -0.034550
   4 C :    0.003205
   5 C :    0.072472
   6 C :   -0.108061
   7 C :   -0.013837
   8 N :   -0.042146
   9 C :   -0.018927
  10 N :   -0.034262
  11 C :   -0.015180
  12 C :    0.028344
  13 C :   -0.008249
  14 C :   -0.001517
  15 C :   -0.001746
  16 C :   -0.006680
  17 C :   -0.008067
  18 C :   -0.009377
  19 C :    0.026549
  20 C :    0.061915
  21 N :   -0.086599
  22 C :    0.041087
  23 C :   -0.030682
  24 C :    0.068364
  25 O :   -0.129271
  26 C :   -0.035073
  27 C :    0.040806
  28 N :   -0.093179
  29 C :    0.088417
  30 C :   -0.026164
  31 C :   -0.024264
  32 C :   -0.004664
  33 C :   -0.027417
  34 C :   -0.149141
  35 S :    0.504050
  36 C :   -0.176178
  37 C :   -0.021626
  38 C :   -0.031870
  39 N :    0.283275
  40 O :   -0.193203
  41 O :   -0.174607
  42 C :    0.046562
  43 N :   -0.086944
  44 C :    0.046824
  45 C :   -0.028880
  46 C :    0.078916
  47 O :   -0.139036
  48 C :   -0.034407
  49 C :    0.039050
  50 N :   -0.089078
  51 C :    0.084983
  52 C :   -0.026761
  53 C :   -0.027914
  54 C :   -0.009391
  55 C :    0.006497
  56 C :    0.055829
  57 C :   -0.069028
  58 C :    0.085861
  59 O :   -0.138085
  60 C :   -0.034334
  61 C :   -0.001368
  62 C :    0.067327
  63 C :   -0.116462
  64 C :   -0.016860
  65 N :   -0.049504
  66 C :   -0.014771
  67 N :   -0.047128
  68 C :   -0.016739
  69 C :    0.019628
  70 C :   -0.009860
  71 C :   -0.002954
  72 C :   -0.002166
  73 C :   -0.012777
  74 C :   -0.013401
  75 C :   -0.012489
  76 H :    0.041951
  77 H :    0.038579
  78 H :    0.036539
  79 H :    0.034840
  80 H :    0.034375
  81 H :    0.032372
  82 H :    0.053075
  83 H :    0.027243
  84 H :    0.037642
  85 H :    0.036162
  86 H :    0.038880
  87 H :    0.046238
  88 H :    0.026285
  89 H :    0.037428
  90 H :    0.019708
  91 H :    0.034169
  92 H :    0.045704
  93 H :    0.040342
  94 H :    0.035537
  95 H :    0.035522
  96 H :    0.032299
  97 H :    0.031676
  98 H :    0.030166

  Mayer bond orders larger than 0.100000
B(  0-C ,  1-C ) :   0.9291 B(  0-C ,  5-C ) :   0.9924 B(  0-C , 19-C ) :   1.8111
B(  1-C ,  2-O ) :   2.2169 B(  1-C ,  3-C ) :   0.9467 B(  3-C ,  4-C ) :   1.3948
B(  3-C , 14-C ) :   1.2348 B(  4-C ,  5-C ) :   1.0139 B(  4-C , 11-C ) :   1.2646
B(  5-C ,  6-C ) :   1.6957 B(  6-C ,  7-C ) :   1.1570 B(  6-C ,  9-C ) :   1.1268
B(  7-C ,  8-N ) :   2.9848 B(  9-C , 10-N ) :   2.9974 B( 11-C , 12-C ) :   1.4675
B( 11-C , 76-H ) :   0.9863 B( 12-C , 13-C ) :   1.2211 B( 12-C , 77-H ) :   0.9943
B( 13-C , 14-C ) :   1.2408 B( 13-C , 18-C ) :   1.2427 B( 14-C , 15-C ) :   1.2791
B( 15-C , 16-C ) :   1.4713 B( 15-C , 78-H ) :   0.9871 B( 16-C , 17-C ) :   1.2589
B( 16-C , 79-H ) :   0.9880 B( 17-C , 18-C ) :   1.4917 B( 17-C , 80-H ) :   0.9897
B( 18-C , 81-H ) :   0.9982 B( 19-C , 20-C ) :   0.9911 B( 19-C , 82-H ) :   0.9225
B( 20-C , 21-N ) :   1.6413 B( 20-C , 22-C ) :   0.1115 B( 20-C , 31-C ) :   1.0043
B( 21-N , 22-C ) :   1.2840 B( 22-C , 23-C ) :   1.0608 B( 22-C , 27-C ) :   1.4540
B( 23-C , 24-C ) :   0.8874 B( 23-C , 31-C ) :   1.5478 B( 24-C , 25-O ) :   2.2905
B( 24-C , 26-C ) :   0.8965 B( 26-C , 27-C ) :   1.0463 B( 26-C , 30-C ) :   1.6425
B( 27-C , 28-N ) :   1.2989 B( 28-N , 29-C ) :   1.6711 B( 29-C , 30-C ) :   1.0511
B( 29-C , 83-H ) :   0.9888 B( 30-C , 84-H ) :   1.0088 B( 31-C , 32-C ) :   1.1563
B( 32-C , 33-C ) :   1.6296 B( 32-C , 85-H ) :   0.9570 B( 33-C , 34-C ) :   1.1453
B( 33-C , 86-H ) :   0.9676 B( 34-C , 35-S ) :   1.1228 B( 34-C , 36-C ) :   0.1109
B( 34-C , 38-C ) :   1.4263 B( 35-S , 36-C ) :   1.1662 B( 36-C , 37-C ) :   1.4860
B( 36-C , 42-C ) :   1.0595 B( 37-C , 38-C ) :   1.2800 B( 37-C , 39-N ) :   0.8787
B( 38-C , 87-H ) :   1.0147 B( 39-N , 40-O ) :   1.5384 B( 39-N , 41-O ) :   1.5654
B( 40-O , 41-O ) :   0.2849 B( 42-C , 43-N ) :   1.6409 B( 42-C , 44-C ) :   0.1254
B( 42-C , 53-C ) :   1.0348 B( 43-N , 44-C ) :   1.3402 B( 44-C , 45-C ) :   1.0603
B( 44-C , 49-C ) :   1.4286 B( 45-C , 46-C ) :   0.8948 B( 45-C , 53-C ) :   1.5524
B( 46-C , 47-O ) :   2.1462 B( 46-C , 48-C ) :   0.9356 B( 47-O , 91-H ) :   0.1036
B( 48-C , 49-C ) :   1.0592 B( 48-C , 52-C ) :   1.6176 B( 49-C , 50-N ) :   1.3116
B( 50-N , 51-C ) :   1.6608 B( 51-C , 52-C ) :   1.0573 B( 51-C , 88-H ) :   0.9887
B( 52-C , 89-H ) :   1.0107 B( 53-C , 54-C ) :   1.0917 B( 54-C , 55-C ) :   1.6938
B( 54-C , 90-H ) :   0.9611 B( 55-C , 56-C ) :   1.0861 B( 55-C , 91-H ) :   0.9271
B( 56-C , 57-C ) :   1.6690 B( 56-C , 92-H ) :   0.9635 B( 57-C , 58-C ) :   0.9477
B( 57-C , 62-C ) :   1.0150 B( 58-C , 59-O ) :   2.2039 B( 58-C , 60-C ) :   0.9416
B( 60-C , 61-C ) :   1.4105 B( 60-C , 71-C ) :   1.2347 B( 61-C , 62-C ) :   1.0059
B( 61-C , 68-C ) :   1.2624 B( 62-C , 63-C ) :   1.6716 B( 63-C , 64-C ) :   1.1564
B( 63-C , 66-C ) :   1.1344 B( 64-C , 65-N ) :   2.9920 B( 66-C , 67-N ) :   2.9923
B( 68-C , 69-C ) :   1.4670 B( 68-C , 93-H ) :   0.9861 B( 69-C , 70-C ) :   1.2229
B( 69-C , 94-H ) :   0.9942 B( 70-C , 71-C ) :   1.2433 B( 70-C , 75-C ) :   1.2397
B( 71-C , 72-C ) :   1.2765 B( 72-C , 73-C ) :   1.4736 B( 72-C , 95-H ) :   0.9866
B( 73-C , 74-C ) :   1.2562 B( 73-C , 96-H ) :   0.9878 B( 74-C , 75-C ) :   1.4947
B( 74-C , 97-H ) :   0.9886 B( 75-C , 98-H ) :   0.9975

-----------------------------------------------------------------------------
         ABSORPTION SPECTRUM VIA TRANSITION ELECTRIC DIPOLE MOMENTS
-----------------------------------------------------------------------------
State   Energy  Wavelength   fosc         T2         TX        TY        TZ
        (cm-1)    (nm)                  (au**2)     (au)      (au)      (au)
-----------------------------------------------------------------------------
   0   16597.2    602.5   0.128790820   2.55462  -1.23304   0.68961   0.74744
   1   17271.3    579.0   0.060555656   1.15426  -0.19526   0.95016   0.46188
   2   19887.2    502.8   0.839856159  13.90294   2.09899   0.06903  -3.08098
   3   21426.7    466.7   0.005191694   0.07977   0.03963  -0.20656   0.18849
   4   21726.9    460.3   0.049694736   0.75299   0.57477   0.03586  -0.64911
   5   22726.7    440.0   0.039037598   0.56549  -0.42974  -0.58414   0.19898
   6   23180.8    431.4   0.102760801   1.45940  -0.05714  -1.19789  -0.14557
   7   23701.6    421.9   0.108359284   1.50509   0.28648  -1.19267   0.02351
   8   23986.8    416.9   0.262626330   3.60447   0.37234   1.85284  -0.18121
   9   24855.6    402.3   0.238066303   3.15319  -0.56144   1.27135  -1.10528
  10   24987.5    400.2   0.056424073   0.74339   0.68766  -0.48421   0.18986
  11   25458.3    392.8   0.016099844   0.20819  -0.11086  -0.06691   0.43752
  12   25488.5    392.3   0.027149302   0.35066  -0.00544  -0.37949   0.45455
  13   25816.9    387.3   0.053364272   0.68049   0.62803  -0.41836  -0.33323
  14   25967.4    385.1   0.030438795   0.38590  -0.48353   0.36869   0.12715
  15   26709.4    374.4   0.017646682   0.21751   0.35079   0.25540  -0.17095
  16   27057.8    369.6   0.074079529   0.90132   0.55876   0.17259  -0.74788
  17   27189.6    367.8   0.130644123   1.58184   1.06344  -0.01489  -0.67135
  18   27441.7    364.4   0.156560348   1.87822   0.72003  -1.15734   0.14260
  19   27507.6    363.5   0.057734142   0.69096   0.15218  -0.46572  -0.67150
  20   28179.2    354.9   0.078768128   0.92023  -0.22508   0.67509   0.64330
  21   28381.0    352.3   0.023514482   0.27276   0.13133   0.32108   0.39041
  22   28662.5    348.9   0.032438365   0.37258  -0.26118   0.53949   0.11539
  23   28913.3    345.9   0.066795454   0.76054  -0.21092   0.82090   0.20536
  24   29146.3    343.1   0.030810677   0.34801   0.15747   0.15420  -0.54721
  25   29450.3    339.6   0.058277018   0.65145  -0.34331   0.59844  -0.41889
  26   29670.3    337.0   0.069084792   0.76654   0.49084  -0.70564  -0.16642
  27   29943.8    334.0   0.018420765   0.20252   0.02620  -0.42733  -0.13866
  28   30143.7    331.7   0.360716542   3.93954  -1.26369   1.52394   0.14226
  29   30228.8    330.8   0.003206144   0.03492   0.09518   0.06338   0.14779
  30   30280.0    330.3   0.008728140   0.09489   0.04041  -0.07724  -0.29546
  31   30473.6    328.2   0.024434122   0.26397   0.42215   0.29272   0.00834
  32   30798.4    324.7   0.013187481   0.14096  -0.02621   0.04817   0.37143
  33   30925.1    323.4   0.067033748   0.71361  -0.41068   0.62078  -0.39947
  34   31034.0    322.2   0.003106340   0.03295   0.07924   0.15976  -0.03391
  35   31434.1    318.1   0.144249950   1.51074  -0.77288   0.13801   0.94570
  36   31603.0    316.4   0.028612098   0.29806   0.28999   0.43341  -0.16161
  37   31832.2    314.1   0.130098741   1.34549   0.96878   0.62855   0.10899
  38   32048.6    312.0   0.491763489   5.05153  -1.01191   1.85900   0.75610
  39   32157.2    311.0   0.136513483   1.39757  -0.68636   0.63546   0.72296
  40   32410.8    308.5   0.053542706   0.54386  -0.56622   0.46444   0.08691
  41   32746.8    305.4   0.180790679   1.81754  -0.35963   1.25710  -0.32850
  42   33038.4    302.7   0.126423463   1.25975   0.53166  -0.97384   0.16947
  43   33501.2    298.5   0.421254908   4.13962  -1.06166   1.71692   0.25429
  44   33624.7    297.4   0.758496192   7.42628   0.67135  -2.46038   0.96026
  45   33980.7    294.3   0.017411819   0.16869  -0.09077  -0.33793   0.21506
  46   34099.5    293.3   0.012423341   0.11994   0.15023  -0.30893   0.04399
  47   34136.3    292.9   0.188247534   1.81547   0.58132   0.22541  -1.19446
  48   34407.1    290.6   0.027425150   0.26241  -0.27836   0.42228   0.08127
  49   34789.4    287.4   0.055735399   0.52742   0.07095   0.69573  -0.19585
  50   34860.6    286.9   0.079713269   0.75278   0.27023  -0.80352   0.18469
  51   34977.5    285.9   0.093555071   0.88055   0.15359  -0.90463   0.19646
  52   35213.4    284.0   0.048463792   0.45309   0.05600  -0.62266   0.24949
  53   35929.1    278.3   0.004785843   0.04385  -0.10970  -0.06591   0.16575
  54   35958.8    278.1   0.026493708   0.24256  -0.25661   0.42029   0.00816
  55   36057.0    277.3   0.047372435   0.43253   0.41132  -0.01026  -0.51306
  56   36327.9    275.3   0.004580827   0.04151   0.01244  -0.14723   0.14028
  57   36388.6    274.8   0.021692880   0.19626   0.17013   0.16718  -0.37331
  58   36547.8    273.6   0.000285506   0.00257   0.05067  -0.00124  -0.00161
  59   36608.9    273.2   0.044950169   0.40422   0.47832  -0.31017  -0.28148
  60   36816.1    271.6   0.237525091   2.12397  -0.35737  -0.70235   1.22595
  61   36839.0    271.5   0.047378953   0.42340   0.04242   0.27381  -0.58875
  62   37052.2    269.9   0.016370591   0.14545   0.05097   0.11064  -0.36141
  63   37077.0    269.7   0.023619388   0.20972   0.34192  -0.21312  -0.21770
  64   37369.4    267.6   0.078634309   0.69274   0.21829  -0.76327   0.25002
  65   37497.6    266.7   0.022390193   0.19658  -0.23376  -0.06197   0.37161
  66   37653.5    265.6   0.005967845   0.05218  -0.17207   0.13462   0.06669
  67   38105.5    262.4   0.090788886   0.78437  -0.22384   0.80527  -0.29292
  68   38240.7    261.5   0.020519814   0.17665   0.21973  -0.35642   0.03659
  69   38262.5    261.4   0.029987620   0.25801  -0.08761   0.09130  -0.49194
  70   38357.7    260.7   0.002509982   0.02154   0.10720   0.05798  -0.08178
  71   38488.8    259.8   0.031591506   0.27022  -0.34586   0.21970   0.31989
  72   38552.3    259.4   0.061674179   0.52666  -0.24178  -0.44624   0.51872
  73   38631.4    258.9   0.023919242   0.20384   0.23016  -0.35490  -0.15783
  74   38811.4    257.7   0.070514949   0.59813  -0.39677  -0.03447   0.66296
  75   38881.4    257.2   0.033515708   0.28378   0.28009  -0.44844  -0.06507
  76   39177.0    255.3   0.026684242   0.22423   0.43085  -0.04557  -0.19112
  77   39280.5    254.6   0.072549606   0.60804  -0.42914   0.63045   0.16254
  78   39403.5    253.8   0.046137151   0.38547  -0.48118   0.08924   0.38206
  79   39510.7    253.1   0.049981108   0.41645  -0.50946   0.22812   0.32383
  80   39657.4    252.2   0.003181919   0.02641  -0.15704   0.03429  -0.02400
  81   39821.6    251.1   0.004412399   0.03648  -0.07500   0.17551   0.00708
  82   39884.2    250.7   0.063021800   0.52019   0.02278  -0.69234   0.20084
  83   40092.1    249.4   0.025404236   0.20860  -0.17209   0.00327   0.42306
  84   40200.9    248.8   0.256714038   2.10227  -0.92892   1.11054  -0.07795

FINAL SINGLE POINT ENERGY     -3637.996475012626

DIPOLE MOMENT
-------------
                                X             Y             Z
Electronic contribution:     -5.78105      11.36721       8.15554
Nuclear contribution   :      9.02248     -11.32964      -9.79169
                        -----------------------------------------
Total Dipole Moment    :      3.24143       0.03757      -1.63614
                        -----------------------------------------
Magnitude (a.u.)       :      3.63115
Magnitude (Debye)      :      9.22965

Rotational constants in cm-1:     0.001150     0.000385     0.000308
Rotational constants in MHz :    34.473674    11.533694     9.233954

                             ****ORCA TERMINATED NORMALLY****
TOTAL RUN TIME: 0 days 0 hours 10 minutes 13 seconds 692 msec
