                         Program Version 4.2.0 -  RELEASE  -
|  1> # ORCA input file
|  2> # SCF done       -185.212041496199          0.000861325354
|  3> ! CAM-B3LYP def2-SVP def2/J RIJCOSX Grid4 TightSCF
|  4> %maxcore 5000
|  5> %tddft
|  6>     Mode sTDDFT
|  7>     Ethresh 5.0
|  8>     maxcore 5000
|  9> end
| 10>
| 11> %pal
| 12>   nprocs 6
| 13>   end
| 14> * xyz 0 1
| 15>    C      -17.94837        -6.98751       -12.29328
| 16>    C      -19.20122        -7.39602       -11.86173
| 17>    C      -19.61287        -7.18579       -10.55268
| 18>    C      -18.77943        -6.56638        -9.63403
| 19>    C      -17.52453        -6.15417       -10.05288
| 20>    C      -17.10581        -6.35952       -11.38859
| 21>    C      -15.76566        -5.81479       -11.55670
| 22>    C      -14.98261        -5.91802       -12.67162
| 23>    C      -15.37136        -6.59362       -13.84995
| 24>    N      -15.62408        -7.12535       -14.83446
| 25>    C      -13.67405        -5.40186       -12.80708
| 26>    N      -12.61174        -5.01163       -12.99586
| 27>    C      -15.43765        -5.12606       -10.30913
| 28>    C      -16.43866        -5.52309        -9.32246
| 29>    C      -16.27137        -5.51605        -7.96440
| 30>    C      -15.05960        -5.19278        -7.31553
| 31>    N      -14.07741        -5.02462        -6.74615
| 32>    C      -17.25951        -5.94577        -7.05224
| 33>    N      -18.03646        -6.26966        -6.27316
| 34>    C      -14.45480        -4.19814       -10.15304
| 35>    C      -14.35046        -3.24895        -9.10195
| 36>    C      -15.44438        -2.58168        -8.37524
| 37>    N      -15.04968        -1.68435        -7.52560
| 38>    C      -13.68514        -1.69057        -7.58348
| 39>    C      -13.22201        -2.65677        -8.58704
| 40>    C      -11.78314        -2.65782        -8.66448
| 41>    S      -10.86089        -3.56609        -9.67645
| 42>    C      -11.38338        -1.66014        -7.70604
| 43>    C      -12.57811        -1.08704        -7.04917
| 44>    N      -12.21378        -0.13387        -6.14527
| 45>    C      -10.92028        -0.04013        -6.23591
| 46>    C      -10.31430        -0.95096        -7.21793
| 47>    C       -8.91394        -1.09765        -7.48226
| 48>    C       -8.34931        -2.31232        -7.76698
| 49>    S       -6.64725        -2.27213        -7.94898
| 50>    C       -6.63786        -0.55671        -7.68238
| 51>    C       -7.92976        -0.04462        -7.45370
| 52>    C       -8.11494         1.33483        -7.33269
| 53>    C       -7.03854         2.20833        -7.40242
| 54>    C       -5.72433         1.68323        -7.52308
| 55>    C       -5.54313         0.29718        -7.68250
| 56>    S       -3.86819        -0.12571        -7.83388
| 57>    C       -3.41963         1.52738        -7.63056
| 58>    C       -4.47385         2.36067        -7.47530
| 59>    C       -7.24263         3.63570        -7.40367
| 60>    C       -6.46190         4.58236        -8.21793
| 61>    N       -6.78234         5.82893        -8.05158
| 62>    C       -7.78013         5.82876        -7.12347
| 63>    C       -8.14190         4.44080        -6.75218
| 64>    C       -9.19857         4.46878        -5.77268
| 65>    S      -10.08755         3.21057        -5.19138
| 66>    C       -9.36818         5.86448        -5.46379
| 67>    C       -8.52343         6.68286        -6.36106
| 68>    N       -8.70739         8.00901        -6.11472
| 69>    C       -9.56602         8.07247        -5.14539
| 70>    C      -10.00931         6.76180        -4.64004
| 71>    C      -10.95895         6.61400        -3.59218
| 72>    C      -11.11157         5.57186        -2.73440
| 73>    C      -12.32677         5.31646        -1.95458
| 74>    C      -13.26493         6.23244        -1.57408
| 75>    C      -13.19203         7.61896        -1.83397
| 76>    N      -13.18302         8.75387        -2.00420
| 77>    C      -14.40995         5.91536        -0.80929
| 78>    N      -15.35379         5.72351        -0.18653
| 79>    C      -12.32408         3.89493        -1.64735
| 80>    C      -11.07131         3.34970        -2.01251
| 81>    C      -10.81377         1.99892        -1.85032
| 82>    C      -11.81336         1.19574        -1.32329
| 83>    C      -13.04081         1.73032        -0.95498
| 84>    C      -13.30998         3.08150        -1.11022
| 85>    C      -10.23514         4.41978        -2.53163
| 86>    C       -8.86831         4.42487        -2.58290
| 87>    C       -8.07106         3.28650        -2.33864
| 88>    N       -7.37059         2.39216        -2.17755
| 89>    C       -8.09038         5.56195        -2.87897
| 90>    N       -7.40307         6.45648        -3.09180
| 91>    H      -17.64830        -7.15525       -13.31445
| 92>    H      -19.86615        -7.88245       -12.55869
| 93>    H      -20.59532        -7.50729       -10.24311
| 94>    H      -19.11165        -6.40243        -8.62172
| 95>    H      -13.69093        -4.11377       -10.91641
| 96>    H      -16.49452        -2.75305        -8.53928
| 97>    H      -10.37402         0.61798        -5.58438
| 98>    H       -8.85985        -3.25270        -7.84136
| 99>    H       -9.11304         1.73256        -7.24201
|100>    H       -2.37802         1.78212        -7.63046
|101>    H       -4.36768         3.41533        -7.29653
|102>    H       -5.72711         4.30052        -8.95185
|103>    H       -9.89797         9.01895        -4.75599
|104>    H      -11.67188         7.42732        -3.53001
|105>    H       -9.86772         1.57406        -2.14443
|106>    H      -11.63467         0.13842        -1.20274
|107>    H      -13.80288         1.08401        -0.54757
|108>    H      -14.27167         3.47881        -0.82910
|109> *
|110>
|111>                          ****END OF INPUT****

CARTESIAN COORDINATES (ANGSTROEM)
---------------------------------
  C    -17.948370   -6.987510  -12.293280
  C    -19.201220   -7.396020  -11.861730
  C    -19.612870   -7.185790  -10.552680
  C    -18.779430   -6.566380   -9.634030
  C    -17.524530   -6.154170  -10.052880
  C    -17.105810   -6.359520  -11.388590
  C    -15.765660   -5.814790  -11.556700
  C    -14.982610   -5.918020  -12.671620
  C    -15.371360   -6.593620  -13.849950
  N    -15.624080   -7.125350  -14.834460
  C    -13.674050   -5.401860  -12.807080
  N    -12.611740   -5.011630  -12.995860
  C    -15.437650   -5.126060  -10.309130
  C    -16.438660   -5.523090   -9.322460
  C    -16.271370   -5.516050   -7.964400
  C    -15.059600   -5.192780   -7.315530
  N    -14.077410   -5.024620   -6.746150
  C    -17.259510   -5.945770   -7.052240
  N    -18.036460   -6.269660   -6.273160
  C    -14.454800   -4.198140  -10.153040
  C    -14.350460   -3.248950   -9.101950
  C    -15.444380   -2.581680   -8.375240
  N    -15.049680   -1.684350   -7.525600
  C    -13.685140   -1.690570   -7.583480
  C    -13.222010   -2.656770   -8.587040
  C    -11.783140   -2.657820   -8.664480
  S    -10.860890   -3.566090   -9.676450
  C    -11.383380   -1.660140   -7.706040
  C    -12.578110   -1.087040   -7.049170
  N    -12.213780   -0.133870   -6.145270
  C    -10.920280   -0.040130   -6.235910
  C    -10.314300   -0.950960   -7.217930
  C     -8.913940   -1.097650   -7.482260
  C     -8.349310   -2.312320   -7.766980
  S     -6.647250   -2.272130   -7.948980
  C     -6.637860   -0.556710   -7.682380
  C     -7.929760   -0.044620   -7.453700
  C     -8.114940    1.334830   -7.332690
  C     -7.038540    2.208330   -7.402420
  C     -5.724330    1.683230   -7.523080
  C     -5.543130    0.297180   -7.682500
  S     -3.868190   -0.125710   -7.833880
  C     -3.419630    1.527380   -7.630560
  C     -4.473850    2.360670   -7.475300
  C     -7.242630    3.635700   -7.403670
  C     -6.461900    4.582360   -8.217930
  N     -6.782340    5.828930   -8.051580
  C     -7.780130    5.828760   -7.123470
  C     -8.141900    4.440800   -6.752180
  C     -9.198570    4.468780   -5.772680
  S    -10.087550    3.210570   -5.191380
  C     -9.368180    5.864480   -5.463790
  C     -8.523430    6.682860   -6.361060
  N     -8.707390    8.009010   -6.114720
  C     -9.566020    8.072470   -5.145390
  C    -10.009310    6.761800   -4.640040
  C    -10.958950    6.614000   -3.592180
  C    -11.111570    5.571860   -2.734400
  C    -12.326770    5.316460   -1.954580
  C    -13.264930    6.232440   -1.574080
  C    -13.192030    7.618960   -1.833970
  N    -13.183020    8.753870   -2.004200
  C    -14.409950    5.915360   -0.809290
  N    -15.353790    5.723510   -0.186530
  C    -12.324080    3.894930   -1.647350
  C    -11.071310    3.349700   -2.012510
  C    -10.813770    1.998920   -1.850320
  C    -11.813360    1.195740   -1.323290
  C    -13.040810    1.730320   -0.954980
  C    -13.309980    3.081500   -1.110220
  C    -10.235140    4.419780   -2.531630
  C     -8.868310    4.424870   -2.582900
  C     -8.071060    3.286500   -2.338640
  N     -7.370590    2.392160   -2.177550
  C     -8.090380    5.561950   -2.878970
  N     -7.403070    6.456480   -3.091800
  H    -17.648300   -7.155250  -13.314450
  H    -19.866150   -7.882450  -12.558690
  H    -20.595320   -7.507290  -10.243110
  H    -19.111650   -6.402430   -8.621720
  H    -13.690930   -4.113770  -10.916410
  H    -16.494520   -2.753050   -8.539280
  H    -10.374020    0.617980   -5.584380
  H     -8.859850   -3.252700   -7.841360
  H     -9.113040    1.732560   -7.242010
  H     -2.378020    1.782120   -7.630460
  H     -4.367680    3.415330   -7.296530
  H     -5.727110    4.300520   -8.951850
  H     -9.897970    9.018950   -4.755990
  H    -11.671880    7.427320   -3.530010
  H     -9.867720    1.574060   -2.144430
  H    -11.634670    0.138420   -1.202740
  H    -13.802880    1.084010   -0.547570
  H    -14.271670    3.478810   -0.829100

 Total Charge           Charge          ....    0
 Multiplicity           Mult            ....    1
 Number of Electrons    NEL             ....  526
 Basis Dimension        Dim             .... 1170

ORBITAL ENERGIES
----------------

  NO   OCC          E(Eh)            E(eV)
   0   2.0000     -88.976683     -2421.1786
   1   2.0000     -88.970610     -2421.0134
   2   2.0000     -88.928806     -2419.8758
   3   2.0000     -88.917263     -2419.5617
   4   2.0000     -14.434457      -392.7815
   5   2.0000     -14.433225      -392.7480
   6   2.0000     -14.432071      -392.7166
   7   2.0000     -14.431839      -392.7103
   8   2.0000     -14.431780      -392.7087
   9   2.0000     -14.431755      -392.7080
  10   2.0000     -14.430102      -392.6630
  11   2.0000     -14.430095      -392.6628
  12   2.0000     -14.429906      -392.6577
  13   2.0000     -14.428305      -392.6141
  14   2.0000     -14.428297      -392.6139
  15   2.0000     -14.427788      -392.6001
  16   2.0000     -10.368186      -282.1327
  17   2.0000     -10.366311      -282.0817
  18   2.0000     -10.365278      -282.0536
  19   2.0000     -10.361986      -281.9640
  20   2.0000     -10.361506      -281.9509
  21   2.0000     -10.360394      -281.9207
  22   2.0000     -10.359286      -281.8905
  23   2.0000     -10.358392      -281.8662
  24   2.0000     -10.357090      -281.8307
  25   2.0000     -10.356011      -281.8014
  26   2.0000     -10.350488      -281.6511
  27   2.0000     -10.349913      -281.6354
  28   2.0000     -10.348812      -281.6055
  29   2.0000     -10.348091      -281.5859
  30   2.0000     -10.348077      -281.5855
  31   2.0000     -10.347171      -281.5608
  32   2.0000     -10.346361      -281.5388
  33   2.0000     -10.343393      -281.4580
  34   2.0000     -10.338439      -281.3232
  35   2.0000     -10.336787      -281.2783
  36   2.0000     -10.335851      -281.2528
  37   2.0000     -10.335814      -281.2518
  38   2.0000     -10.335756      -281.2502
  39   2.0000     -10.334672      -281.2207
  40   2.0000     -10.333453      -281.1875
  41   2.0000     -10.333400      -281.1861
  42   2.0000     -10.332431      -281.1598
  43   2.0000     -10.331506      -281.1346
  44   2.0000     -10.330025      -281.0943
  45   2.0000     -10.329692      -281.0852
  46   2.0000     -10.327669      -281.0302
  47   2.0000     -10.325817      -280.9798
  48   2.0000     -10.325564      -280.9729
  49   2.0000     -10.325504      -280.9713
  50   2.0000     -10.324906      -280.9550
  51   2.0000     -10.324157      -280.9346
  52   2.0000     -10.322470      -280.8887
  53   2.0000     -10.322199      -280.8813
  54   2.0000     -10.321536      -280.8633
  55   2.0000     -10.319865      -280.8178
  56   2.0000     -10.319503      -280.8079
  57   2.0000     -10.318290      -280.7749
  58   2.0000     -10.317976      -280.7664
  59   2.0000     -10.314348      -280.6677
  60   2.0000     -10.313248      -280.6377
  61   2.0000     -10.312878      -280.6277
  62   2.0000     -10.312217      -280.6097
  63   2.0000     -10.311192      -280.5818
  64   2.0000     -10.310506      -280.5631
  65   2.0000     -10.308542      -280.5097
  66   2.0000     -10.307042      -280.4689
  67   2.0000     -10.306680      -280.4590
  68   2.0000     -10.306271      -280.4479
  69   2.0000     -10.305274      -280.4208
  70   2.0000     -10.305064      -280.4150
  71   2.0000     -10.303697      -280.3779
  72   2.0000     -10.303181      -280.3638
  73   2.0000     -10.302869      -280.3553
  74   2.0000     -10.297451      -280.2079
  75   2.0000     -10.291956      -280.0584
  76   2.0000      -8.072740      -219.6704
  77   2.0000      -8.066709      -219.5063
  78   2.0000      -8.023844      -218.3399
  79   2.0000      -8.012549      -218.0325
  80   2.0000      -6.042149      -164.4152
  81   2.0000      -6.037801      -164.2969
  82   2.0000      -6.036282      -164.2556
  83   2.0000      -6.034669      -164.2117
  84   2.0000      -6.031920      -164.1369
  85   2.0000      -6.028351      -164.0398
  86   2.0000      -5.992500      -163.0642
  87   2.0000      -5.992284      -163.0583
  88   2.0000      -5.983386      -162.8162
  89   2.0000      -5.981448      -162.7635
  90   2.0000      -5.981120      -162.7546
  91   2.0000      -5.971755      -162.4997
  92   2.0000      -1.101290       -29.9676
  93   2.0000      -1.098690       -29.8969
  94   2.0000      -1.081733       -29.4354
  95   2.0000      -1.079600       -29.3774
  96   2.0000      -1.049176       -28.5495
  97   2.0000      -1.045138       -28.4396
  98   2.0000      -1.029930       -28.0258
  99   2.0000      -1.026611       -27.9355
 100   2.0000      -1.023912       -27.8620
 101   2.0000      -1.019397       -27.7392
 102   2.0000      -1.015958       -27.6456
 103   2.0000      -1.011953       -27.5366
 104   2.0000      -1.009600       -27.4726
 105   2.0000      -1.007936       -27.4273
 106   2.0000      -1.006940       -27.4002
 107   2.0000      -0.991628       -26.9836
 108   2.0000      -0.984330       -26.7850
 109   2.0000      -0.978687       -26.6314
 110   2.0000      -0.972712       -26.4688
 111   2.0000      -0.967444       -26.3255
 112   2.0000      -0.953790       -25.9539
 113   2.0000      -0.949513       -25.8376
 114   2.0000      -0.944654       -25.7053
 115   2.0000      -0.928200       -25.2576
 116   2.0000      -0.927420       -25.2364
 117   2.0000      -0.912118       -24.8200
 118   2.0000      -0.907003       -24.6808
 119   2.0000      -0.902781       -24.5659
 120   2.0000      -0.894347       -24.3364
 121   2.0000      -0.878468       -23.9043
 122   2.0000      -0.878362       -23.9014
 123   2.0000      -0.873703       -23.7747
 124   2.0000      -0.872682       -23.7469
 125   2.0000      -0.863659       -23.5014
 126   2.0000      -0.861896       -23.4534
 127   2.0000      -0.854966       -23.2648
 128   2.0000      -0.848235       -23.0816
 129   2.0000      -0.816770       -22.2254
 130   2.0000      -0.810598       -22.0575
 131   2.0000      -0.807331       -21.9686
 132   2.0000      -0.805335       -21.9143
 133   2.0000      -0.804525       -21.8922
 134   2.0000      -0.799601       -21.7582
 135   2.0000      -0.785435       -21.3728
 136   2.0000      -0.783909       -21.3313
 137   2.0000      -0.758860       -20.6496
 138   2.0000      -0.753306       -20.4985
 139   2.0000      -0.730508       -19.8781
 140   2.0000      -0.729219       -19.8431
 141   2.0000      -0.728869       -19.8335
 142   2.0000      -0.724506       -19.7148
 143   2.0000      -0.721878       -19.6433
 144   2.0000      -0.720045       -19.5934
 145   2.0000      -0.716595       -19.4995
 146   2.0000      -0.713293       -19.4097
 147   2.0000      -0.705844       -19.2070
 148   2.0000      -0.704269       -19.1641
 149   2.0000      -0.692118       -18.8335
 150   2.0000      -0.680454       -18.5161
 151   2.0000      -0.678485       -18.4625
 152   2.0000      -0.677146       -18.4261
 153   2.0000      -0.674822       -18.3628
 154   2.0000      -0.668445       -18.1893
 155   2.0000      -0.665531       -18.1100
 156   2.0000      -0.656207       -17.8563
 157   2.0000      -0.654183       -17.8012
 158   2.0000      -0.648989       -17.6599
 159   2.0000      -0.635526       -17.2935
 160   2.0000      -0.621974       -16.9248
 161   2.0000      -0.619759       -16.8645
 162   2.0000      -0.615356       -16.7447
 163   2.0000      -0.605105       -16.4657
 164   2.0000      -0.600946       -16.3526
 165   2.0000      -0.600070       -16.3287
 166   2.0000      -0.596705       -16.2372
 167   2.0000      -0.594936       -16.1890
 168   2.0000      -0.588753       -16.0208
 169   2.0000      -0.583835       -15.8869
 170   2.0000      -0.577044       -15.7022
 171   2.0000      -0.572796       -15.5866
 172   2.0000      -0.567406       -15.4399
 173   2.0000      -0.564440       -15.3592
 174   2.0000      -0.562762       -15.3135
 175   2.0000      -0.561570       -15.2811
 176   2.0000      -0.558891       -15.2082
 177   2.0000      -0.555518       -15.1164
 178   2.0000      -0.555090       -15.1048
 179   2.0000      -0.551381       -15.0038
 180   2.0000      -0.548408       -14.9229
 181   2.0000      -0.546901       -14.8819
 182   2.0000      -0.543887       -14.7999
 183   2.0000      -0.538059       -14.6413
 184   2.0000      -0.533427       -14.5153
 185   2.0000      -0.528825       -14.3901
 186   2.0000      -0.525167       -14.2905
 187   2.0000      -0.523945       -14.2573
 188   2.0000      -0.520771       -14.1709
 189   2.0000      -0.519808       -14.1447
 190   2.0000      -0.518032       -14.0964
 191   2.0000      -0.512984       -13.9590
 192   2.0000      -0.512771       -13.9532
 193   2.0000      -0.508013       -13.8237
 194   2.0000      -0.505709       -13.7611
 195   2.0000      -0.504100       -13.7173
 196   2.0000      -0.502345       -13.6695
 197   2.0000      -0.499339       -13.5877
 198   2.0000      -0.498910       -13.5760
 199   2.0000      -0.497604       -13.5405
 200   2.0000      -0.491647       -13.3784
 201   2.0000      -0.489042       -13.3075
 202   2.0000      -0.485264       -13.2047
 203   2.0000      -0.477256       -12.9868
 204   2.0000      -0.474164       -12.9026
 205   2.0000      -0.472633       -12.8610
 206   2.0000      -0.471352       -12.8262
 207   2.0000      -0.470469       -12.8021
 208   2.0000      -0.466130       -12.6840
 209   2.0000      -0.464694       -12.6450
 210   2.0000      -0.464136       -12.6298
 211   2.0000      -0.462577       -12.5874
 212   2.0000      -0.462027       -12.5724
 213   2.0000      -0.461409       -12.5556
 214   2.0000      -0.460082       -12.5195
 215   2.0000      -0.458214       -12.4686
 216   2.0000      -0.456909       -12.4331
 217   2.0000      -0.456181       -12.4133
 218   2.0000      -0.454103       -12.3568
 219   2.0000      -0.453974       -12.3533
 220   2.0000      -0.452640       -12.3170
 221   2.0000      -0.450807       -12.2671
 222   2.0000      -0.448635       -12.2080
 223   2.0000      -0.445365       -12.1190
 224   2.0000      -0.444513       -12.0958
 225   2.0000      -0.441828       -12.0227
 226   2.0000      -0.441152       -12.0044
 227   2.0000      -0.440790       -11.9945
 228   2.0000      -0.438934       -11.9440
 229   2.0000      -0.438679       -11.9371
 230   2.0000      -0.437981       -11.9181
 231   2.0000      -0.435837       -11.8597
 232   2.0000      -0.435387       -11.8475
 233   2.0000      -0.427199       -11.6247
 234   2.0000      -0.426786       -11.6134
 235   2.0000      -0.424126       -11.5411
 236   2.0000      -0.423048       -11.5117
 237   2.0000      -0.422004       -11.4833
 238   2.0000      -0.420555       -11.4439
 239   2.0000      -0.398506       -10.8439
 240   2.0000      -0.395457       -10.7609
 241   2.0000      -0.390987       -10.6393
 242   2.0000      -0.387286       -10.5386
 243   2.0000      -0.386621       -10.5205
 244   2.0000      -0.371667       -10.1136
 245   2.0000      -0.367584       -10.0025
 246   2.0000      -0.366847        -9.9824
 247   2.0000      -0.366341        -9.9686
 248   2.0000      -0.365277        -9.9397
 249   2.0000      -0.346815        -9.4373
 250   2.0000      -0.345251        -9.3948
 251   2.0000      -0.342798        -9.3280
 252   2.0000      -0.339136        -9.2284
 253   2.0000      -0.337426        -9.1818
 254   2.0000      -0.335365        -9.1258
 255   2.0000      -0.326168        -8.8755
 256   2.0000      -0.324217        -8.8224
 257   2.0000      -0.311909        -8.4875
 258   2.0000      -0.307715        -8.3734
 259   2.0000      -0.305080        -8.3016
 260   2.0000      -0.303539        -8.2597
 261   2.0000      -0.285557        -7.7704
 262   2.0000      -0.282307        -7.6820
 263   0.0000      -0.132289        -3.5998
 264   0.0000      -0.131053        -3.5661
 265   0.0000      -0.111228        -3.0267
 266   0.0000      -0.107686        -2.9303
 267   0.0000      -0.098855        -2.6900

MULLIKEN ATOMIC CHARGES
-----------------------
   0 C :   -0.035057
   1 C :    0.049832
   2 C :    0.050340
   3 C :   -0.031109
   4 C :    0.008948
   5 C :    0.019203
   6 C :    0.294173
   7 C :   -0.337576
   8 C :   -0.187611
   9 N :    0.167463
  10 C :   -0.187217
  11 N :    0.180693
  12 C :   -0.064529
  13 C :    0.230783
  14 C :   -0.340180
  15 C :   -0.175247
  16 N :    0.177976
  17 C :   -0.181872
  18 N :    0.171994
  19 C :    0.022480
  20 C :   -0.099162
  21 C :    0.066516
  22 N :   -0.011047
  23 C :    0.028796
  24 C :    0.061113
  25 C :   -0.011906
  26 S :   -0.085932
  27 C :   -0.018887
  28 C :    0.010378
  29 N :   -0.026253
  30 C :    0.065447
  31 C :   -0.009529
  32 C :    0.058490
  33 C :   -0.074038
  34 S :    0.165902
  35 C :   -0.138775
  36 C :    0.118260
  37 C :   -0.073933
  38 C :    0.080056
  39 C :    0.050121
  40 C :   -0.131148
  41 S :    0.141742
  42 C :   -0.049289
  43 C :   -0.005504
  44 C :   -0.048157
  45 C :    0.044603
  46 N :   -0.012181
  47 C :    0.008239
  48 C :    0.013485
  49 C :    0.005003
  50 S :   -0.126805
  51 C :    0.003821
  52 C :    0.031933
  53 N :   -0.009019
  54 C :    0.081048
  55 C :   -0.045140
  56 C :    0.013217
  57 C :   -0.030357
  58 C :    0.269000
  59 C :   -0.329398
  60 C :   -0.182707
  61 N :    0.166488
  62 C :   -0.186873
  63 N :    0.169144
  64 C :    0.021814
  65 C :    0.037488
  66 C :   -0.038631
  67 C :    0.054050
  68 C :    0.052495
  69 C :   -0.033538
  70 C :    0.216461
  71 C :   -0.326046
  72 C :   -0.180269
  73 N :    0.171342
  74 C :   -0.194734
  75 N :    0.187091
  76 H :    0.008769
  77 H :    0.009428
  78 H :    0.008266
  79 H :    0.007780
  80 H :    0.037062
  81 H :    0.021000
  82 H :    0.011046
  83 H :    0.031666
  84 H :   -0.028314
  85 H :    0.037821
  86 H :    0.000554
  87 H :    0.027143
  88 H :    0.022655
  89 H :    0.025254
  90 H :    0.005742
  91 H :    0.008862
  92 H :    0.009301
  93 H :    0.008195
Sum of atomic charges:   -0.0000000

LOEWDIN ATOMIC CHARGES
----------------------
   0 C :    0.006806
   1 C :    0.006120
   2 C :    0.007731
   3 C :    0.003794
   4 C :   -0.012629
   5 C :   -0.012417
   6 C :    0.073697
   7 C :   -0.118040
   8 C :   -0.018311
   9 N :   -0.036942
  10 C :   -0.025769
  11 N :   -0.026071
  12 C :   -0.040937
  13 C :    0.065612
  14 C :   -0.121759
  15 C :   -0.020458
  16 N :   -0.034186
  17 C :   -0.019739
  18 N :   -0.033656
  19 C :    0.066917
  20 C :   -0.065307
  21 C :    0.082106
  22 N :   -0.070048
  23 C :    0.033013
  24 C :    0.009669
  25 C :   -0.142956
  26 S :    0.095806
  27 C :   -0.040031
  28 C :    0.056611
  29 N :   -0.080241
  30 C :    0.095810
  31 C :   -0.020653
  32 C :   -0.071002
  33 C :   -0.130759
  34 S :    0.452344
  35 C :   -0.167343
  36 C :   -0.042744
  37 C :    0.000852
  38 C :   -0.032371
  39 C :   -0.039827
  40 C :   -0.176289
  41 S :    0.425795
  42 C :   -0.153989
  43 C :   -0.065364
  44 C :   -0.014062
  45 C :    0.091621
  46 N :   -0.070003
  47 C :    0.050751
  48 C :   -0.039576
  49 C :   -0.136327
  50 S :    0.116406
  51 C :   -0.009377
  52 C :    0.039602
  53 N :   -0.062087
  54 C :    0.100111
  55 C :   -0.048635
  56 C :    0.042898
  57 C :   -0.019531
  58 C :    0.080228
  59 C :   -0.123535
  60 C :   -0.022266
  61 N :   -0.038403
  62 C :   -0.019164
  63 N :   -0.036379
  64 C :   -0.012460
  65 C :   -0.005691
  66 C :    0.000284
  67 C :    0.011498
  68 C :    0.007063
  69 C :    0.008373
  70 C :    0.061436
  71 C :   -0.129871
  72 C :   -0.023442
  73 N :   -0.040599
  74 C :   -0.020021
  75 N :   -0.039706
  76 H :    0.042620
  77 H :    0.039749
  78 H :    0.039462
  79 H :    0.041916
  80 H :    0.051202
  81 H :    0.026276
  82 H :    0.012241
  83 H :    0.020954
  84 H :    0.021389
  85 H :    0.030107
  86 H :    0.034740
  87 H :    0.031464
  88 H :    0.033031
  89 H :    0.051373
  90 H :    0.039508
  91 H :    0.039708
  92 H :    0.039968
  93 H :    0.042313

  Mayer bond orders larger than 0.100000
B(  0-C ,  1-C ) :   1.3743 B(  0-C ,  5-C ) :   1.3765 B(  0-C , 76-H ) :   0.9844
B(  1-C ,  2-C ) :   1.3746 B(  1-C , 77-H ) :   0.9854 B(  2-C ,  3-C ) :   1.3684
B(  2-C , 78-H ) :   0.9861 B(  3-C ,  4-C ) :   1.3778 B(  3-C , 79-H ) :   0.9875
B(  4-C ,  5-C ) :   1.3072 B(  4-C , 13-C ) :   1.0190 B(  5-C ,  6-C ) :   1.0046
B(  6-C ,  7-C ) :   1.6638 B(  6-C , 12-C ) :   1.0276 B(  7-C ,  8-C ) :   1.1459
B(  7-C , 10-C ) :   1.1337 B(  8-C ,  9-N ) :   2.9783 B( 10-C , 11-N ) :   2.9831
B( 12-C , 13-C ) :   1.0066 B( 12-C , 19-C ) :   1.6648 B( 13-C , 14-C ) :   1.6494
B( 14-C , 15-C ) :   1.1461 B( 14-C , 17-C ) :   1.1421 B( 15-C , 16-N ) :   3.0001
B( 17-C , 18-N ) :   2.9927 B( 19-C , 20-C ) :   1.0758 B( 19-C , 80-H ) :   0.9324
B( 20-C , 21-C ) :   1.0040 B( 20-C , 24-C ) :   1.5337 B( 21-C , 22-N ) :   1.7482
B( 21-C , 81-H ) :   0.9876 B( 22-N , 23-C ) :   1.2537 B( 23-C , 24-C ) :   1.0780
B( 23-C , 28-C ) :   1.5075 B( 24-C , 25-C ) :   1.0177 B( 25-C , 26-S ) :   1.7015
B( 25-C , 27-C ) :   1.0270 B( 27-C , 28-C ) :   1.0535 B( 27-C , 31-C ) :   1.5794
B( 28-C , 29-N ) :   1.2698 B( 29-N , 30-C ) :   1.7125 B( 30-C , 31-C ) :   1.0257
B( 30-C , 82-H ) :   0.9817 B( 31-C , 32-C ) :   1.0062 B( 32-C , 33-C ) :   1.5918
B( 32-C , 36-C ) :   1.1375 B( 33-C , 34-S ) :   1.1399 B( 33-C , 83-H ) :   0.9493
B( 34-S , 35-C ) :   1.0927 B( 35-C , 36-C ) :   1.3477 B( 35-C , 40-C ) :   1.3801
B( 36-C , 37-C ) :   1.2612 B( 37-C , 38-C ) :   1.4488 B( 37-C , 84-H ) :   0.9791
B( 38-C , 39-C ) :   1.2219 B( 38-C , 44-C ) :   0.9882 B( 39-C , 40-C ) :   1.3782
B( 39-C , 43-C ) :   1.1946 B( 40-C , 41-S ) :   1.0841 B( 41-S , 42-C ) :   1.1313
B( 42-C , 43-C ) :   1.6258 B( 42-C , 85-H ) :   0.9658 B( 43-C , 86-H ) :   0.9884
B( 44-C , 45-C ) :   1.0220 B( 44-C , 48-C ) :   1.5811 B( 45-C , 46-N ) :   1.7209
B( 45-C , 87-H ) :   0.9915 B( 46-N , 47-C ) :   1.2741 B( 47-C , 48-C ) :   1.0510
B( 47-C , 52-C ) :   1.5154 B( 48-C , 49-C ) :   1.0159 B( 49-C , 50-S ) :   1.6532
B( 49-C , 51-C ) :   1.0509 B( 51-C , 52-C ) :   1.0594 B( 51-C , 55-C ) :   1.5108
B( 52-C , 53-N ) :   1.2781 B( 53-N , 54-C ) :   1.7235 B( 54-C , 55-C ) :   1.0172
B( 54-C , 88-H ) :   0.9944 B( 55-C , 56-C ) :   1.0899 B( 56-C , 57-C ) :   1.6963
B( 56-C , 89-H ) :   0.9237 B( 57-C , 58-C ) :   1.0218 B( 57-C , 70-C ) :   0.9994
B( 58-C , 59-C ) :   1.6674 B( 58-C , 64-C ) :   1.0110 B( 59-C , 60-C ) :   1.1293
B( 59-C , 62-C ) :   1.1417 B( 60-C , 61-N ) :   2.9902 B( 62-C , 63-N ) :   2.9871
B( 64-C , 65-C ) :   1.3081 B( 64-C , 69-C ) :   1.3752 B( 65-C , 66-C ) :   1.3800
B( 65-C , 70-C ) :   1.0144 B( 66-C , 67-C ) :   1.3669 B( 66-C , 90-H ) :   0.9882
B( 67-C , 68-C ) :   1.3729 B( 67-C , 91-H ) :   0.9864 B( 68-C , 69-C ) :   1.3770
B( 68-C , 92-H ) :   0.9850 B( 69-C , 93-H ) :   0.9846 B( 70-C , 71-C ) :   1.6634
B( 71-C , 72-C ) :   1.1333 B( 71-C , 74-C ) :   1.1638 B( 72-C , 73-N ) :   3.0007
B( 74-C , 75-N ) :   3.0060

-----------------------------------------------------------------------------
         ABSORPTION SPECTRUM VIA TRANSITION ELECTRIC DIPOLE MOMENTS
-----------------------------------------------------------------------------
State   Energy  Wavelength   fosc         T2         TX        TY        TZ
        (cm-1)    (nm)                  (au**2)     (au)      (au)      (au)
-----------------------------------------------------------------------------
   0   14500.0    689.7   0.052777296   1.19827   0.88435   0.55608   0.32704
   1   14745.3    678.2   0.012901207   0.28804  -0.30322   0.44261  -0.01375
   2   16202.3    617.2   0.087908447   1.78620   0.92015   0.82787   0.50415
   3   16994.6    588.4   0.076549132   1.48287  -0.62952   0.78647   0.68414
   4   17561.3    569.4   0.003066033   0.05748  -0.22743   0.07526  -0.00939
   5   18282.7    547.0   0.006627119   0.11933   0.01603  -0.32369  -0.11957
   6   18861.9    530.2   0.008363354   0.14597   0.37281  -0.04881   0.06787
   7   19840.4    504.0   0.015356175   0.25481  -0.21920   0.38055   0.24887
   8   20705.8    483.0   0.093004672   1.47873   0.51661   0.85372   0.69498
   9   20895.5    478.6   0.181450434   2.85879  -0.55290   0.79084   1.38840
  10   21588.2    463.2   0.187551401   2.86008  -0.04054   1.51505   0.75038
  11   22001.6    454.5   0.063611594   0.95183   0.88598   0.38797  -0.12782
  12   22086.5    452.8   0.058841127   0.87706   0.83933  -0.41273  -0.04736
  13   22496.2    444.5   0.110191749   1.61256  -0.29690  -1.08022  -0.59794
  14   22978.1    435.2   0.154918957   2.21956  -1.40839  -0.36061  -0.32551
  15   23533.0    424.9   0.003466586   0.04850  -0.21223  -0.01384   0.05710
  16   23814.4    419.9   0.026058902   0.36024   0.25152  -0.30599   0.45094
  17   24083.3    415.2   0.176038290   2.40639   1.07295   1.10827   0.16401
  18   25113.3    398.2   0.020873598   0.27363  -0.29303  -0.37484   0.21739
  19   25362.6    394.3   0.001242843   0.01613   0.09199   0.06948   0.05333
  20   25616.2    390.4   0.027628405   0.35507  -0.51294  -0.30313  -0.00911
  21   25723.0    388.8   0.016915554   0.21649  -0.25336  -0.05623   0.38619
  22   26301.6    380.2   0.081430721   1.01925  -0.15665  -0.33234  -0.94035
  23   26424.0    378.4   0.035061329   0.43682  -0.44201  -0.36064   0.33375
  24   26569.2    376.4   0.015496655   0.19202  -0.41663  -0.11469   0.07267
  25   26605.6    375.9   0.049741402   0.61549   0.70898  -0.03404   0.33419
  26   26826.6    372.8   0.098401152   1.20756   0.45978   0.09714  -0.99334
  27   26974.2    370.7   0.081650745   0.99652  -0.56785  -0.53396  -0.62366
  28   27589.6    362.5   0.013536722   0.16153   0.08286   0.18114  -0.34907
  29   27647.1    361.7   0.066866795   0.79623   0.00077   0.24977   0.85665
  30   27908.0    358.3   0.017203547   0.20294  -0.27355  -0.33625  -0.12265
  31   28016.7    356.9   0.009524398   0.11192   0.10865   0.10238  -0.29938
  32   28323.7    353.1   0.004592655   0.05338   0.02680  -0.00063   0.22948
  33   28483.1    351.1   0.084804731   0.98018  -0.20506   0.20429   0.94678
  34   28695.4    348.5   0.192320764   2.20643   0.00006   0.55685   1.37708
  35   28858.3    346.5   0.428025805   4.88286  -1.85771  -1.11957  -0.42229
  36   29269.9    341.6   0.030589951   0.34406  -0.06924  -0.41381   0.40991
  37   29376.1    340.4   0.031748927   0.35580  -0.50697  -0.06603  -0.30730
  38   29473.9    339.3   0.019502103   0.21783  -0.26397   0.36401   0.12510
  39   29583.6    338.0   0.007397405   0.08232  -0.11648   0.24834   0.08414
  40   29762.6    336.0   0.029206000   0.32306   0.47972  -0.24457  -0.18196
  41   29814.6    335.4   0.007636074   0.08432  -0.23226  -0.14305   0.09954
  42   30167.5    331.5   0.041248073   0.45013   0.58951  -0.28998  -0.13611
  43   30236.6    330.7   0.299033053   3.25584   1.44190  -0.55510  -0.93200
  44   30345.9    329.5   0.019332299   0.20973   0.36131  -0.17320  -0.22178
  45   30450.0    328.4   0.023071713   0.24944  -0.20114   0.26811   0.37027
  46   30707.7    325.7   0.151749280   1.62688  -0.92208  -0.74445  -0.47163
  47   30860.4    324.0   0.000593971   0.00634  -0.05599  -0.02403  -0.05123
  48   30960.0    323.0   0.036636757   0.38958  -0.06573   0.07746   0.61584
  49   31475.1    317.7   0.003360307   0.03515   0.11612   0.05607   0.13609
  50   31889.8    313.6   0.126562854   1.30656  -1.08918   0.25076   0.23951
  51   31928.3    313.2   0.049271643   0.50804   0.37224   0.06238  -0.60463
  52   31969.1    312.8   0.033855191   0.34863   0.52865  -0.19583  -0.17555
  53   32030.4    312.2   0.098417623   1.01155  -0.97365   0.18021   0.17629
  54   32202.3    310.5   0.008931749   0.09131  -0.24787  -0.01849   0.17185
  55   32524.0    307.5   0.059330411   0.60055  -0.63866   0.39389   0.19368
  56   32699.7    305.8   0.361111992   3.63558   0.57867  -0.01576  -1.81672
  57   32760.4    305.2   0.007185859   0.07221  -0.03989   0.03354   0.26362
  58   32866.7    304.3   0.036053888   0.36114  -0.54661   0.21400   0.12871
  59   33080.4    302.3   0.035160371   0.34991   0.15746  -0.42576  -0.37927
  60   33253.6    300.7   0.090846581   0.89938   0.19889  -0.36495  -0.85243
  61   33298.3    300.3   0.045724152   0.45206  -0.32899  -0.34082   0.47715
  62   33429.6    299.1   0.075855915   0.74702  -0.10060  -0.56715  -0.64439
  63   33514.5    298.4   0.010459996   0.10275   0.31095   0.06809   0.03773
  64   33635.4    297.3   0.001661640   0.01626   0.09337  -0.05740  -0.06519
  65   33757.6    296.2   0.024330415   0.23728  -0.34893   0.14231   0.30867
  66   34126.8    293.0   0.191479731   1.84715  -1.32970  -0.19821   0.19939
  67   34207.8    292.3   0.083503883   0.80363   0.81483  -0.14033  -0.34639
  68   34467.6    290.1   0.014492917   0.13843  -0.20703  -0.29267   0.09954
  69   34774.0    287.6   0.083628415   0.79172   0.71144   0.52195   0.11463
  70   34853.5    286.9   0.018310706   0.17296  -0.31890  -0.26146  -0.05382
  71   34906.5    286.5   0.376327001   3.54923   1.60970   0.67459   0.70924
  72   35044.2    285.4   0.004958410   0.04658   0.10704   0.18643  -0.01909
  73   35282.7    283.4   0.073116234   0.68222   0.61953  -0.53440  -0.11324
  74   35334.7    283.0   0.016651049   0.15514  -0.02043  -0.04298  -0.39099
  75   35505.0    281.7   0.020232772   0.18760   0.22816  -0.36165   0.06897
  76   35853.8    278.9   0.050052107   0.45958  -0.63084  -0.19501  -0.15361
  77   35895.3    278.6   0.022929179   0.21029  -0.39620   0.05651  -0.22389
  78   35982.3    277.9   0.025086464   0.22952   0.47202  -0.07520   0.03264
  79   36348.7    275.1   0.047207679   0.42756  -0.54826   0.19992   0.29496
  80   36429.2    274.5   0.002288333   0.02068  -0.00384   0.12118   0.07733
  81   36492.8    274.0   0.067182383   0.60607   0.73335   0.26127  -0.00185
  82   36590.9    273.3   0.019170278   0.17248   0.38825   0.07836  -0.12490
  83   36656.3    272.8   0.084522850   0.75910   0.81478   0.18873  -0.24418
  84   36968.8    270.5   0.013250313   0.11800  -0.25734   0.20327   0.10226
  85   37298.2    268.1   0.277963209   2.45344  -1.25096  -0.55614   0.76108
  86   37660.4    265.5   0.134236914   1.17344  -0.07111   1.03075  -0.32548
  87   37808.1    264.5   0.004969517   0.04327  -0.07463   0.18372  -0.06285
  88   38129.0    262.3   0.115008986   0.99301  -0.74151  -0.63617  -0.19608
  89   38353.8    260.7   0.004025892   0.03456   0.14313   0.10248   0.05975
  90   38520.4    259.6   0.309002313   2.64087   0.49793  -1.52681   0.24856
  91   38738.8    258.1   0.107972265   0.91758   0.44934  -0.84119  -0.08977
  92   39014.2    256.3   0.022725450   0.19176   0.04884   0.32130   0.29350
  93   39185.3    255.2   0.040169769   0.33748  -0.39982   0.39852   0.13715
  94   39393.4    253.8   0.003194061   0.02669  -0.05071  -0.06696  -0.14013
  95   39456.3    253.4   0.007410394   0.06183  -0.17595   0.11248   0.13498
  96   39501.6    253.2   0.008301834   0.06919   0.25313  -0.06024  -0.03851
  97   39540.5    252.9   0.041783400   0.34789  -0.52658  -0.26476   0.02237
  98   39676.8    252.0   0.012479014   0.10354  -0.24600  -0.14997   0.14330
  99   39783.3    251.4   0.273771348   2.26549  -1.24938  -0.58634   0.60064
 100   39868.0    250.8   0.132249714   1.09206   0.73508   0.31906  -0.67076
 101   39927.8    250.5   0.149129649   1.22960   0.40198  -1.02270  -0.14863
 102   39971.2    250.2   0.070699654   0.58230  -0.57538  -0.47906   0.14744
 103   40080.7    249.5   0.027880350   0.22900   0.07511   0.19297   0.43142
 104   40187.6    248.8   0.130797986   1.07148  -0.48083  -0.91174  -0.09492

FINAL SINGLE POINT ENERGY     -4542.387894854211

DIPOLE MOMENT
-------------
                                X             Y             Z
Electronic contribution:     14.33180       6.06115      -1.48030
Nuclear contribution   :    -14.81891      -7.91566       0.37719
                        -----------------------------------------
Total Dipole Moment    :     -0.48712      -1.85451      -1.10310
                        -----------------------------------------
Magnitude (a.u.)       :      2.21209
Magnitude (Debye)      :      5.62268

Rotational constants in cm-1:     0.001188     0.000429     0.000350
Rotational constants in MHz :    35.615283    12.857001    10.483365

                             ****ORCA TERMINATED NORMALLY****
TOTAL RUN TIME: 0 days 0 hours 14 minutes 36 seconds 841 msec
