                         Program Version 4.2.0 -  RELEASE  -
|  1> # ORCA input file
|  2> # SCF done       -182.451292044894          0.000806900166
|  3> ! CAM-B3LYP def2-SVP def2/J RIJCOSX Grid4 TightSCF
|  4> %maxcore 5000
|  5> %tddft
|  6>     Mode sTDDFT
|  7>     Ethresh 5.0
|  8>     maxcore 5000
|  9> end
| 10>
| 11> %pal
| 12>   nprocs 6
| 13>   end
| 14> * xyz 0 1
| 15>    C       -1.84205         4.62563        -5.65244
| 16>    C       -1.59305         5.96505        -5.52328
| 17>    C       -1.06953         6.77514        -6.55239
| 18>    N       -0.64493         7.49430        -7.33952
| 19>    C       -1.87297         6.70753        -4.35931
| 20>    N       -2.10188         7.36376        -3.44525
| 21>    C       -1.73462         3.85870        -6.88451
| 22>    C       -2.53326         2.68276        -6.76256
| 23>    C       -2.62993         1.77890        -7.78212
| 24>    C       -1.90763         2.00742        -8.97508
| 25>    C       -1.08681         3.16813        -9.08858
| 26>    C       -1.01563         4.09516        -8.02495
| 27>    C       -0.35312         3.36977       -10.27543
| 28>    C       -0.43127         2.47344       -11.30631
| 29>    C       -1.24505         1.33542       -11.19760
| 30>    C       -1.96686         1.10714       -10.05744
| 31>    C       -3.13586         2.63779        -5.42004
| 32>    O       -3.92656         1.84426        -4.96992
| 33>    C       -2.48730         3.76540        -4.67594
| 34>    C       -2.44794         3.75102        -3.32199
| 35>    C       -1.55362         4.48620        -2.49430
| 36>    C       -1.80626         4.93535        -1.11999
| 37>    N       -0.83514         5.62867        -0.59805
| 38>    C        0.13262         5.69051        -1.54864
| 39>    C       -0.27900         4.93528        -2.75119
| 40>    C        0.78287         4.94413        -3.71937
| 41>    S        0.98884         3.91297        -4.98632
| 42>    C        1.72568         5.89709        -3.19742
| 43>    C        1.34549         6.27502        -1.82338
| 44>    N        2.26330         7.12923        -1.29226
| 45>    C        3.15165         7.32135        -2.22460
| 46>    C        2.87422         6.60472        -3.46760
| 47>    C        3.62831         6.71963        -4.67328
| 48>    N        4.86340         7.15437        -4.59934
| 49>    N        5.64113         7.30222        -5.64077
| 50>    C        5.29900         7.00514        -6.92316
| 51>    C        3.97121         6.51981        -7.10544
| 52>    C        3.09982         6.40116        -5.96812
| 53>    N        1.92743         6.01139        -6.41240
| 54>    O        2.06022         5.87330        -7.73278
| 55>    N        3.28830         6.17222        -8.17168
| 56>    C        6.26905         7.24913        -7.89787
| 57>    C        6.45389         7.14710        -9.33813
| 58>    N        7.64608         7.53396        -9.72461
| 59>    C        8.32512         7.92294        -8.59735
| 60>    C        7.49373         7.76127        -7.47851
| 61>    C        8.14648         8.07656        -6.25309
| 62>    S        7.32859         7.70915        -4.82013
| 63>    C        9.42116         8.52821        -6.61613
| 64>    C        9.55347         8.42445        -8.07012
| 65>    N       10.75494         8.84606        -8.48523
| 66>    C       11.40043         9.23763        -7.40082
| 67>    C       10.65657         9.09550        -6.17365
| 68>    C       11.12603         9.62569        -4.97833
| 69>    C       10.48132         9.66323        -3.74026
| 70>    C       10.77938        10.56671        -2.63503
| 71>    C       11.80806        11.46426        -2.54810
| 72>    C       12.01424        12.31409        -1.43912
| 73>    N       12.23455        13.02889        -0.56905
| 74>    C       12.81161        11.66574        -3.52021
| 75>    N       13.66235        11.88530        -4.25923
| 76>    C        9.74741        10.35985        -1.61949
| 77>    C        8.89702         9.30233        -2.06760
| 78>    C        9.39429         8.83735        -3.34415
| 79>    O        9.01049         7.77598        -3.94660
| 80>    C        7.82268         8.87129        -1.33774
| 81>    C        7.53780         9.49829        -0.10511
| 82>    C        8.38555        10.54841         0.35475
| 83>    C        9.49629        10.96735        -0.42170
| 84>    C        8.09764        11.15798         1.58969
| 85>    C        7.02047        10.75583         2.33652
| 86>    C        6.18424         9.72787         1.88067
| 87>    C        6.43723         9.11093         0.68406
| 88>    H       -3.24309         0.89595        -7.67865
| 89>    H       -0.37474         4.95723        -8.12363
| 90>    H        0.27035         4.24827       -10.35191
| 91>    H        0.13352         2.63598       -12.21203
| 92>    H       -1.29531         0.63892       -12.02112
| 93>    H       -2.59220         0.23087        -9.96805
| 94>    H       -3.12545         3.06318        -2.82616
| 95>    H       -2.70962         4.74756        -0.56699
| 96>    H        3.99404         7.97215        -2.07357
| 97>    H        5.72618         6.79897       -10.04633
| 98>    H       12.39580         9.63895        -7.47781
| 99>    H       12.07198        10.14478        -5.05746
|100>    H        7.19553         8.06814        -1.69735
|101>    H       10.11591        11.76312        -0.03998
|102>    H        8.74257        11.95105         1.93836
|103>    H        6.80968        11.23132         3.28241
|104>    H        5.33827         9.42447         2.47833
|105>    H        5.79563         8.31684         0.33079
|106> *
|107>
|108>                          ****END OF INPUT****

CARTESIAN COORDINATES (ANGSTROEM)
---------------------------------
  C     -1.842050    4.625630   -5.652440
  C     -1.593050    5.965050   -5.523280
  C     -1.069530    6.775140   -6.552390
  N     -0.644930    7.494300   -7.339520
  C     -1.872970    6.707530   -4.359310
  N     -2.101880    7.363760   -3.445250
  C     -1.734620    3.858700   -6.884510
  C     -2.533260    2.682760   -6.762560
  C     -2.629930    1.778900   -7.782120
  C     -1.907630    2.007420   -8.975080
  C     -1.086810    3.168130   -9.088580
  C     -1.015630    4.095160   -8.024950
  C     -0.353120    3.369770  -10.275430
  C     -0.431270    2.473440  -11.306310
  C     -1.245050    1.335420  -11.197600
  C     -1.966860    1.107140  -10.057440
  C     -3.135860    2.637790   -5.420040
  O     -3.926560    1.844260   -4.969920
  C     -2.487300    3.765400   -4.675940
  C     -2.447940    3.751020   -3.321990
  C     -1.553620    4.486200   -2.494300
  C     -1.806260    4.935350   -1.119990
  N     -0.835140    5.628670   -0.598050
  C      0.132620    5.690510   -1.548640
  C     -0.279000    4.935280   -2.751190
  C      0.782870    4.944130   -3.719370
  S      0.988840    3.912970   -4.986320
  C      1.725680    5.897090   -3.197420
  C      1.345490    6.275020   -1.823380
  N      2.263300    7.129230   -1.292260
  C      3.151650    7.321350   -2.224600
  C      2.874220    6.604720   -3.467600
  C      3.628310    6.719630   -4.673280
  N      4.863400    7.154370   -4.599340
  N      5.641130    7.302220   -5.640770
  C      5.299000    7.005140   -6.923160
  C      3.971210    6.519810   -7.105440
  C      3.099820    6.401160   -5.968120
  N      1.927430    6.011390   -6.412400
  O      2.060220    5.873300   -7.732780
  N      3.288300    6.172220   -8.171680
  C      6.269050    7.249130   -7.897870
  C      6.453890    7.147100   -9.338130
  N      7.646080    7.533960   -9.724610
  C      8.325120    7.922940   -8.597350
  C      7.493730    7.761270   -7.478510
  C      8.146480    8.076560   -6.253090
  S      7.328590    7.709150   -4.820130
  C      9.421160    8.528210   -6.616130
  C      9.553470    8.424450   -8.070120
  N     10.754940    8.846060   -8.485230
  C     11.400430    9.237630   -7.400820
  C     10.656570    9.095500   -6.173650
  C     11.126030    9.625690   -4.978330
  C     10.481320    9.663230   -3.740260
  C     10.779380   10.566710   -2.635030
  C     11.808060   11.464260   -2.548100
  C     12.014240   12.314090   -1.439120
  N     12.234550   13.028890   -0.569050
  C     12.811610   11.665740   -3.520210
  N     13.662350   11.885300   -4.259230
  C      9.747410   10.359850   -1.619490
  C      8.897020    9.302330   -2.067600
  C      9.394290    8.837350   -3.344150
  O      9.010490    7.775980   -3.946600
  C      7.822680    8.871290   -1.337740
  C      7.537800    9.498290   -0.105110
  C      8.385550   10.548410    0.354750
  C      9.496290   10.967350   -0.421700
  C      8.097640   11.157980    1.589690
  C      7.020470   10.755830    2.336520
  C      6.184240    9.727870    1.880670
  C      6.437230    9.110930    0.684060
  H     -3.243090    0.895950   -7.678650
  H     -0.374740    4.957230   -8.123630
  H      0.270350    4.248270  -10.351910
  H      0.133520    2.635980  -12.212030
  H     -1.295310    0.638920  -12.021120
  H     -2.592200    0.230870   -9.968050
  H     -3.125450    3.063180   -2.826160
  H     -2.709620    4.747560   -0.566990
  H      3.994040    7.972150   -2.073570
  H      5.726180    6.798970  -10.046330
  H     12.395800    9.638950   -7.477810
  H     12.071980   10.144780   -5.057460
  H      7.195530    8.068140   -1.697350
  H     10.115910   11.763120   -0.039980
  H      8.742570   11.951050    1.938360
  H      6.809680   11.231320    3.282410
  H      5.338270    9.424470    2.478330
  H      5.795630    8.316840    0.330790

 Total Charge           Charge          ....    0
 Multiplicity           Mult            ....    1
 Number of Electrons    NEL             ....  494
 Basis Dimension        Dim             .... 1120

ORBITAL ENERGIES
----------------

  NO   OCC          E(Eh)            E(eV)
   0   2.0000     -89.042070     -2422.9579
   1   2.0000     -88.934656     -2420.0350
   2   2.0000     -19.396315      -527.8006
   3   2.0000     -19.244913      -523.6807
   4   2.0000     -19.227041      -523.1944
   5   2.0000     -14.541127      -395.6842
   6   2.0000     -14.526646      -395.2901
   7   2.0000     -14.526061      -395.2742
   8   2.0000     -14.507786      -394.7769
   9   2.0000     -14.438364      -392.8879
  10   2.0000     -14.435863      -392.8198
  11   2.0000     -14.428180      -392.6107
  12   2.0000     -14.423684      -392.4884
  13   2.0000     -14.417561      -392.3218
  14   2.0000     -14.415839      -392.2749
  15   2.0000     -14.413380      -392.2080
  16   2.0000     -14.409693      -392.1077
  17   2.0000     -10.397967      -282.9431
  18   2.0000     -10.385781      -282.6115
  19   2.0000     -10.381194      -282.4867
  20   2.0000     -10.378437      -282.4116
  21   2.0000     -10.374982      -282.3176
  22   2.0000     -10.371312      -282.2177
  23   2.0000     -10.366406      -282.0843
  24   2.0000     -10.360141      -281.9138
  25   2.0000     -10.359588      -281.8987
  26   2.0000     -10.359184      -281.8877
  27   2.0000     -10.358666      -281.8736
  28   2.0000     -10.356355      -281.8107
  29   2.0000     -10.353541      -281.7342
  30   2.0000     -10.352187      -281.6973
  31   2.0000     -10.344434      -281.4863
  32   2.0000     -10.342707      -281.4394
  33   2.0000     -10.338221      -281.3173
  34   2.0000     -10.334828      -281.2250
  35   2.0000     -10.333328      -281.1842
  36   2.0000     -10.332138      -281.1518
  37   2.0000     -10.330569      -281.1091
  38   2.0000     -10.330210      -281.0993
  39   2.0000     -10.328336      -281.0483
  40   2.0000     -10.327571      -281.0275
  41   2.0000     -10.326290      -280.9926
  42   2.0000     -10.320352      -280.8310
  43   2.0000     -10.319453      -280.8066
  44   2.0000     -10.318713      -280.7865
  45   2.0000     -10.318083      -280.7693
  46   2.0000     -10.312003      -280.6039
  47   2.0000     -10.310363      -280.5593
  48   2.0000     -10.309843      -280.5451
  49   2.0000     -10.307218      -280.4737
  50   2.0000     -10.306660      -280.4585
  51   2.0000     -10.305382      -280.4237
  52   2.0000     -10.304924      -280.4112
  53   2.0000     -10.304670      -280.4043
  54   2.0000     -10.303829      -280.3814
  55   2.0000     -10.302931      -280.3570
  56   2.0000     -10.302110      -280.3347
  57   2.0000     -10.301721      -280.3241
  58   2.0000     -10.298790      -280.2443
  59   2.0000     -10.298462      -280.2354
  60   2.0000     -10.297931      -280.2210
  61   2.0000     -10.297362      -280.2055
  62   2.0000     -10.295892      -280.1655
  63   2.0000     -10.292711      -280.0789
  64   2.0000     -10.292223      -280.0656
  65   2.0000     -10.291784      -280.0537
  66   2.0000     -10.291655      -280.0502
  67   2.0000     -10.291158      -280.0366
  68   2.0000     -10.290112      -280.0082
  69   2.0000     -10.289871      -280.0016
  70   2.0000     -10.289470      -279.9907
  71   2.0000     -10.280996      -279.7601
  72   2.0000     -10.275416      -279.6083
  73   2.0000      -8.127005      -221.1470
  74   2.0000      -8.029239      -218.4867
  75   2.0000      -6.101572      -166.0322
  76   2.0000      -6.090547      -165.7322
  77   2.0000      -6.086441      -165.6205
  78   2.0000      -5.998348      -163.2233
  79   2.0000      -5.997604      -163.2031
  80   2.0000      -5.988477      -162.9547
  81   2.0000      -1.348232       -36.6872
  82   2.0000      -1.195659       -32.5355
  83   2.0000      -1.156103       -31.4592
  84   2.0000      -1.142518       -31.0895
  85   2.0000      -1.109097       -30.1801
  86   2.0000      -1.089174       -29.6379
  87   2.0000      -1.076927       -29.3047
  88   2.0000      -1.059430       -28.8286
  89   2.0000      -1.052693       -28.6452
  90   2.0000      -1.029351       -28.0101
  91   2.0000      -1.025393       -27.9024
  92   2.0000      -1.021458       -27.7953
  93   2.0000      -1.011947       -27.5365
  94   2.0000      -1.008728       -27.4489
  95   2.0000      -1.004227       -27.3264
  96   2.0000      -1.003640       -27.3104
  97   2.0000      -0.995402       -27.0863
  98   2.0000      -0.991193       -26.9717
  99   2.0000      -0.980216       -26.6730
 100   2.0000      -0.978104       -26.6156
 101   2.0000      -0.972714       -26.4689
 102   2.0000      -0.939332       -25.5605
 103   2.0000      -0.929700       -25.2984
 104   2.0000      -0.927691       -25.2438
 105   2.0000      -0.925282       -25.1782
 106   2.0000      -0.916342       -24.9349
 107   2.0000      -0.906237       -24.6600
 108   2.0000      -0.898671       -24.4541
 109   2.0000      -0.891122       -24.2487
 110   2.0000      -0.888832       -24.1864
 111   2.0000      -0.886089       -24.1117
 112   2.0000      -0.883664       -24.0457
 113   2.0000      -0.871479       -23.7142
 114   2.0000      -0.853910       -23.2361
 115   2.0000      -0.844652       -22.9841
 116   2.0000      -0.838717       -22.8227
 117   2.0000      -0.835983       -22.7482
 118   2.0000      -0.833825       -22.6895
 119   2.0000      -0.818774       -22.2800
 120   2.0000      -0.812839       -22.1185
 121   2.0000      -0.796861       -21.6837
 122   2.0000      -0.795430       -21.6448
 123   2.0000      -0.779161       -21.2021
 124   2.0000      -0.774187       -21.0667
 125   2.0000      -0.772103       -21.0100
 126   2.0000      -0.766717       -20.8634
 127   2.0000      -0.758714       -20.6457
 128   2.0000      -0.752739       -20.4831
 129   2.0000      -0.731457       -19.9040
 130   2.0000      -0.719935       -19.5904
 131   2.0000      -0.715876       -19.4800
 132   2.0000      -0.712657       -19.3924
 133   2.0000      -0.711676       -19.3657
 134   2.0000      -0.710784       -19.3414
 135   2.0000      -0.708786       -19.2871
 136   2.0000      -0.704433       -19.1686
 137   2.0000      -0.702611       -19.1190
 138   2.0000      -0.687724       -18.7139
 139   2.0000      -0.685153       -18.6440
 140   2.0000      -0.683896       -18.6098
 141   2.0000      -0.675221       -18.3737
 142   2.0000      -0.669747       -18.2248
 143   2.0000      -0.658717       -17.9246
 144   2.0000      -0.653050       -17.7704
 145   2.0000      -0.649133       -17.6638
 146   2.0000      -0.646750       -17.5990
 147   2.0000      -0.638769       -17.3818
 148   2.0000      -0.638090       -17.3633
 149   2.0000      -0.636745       -17.3267
 150   2.0000      -0.625928       -17.0324
 151   2.0000      -0.618738       -16.8367
 152   2.0000      -0.615175       -16.7398
 153   2.0000      -0.611485       -16.6393
 154   2.0000      -0.607107       -16.5202
 155   2.0000      -0.600702       -16.3459
 156   2.0000      -0.595851       -16.2139
 157   2.0000      -0.592630       -16.1263
 158   2.0000      -0.590094       -16.0573
 159   2.0000      -0.583356       -15.8739
 160   2.0000      -0.572647       -15.5825
 161   2.0000      -0.571755       -15.5582
 162   2.0000      -0.568554       -15.4711
 163   2.0000      -0.565898       -15.3989
 164   2.0000      -0.557402       -15.1677
 165   2.0000      -0.556623       -15.1465
 166   2.0000      -0.555469       -15.1151
 167   2.0000      -0.553257       -15.0549
 168   2.0000      -0.550838       -14.9891
 169   2.0000      -0.548372       -14.9220
 170   2.0000      -0.545035       -14.8312
 171   2.0000      -0.540978       -14.7208
 172   2.0000      -0.540585       -14.7101
 173   2.0000      -0.535419       -14.5695
 174   2.0000      -0.531082       -14.4515
 175   2.0000      -0.528427       -14.3792
 176   2.0000      -0.527011       -14.3407
 177   2.0000      -0.525279       -14.2936
 178   2.0000      -0.520991       -14.1769
 179   2.0000      -0.520244       -14.1566
 180   2.0000      -0.518849       -14.1186
 181   2.0000      -0.516867       -14.0647
 182   2.0000      -0.516173       -14.0458
 183   2.0000      -0.513497       -13.9730
 184   2.0000      -0.509916       -13.8755
 185   2.0000      -0.507795       -13.8178
 186   2.0000      -0.507060       -13.7978
 187   2.0000      -0.504384       -13.7250
 188   2.0000      -0.496984       -13.5236
 189   2.0000      -0.494889       -13.4666
 190   2.0000      -0.492981       -13.4147
 191   2.0000      -0.490303       -13.3418
 192   2.0000      -0.487722       -13.2716
 193   2.0000      -0.477651       -12.9975
 194   2.0000      -0.476186       -12.9577
 195   2.0000      -0.472917       -12.8687
 196   2.0000      -0.470997       -12.8165
 197   2.0000      -0.467889       -12.7319
 198   2.0000      -0.467049       -12.7091
 199   2.0000      -0.461809       -12.5665
 200   2.0000      -0.461137       -12.5482
 201   2.0000      -0.458407       -12.4739
 202   2.0000      -0.455021       -12.3817
 203   2.0000      -0.453735       -12.3467
 204   2.0000      -0.449886       -12.2420
 205   2.0000      -0.448676       -12.2091
 206   2.0000      -0.446946       -12.1620
 207   2.0000      -0.446314       -12.1448
 208   2.0000      -0.443659       -12.0726
 209   2.0000      -0.443198       -12.0600
 210   2.0000      -0.442437       -12.0393
 211   2.0000      -0.440979       -11.9996
 212   2.0000      -0.437707       -11.9106
 213   2.0000      -0.434299       -11.8179
 214   2.0000      -0.432567       -11.7707
 215   2.0000      -0.430561       -11.7162
 216   2.0000      -0.428532       -11.6609
 217   2.0000      -0.424776       -11.5587
 218   2.0000      -0.422511       -11.4971
 219   2.0000      -0.422361       -11.4930
 220   2.0000      -0.413924       -11.2634
 221   2.0000      -0.413839       -11.2611
 222   2.0000      -0.409466       -11.1421
 223   2.0000      -0.408297       -11.1103
 224   2.0000      -0.405429       -11.0323
 225   2.0000      -0.388266       -10.5653
 226   2.0000      -0.387939       -10.5563
 227   2.0000      -0.378420       -10.2973
 228   2.0000      -0.375549       -10.2192
 229   2.0000      -0.372903       -10.1472
 230   2.0000      -0.370470       -10.0810
 231   2.0000      -0.366295        -9.9674
 232   2.0000      -0.360609        -9.8127
 233   2.0000      -0.350366        -9.5339
 234   2.0000      -0.347739        -9.4625
 235   2.0000      -0.344330        -9.3697
 236   2.0000      -0.340809        -9.2739
 237   2.0000      -0.333537        -9.0760
 238   2.0000      -0.327985        -8.9249
 239   2.0000      -0.323480        -8.8023
 240   2.0000      -0.319318        -8.6891
 241   2.0000      -0.311882        -8.4867
 242   2.0000      -0.308743        -8.4013
 243   2.0000      -0.302618        -8.2346
 244   2.0000      -0.300326        -8.1723
 245   2.0000      -0.291505        -7.9323
 246   2.0000      -0.248572        -6.7640
 247   0.0000      -0.143001        -3.8913
 248   0.0000      -0.131353        -3.5743
 249   0.0000      -0.112451        -3.0600
 250   0.0000      -0.094448        -2.5701
 251   0.0000      -0.086138        -2.3439

MULLIKEN ATOMIC CHARGES
-----------------------
   0 C :    0.237858
   1 C :   -0.318506
   2 C :   -0.182337
   3 N :    0.168189
   4 C :   -0.196809
   5 N :    0.172191
   6 C :    0.057697
   7 C :    0.015135
   8 C :   -0.080902
   9 C :    0.094095
  10 C :    0.096841
  11 C :   -0.082794
  12 C :   -0.017892
  13 C :    0.037421
  14 C :    0.036547
  15 C :   -0.016730
  16 C :    0.137562
  17 O :   -0.132693
  18 C :   -0.098176
  19 C :    0.027802
  20 C :   -0.016726
  21 C :    0.095298
  22 N :   -0.015932
  23 C :    0.041478
  24 C :   -0.002041
  25 C :   -0.048806
  26 S :   -0.052516
  27 C :   -0.000727
  28 C :    0.007101
  29 N :   -0.020871
  30 C :    0.073052
  31 C :   -0.017019
  32 C :   -0.056605
  33 N :    0.013434
  34 N :   -0.291867
  35 C :    0.225521
  36 C :   -0.059184
  37 C :    0.020418
  38 N :    0.105347
  39 O :   -0.099807
  40 N :    0.111608
  41 C :   -0.065687
  42 C :    0.002387
  43 N :   -0.013749
  44 C :    0.027106
  45 C :   -0.108618
  46 C :   -0.020959
  47 S :    0.468188
  48 C :   -0.003905
  49 C :   -0.062841
  50 N :   -0.030967
  51 C :    0.070565
  52 C :    0.033972
  53 C :   -0.020961
  54 C :   -0.051544
  55 C :    0.326190
  56 C :   -0.355912
  57 C :   -0.183363
  58 N :    0.149656
  59 C :   -0.185219
  60 N :    0.152984
  61 C :    0.043402
  62 C :    0.040054
  63 C :    0.188746
  64 O :   -0.376281
  65 C :   -0.094899
  66 C :    0.103254
  67 C :    0.093433
  68 C :   -0.083605
  69 C :   -0.021528
  70 C :    0.039324
  71 C :    0.038940
  72 C :   -0.026281
  73 H :   -0.009454
  74 H :   -0.007793
  75 H :   -0.007590
  76 H :   -0.001569
  77 H :   -0.001390
  78 H :   -0.015309
  79 H :    0.025363
  80 H :    0.019663
  81 H :    0.010934
  82 H :   -0.007511
  83 H :    0.019263
  84 H :   -0.000993
  85 H :   -0.026354
  86 H :   -0.006428
  87 H :   -0.007528
  88 H :   -0.002770
  89 H :   -0.000123
  90 H :   -0.017951
Sum of atomic charges:   -0.0000000

LOEWDIN ATOMIC CHARGES
----------------------
   0 C :    0.060365
   1 C :   -0.134030
   2 C :   -0.019771
   3 N :   -0.051019
   4 C :   -0.018366
   5 N :   -0.049219
   6 C :   -0.021804
   7 C :   -0.057327
   8 C :    0.034963
   9 C :   -0.007965
  10 C :   -0.003926
  11 C :    0.016917
  12 C :   -0.004938
  13 C :   -0.010207
  14 C :   -0.010563
  15 C :   -0.008554
  16 C :    0.086873
  17 O :   -0.133197
  18 C :   -0.051051
  19 C :    0.047641
  20 C :   -0.051903
  21 C :    0.117278
  22 N :   -0.071163
  23 C :    0.060245
  24 C :   -0.007203
  25 C :   -0.157188
  26 S :    0.148675
  27 C :   -0.007047
  28 C :    0.040455
  29 N :   -0.074359
  30 C :    0.100008
  31 C :   -0.059557
  32 C :   -0.010624
  33 N :   -0.038018
  34 N :   -0.065793
  35 C :    0.047903
  36 C :   -0.057039
  37 C :   -0.058613
  38 N :    0.012717
  39 O :    0.086000
  40 N :    0.012903
  41 C :   -0.065722
  42 C :    0.015098
  43 N :   -0.053540
  44 C :   -0.049622
  45 C :   -0.093529
  46 C :   -0.085576
  47 S :    0.637170
  48 C :   -0.127453
  49 C :    0.089819
  50 N :   -0.084228
  51 C :    0.105567
  52 C :   -0.067974
  53 C :    0.066840
  54 C :   -0.113457
  55 C :    0.080880
  56 C :   -0.137394
  57 C :   -0.016710
  58 N :   -0.052735
  59 C :   -0.021456
  60 N :   -0.050123
  61 C :   -0.021825
  62 C :   -0.051130
  63 C :    0.104909
  64 O :   -0.257779
  65 C :    0.021234
  66 C :   -0.011232
  67 C :   -0.006856
  68 C :    0.023728
  69 C :   -0.004175
  70 C :   -0.010158
  71 C :   -0.009541
  72 C :   -0.011289
  73 H :    0.040346
  74 H :    0.035364
  75 H :    0.035627
  76 H :    0.034576
  77 H :    0.034055
  78 H :    0.032637
  79 H :    0.050043
  80 H :    0.032947
  81 H :    0.027654
  82 H :    0.019931
  83 H :    0.031263
  84 H :    0.045563
  85 H :    0.030065
  86 H :    0.040198
  87 H :    0.035519
  88 H :    0.034200
  89 H :    0.035158
  90 H :    0.030614

  Mayer bond orders larger than 0.100000
B(  0-C ,  1-C ) :   1.6720 B(  0-C ,  6-C ) :   1.0016 B(  0-C , 18-C ) :   1.0130
B(  1-C ,  2-C ) :   1.1408 B(  1-C ,  4-C ) :   1.1630 B(  2-C ,  3-N ) :   2.9853
B(  4-C ,  5-N ) :   2.9986 B(  6-C ,  7-C ) :   1.2126 B(  6-C , 11-C ) :   1.4459
B(  7-C ,  8-C ) :   1.4656 B(  7-C , 16-C ) :   0.9231 B(  8-C ,  9-C ) :   1.1902
B(  8-C , 73-H ) :   1.0154 B(  9-C , 10-C ) :   1.2508 B(  9-C , 15-C ) :   1.2439
B( 10-C , 11-C ) :   1.2086 B( 10-C , 12-C ) :   1.2394 B( 11-C , 74-H ) :   0.9973
B( 12-C , 13-C ) :   1.4904 B( 12-C , 75-H ) :   0.9980 B( 13-C , 14-C ) :   1.2593
B( 13-C , 76-H ) :   0.9883 B( 14-C , 15-C ) :   1.4917 B( 14-C , 77-H ) :   0.9881
B( 15-C , 78-H ) :   0.9974 B( 16-C , 17-O ) :   2.2844 B( 16-C , 18-C ) :   0.9202
B( 18-C , 19-C ) :   1.7385 B( 19-C , 20-C ) :   1.0498 B( 19-C , 79-H ) :   0.9435
B( 20-C , 21-C ) :   1.0106 B( 20-C , 24-C ) :   1.5380 B( 21-C , 22-N ) :   1.7069
B( 21-C , 80-H ) :   0.9946 B( 22-N , 23-C ) :   1.2864 B( 23-C , 24-C ) :   1.0556
B( 23-C , 28-C ) :   1.4964 B( 24-C , 25-C ) :   1.0290 B( 25-C , 26-S ) :   1.7019
B( 25-C , 27-C ) :   1.0150 B( 27-C , 28-C ) :   1.0639 B( 27-C , 31-C ) :   1.5675
B( 28-C , 29-N ) :   1.2829 B( 29-N , 30-C ) :   1.7112 B( 30-C , 31-C ) :   1.0404
B( 30-C , 81-H ) :   0.9941 B( 31-C , 32-C ) :   1.0531 B( 32-C , 33-N ) :   1.8039
B( 32-C , 37-C ) :   1.0556 B( 33-N , 34-N ) :   1.1378 B( 34-N , 35-C ) :   1.2174
B( 34-N , 47-S ) :   0.5508 B( 35-C , 36-C ) :   1.0436 B( 35-C , 41-C ) :   1.2329
B( 36-C , 37-C ) :   1.1617 B( 36-C , 40-N ) :   1.6793 B( 37-C , 38-N ) :   1.6215
B( 38-N , 39-O ) :   1.0666 B( 38-N , 40-N ) :   0.1596 B( 39-O , 40-N ) :   1.0547
B( 41-C , 42-C ) :   1.0845 B( 41-C , 45-C ) :   1.2601 B( 42-C , 43-N ) :   1.7019
B( 42-C , 82-H ) :   0.9997 B( 43-N , 44-C ) :   1.3162 B( 44-C , 45-C ) :   1.4017
B( 44-C , 49-C ) :   1.1438 B( 45-C , 46-C ) :   1.0136 B( 45-C , 48-C ) :   0.1099
B( 46-C , 47-S ) :   1.1546 B( 46-C , 48-C ) :   1.3779 B( 47-S , 64-O ) :   0.4484
B( 48-C , 49-C ) :   1.2113 B( 48-C , 52-C ) :   1.0418 B( 49-C , 50-N ) :   1.4391
B( 50-N , 51-C ) :   1.5045 B( 51-C , 52-C ) :   1.1538 B( 51-C , 83-H ) :   0.9908
B( 52-C , 53-C ) :   1.4321 B( 53-C , 54-C ) :   1.2270 B( 53-C , 84-H ) :   0.9379
B( 54-C , 55-C ) :   1.0852 B( 54-C , 63-C ) :   1.2630 B( 55-C , 56-C ) :   1.6311
B( 55-C , 61-C ) :   0.9732 B( 56-C , 57-C ) :   1.1485 B( 56-C , 59-C ) :   1.1415
B( 57-C , 58-N ) :   2.9646 B( 59-C , 60-N ) :   2.9638 B( 61-C , 62-C ) :   1.1948
B( 61-C , 68-C ) :   1.4853 B( 62-C , 63-C ) :   1.0044 B( 62-C , 65-C ) :   1.4426
B( 63-C , 64-O ) :   1.4988 B( 65-C , 66-C ) :   1.1813 B( 65-C , 85-H ) :   1.0117
B( 66-C , 67-C ) :   1.2604 B( 66-C , 72-C ) :   1.2434 B( 67-C , 68-C ) :   1.1759
B( 67-C , 69-C ) :   1.2587 B( 68-C , 86-H ) :   0.9921 B( 69-C , 70-C ) :   1.4707
B( 69-C , 87-H ) :   0.9976 B( 70-C , 71-C ) :   1.2728 B( 70-C , 88-H ) :   0.9888
B( 71-C , 72-C ) :   1.4793 B( 71-C , 89-H ) :   0.9897 B( 72-C , 90-H ) :   0.9992

-----------------------------------------------------------------------------
         ABSORPTION SPECTRUM VIA TRANSITION ELECTRIC DIPOLE MOMENTS
-----------------------------------------------------------------------------
State   Energy  Wavelength   fosc         T2         TX        TY        TZ
        (cm-1)    (nm)                  (au**2)     (au)      (au)      (au)
-----------------------------------------------------------------------------
   0    5384.9   1857.0   0.025866303   1.58136  -0.98962  -0.54702  -0.55025
   1   11633.3    859.6   0.045891441   1.29869   0.86256   0.27048  -0.69391
   2   13728.2    728.4   0.004098661   0.09829   0.24846  -0.00397  -0.19116
   3   14410.8    693.9   0.037571494   0.85831  -0.82084  -0.40749   0.13596
   4   15102.0    662.2   0.041900881   0.91341  -0.87670  -0.28954  -0.24691
   5   16205.3    617.1   0.199204352   4.04685   1.45287   0.92596   1.03856
   6   17113.2    584.3   0.014300103   0.27509  -0.34835  -0.19377   0.34088
   7   18114.3    552.1   0.046845459   0.85138  -0.73687  -0.41374   0.37043
   8   18458.9    541.7   0.035623539   0.63534   0.76747   0.20308   0.07135
   9   19018.5    525.8   0.026908401   0.46579  -0.47986  -0.22767   0.42859
  10   20012.8    499.7   0.456773123   7.51393  -2.51770  -1.06152   0.21977
  11   20399.1    490.2   0.034238531   0.55256  -0.12932  -0.71080  -0.17494
  12   21462.6    465.9   0.043500908   0.66726   0.18283   0.32612   0.72628
  13   21541.1    464.2   0.071108954   1.08676   0.18562  -0.19082  -1.00791
  14   22080.9    452.9   0.311206224   4.63988   1.37584   0.17399  -1.64823
  15   22445.4    445.5   0.003698040   0.05424  -0.18832  -0.10177  -0.09176
  16   22794.8    438.7   0.081483969   1.17682   0.91925   0.35937  -0.45016
  17   23265.7    429.8   0.002587401   0.03661  -0.13467   0.05715  -0.12333
  18   23409.8    427.2   0.020873036   0.29354  -0.30127  -0.20585  -0.40050
  19   23552.5    424.6   0.122445301   1.71152   0.10176   0.05375  -1.30318
  20   24190.8    413.4   0.053417704   0.72696   0.48756   0.26906  -0.64564
  21   24343.6    410.8   0.003390606   0.04585   0.12551   0.11291  -0.13172
  22   24395.1    409.9   0.048034928   0.64823   0.68512  -0.04814  -0.42014
  23   24836.1    402.6   0.059720017   0.79161  -0.31700  -0.12057  -0.82255
  24   25405.1    393.6   0.006104576   0.07911  -0.08839   0.04823   0.26262
  25   25471.0    392.6   0.000566855   0.00733  -0.08111   0.01549   0.02255
  26   25922.4    385.8   0.064618259   0.82064  -0.65247  -0.38039  -0.50023
  27   26097.0    383.2   0.108043114   1.36295   1.01423   0.56935  -0.10063
  28   26333.2    379.7   0.105478687   1.31867   1.06782   0.41645  -0.07073
  29   26480.3    377.6   0.007067742   0.08787  -0.05897  -0.03026  -0.28892
  30   26906.1    371.7   0.097992029   1.19899  -0.01233   0.26459   1.06246
  31   27075.3    369.3   0.023506225   0.28582  -0.38204  -0.35240   0.12518
  32   27561.7    362.8   0.048330303   0.57728  -0.31284  -0.40963   0.55823
  33   27683.4    361.2   0.149451096   1.77728   0.65021  -0.40277  -1.09191
  34   27843.9    359.1   0.044492029   0.52605  -0.46061  -0.28872  -0.48014
  35   28094.5    355.9   0.068868689   0.80700   0.50936   0.02080   0.73968
  36   28243.0    354.1   0.011664339   0.13596   0.03738   0.08968   0.35570
  37   28411.6    352.0   0.022960067   0.26604  -0.21369  -0.30132   0.35999
  38   28735.1    348.0   0.019001136   0.21769  -0.14680   0.17613   0.40635
  39   29020.0    344.6   0.075121156   0.85220  -0.59988  -0.48474  -0.50732
  40   29049.9    344.2   0.006717451   0.07613   0.04855  -0.09925  -0.25282
  41   29603.3    337.8   0.038608521   0.42936  -0.54246  -0.35585  -0.09199
  42   29726.7    336.4   0.084307905   0.93368  -0.05964  -0.35205  -0.89788
  43   30114.0    332.1   0.005244128   0.05733  -0.12941  -0.05536  -0.19370
  44   30337.7    329.6   0.001852697   0.02010  -0.01217  -0.14124   0.00265
  45   30625.1    326.5   0.019183156   0.20621  -0.30520  -0.16910   0.29064
  46   30792.4    324.8   0.000779361   0.00833  -0.08291   0.00974  -0.03694
  47   30862.0    324.0   0.101990621   1.08796   0.21422  -0.27694  -0.98253
  48   31125.5    321.3   0.028466787   0.30109  -0.25204  -0.32797  -0.36056
  49   31416.7    318.3   0.037757483   0.39566  -0.58030   0.12113   0.21033
  50   31780.3    314.7   0.000970444   0.01005  -0.04747   0.08318   0.02967
  51   31859.1    313.9   0.036262661   0.37472   0.23206   0.47206  -0.31309
  52   31909.3    313.4   0.047178012   0.48674   0.50563  -0.00042  -0.48071
  53   31967.9    312.8   0.008804892   0.09067  -0.07366   0.03055  -0.29037
  54   32231.6    310.3   0.061883524   0.63208  -0.10791  -0.56826  -0.54545
  55   32547.2    307.2   0.018603061   0.18817  -0.34265  -0.25321  -0.08150
  56   32842.5    304.5   0.000489934   0.00491  -0.04689   0.04256   0.03002
  57   33036.1    302.7   0.025114643   0.25027   0.22764  -0.24315  -0.37327
  58   33143.3    301.7   0.084959412   0.84390  -0.52950  -0.36303   0.65707
  59   33396.6    299.4   0.208245867   2.05282   0.31875   0.61504   1.25417
  60   33577.4    297.8   0.075492975   0.74018   0.42119   0.49397   0.56459
  61   33700.6    296.7   0.006116124   0.05975  -0.07691  -0.22972   0.03255
  62   33809.0    295.8   0.026900490   0.26194   0.17117   0.27892   0.39350
  63   33909.4    294.9   0.043560139   0.42291  -0.14055  -0.48009  -0.41553
  64   34100.3    293.3   0.029579824   0.28557  -0.23624  -0.11680   0.46488
  65   34208.9    292.3   0.002607013   0.02509   0.01159   0.13944  -0.07423
  66   34249.1    292.0   0.020303218   0.19516  -0.18124   0.10576  -0.38875
  67   34451.1    290.3   0.003551064   0.03393  -0.05143   0.05876   0.16684
  68   34665.4    288.5   0.213053380   2.02334   1.01641   0.86344   0.49467
  69   34900.8    286.5   0.392004092   3.69769   0.14553   1.21094   1.48665
  70   35013.7    285.6   0.413411859   3.88705  -1.56945  -1.05257   0.56211
  71   35273.9    283.5   0.184618683   1.72305  -1.19880  -0.51601   0.14021
  72   35478.7    281.9   0.039891346   0.37016   0.01891  -0.33189  -0.50956
  73   35630.2    280.7   0.051341435   0.47438   0.46596   0.04892  -0.50484
  74   35818.5    279.2   0.028738108   0.26414   0.50736   0.03888  -0.07217
  75   35922.6    278.4   0.046552084   0.42663  -0.17338   0.01043   0.62965
  76   36205.7    276.2   0.053111646   0.48293  -0.52072  -0.19564   0.41655
  77   36265.3    275.7   0.050605667   0.45939   0.03276  -0.31765  -0.59785
  78   36541.7    273.7   0.035053940   0.31581   0.39311   0.31289   0.25174
  79   36664.4    272.7   0.093014970   0.83519  -0.76033  -0.06076   0.50338
  80   36821.1    271.6   0.127994684   1.14438   0.41440  -0.52545  -0.83460
  81   36890.1    271.1   0.176453421   1.57469  -0.19407  -0.47163  -1.14656
  82   37093.4    269.6   0.275429751   2.44450  -0.02466   0.90488   1.27479
  83   37146.9    269.2   0.240578738   2.13211  -0.20408  -1.18650  -0.82624
  84   37371.7    267.6   0.032861440   0.28948  -0.06613   0.05542   0.53107
  85   37382.0    267.5   0.008761340   0.07716  -0.02438   0.17495  -0.21438
  86   37417.5    267.3   0.054359411   0.47827   0.00444   0.00495  -0.69154
  87   37525.4    266.5   0.143661168   1.26035   0.23511  -0.77290  -0.77955
  88   37855.0    264.2   0.138952927   1.20843   0.62541   0.12964  -0.89470
  89   38134.8    262.2   0.108157956   0.93371  -0.46911  -0.03234   0.84415
  90   38179.4    261.9   0.050833698   0.43833   0.30414   0.48918   0.32639
  91   38346.7    260.8   0.156244017   1.34138  -0.91462  -0.26396   0.65967
  92   38395.9    260.4   0.024404015   0.20924   0.15103  -0.04996  -0.42888
  93   38506.5    259.7   0.006668509   0.05701  -0.23563  -0.03855   0.00266
  94   38523.6    259.6   0.009173312   0.07839   0.23786   0.12446   0.07952
  95   38726.6    258.2   0.215186010   1.82928  -0.14912   0.05107   1.34329
  96   38920.0    256.9   0.188293914   1.59272  -1.05978  -0.63945   0.24634
  97   39081.9    255.9   0.068870549   0.58014   0.52999  -0.05574  -0.54419
  98   39303.5    254.4   0.063858716   0.53489  -0.49044   0.00531   0.54252
  99   39515.4    253.1   0.081728799   0.68090   0.25368   0.62878   0.47029
 100   39707.4    251.8   0.085122909   0.70575   0.08711  -0.02013  -0.83532
 101   39807.6    251.2   0.053124766   0.43935  -0.63176   0.05888   0.19172
 102   39821.0    251.1   0.012176800   0.10067   0.22416   0.07446   0.21184
 103   39938.9    250.4   0.026344625   0.21716   0.41231   0.13951  -0.16641
 104   39981.2    250.1   0.035853561   0.29522  -0.43546  -0.27707  -0.16979
 105   40071.7    249.6   0.036531955   0.30013   0.53638   0.10808  -0.02734
 106   40243.5    248.5   0.004391695   0.03593   0.15895   0.04881  -0.09099

FINAL SINGLE POINT ENERGY     -3819.400345373195

DIPOLE MOMENT
-------------
                                X             Y             Z
Electronic contribution:      5.86213       4.08334      -3.15032
Nuclear contribution   :     -8.67546      -7.12450       3.85997
                        -----------------------------------------
Total Dipole Moment    :     -2.81333      -3.04116       0.70964
                        -----------------------------------------
Magnitude (a.u.)       :      4.20322
Magnitude (Debye)      :     10.68374

Rotational constants in cm-1:     0.001724     0.000510     0.000406
Rotational constants in MHz :    51.680725    15.282794    12.185051

                             ****ORCA TERMINATED NORMALLY****
TOTAL RUN TIME: 0 days 0 hours 11 minutes 40 seconds 617 msec
