                         Program Version 4.2.0 -  RELEASE  -
|  1> # ORCA input file
|  2> # SCF done       -191.383161844022          0.001705992945
|  3> ! CAM-B3LYP def2-SVP def2/J RIJCOSX Grid4 TightSCF
|  4> %maxcore 5000
|  5> %tddft
|  6>     Mode sTDDFT
|  7>     Ethresh 5.0
|  8>     maxcore 5000
|  9> end
| 10>
| 11> %pal
| 12>   nprocs 6
| 13>   end
| 14> * xyz 0 1
| 15>    C        0.83890         5.13569        -2.78146
| 16>    C        0.75937         4.72715        -4.08768
| 17>    C        1.63639         3.74352        -4.59292
| 18>    N        2.33731         2.93431        -5.00434
| 19>    C       -0.17138         5.19826        -5.03028
| 20>    N       -0.90501         5.54057        -5.84502
| 21>    C        0.02074         6.09011        -2.07667
| 22>    C        0.38009         6.21738        -0.71928
| 23>    C       -0.31760         7.10114         0.09957
| 24>    C       -1.35696         7.83994        -0.42944
| 25>    C       -1.71247         7.71018        -1.76766
| 26>    C       -1.03174         6.84054        -2.59643
| 27>    C        1.47933         5.36757        -0.32920
| 28>    S        2.05631         4.46074        -1.72451
| 29>    C        1.96580         5.22722         0.93177
| 30>    C        3.01814         4.39252         1.37438
| 31>    C        3.97319         3.67869         0.66700
| 32>    C        4.80173         2.93739         1.50557
| 33>    C        4.47764         3.07570         2.86830
| 34>    S        3.17785         4.14913         3.11531
| 35>    C        5.32034         2.22403         3.62249
| 36>    C        6.18340         1.55044         2.74087
| 37>    C        5.90722         1.99896         1.38438
| 38>    C        6.55710         1.62949         0.24468
| 39>    C        7.62026         0.70164         0.25950
| 40>    N        8.48225        -0.05404         0.27655
| 41>    C        6.22523         2.16959        -1.01695
| 42>    N        5.96785         2.62379        -2.03725
| 43>    C        7.01029         0.63237         3.38637
| 44>    C        6.77746         0.59583         4.74953
| 45>    S        5.53691         1.73859         5.24653
| 46>    C        7.34359        -0.28986         5.69989
| 47>    C        7.04865        -0.37736         7.04855
| 48>    C        7.69485        -1.45391         7.65414
| 49>    C        8.49623        -2.18495         6.76031
| 50>    S        8.46807        -1.53822         5.17973
| 51>    C        9.02613        -3.30795         7.44337
| 52>    C        8.55412        -3.29145         8.76731
| 53>    C        7.72853        -2.10837         8.95291
| 54>    C        7.11029        -1.70268        10.09837
| 55>    C        7.21795        -2.42718        11.30454
| 56>    N        7.30723        -3.01505        12.28469
| 57>    C        6.32816        -0.52945        10.15118
| 58>    N        5.69243         0.42437        10.19174
| 59>    C        8.94185        -4.41514         9.49613
| 60>    C        9.70779        -5.28272         8.73917
| 61>    S        9.97443        -4.68746         7.10560
| 62>    C       10.18667        -6.56382         9.11279
| 63>    C       11.01664        -7.40040         8.38894
| 64>    C       11.19689        -8.62975         9.02216
| 65>    C       10.49047        -8.72977        10.23403
| 66>    S        9.63138        -7.30223        10.60929
| 67>    C       10.67938       -10.02881        10.76351
| 68>    C       11.51792       -10.75063         9.89146
| 69>    C       11.88159        -9.88864         8.77659
| 70>    C       12.68777       -10.19850         7.72120
| 71>    C       13.29809       -11.46379         7.59220
| 72>    N       13.79317       -12.49279         7.48751
| 73>    C       12.96411        -9.27297         6.69266
| 74>    N       13.18815        -8.52066         5.85697
| 75>    C       11.72508       -12.06040        10.30637
| 76>    C       11.04070       -12.35651        11.48047
| 77>    S       10.14598       -10.96629        12.08450
| 78>    C       11.02130       -13.62076        12.10670
| 79>    C       10.30901       -14.00622        13.19852
| 80>    C       10.27838       -15.32488        13.78095
| 81>    C        9.40739       -15.43493        14.88481
| 82>    C        8.74274       -14.19522        15.19329
| 83>    C        7.82901       -13.91959        16.17847
| 84>    C        7.34891       -14.84280        17.12335
| 85>    N        6.92010       -15.55062        17.91989
| 86>    C        7.28498       -12.62407        16.30322
| 87>    N        6.84684       -11.56772        16.39516
| 88>    S        9.23992       -12.93097        14.09228
| 89>    C        9.26206       -16.65352        15.54480
| 90>    C        9.98138       -17.74676        15.10484
| 91>    C       10.84219       -17.63957        14.01743
| 92>    C       10.99563       -16.43895        13.35343
| 93>    H       -0.04956         7.21274         1.13840
| 94>    H       -1.89889         8.52617         0.20335
| 95>    H       -2.52732         8.29484        -2.16517
| 96>    H       -1.31163         6.74654        -3.63258
| 97>    H        1.46711         5.78611         1.71268
| 98>    H        4.06787         3.70946        -0.40225
| 99>    H        7.73478         0.00213         2.90250
|100>    H        6.37828         0.30231         7.54345
|101>    H        8.67742        -4.61301        10.51945
|102>    H       11.45175        -7.11692         7.44734
|103>    H       12.32687       -12.78488         9.78816
|104>    H       11.63931       -14.36842        11.62728
|105>    H        8.59690       -16.74317        16.38775
|106>    H        9.87288       -18.69308        15.61133
|107>    H       11.39642       -18.50512        13.68790
|108>    H       11.66595       -16.36762        12.51139
|109> *
|110>
|111>                          ****END OF INPUT****

CARTESIAN COORDINATES (ANGSTROEM)
---------------------------------
  C      0.838900    5.135690   -2.781460
  C      0.759370    4.727150   -4.087680
  C      1.636390    3.743520   -4.592920
  N      2.337310    2.934310   -5.004340
  C     -0.171380    5.198260   -5.030280
  N     -0.905010    5.540570   -5.845020
  C      0.020740    6.090110   -2.076670
  C      0.380090    6.217380   -0.719280
  C     -0.317600    7.101140    0.099570
  C     -1.356960    7.839940   -0.429440
  C     -1.712470    7.710180   -1.767660
  C     -1.031740    6.840540   -2.596430
  C      1.479330    5.367570   -0.329200
  S      2.056310    4.460740   -1.724510
  C      1.965800    5.227220    0.931770
  C      3.018140    4.392520    1.374380
  C      3.973190    3.678690    0.667000
  C      4.801730    2.937390    1.505570
  C      4.477640    3.075700    2.868300
  S      3.177850    4.149130    3.115310
  C      5.320340    2.224030    3.622490
  C      6.183400    1.550440    2.740870
  C      5.907220    1.998960    1.384380
  C      6.557100    1.629490    0.244680
  C      7.620260    0.701640    0.259500
  N      8.482250   -0.054040    0.276550
  C      6.225230    2.169590   -1.016950
  N      5.967850    2.623790   -2.037250
  C      7.010290    0.632370    3.386370
  C      6.777460    0.595830    4.749530
  S      5.536910    1.738590    5.246530
  C      7.343590   -0.289860    5.699890
  C      7.048650   -0.377360    7.048550
  C      7.694850   -1.453910    7.654140
  C      8.496230   -2.184950    6.760310
  S      8.468070   -1.538220    5.179730
  C      9.026130   -3.307950    7.443370
  C      8.554120   -3.291450    8.767310
  C      7.728530   -2.108370    8.952910
  C      7.110290   -1.702680   10.098370
  C      7.217950   -2.427180   11.304540
  N      7.307230   -3.015050   12.284690
  C      6.328160   -0.529450   10.151180
  N      5.692430    0.424370   10.191740
  C      8.941850   -4.415140    9.496130
  C      9.707790   -5.282720    8.739170
  S      9.974430   -4.687460    7.105600
  C     10.186670   -6.563820    9.112790
  C     11.016640   -7.400400    8.388940
  C     11.196890   -8.629750    9.022160
  C     10.490470   -8.729770   10.234030
  S      9.631380   -7.302230   10.609290
  C     10.679380  -10.028810   10.763510
  C     11.517920  -10.750630    9.891460
  C     11.881590   -9.888640    8.776590
  C     12.687770  -10.198500    7.721200
  C     13.298090  -11.463790    7.592200
  N     13.793170  -12.492790    7.487510
  C     12.964110   -9.272970    6.692660
  N     13.188150   -8.520660    5.856970
  C     11.725080  -12.060400   10.306370
  C     11.040700  -12.356510   11.480470
  S     10.145980  -10.966290   12.084500
  C     11.021300  -13.620760   12.106700
  C     10.309010  -14.006220   13.198520
  C     10.278380  -15.324880   13.780950
  C      9.407390  -15.434930   14.884810
  C      8.742740  -14.195220   15.193290
  C      7.829010  -13.919590   16.178470
  C      7.348910  -14.842800   17.123350
  N      6.920100  -15.550620   17.919890
  C      7.284980  -12.624070   16.303220
  N      6.846840  -11.567720   16.395160
  S      9.239920  -12.930970   14.092280
  C      9.262060  -16.653520   15.544800
  C      9.981380  -17.746760   15.104840
  C     10.842190  -17.639570   14.017430
  C     10.995630  -16.438950   13.353430
  H     -0.049560    7.212740    1.138400
  H     -1.898890    8.526170    0.203350
  H     -2.527320    8.294840   -2.165170
  H     -1.311630    6.746540   -3.632580
  H      1.467110    5.786110    1.712680
  H      4.067870    3.709460   -0.402250
  H      7.734780    0.002130    2.902500
  H      6.378280    0.302310    7.543450
  H      8.677420   -4.613010   10.519450
  H     11.451750   -7.116920    7.447340
  H     12.326870  -12.784880    9.788160
  H     11.639310  -14.368420   11.627280
  H      8.596900  -16.743170   16.387750
  H      9.872880  -18.693080   15.611330
  H     11.396420  -18.505120   13.687900
  H     11.665950  -16.367620   12.511390

 Total Charge           Charge          ....    0
 Multiplicity           Mult            ....    1
 Number of Electrons    NEL             ....  574
 Basis Dimension        Dim             .... 1204

ORBITAL ENERGIES
----------------

  NO   OCC          E(Eh)            E(eV)
   0   2.0000     -89.001041     -2421.8415
   1   2.0000     -89.000572     -2421.8287
   2   2.0000     -89.000510     -2421.8270
   3   2.0000     -89.000449     -2421.8253
   4   2.0000     -89.000383     -2421.8235
   5   2.0000     -88.998971     -2421.7851
   6   2.0000     -88.982433     -2421.3351
   7   2.0000     -88.978667     -2421.2326
   8   2.0000     -14.439843      -392.9281
   9   2.0000     -14.439761      -392.9259
  10   2.0000     -14.439481      -392.9183
  11   2.0000     -14.438905      -392.9026
  12   2.0000     -14.437383      -392.8612
  13   2.0000     -14.434523      -392.7833
  14   2.0000     -14.417374      -392.3167
  15   2.0000     -14.414741      -392.2450
  16   2.0000     -14.414601      -392.2412
  17   2.0000     -14.409551      -392.1038
  18   2.0000     -10.374661      -282.3089
  19   2.0000     -10.374550      -282.3059
  20   2.0000     -10.372974      -282.2630
  21   2.0000     -10.365577      -282.0617
  22   2.0000     -10.361965      -281.9634
  23   2.0000     -10.361946      -281.9629
  24   2.0000     -10.361314      -281.9457
  25   2.0000     -10.359131      -281.8863
  26   2.0000     -10.346681      -281.5475
  27   2.0000     -10.343729      -281.4672
  28   2.0000     -10.343314      -281.4559
  29   2.0000     -10.343264      -281.4545
  30   2.0000     -10.342264      -281.4273
  31   2.0000     -10.341902      -281.4175
  32   2.0000     -10.341779      -281.4141
  33   2.0000     -10.340856      -281.3890
  34   2.0000     -10.340504      -281.3794
  35   2.0000     -10.340332      -281.3747
  36   2.0000     -10.340045      -281.3669
  37   2.0000     -10.339955      -281.3645
  38   2.0000     -10.339587      -281.3545
  39   2.0000     -10.339502      -281.3522
  40   2.0000     -10.339192      -281.3437
  41   2.0000     -10.338907      -281.3360
  42   2.0000     -10.337339      -281.2933
  43   2.0000     -10.336263      -281.2640
  44   2.0000     -10.335820      -281.2520
  45   2.0000     -10.335288      -281.2375
  46   2.0000     -10.334846      -281.2255
  47   2.0000     -10.333811      -281.1973
  48   2.0000     -10.321010      -280.8490
  49   2.0000     -10.320873      -280.8452
  50   2.0000     -10.319021      -280.7949
  51   2.0000     -10.318065      -280.7688
  52   2.0000     -10.317949      -280.7657
  53   2.0000     -10.316126      -280.7161
  54   2.0000     -10.315823      -280.7078
  55   2.0000     -10.314725      -280.6779
  56   2.0000     -10.314506      -280.6720
  57   2.0000     -10.314317      -280.6668
  58   2.0000     -10.313918      -280.6560
  59   2.0000     -10.313444      -280.6431
  60   2.0000     -10.313340      -280.6402
  61   2.0000     -10.313135      -280.6347
  62   2.0000     -10.312619      -280.6206
  63   2.0000     -10.312493      -280.6172
  64   2.0000     -10.312410      -280.6149
  65   2.0000     -10.312274      -280.6112
  66   2.0000     -10.312196      -280.6091
  67   2.0000     -10.311629      -280.5937
  68   2.0000     -10.311474      -280.5895
  69   2.0000     -10.310484      -280.5625
  70   2.0000     -10.303132      -280.3625
  71   2.0000     -10.302516      -280.3457
  72   2.0000     -10.302052      -280.3331
  73   2.0000     -10.301856      -280.3278
  74   2.0000     -10.301097      -280.3071
  75   2.0000     -10.299946      -280.2758
  76   2.0000     -10.296259      -280.1754
  77   2.0000     -10.294871      -280.1377
  78   2.0000      -8.095405      -220.2872
  79   2.0000      -8.095075      -220.2782
  80   2.0000      -8.095018      -220.2766
  81   2.0000      -8.094971      -220.2754
  82   2.0000      -8.094812      -220.2710
  83   2.0000      -8.093725      -220.2415
  84   2.0000      -8.078024      -219.8142
  85   2.0000      -8.073951      -219.7034
  86   2.0000      -6.064662      -165.0278
  87   2.0000      -6.064365      -165.0198
  88   2.0000      -6.064318      -165.0185
  89   2.0000      -6.064286      -165.0176
  90   2.0000      -6.064149      -165.0139
  91   2.0000      -6.062925      -164.9806
  92   2.0000      -6.060363      -164.9109
  93   2.0000      -6.060191      -164.9062
  94   2.0000      -6.060135      -164.9047
  95   2.0000      -6.060104      -164.9038
  96   2.0000      -6.059953      -164.8997
  97   2.0000      -6.058822      -164.8689
  98   2.0000      -6.057792      -164.8409
  99   2.0000      -6.057304      -164.8276
 100   2.0000      -6.057263      -164.8265
 101   2.0000      -6.057205      -164.8249
 102   2.0000      -6.057029      -164.8201
 103   2.0000      -6.056114      -164.7952
 104   2.0000      -6.047835      -164.5699
 105   2.0000      -6.043761      -164.4591
 106   2.0000      -6.043529      -164.4528
 107   2.0000      -6.039477      -164.3425
 108   2.0000      -6.038994      -164.3294
 109   2.0000      -6.034937      -164.2190
 110   2.0000      -1.056805       -28.7571
 111   2.0000      -1.054696       -28.6997
 112   2.0000      -1.052462       -28.6389
 113   2.0000      -1.032561       -28.0974
 114   2.0000      -1.031569       -28.0704
 115   2.0000      -1.030538       -28.0424
 116   2.0000      -1.028936       -27.9988
 117   2.0000      -1.027748       -27.9664
 118   2.0000      -1.018528       -27.7156
 119   2.0000      -1.017077       -27.6761
 120   2.0000      -1.016158       -27.6511
 121   2.0000      -1.013305       -27.5734
 122   2.0000      -1.009887       -27.4804
 123   2.0000      -1.006061       -27.3763
 124   2.0000      -1.003217       -27.2989
 125   2.0000      -0.998060       -27.1586
 126   2.0000      -0.994129       -27.0516
 127   2.0000      -0.989727       -26.9318
 128   2.0000      -0.975230       -26.5374
 129   2.0000      -0.967924       -26.3386
 130   2.0000      -0.962777       -26.1985
 131   2.0000      -0.958055       -26.0700
 132   2.0000      -0.955897       -26.0113
 133   2.0000      -0.939819       -25.5738
 134   2.0000      -0.937397       -25.5079
 135   2.0000      -0.928210       -25.2579
 136   2.0000      -0.918790       -25.0015
 137   2.0000      -0.910092       -24.7649
 138   2.0000      -0.887167       -24.1410
 139   2.0000      -0.884360       -24.0647
 140   2.0000      -0.880404       -23.9570
 141   2.0000      -0.879687       -23.9375
 142   2.0000      -0.875104       -23.8128
 143   2.0000      -0.871227       -23.7073
 144   2.0000      -0.866436       -23.5769
 145   2.0000      -0.865482       -23.5510
 146   2.0000      -0.860816       -23.4240
 147   2.0000      -0.859781       -23.3958
 148   2.0000      -0.855242       -23.2723
 149   2.0000      -0.853177       -23.2161
 150   2.0000      -0.839351       -22.8399
 151   2.0000      -0.815931       -22.2026
 152   2.0000      -0.795788       -21.6545
 153   2.0000      -0.790305       -21.5053
 154   2.0000      -0.787390       -21.4260
 155   2.0000      -0.783854       -21.3298
 156   2.0000      -0.774682       -21.0802
 157   2.0000      -0.759685       -20.6721
 158   2.0000      -0.742292       -20.1988
 159   2.0000      -0.734457       -19.9856
 160   2.0000      -0.731611       -19.9082
 161   2.0000      -0.721937       -19.6449
 162   2.0000      -0.715668       -19.4743
 163   2.0000      -0.713045       -19.4029
 164   2.0000      -0.708423       -19.2772
 165   2.0000      -0.707174       -19.2432
 166   2.0000      -0.705862       -19.2075
 167   2.0000      -0.697960       -18.9925
 168   2.0000      -0.694921       -18.9098
 169   2.0000      -0.690845       -18.7988
 170   2.0000      -0.685658       -18.6577
 171   2.0000      -0.682609       -18.5747
 172   2.0000      -0.667828       -18.1725
 173   2.0000      -0.663654       -18.0589
 174   2.0000      -0.647343       -17.6151
 175   2.0000      -0.643895       -17.5213
 176   2.0000      -0.642454       -17.4821
 177   2.0000      -0.641752       -17.4630
 178   2.0000      -0.639450       -17.4003
 179   2.0000      -0.637061       -17.3353
 180   2.0000      -0.630602       -17.1596
 181   2.0000      -0.629434       -17.1278
 182   2.0000      -0.626865       -17.0579
 183   2.0000      -0.623747       -16.9730
 184   2.0000      -0.619287       -16.8517
 185   2.0000      -0.611555       -16.6412
 186   2.0000      -0.593828       -16.1589
 187   2.0000      -0.585717       -15.9382
 188   2.0000      -0.583327       -15.8731
 189   2.0000      -0.577974       -15.7275
 190   2.0000      -0.574439       -15.6313
 191   2.0000      -0.571750       -15.5581
 192   2.0000      -0.566694       -15.4205
 193   2.0000      -0.560183       -15.2434
 194   2.0000      -0.557254       -15.1637
 195   2.0000      -0.554274       -15.0826
 196   2.0000      -0.552848       -15.0437
 197   2.0000      -0.549426       -14.9506
 198   2.0000      -0.541828       -14.7439
 199   2.0000      -0.540984       -14.7209
 200   2.0000      -0.538247       -14.6464
 201   2.0000      -0.537358       -14.6223
 202   2.0000      -0.534985       -14.5577
 203   2.0000      -0.534197       -14.5362
 204   2.0000      -0.529887       -14.4190
 205   2.0000      -0.525828       -14.3085
 206   2.0000      -0.520299       -14.1581
 207   2.0000      -0.518330       -14.1045
 208   2.0000      -0.517886       -14.0924
 209   2.0000      -0.516875       -14.0649
 210   2.0000      -0.512829       -13.9548
 211   2.0000      -0.510992       -13.9048
 212   2.0000      -0.509090       -13.8530
 213   2.0000      -0.508814       -13.8455
 214   2.0000      -0.506072       -13.7709
 215   2.0000      -0.502319       -13.6688
 216   2.0000      -0.499632       -13.5957
 217   2.0000      -0.498392       -13.5619
 218   2.0000      -0.496360       -13.5067
 219   2.0000      -0.492233       -13.3943
 220   2.0000      -0.490866       -13.3571
 221   2.0000      -0.488216       -13.2850
 222   2.0000      -0.488084       -13.2814
 223   2.0000      -0.481487       -13.1019
 224   2.0000      -0.479108       -13.0372
 225   2.0000      -0.470546       -12.8042
 226   2.0000      -0.470065       -12.7911
 227   2.0000      -0.469389       -12.7727
 228   2.0000      -0.468598       -12.7512
 229   2.0000      -0.466947       -12.7063
 230   2.0000      -0.466563       -12.6958
 231   2.0000      -0.465292       -12.6612
 232   2.0000      -0.462271       -12.5790
 233   2.0000      -0.460148       -12.5213
 234   2.0000      -0.459180       -12.4949
 235   2.0000      -0.457863       -12.4591
 236   2.0000      -0.455487       -12.3944
 237   2.0000      -0.454631       -12.3711
 238   2.0000      -0.454094       -12.3565
 239   2.0000      -0.450831       -12.2677
 240   2.0000      -0.450309       -12.2535
 241   2.0000      -0.449849       -12.2410
 242   2.0000      -0.449400       -12.2288
 243   2.0000      -0.448923       -12.2158
 244   2.0000      -0.447454       -12.1759
 245   2.0000      -0.447260       -12.1706
 246   2.0000      -0.446920       -12.1613
 247   2.0000      -0.445499       -12.1226
 248   2.0000      -0.445342       -12.1184
 249   2.0000      -0.445217       -12.1150
 250   2.0000      -0.443821       -12.0770
 251   2.0000      -0.443337       -12.0638
 252   2.0000      -0.441286       -12.0080
 253   2.0000      -0.437892       -11.9157
 254   2.0000      -0.435874       -11.8607
 255   2.0000      -0.434937       -11.8353
 256   2.0000      -0.434257       -11.8167
 257   2.0000      -0.432167       -11.7599
 258   2.0000      -0.431320       -11.7368
 259   2.0000      -0.427908       -11.6440
 260   2.0000      -0.424589       -11.5536
 261   2.0000      -0.421828       -11.4785
 262   2.0000      -0.419455       -11.4140
 263   2.0000      -0.418227       -11.3805
 264   2.0000      -0.416648       -11.3376
 265   2.0000      -0.411540       -11.1986
 266   2.0000      -0.410120       -11.1599
 267   2.0000      -0.407561       -11.0903
 268   2.0000      -0.406717       -11.0673
 269   2.0000      -0.399178       -10.8622
 270   2.0000      -0.386983       -10.5304
 271   2.0000      -0.369331       -10.0500
 272   2.0000      -0.363056        -9.8793
 273   2.0000      -0.360640        -9.8135
 274   2.0000      -0.357676        -9.7329
 275   2.0000      -0.347217        -9.4483
 276   2.0000      -0.346396        -9.4259
 277   2.0000      -0.344813        -9.3828
 278   2.0000      -0.336944        -9.1687
 279   2.0000      -0.332146        -9.0382
 280   2.0000      -0.330744        -9.0000
 281   2.0000      -0.329199        -8.9580
 282   2.0000      -0.322356        -8.7718
 283   2.0000      -0.307284        -8.3616
 284   2.0000      -0.284627        -7.7451
 285   2.0000      -0.261447        -7.1143
 286   2.0000      -0.242781        -6.6064
 287   0.0000      -0.120393        -3.2761
 288   0.0000      -0.114509        -3.1159
 289   0.0000      -0.111113        -3.0235
 290   0.0000      -0.086033        -2.3411
 291   0.0000      -0.085296        -2.3210

MULLIKEN ATOMIC CHARGES
-----------------------
   0 C :    0.087683
   1 C :   -0.280311
   2 C :   -0.208176
   3 N :    0.160732
   4 C :   -0.174571
   5 N :    0.154122
   6 C :    0.039258
   7 C :    0.145871
   8 C :   -0.053893
   9 C :    0.049043
  10 C :    0.030416
  11 C :   -0.021338
  12 C :   -0.038655
  13 S :    0.118337
  14 C :    0.015487
  15 C :   -0.108342
  16 C :   -0.032645
  17 C :   -0.009327
  18 C :   -0.091094
  19 S :    0.187964
  20 C :   -0.102162
  21 C :    0.019781
  22 C :    0.296477
  23 C :   -0.287280
  24 C :   -0.186489
  25 N :    0.175305
  26 C :   -0.189187
  27 N :    0.189188
  28 C :   -0.063965
  29 C :   -0.049348
  30 S :    0.194545
  31 C :   -0.053156
  32 C :   -0.061231
  33 C :    0.012434
  34 C :   -0.095045
  35 S :    0.199770
  36 C :   -0.097412
  37 C :    0.012472
  38 C :    0.297384
  39 C :   -0.290800
  40 C :   -0.187146
  41 N :    0.176036
  42 C :   -0.186716
  43 N :    0.173840
  44 C :   -0.059750
  45 C :   -0.053961
  46 S :    0.200805
  47 C :   -0.049739
  48 C :   -0.062947
  49 C :    0.013994
  50 C :   -0.095865
  51 S :    0.204735
  52 C :   -0.082631
  53 C :    0.033310
  54 C :    0.297658
  55 C :   -0.293457
  56 C :   -0.187591
  57 N :    0.175093
  58 C :   -0.185434
  59 N :    0.174105
  60 C :   -0.051048
  61 C :   -0.060481
  62 S :    0.177839
  63 C :   -0.024746
  64 C :   -0.043138
  65 C :    0.151422
  66 C :    0.045235
  67 C :    0.095452
  68 C :   -0.285383
  69 C :   -0.175777
  70 N :    0.155235
  71 C :   -0.205799
  72 N :    0.151937
  73 S :    0.098420
  74 C :   -0.024414
  75 C :    0.031243
  76 C :    0.052956
  77 C :   -0.058894
  78 H :   -0.016473
  79 H :    0.000257
  80 H :    0.001384
  81 H :    0.008565
  82 H :   -0.010940
  83 H :    0.030738
  84 H :    0.013431
  85 H :    0.012624
  86 H :    0.014127
  87 H :    0.012312
  88 H :    0.009055
  89 H :    0.001938
  90 H :    0.008109
  91 H :    0.001707
  92 H :    0.001003
  93 H :   -0.014076
Sum of atomic charges:   -0.0000000

LOEWDIN ATOMIC CHARGES
----------------------
   0 C :   -0.064168
   1 C :   -0.162932
   2 C :   -0.040662
   3 N :   -0.033954
   4 C :   -0.022464
   5 N :   -0.050957
   6 C :   -0.049770
   7 C :   -0.015971
   8 C :   -0.013579
   9 C :    0.003504
  10 C :   -0.012653
  11 C :    0.011383
  12 C :   -0.145734
  13 S :    0.442605
  14 C :   -0.054343
  15 C :   -0.170531
  16 C :   -0.030507
  17 C :   -0.067610
  18 C :   -0.176445
  19 S :    0.477223
  20 C :   -0.183236
  21 C :   -0.062217
  22 C :    0.078329
  23 C :   -0.093609
  24 C :   -0.015466
  25 N :   -0.029226
  26 C :   -0.020777
  27 N :   -0.016596
  28 C :   -0.038959
  29 C :   -0.176137
  30 S :    0.483845
  31 C :   -0.179795
  32 C :   -0.037417
  33 C :   -0.067505
  34 C :   -0.179225
  35 S :    0.488051
  36 C :   -0.178394
  37 C :   -0.067813
  38 C :    0.081930
  39 C :   -0.098416
  40 C :   -0.017131
  41 N :   -0.027876
  42 C :   -0.015755
  43 N :   -0.031029
  44 C :   -0.036462
  45 C :   -0.180810
  46 S :    0.487589
  47 C :   -0.175906
  48 C :   -0.039369
  49 C :   -0.064347
  50 C :   -0.181353
  51 S :    0.490362
  52 C :   -0.175879
  53 C :   -0.071648
  54 C :    0.081974
  55 C :   -0.099382
  56 C :   -0.016092
  57 N :   -0.030898
  58 C :   -0.016536
  59 N :   -0.029605
  60 C :   -0.017291
  61 C :   -0.174116
  62 S :    0.481938
  63 C :   -0.041681
  64 C :   -0.158530
  65 C :   -0.014804
  66 C :   -0.051514
  67 C :   -0.061749
  68 C :   -0.165790
  69 C :   -0.023323
  70 N :   -0.049992
  71 C :   -0.039188
  72 N :   -0.041887
  73 S :    0.415621
  74 C :    0.011778
  75 C :   -0.013003
  76 C :    0.005465
  77 C :   -0.012821
  78 H :    0.030360
  79 H :    0.035713
  80 H :    0.036598
  81 H :    0.042086
  82 H :    0.035272
  83 H :    0.030339
  84 H :    0.036285
  85 H :    0.035759
  86 H :    0.036845
  87 H :    0.036486
  88 H :    0.042116
  89 H :    0.046575
  90 H :    0.041989
  91 H :    0.036797
  92 H :    0.036328
  93 H :    0.031690

  Mayer bond orders larger than 0.100000
B(  0-C ,  1-C ) :   1.6335 B(  0-C ,  6-C ) :   1.0797 B(  0-C , 13-S ) :   1.0993
B(  1-C ,  2-C ) :   1.1286 B(  1-C ,  4-C ) :   1.1678 B(  2-C ,  3-N ) :   3.0338
B(  4-C ,  5-N ) :   2.9683 B(  6-C ,  7-C ) :   1.3205 B(  6-C , 11-C ) :   1.3442
B(  7-C ,  8-C ) :   1.3519 B(  7-C , 12-C ) :   1.0592 B(  8-C ,  9-C ) :   1.4132
B(  8-C , 78-H ) :   0.9894 B(  9-C , 10-C ) :   1.3451 B(  9-C , 79-H ) :   0.9871
B( 10-C , 11-C ) :   1.4135 B( 10-C , 80-H ) :   0.9883 B( 11-C , 81-H ) :   0.9808
B( 12-C , 13-S ) :   0.9993 B( 12-C , 14-C ) :   1.7125 B( 14-C , 15-C ) :   1.1383
B( 14-C , 82-H ) :   0.9414 B( 15-C , 16-C ) :   1.4390 B( 15-C , 19-S ) :   1.0956
B( 16-C , 17-C ) :   1.3265 B( 16-C , 83-H ) :   0.9717 B( 17-C , 18-C ) :   1.4301
B( 17-C , 22-C ) :   1.0006 B( 18-C , 19-S ) :   1.1312 B( 18-C , 20-C ) :   1.1943
B( 20-C , 21-C ) :   1.4472 B( 20-C , 30-S ) :   1.1141 B( 21-C , 22-C ) :   0.9944
B( 21-C , 28-C ) :   1.3028 B( 22-C , 23-C ) :   1.7186 B( 23-C , 24-C ) :   1.1334
B( 23-C , 26-C ) :   1.1317 B( 24-C , 25-N ) :   2.9914 B( 26-C , 27-N ) :   2.9881
B( 28-C , 29-C ) :   1.4549 B( 28-C , 84-H ) :   0.9872 B( 29-C , 30-S ) :   1.1113
B( 29-C , 31-C ) :   1.1711 B( 31-C , 32-C ) :   1.4547 B( 31-C , 35-S ) :   1.1095
B( 32-C , 33-C ) :   1.3031 B( 32-C , 85-H ) :   0.9871 B( 33-C , 34-C ) :   1.4435
B( 33-C , 38-C ) :   0.9963 B( 34-C , 35-S ) :   1.1220 B( 34-C , 36-C ) :   1.1863
B( 36-C , 37-C ) :   1.4439 B( 36-C , 46-S ) :   1.1230 B( 37-C , 38-C ) :   0.9950
B( 37-C , 44-C ) :   1.3013 B( 38-C , 39-C ) :   1.7174 B( 39-C , 40-C ) :   1.1311
B( 39-C , 42-C ) :   1.1324 B( 40-C , 41-N ) :   2.9928 B( 42-C , 43-N ) :   2.9913
B( 44-C , 45-C ) :   1.4578 B( 44-C , 86-H ) :   0.9874 B( 45-C , 46-S ) :   1.1085
B( 45-C , 47-C ) :   1.1663 B( 47-C , 48-C ) :   1.4557 B( 47-C , 51-S ) :   1.1124
B( 48-C , 49-C ) :   1.2982 B( 48-C , 87-H ) :   0.9886 B( 49-C , 50-C ) :   1.4388
B( 49-C , 54-C ) :   0.9983 B( 50-C , 51-S ) :   1.1191 B( 50-C , 52-C ) :   1.1918
B( 52-C , 53-C ) :   1.4102 B( 52-C , 62-S ) :   1.1433 B( 53-C , 54-C ) :   0.9894
B( 53-C , 60-C ) :   1.3015 B( 54-C , 55-C ) :   1.7185 B( 55-C , 56-C ) :   1.1339
B( 55-C , 58-C ) :   1.1299 B( 56-C , 57-N ) :   2.9917 B( 58-C , 59-N ) :   2.9918
B( 60-C , 61-C ) :   1.4016 B( 60-C , 88-H ) :   1.0057 B( 61-C , 62-S ) :   1.0823
B( 61-C , 63-C ) :   1.1807 B( 63-C , 64-C ) :   1.6502 B( 63-C , 89-H ) :   0.9635
B( 64-C , 65-C ) :   1.0610 B( 64-C , 73-S ) :   0.9880 B( 65-C , 66-C ) :   1.3220
B( 65-C , 77-C ) :   1.3506 B( 66-C , 67-C ) :   1.0801 B( 66-C , 74-C ) :   1.3388
B( 67-C , 68-C ) :   1.6367 B( 67-C , 73-S ) :   1.1006 B( 68-C , 69-C ) :   1.1656
B( 68-C , 71-C ) :   1.1299 B( 69-C , 70-N ) :   2.9700 B( 71-C , 72-N ) :   3.0315
B( 74-C , 75-C ) :   1.4152 B( 74-C , 90-H ) :   0.9828 B( 75-C , 76-C ) :   1.3429
B( 75-C , 91-H ) :   0.9877 B( 76-C , 77-C ) :   1.4142 B( 76-C , 92-H ) :   0.9866
B( 77-C , 93-H ) :   0.9919

-----------------------------------------------------------------------------
         ABSORPTION SPECTRUM VIA TRANSITION ELECTRIC DIPOLE MOMENTS
-----------------------------------------------------------------------------
State   Energy  Wavelength   fosc         T2         TX        TY        TZ
        (cm-1)    (nm)                  (au**2)     (au)      (au)      (au)
-----------------------------------------------------------------------------
   0   10619.6    941.7   0.599665201  18.58993   1.30261  -3.27562   2.48263
   1   11563.7    864.8   0.036185233   1.03017  -0.38055  -0.82063   0.46034
   2   11857.2    843.4   0.060353849   1.67571  -0.87042   0.44195  -0.85015
   3   18886.9    529.5   0.037685702   0.65689  -0.76221  -0.03373  -0.27346
   4   19530.9    512.0   1.008867688  17.00545  -1.16679   3.02738  -2.54540
   5   20517.4    487.4   0.187656333   3.01105   1.22402  -0.45374   1.14321
   6   20993.2    476.3   1.247915496  19.56959  -0.24258   2.75122  -3.45565
   7   21608.9    462.8   0.398595818   6.07261   2.30421   0.16855   0.85722
   8   23936.0    417.8   0.032161093   0.44234  -0.21564   0.62600  -0.06293
   9   25088.6    398.6   0.022116222   0.29021   0.46788  -0.02704  -0.26564
  10   25516.7    391.9   0.013612158   0.17562   0.03833   0.08902  -0.40771
  11   26627.0    375.6   0.702193724   8.68180  -1.44156   2.56138  -0.20747
  12   28184.5    354.8   0.092289459   1.07800  -0.91083  -0.37308   0.33044
  13   28778.7    347.5   0.060066282   0.68712   0.54874  -0.46516   0.41188
  14   28839.4    346.7   0.308126773   3.51737   0.01477   0.40480  -1.83120
  15   29666.9    337.1   0.095431193   1.05899  -0.64388   0.80005  -0.06579
  16   30136.7    331.8   0.066898236   0.73079   0.18003   0.45167   0.70312
  17   30404.3    328.9   0.012991466   0.14067   0.02480  -0.06840  -0.36793
  18   30991.6    322.7   0.006837015   0.07263   0.00299   0.17207  -0.20739
  19   31603.7    316.4   0.053986748   0.56237  -0.42367   0.19360   0.58771
  20   31730.3    315.2   1.058141134  10.97855   1.79650  -0.58465  -2.72201
  21   31853.6    313.9   0.347752377   3.59407  -0.91058   0.84376   1.43283
  22   32491.9    307.8   0.090058904   0.91249  -0.47288   0.82998   0.00054
  23   32515.2    307.5   0.646352589   6.54423  -1.11757   0.83129   2.14575
  24   32992.5    303.1   0.166247145   1.65888  -0.41166   0.89231  -0.83258
  25   33170.7    301.5   0.052543405   0.52148  -0.41079  -0.34063  -0.48652
  26   33529.7    298.2   0.159342099   1.56450   0.82935  -0.67254  -0.65144
  27   33787.4    296.0   0.172675184   1.68248  -0.79161   0.97574  -0.32214
  28   33934.7    294.7   0.241685522   2.34467   0.42549  -1.23344   0.80141
  29   34036.2    293.8   0.040405909   0.39082   0.01384   0.62079  -0.07246
  30   34188.9    292.5   0.049168051   0.47345   0.45638  -0.34010  -0.38664
  31   34377.9    290.9   0.101713348   0.97404  -0.63470   0.25996   0.70965
  32   34539.9    289.5   0.109112824   1.03999   0.46296  -0.47409  -0.77518
  33   34640.7    288.7   0.024289984   0.23084   0.08263  -0.38637  -0.27337
  34   34803.3    287.3   0.061163188   0.57856   0.22211  -0.54424  -0.48273
  35   34981.8    285.9   0.153909924   1.44844   0.41592  -1.10544   0.23120
  36   35345.2    282.9   0.286690305   2.67028  -0.83319   0.76066   1.18215
  37   35584.9    281.0   0.036996876   0.34227   0.46537  -0.35268  -0.03641
  38   35814.6    279.2   0.030155729   0.27719   0.32542  -0.31044  -0.27373
  39   36152.2    276.6   0.038159614   0.34749  -0.34253   0.12671   0.46272
  40   37331.2    267.9   0.088864975   0.78367   0.42288  -0.43189  -0.64677
  41   37375.7    267.6   0.132037881   1.16301   0.43168  -0.98161  -0.11446
  42   37775.2    264.7   0.136583984   1.19033   0.62118  -0.78450  -0.43477
  43   37960.4    263.4   0.096679314   0.83845   0.54501  -0.41324  -0.60881
  44   38194.3    261.8   0.008560118   0.07378   0.14200   0.02870  -0.22977
  45   38545.5    259.4   0.016418058   0.14022  -0.17003   0.11891   0.31173
  46   38705.2    258.4   0.105195573   0.89476  -0.49881   0.43170   0.67792
  47   38948.4    256.8   0.009667021   0.08171   0.08387   0.00420  -0.27324
  48   39032.4    256.2   0.005716444   0.04821  -0.20837   0.04487   0.05274
  49   39343.0    254.2   0.019641940   0.16436   0.12438  -0.00715  -0.38580
  50   39486.8    253.2   0.018961309   0.15809   0.08491  -0.32321   0.21543
  51   39600.4    252.5   0.020270380   0.16851  -0.10362   0.33367  -0.21551
  52   39628.6    252.3   0.020259562   0.16830  -0.19228   0.25209   0.26035
  53   39940.2    250.4   0.015174055   0.12507   0.16353  -0.23868   0.20339
  54   40070.4    249.6   0.012484519   0.10257   0.23023  -0.20278  -0.09190
  55   40132.6    249.2   0.054401423   0.44626   0.01630  -0.45098   0.49256
  56   40241.9    248.5   0.007473065   0.06114  -0.06814   0.14470  -0.18856

FINAL SINGLE POINT ENERGY     -6024.211063909458

DIPOLE MOMENT
-------------
                                X             Y             Z
Electronic contribution:     12.62797       8.34452       1.07405
Nuclear contribution   :    -12.12289      -8.04461       0.90568
                        -----------------------------------------
Total Dipole Moment    :      0.50508       0.29991       1.97973
                        -----------------------------------------
Magnitude (a.u.)       :      2.06504
Magnitude (Debye)      :      5.24892

Rotational constants in cm-1:     0.001514     0.000145     0.000141
Rotational constants in MHz :    45.377279     4.358896     4.241629

                             ****ORCA TERMINATED NORMALLY****
TOTAL RUN TIME: 0 days 0 hours 12 minutes 45 seconds 392 msec
