                         Program Version 4.2.0 -  RELEASE  -
|  1> # ORCA input file
|  2> # SCF done       -200.101813405743          0.000265382200
|  3> ! CAM-B3LYP def2-SVP def2/J RIJCOSX Grid4 TightSCF
|  4> %maxcore 5000
|  5> %tddft
|  6>     Mode sTDDFT
|  7>     Ethresh 5.0
|  8>     maxcore 5000
|  9> end
| 10>
| 11> %pal
| 12>   nprocs 6
| 13>   end
| 14> * xyz 0 1
| 15>    C       -5.37504        -2.21471        -0.60682
| 16>    C       -4.70567        -2.85755         0.39747
| 17>    C       -4.43810        -4.24435         0.41061
| 18>    N       -4.18671        -5.36194         0.47511
| 19>    C       -4.19926        -2.24299         1.56410
| 20>    N       -3.77547        -1.82385         2.54467
| 21>    C       -5.96052        -2.84406        -1.78185
| 22>    C       -6.61482        -1.85585        -2.55953
| 23>    C       -7.27110        -2.14918        -3.73113
| 24>    C       -7.29188        -3.48188        -4.15282
| 25>    C       -6.63387        -4.46339        -3.37076
| 26>    C       -5.96501        -4.16639        -2.19087
| 27>    S       -6.77856        -6.04404        -4.07565
| 28>    C       -7.70932        -5.37722        -5.39089
| 29>    C       -7.90234        -4.03861        -5.30900
| 30>   Br       -8.33848        -6.50912        -6.74575
| 31>    C       -6.44853        -0.53650        -1.92725
| 32>    O       -6.77041         0.53361        -2.39125
| 33>    C       -5.68906        -0.79165        -0.66627
| 34>    C       -5.27873         0.17584         0.18235
| 35>    C       -5.76294         1.53718         0.14549
| 36>    C       -4.91538         2.61826         0.29628
| 37>    F       -3.60152         2.39981         0.43922
| 38>    C       -5.35372         3.95612         0.23796
| 39>    F       -4.41307         4.90582         0.29784
| 40>    C       -6.67915         4.29514         0.05192
| 41>    C       -7.58380         3.21332        -0.07263
| 42>    C       -7.13697         1.84857        -0.00627
| 43>    N       -8.14966         0.98829        -0.07410
| 44>    S       -9.51503         1.81164        -0.24679
| 45>    N       -8.90646         3.29351        -0.21574
| 46>    C       -7.14702         5.67704        -0.00450
| 47>    C       -8.05771         6.09519        -0.94917
| 48>    C       -8.48965         7.42556        -1.00888
| 49>    F       -9.39362         7.72233        -1.95335
| 50>    C       -8.07798         8.40927        -0.12952
| 51>    C       -7.16191         7.99843         0.86689
| 52>    C       -6.69739         6.63782         0.93171
| 53>    N       -5.86893         6.44607         1.95764
| 54>    S       -5.66253         7.83528         2.72472
| 55>    N       -6.61442         8.75491         1.81809
| 56>    C       -8.55068         9.78421        -0.19419
| 57>    C       -9.02716        10.44651         0.94817
| 58>    C       -9.48433        11.80671         0.89984
| 59>    N       -9.84726        12.42247         2.05063
| 60>    C       -9.85517        11.74665         3.14891
| 61>    C       -9.51789        10.36139         3.17014
| 62>    N       -9.10882         9.75713         2.10970
| 63>    F       -9.61135         9.66040         4.29500
| 64>    F      -10.19355        12.38928         4.26307
| 65>    C       -9.53665        12.53419        -0.30600
| 66>    C       -9.03032        11.87715        -1.44218
| 67>    C       -8.55039        10.51466        -1.38835
| 68>    N       -8.10892        10.10255        -2.58303
| 69>    S       -8.30957        11.27467        -3.64328
| 70>    N       -8.93925        12.38285        -2.67510
| 71>    C       -9.99542        13.88668        -0.40705
| 72>    C      -10.91563        14.53599         0.34441
| 73>    C      -10.94535        16.02992         0.33985
| 74>    O      -10.40974        16.76467        -0.45145
| 75>    C      -11.72099        16.39520         1.54604
| 76>    C      -12.24856        15.23262         2.13752
| 77>    C      -12.98372        15.31841         3.30922
| 78>    C      -13.18136        16.57539         3.86013
| 79>    C      -12.66814        17.72742         3.25926
| 80>    C      -11.92710        17.64800         2.09127
| 81>    F      -12.89153        18.91966         3.82152
| 82>    F      -13.87864        16.68541         4.99381
| 83>    C      -11.89218        14.07913         1.31604
| 84>    C      -12.53787        12.87465         1.31859
| 85>    C      -12.29507        11.85432         0.37593
| 86>    N      -12.14303        10.99721        -0.37172
| 87>    C      -13.54591        12.52133         2.24131
| 88>    N      -14.35630        12.17508         2.97538
| 89>    H       -7.75649        -1.37326        -4.30200
| 90>    H       -5.47554        -4.94830        -1.63488
| 91>    H       -8.45202        -3.46669        -6.03399
| 92>    H       -4.53373        -0.03544         0.93890
| 93>    H       -8.45109         5.39891        -1.67193
| 94>    H       -9.50276        14.48227        -1.16943
| 95>    H      -13.38960        14.45556         3.81176
| 96>    H      -11.52698        18.53698         1.63023
| 97> *
| 98>
| 99>                          ****END OF INPUT****

CARTESIAN COORDINATES (ANGSTROEM)
---------------------------------
  C     -5.375040   -2.214710   -0.606820
  C     -4.705670   -2.857550    0.397470
  C     -4.438100   -4.244350    0.410610
  N     -4.186710   -5.361940    0.475110
  C     -4.199260   -2.242990    1.564100
  N     -3.775470   -1.823850    2.544670
  C     -5.960520   -2.844060   -1.781850
  C     -6.614820   -1.855850   -2.559530
  C     -7.271100   -2.149180   -3.731130
  C     -7.291880   -3.481880   -4.152820
  C     -6.633870   -4.463390   -3.370760
  C     -5.965010   -4.166390   -2.190870
  S     -6.778560   -6.044040   -4.075650
  C     -7.709320   -5.377220   -5.390890
  C     -7.902340   -4.038610   -5.309000
  Br    -8.338480   -6.509120   -6.745750
  C     -6.448530   -0.536500   -1.927250
  O     -6.770410    0.533610   -2.391250
  C     -5.689060   -0.791650   -0.666270
  C     -5.278730    0.175840    0.182350
  C     -5.762940    1.537180    0.145490
  C     -4.915380    2.618260    0.296280
  F     -3.601520    2.399810    0.439220
  C     -5.353720    3.956120    0.237960
  F     -4.413070    4.905820    0.297840
  C     -6.679150    4.295140    0.051920
  C     -7.583800    3.213320   -0.072630
  C     -7.136970    1.848570   -0.006270
  N     -8.149660    0.988290   -0.074100
  S     -9.515030    1.811640   -0.246790
  N     -8.906460    3.293510   -0.215740
  C     -7.147020    5.677040   -0.004500
  C     -8.057710    6.095190   -0.949170
  C     -8.489650    7.425560   -1.008880
  F     -9.393620    7.722330   -1.953350
  C     -8.077980    8.409270   -0.129520
  C     -7.161910    7.998430    0.866890
  C     -6.697390    6.637820    0.931710
  N     -5.868930    6.446070    1.957640
  S     -5.662530    7.835280    2.724720
  N     -6.614420    8.754910    1.818090
  C     -8.550680    9.784210   -0.194190
  C     -9.027160   10.446510    0.948170
  C     -9.484330   11.806710    0.899840
  N     -9.847260   12.422470    2.050630
  C     -9.855170   11.746650    3.148910
  C     -9.517890   10.361390    3.170140
  N     -9.108820    9.757130    2.109700
  F     -9.611350    9.660400    4.295000
  F    -10.193550   12.389280    4.263070
  C     -9.536650   12.534190   -0.306000
  C     -9.030320   11.877150   -1.442180
  C     -8.550390   10.514660   -1.388350
  N     -8.108920   10.102550   -2.583030
  S     -8.309570   11.274670   -3.643280
  N     -8.939250   12.382850   -2.675100
  C     -9.995420   13.886680   -0.407050
  C    -10.915630   14.535990    0.344410
  C    -10.945350   16.029920    0.339850
  O    -10.409740   16.764670   -0.451450
  C    -11.720990   16.395200    1.546040
  C    -12.248560   15.232620    2.137520
  C    -12.983720   15.318410    3.309220
  C    -13.181360   16.575390    3.860130
  C    -12.668140   17.727420    3.259260
  C    -11.927100   17.648000    2.091270
  F    -12.891530   18.919660    3.821520
  F    -13.878640   16.685410    4.993810
  C    -11.892180   14.079130    1.316040
  C    -12.537870   12.874650    1.318590
  C    -12.295070   11.854320    0.375930
  N    -12.143030   10.997210   -0.371720
  C    -13.545910   12.521330    2.241310
  N    -14.356300   12.175080    2.975380
  H     -7.756490   -1.373260   -4.302000
  H     -5.475540   -4.948300   -1.634880
  H     -8.452020   -3.466690   -6.033990
  H     -4.533730   -0.035440    0.938900
  H     -8.451090    5.398910   -1.671930
  H     -9.502760   14.482270   -1.169430
  H    -13.389600   14.455560    3.811760
  H    -11.526980   18.536980    1.630230

 Total Charge           Charge          ....    0
 Multiplicity           Mult            ....    1
 Number of Electrons    NEL             ....  558
 Basis Dimension        Dim             .... 1110

ORBITAL ENERGIES
----------------

  NO   OCC          E(Eh)            E(eV)
   0   2.0000    -482.891485    -13140.1453
   1   2.0000     -89.046257     -2423.0719
   2   2.0000     -89.033885     -2422.7352
   3   2.0000     -89.029409     -2422.6134
   4   2.0000     -88.982341     -2421.3326
   5   2.0000     -62.569216     -1702.5949
   6   2.0000     -56.403176     -1534.8084
   7   2.0000     -56.400441     -1534.7340
   8   2.0000     -56.400414     -1534.7333
   9   2.0000     -24.823618      -675.4850
  10   2.0000     -24.815860      -675.2739
  11   2.0000     -24.812905      -675.1935
  12   2.0000     -24.805756      -674.9989
  13   2.0000     -24.805365      -674.9883
  14   2.0000     -24.804349      -674.9606
  15   2.0000     -24.794291      -674.6870
  16   2.0000     -19.226286      -523.1739
  17   2.0000     -19.225252      -523.1457
  18   2.0000     -14.458781      -393.4434
  19   2.0000     -14.454849      -393.3364
  20   2.0000     -14.452561      -393.2742
  21   2.0000     -14.451168      -393.2363
  22   2.0000     -14.448403      -393.1610
  23   2.0000     -14.446485      -393.1088
  24   2.0000     -14.442525      -393.0011
  25   2.0000     -14.440228      -392.9386
  26   2.0000     -14.425306      -392.5325
  27   2.0000     -14.424286      -392.5048
  28   2.0000     -14.424088      -392.4994
  29   2.0000     -14.423381      -392.4802
  30   2.0000     -10.438840      -284.0553
  31   2.0000     -10.431879      -283.8658
  32   2.0000     -10.396678      -282.9080
  33   2.0000     -10.392456      -282.7931
  34   2.0000     -10.391966      -282.7798
  35   2.0000     -10.391121      -282.7568
  36   2.0000     -10.382112      -282.5116
  37   2.0000     -10.377305      -282.3808
  38   2.0000     -10.376172      -282.3500
  39   2.0000     -10.366088      -282.0756
  40   2.0000     -10.354008      -281.7469
  41   2.0000     -10.353836      -281.7422
  42   2.0000     -10.351309      -281.6734
  43   2.0000     -10.350667      -281.6560
  44   2.0000     -10.350664      -281.6559
  45   2.0000     -10.349295      -281.6186
  46   2.0000     -10.343008      -281.4475
  47   2.0000     -10.341517      -281.4070
  48   2.0000     -10.340195      -281.3710
  49   2.0000     -10.339389      -281.3491
  50   2.0000     -10.333518      -281.1893
  51   2.0000     -10.333299      -281.1834
  52   2.0000     -10.330732      -281.1135
  53   2.0000     -10.328450      -281.0514
  54   2.0000     -10.326586      -281.0007
  55   2.0000     -10.326367      -280.9947
  56   2.0000     -10.326190      -280.9899
  57   2.0000     -10.325977      -280.9841
  58   2.0000     -10.325540      -280.9722
  59   2.0000     -10.323843      -280.9261
  60   2.0000     -10.322715      -280.8953
  61   2.0000     -10.321286      -280.8565
  62   2.0000     -10.321085      -280.8510
  63   2.0000     -10.320475      -280.8344
  64   2.0000     -10.318263      -280.7742
  65   2.0000     -10.317106      -280.7427
  66   2.0000     -10.315857      -280.7087
  67   2.0000     -10.314199      -280.6636
  68   2.0000     -10.313729      -280.6508
  69   2.0000     -10.313641      -280.6484
  70   2.0000     -10.312742      -280.6240
  71   2.0000     -10.311518      -280.5907
  72   2.0000     -10.309053      -280.5236
  73   2.0000     -10.308662      -280.5130
  74   2.0000     -10.307783      -280.4890
  75   2.0000     -10.303452      -280.3712
  76   2.0000     -10.303320      -280.3676
  77   2.0000     -10.300796      -280.2989
  78   2.0000      -8.798659      -239.4237
  79   2.0000      -8.137586      -221.4350
  80   2.0000      -8.125718      -221.1120
  81   2.0000      -8.121083      -220.9859
  82   2.0000      -8.078438      -219.8255
  83   2.0000      -6.635015      -180.5479
  84   2.0000      -6.620377      -180.1496
  85   2.0000      -6.620148      -180.1434
  86   2.0000      -6.108464      -166.2198
  87   2.0000      -6.100760      -166.0101
  88   2.0000      -6.100705      -166.0086
  89   2.0000      -6.096909      -165.9053
  90   2.0000      -6.092241      -165.7783
  91   2.0000      -6.089136      -165.6938
  92   2.0000      -6.088131      -165.6665
  93   2.0000      -6.084512      -165.5680
  94   2.0000      -6.083613      -165.5435
  95   2.0000      -6.048121      -164.5778
  96   2.0000      -6.043840      -164.4613
  97   2.0000      -6.039629      -164.3467
  98   2.0000      -2.750834       -74.8540
  99   2.0000      -2.746808       -74.7444
 100   2.0000      -2.746606       -74.7390
 101   2.0000      -2.734985       -74.4227
 102   2.0000      -2.734963       -74.4221
 103   2.0000      -1.348971       -36.7074
 104   2.0000      -1.333720       -36.2924
 105   2.0000      -1.333513       -36.2867
 106   2.0000      -1.329947       -36.1897
 107   2.0000      -1.315011       -35.7833
 108   2.0000      -1.314610       -35.7723
 109   2.0000      -1.310470       -35.6597
 110   2.0000      -1.143112       -31.1057
 111   2.0000      -1.142599       -31.0917
 112   2.0000      -1.142504       -31.0891
 113   2.0000      -1.134960       -30.8838
 114   2.0000      -1.130608       -30.7654
 115   2.0000      -1.117674       -30.4134
 116   2.0000      -1.044427       -28.4203
 117   2.0000      -1.031111       -28.0580
 118   2.0000      -1.027625       -27.9631
 119   2.0000      -1.021525       -27.7971
 120   2.0000      -1.009886       -27.4804
 121   2.0000      -1.003270       -27.3004
 122   2.0000      -1.002667       -27.2839
 123   2.0000      -0.999239       -27.1907
 124   2.0000      -0.998707       -27.1762
 125   2.0000      -0.996996       -27.1296
 126   2.0000      -0.991007       -26.9667
 127   2.0000      -0.989234       -26.9184
 128   2.0000      -0.977549       -26.6005
 129   2.0000      -0.967739       -26.3335
 130   2.0000      -0.961195       -26.1554
 131   2.0000      -0.950310       -25.8593
 132   2.0000      -0.920981       -25.0612
 133   2.0000      -0.916512       -24.9396
 134   2.0000      -0.914180       -24.8761
 135   2.0000      -0.905444       -24.6384
 136   2.0000      -0.893853       -24.3230
 137   2.0000      -0.890159       -24.2225
 138   2.0000      -0.886751       -24.1297
 139   2.0000      -0.880307       -23.9544
 140   2.0000      -0.875320       -23.8187
 141   2.0000      -0.871416       -23.7124
 142   2.0000      -0.865218       -23.5438
 143   2.0000      -0.853973       -23.2378
 144   2.0000      -0.837572       -22.7915
 145   2.0000      -0.833147       -22.6711
 146   2.0000      -0.815524       -22.1915
 147   2.0000      -0.802220       -21.8295
 148   2.0000      -0.791977       -21.5508
 149   2.0000      -0.779561       -21.2129
 150   2.0000      -0.772720       -21.0268
 151   2.0000      -0.769134       -20.9292
 152   2.0000      -0.762322       -20.7438
 153   2.0000      -0.756316       -20.5804
 154   2.0000      -0.749414       -20.3926
 155   2.0000      -0.736308       -20.0360
 156   2.0000      -0.732827       -19.9412
 157   2.0000      -0.724085       -19.7034
 158   2.0000      -0.720223       -19.5983
 159   2.0000      -0.716576       -19.4990
 160   2.0000      -0.706513       -19.2252
 161   2.0000      -0.699261       -19.0279
 162   2.0000      -0.696331       -18.9481
 163   2.0000      -0.691260       -18.8101
 164   2.0000      -0.686911       -18.6918
 165   2.0000      -0.681566       -18.5463
 166   2.0000      -0.678032       -18.4502
 167   2.0000      -0.669786       -18.2258
 168   2.0000      -0.664949       -18.0942
 169   2.0000      -0.661516       -18.0008
 170   2.0000      -0.656735       -17.8707
 171   2.0000      -0.652123       -17.7452
 172   2.0000      -0.648190       -17.6381
 173   2.0000      -0.644536       -17.5387
 174   2.0000      -0.639297       -17.3962
 175   2.0000      -0.636093       -17.3090
 176   2.0000      -0.632138       -17.2014
 177   2.0000      -0.629871       -17.1397
 178   2.0000      -0.627344       -17.0709
 179   2.0000      -0.624220       -16.9859
 180   2.0000      -0.618712       -16.8360
 181   2.0000      -0.615938       -16.7605
 182   2.0000      -0.611699       -16.6452
 183   2.0000      -0.603938       -16.4340
 184   2.0000      -0.601919       -16.3790
 185   2.0000      -0.598680       -16.2909
 186   2.0000      -0.595243       -16.1974
 187   2.0000      -0.594366       -16.1735
 188   2.0000      -0.593525       -16.1506
 189   2.0000      -0.583153       -15.8684
 190   2.0000      -0.575649       -15.6642
 191   2.0000      -0.573950       -15.6180
 192   2.0000      -0.568783       -15.4774
 193   2.0000      -0.567968       -15.4552
 194   2.0000      -0.561204       -15.2711
 195   2.0000      -0.560900       -15.2629
 196   2.0000      -0.558924       -15.2091
 197   2.0000      -0.557160       -15.1611
 198   2.0000      -0.556137       -15.1333
 199   2.0000      -0.554365       -15.0850
 200   2.0000      -0.553957       -15.0739
 201   2.0000      -0.551927       -15.0187
 202   2.0000      -0.546259       -14.8645
 203   2.0000      -0.545854       -14.8534
 204   2.0000      -0.545089       -14.8326
 205   2.0000      -0.542186       -14.7536
 206   2.0000      -0.538982       -14.6664
 207   2.0000      -0.535460       -14.5706
 208   2.0000      -0.531650       -14.4669
 209   2.0000      -0.531240       -14.4558
 210   2.0000      -0.530529       -14.4364
 211   2.0000      -0.526975       -14.3397
 212   2.0000      -0.520831       -14.1725
 213   2.0000      -0.518040       -14.0966
 214   2.0000      -0.516290       -14.0490
 215   2.0000      -0.515822       -14.0362
 216   2.0000      -0.514204       -13.9922
 217   2.0000      -0.506853       -13.7922
 218   2.0000      -0.504418       -13.7259
 219   2.0000      -0.502185       -13.6651
 220   2.0000      -0.500695       -13.6246
 221   2.0000      -0.500493       -13.6191
 222   2.0000      -0.499888       -13.6027
 223   2.0000      -0.490255       -13.3405
 224   2.0000      -0.485502       -13.2112
 225   2.0000      -0.483402       -13.1540
 226   2.0000      -0.481697       -13.1076
 227   2.0000      -0.475331       -12.9344
 228   2.0000      -0.471354       -12.8262
 229   2.0000      -0.466342       -12.6898
 230   2.0000      -0.465829       -12.6758
 231   2.0000      -0.464951       -12.6520
 232   2.0000      -0.461681       -12.5630
 233   2.0000      -0.459150       -12.4941
 234   2.0000      -0.457594       -12.4518
 235   2.0000      -0.456585       -12.4243
 236   2.0000      -0.456203       -12.4139
 237   2.0000      -0.452006       -12.2997
 238   2.0000      -0.451594       -12.2885
 239   2.0000      -0.449620       -12.2348
 240   2.0000      -0.447201       -12.1690
 241   2.0000      -0.446106       -12.1391
 242   2.0000      -0.441592       -12.0163
 243   2.0000      -0.436751       -11.8846
 244   2.0000      -0.435286       -11.8447
 245   2.0000      -0.434604       -11.8262
 246   2.0000      -0.432794       -11.7769
 247   2.0000      -0.428859       -11.6699
 248   2.0000      -0.426462       -11.6046
 249   2.0000      -0.424686       -11.5563
 250   2.0000      -0.421216       -11.4619
 251   2.0000      -0.419317       -11.4102
 252   2.0000      -0.415557       -11.3079
 253   2.0000      -0.414944       -11.2912
 254   2.0000      -0.412556       -11.2262
 255   2.0000      -0.409868       -11.1531
 256   2.0000      -0.402144       -10.9429
 257   2.0000      -0.396204       -10.7813
 258   2.0000      -0.393159       -10.6984
 259   2.0000      -0.383166       -10.4265
 260   2.0000      -0.382702       -10.4138
 261   2.0000      -0.380759       -10.3610
 262   2.0000      -0.379207       -10.3187
 263   2.0000      -0.377721       -10.2783
 264   2.0000      -0.367322        -9.9954
 265   2.0000      -0.362271        -9.8579
 266   2.0000      -0.352935        -9.6039
 267   2.0000      -0.349782        -9.5181
 268   2.0000      -0.348400        -9.4804
 269   2.0000      -0.344303        -9.3690
 270   2.0000      -0.342043        -9.3075
 271   2.0000      -0.335815        -9.1380
 272   2.0000      -0.332942        -9.0598
 273   2.0000      -0.325623        -8.8607
 274   2.0000      -0.322244        -8.7687
 275   2.0000      -0.316457        -8.6112
 276   2.0000      -0.304126        -8.2757
 277   2.0000      -0.299746        -8.1565
 278   2.0000      -0.281098        -7.6491
 279   0.0000      -0.120076        -3.2674
 280   0.0000      -0.103323        -2.8116
 281   0.0000      -0.079094        -2.1522
 282   0.0000      -0.076734        -2.0880
 283   0.0000      -0.062567        -1.7025

MULLIKEN ATOMIC CHARGES
-----------------------
   0 C :    0.305125
   1 C :   -0.337167
   2 C :   -0.186223
   3 N :    0.156582
   4 C :   -0.194438
   5 N :    0.169487
   6 C :    0.015674
   7 C :   -0.016285
   8 C :   -0.067534
   9 C :    0.118894
  10 C :   -0.088128
  11 C :   -0.019078
  12 S :    0.191488
  13 C :   -0.123559
  14 C :    0.038588
  15 Br:    0.029913
  16 C :    0.156590
  17 O :   -0.144090
  18 C :   -0.049871
  19 C :   -0.054448
  20 C :   -0.004531
  21 C :    0.178813
  22 F :   -0.156257
  23 C :    0.185101
  24 F :   -0.156253
  25 C :   -0.023827
  26 C :    0.027195
  27 C :    0.028289
  28 N :   -0.270917
  29 S :    0.522777
  30 N :   -0.266772
  31 C :    0.045795
  32 C :   -0.079328
  33 C :    0.245277
  34 F :   -0.167646
  35 C :   -0.069138
  36 C :    0.024070
  37 C :    0.018702
  38 N :   -0.260762
  39 S :    0.517262
  40 N :   -0.272864
  41 C :    0.086315
  42 C :   -0.020232
  43 C :   -0.086460
  44 N :   -0.007542
  45 C :    0.151361
  46 C :    0.131011
  47 N :    0.048589
  48 F :   -0.137237
  49 F :   -0.136829
  50 C :    0.070741
  51 C :    0.016136
  52 C :   -0.002817
  53 N :   -0.255466
  54 S :    0.553843
  55 N :   -0.270924
  56 C :   -0.028151
  57 C :   -0.100926
  58 C :    0.128478
  59 O :   -0.127004
  60 C :    0.014359
  61 C :    0.022978
  62 C :   -0.085352
  63 C :    0.236349
  64 C :    0.234996
  65 C :   -0.101358
  66 F :   -0.166621
  67 F :   -0.161843
  68 C :    0.322290
  69 C :   -0.346832
  70 C :   -0.188960
  71 N :    0.170711
  72 C :   -0.196482
  73 N :    0.167883
  74 H :   -0.009605
  75 H :   -0.005859
  76 H :   -0.000976
  77 H :    0.045631
  78 H :   -0.000488
  79 H :    0.036546
  80 H :    0.018774
  81 H :    0.014468
Sum of atomic charges:   -0.0000000

LOEWDIN ATOMIC CHARGES
----------------------
   0 C :    0.074285
   1 C :   -0.127077
   2 C :   -0.017337
   3 N :   -0.044712
   4 C :   -0.022041
   5 N :   -0.039427
   6 C :   -0.021157
   7 C :   -0.049229
   8 C :    0.023579
   9 C :   -0.030183
  10 C :   -0.142329
  11 C :   -0.007774
  12 S :    0.436599
  13 C :   -0.269331
  14 C :   -0.070363
  15 Br:    0.142021
  16 C :    0.087300
  17 O :   -0.134901
  18 C :   -0.061284
  19 C :    0.075949
  20 C :   -0.059890
  21 C :    0.090444
  22 F :   -0.037562
  23 C :    0.077785
  24 F :   -0.033539
  25 C :   -0.035573
  26 C :   -0.043220
  27 C :   -0.036832
  28 N :   -0.280212
  29 S :    0.658948
  30 N :   -0.284292
  31 C :   -0.005373
  32 C :   -0.007502
  33 C :    0.111070
  34 F :   -0.044710
  35 C :   -0.055574
  36 C :   -0.033227
  37 C :   -0.052163
  38 N :   -0.282176
  39 S :    0.656016
  40 N :   -0.290190
  41 C :    0.014227
  42 C :    0.002826
  43 C :    0.005371
  44 N :   -0.041262
  45 C :    0.066197
  46 C :    0.055052
  47 N :   -0.017910
  48 F :   -0.027131
  49 F :   -0.026096
  50 C :   -0.040965
  51 C :   -0.030600
  52 C :   -0.042919
  53 N :   -0.278016
  54 S :    0.694551
  55 N :   -0.290070
  56 C :    0.076788
  57 C :   -0.069198
  58 C :    0.086350
  59 O :   -0.126857
  60 C :   -0.046322
  61 C :   -0.008308
  62 C :   -0.017199
  63 C :    0.075834
  64 C :    0.070910
  65 C :   -0.003506
  66 F :   -0.043337
  67 F :   -0.040136
  68 C :    0.079816
  69 C :   -0.137898
  70 C :   -0.018075
  71 N :   -0.045961
  72 C :   -0.024488
  73 N :   -0.044081
  74 H :    0.041456
  75 H :    0.041520
  76 H :    0.039685
  77 H :    0.049678
  78 H :    0.046616
  79 H :    0.053528
  80 H :    0.052067
  81 H :    0.053048

  Mayer bond orders larger than 0.100000
B(  0-C ,  1-C ) :   1.6600 B(  0-C ,  6-C ) :   1.0145 B(  0-C , 18-C ) :   1.0420
B(  1-C ,  2-C ) :   1.1384 B(  1-C ,  4-C ) :   1.1408 B(  2-C ,  3-N ) :   2.9719
B(  4-C ,  5-N ) :   2.9791 B(  6-C ,  7-C ) :   1.2713 B(  6-C , 11-C ) :   1.4001
B(  7-C ,  8-C ) :   1.4169 B(  7-C , 16-C ) :   0.9509 B(  8-C ,  9-C ) :   1.2510
B(  8-C , 74-H ) :   1.0174 B(  9-C , 10-C ) :   1.2964 B(  9-C , 14-C ) :   1.1636
B( 10-C , 11-C ) :   1.3396 B( 10-C , 12-S ) :   1.0881 B( 11-C , 75-H ) :   0.9800
B( 12-S , 13-C ) :   1.0876 B( 13-C , 14-C ) :   1.6156 B( 13-C , 15-Br) :   1.0222
B( 14-C , 76-H ) :   1.0005 B( 16-C , 17-O ) :   2.2288 B( 16-C , 18-C ) :   0.9198
B( 18-C , 19-C ) :   1.7395 B( 19-C , 20-C ) :   1.0295 B( 19-C , 77-H ) :   0.9359
B( 20-C , 21-C ) :   1.4279 B( 20-C , 25-C ) :   0.1253 B( 20-C , 27-C ) :   1.1900
B( 21-C , 22-F ) :   1.1868 B( 21-C , 23-C ) :   1.1018 B( 23-C , 24-F ) :   1.1804
B( 23-C , 25-C ) :   1.4490 B( 25-C , 26-C ) :   1.2265 B( 25-C , 31-C ) :   0.9496
B( 26-C , 27-C ) :   1.1535 B( 26-C , 30-N ) :   1.5466 B( 27-C , 28-N ) :   1.5422
B( 28-N , 29-S ) :   1.2691 B( 28-N , 30-N ) :   0.1448 B( 29-S , 30-N ) :   1.2727
B( 31-C , 32-C ) :   1.4742 B( 31-C , 35-C ) :   0.1159 B( 31-C , 37-C ) :   1.2274
B( 32-C , 33-C ) :   1.1597 B( 32-C , 78-H ) :   1.0146 B( 33-C , 34-F ) :   1.1373
B( 33-C , 35-C ) :   1.4607 B( 35-C , 36-C ) :   1.2372 B( 35-C , 41-C ) :   0.9143
B( 36-C , 37-C ) :   1.1677 B( 36-C , 40-N ) :   1.5224 B( 37-C , 38-N ) :   1.5325
B( 38-N , 39-S ) :   1.2839 B( 38-N , 40-N ) :   0.1491 B( 39-S , 40-N ) :   1.2688
B( 41-C , 42-C ) :   1.4150 B( 41-C , 50-C ) :   0.1423 B( 41-C , 52-C ) :   1.2870
B( 42-C , 43-C ) :   1.1131 B( 42-C , 47-N ) :   1.4019 B( 43-C , 44-N ) :   1.4064
B( 43-C , 50-C ) :   1.3028 B( 44-N , 45-C ) :   1.6666 B( 45-C , 46-C ) :   1.0814
B( 45-C , 49-F ) :   1.1803 B( 46-C , 47-N ) :   1.7055 B( 46-C , 48-F ) :   1.1815
B( 50-C , 51-C ) :   1.2108 B( 50-C , 56-C ) :   1.0829 B( 51-C , 52-C ) :   1.1096
B( 51-C , 55-N ) :   1.5370 B( 52-C , 53-N ) :   1.4986 B( 53-N , 54-S ) :   1.3152
B( 53-N , 55-N ) :   0.1581 B( 54-S , 55-N ) :   1.2866 B( 56-C , 57-C ) :   1.6961
B( 56-C , 79-H ) :   0.9436 B( 57-C , 58-C ) :   0.9356 B( 57-C , 68-C ) :   1.0187
B( 58-C , 59-O ) :   2.2844 B( 58-C , 60-C ) :   0.9273 B( 60-C , 61-C ) :   1.3398
B( 60-C , 65-C ) :   1.3171 B( 61-C , 62-C ) :   1.3138 B( 61-C , 68-C ) :   1.0283
B( 62-C , 63-C ) :   1.3412 B( 62-C , 65-C ) :   0.1040 B( 62-C , 80-H ) :   0.9952
B( 63-C , 64-C ) :   1.2842 B( 63-C , 67-F ) :   1.1450 B( 64-C , 65-C ) :   1.3249
B( 64-C , 66-F ) :   1.1331 B( 65-C , 81-H ) :   1.0199 B( 68-C , 69-C ) :   1.6568
B( 69-C , 70-C ) :   1.1702 B( 69-C , 72-C ) :   1.1280 B( 70-C , 71-N ) :   2.9935
B( 72-C , 73-N ) :   3.0030

-----------------------------------------------------------------------------
         ABSORPTION SPECTRUM VIA TRANSITION ELECTRIC DIPOLE MOMENTS
-----------------------------------------------------------------------------
State   Energy  Wavelength   fosc         T2         TX        TY        TZ
        (cm-1)    (nm)                  (au**2)     (au)      (au)      (au)
-----------------------------------------------------------------------------
   0   18025.7    554.8   0.688574400  12.57578   1.56089  -3.15489  -0.43137
   1   23562.5    424.4   0.562604295   7.86064  -0.26956   2.77472   0.29819
   2   24341.1    410.8   0.146709642   1.98424  -0.93066   1.00550   0.32724
   3   24575.0    406.9   0.013395602   0.17945  -0.13518   0.39514   0.07103
   4   26691.7    374.6   0.046738635   0.57647   0.46986   0.58753   0.10253
   5   26801.2    373.1   0.210380268   2.58420   0.61090   0.50896   1.39713
   6   27379.7    365.2   0.012587663   0.15135  -0.14910  -0.35901   0.01539
   7   28163.8    355.1   0.021299293   0.24897   0.17693  -0.46596   0.02343
   8   28435.2    351.7   0.011475314   0.13286  -0.23531  -0.15331  -0.23234
   9   28976.8    345.1   0.017737063   0.20151  -0.09665  -0.08769   0.42952
  10   29442.8    339.6   0.013193842   0.14753   0.01302  -0.35785   0.13892
  11   29734.2    336.3   0.242273933   2.68241   0.45178   0.11380  -1.57015
  12   30116.1    332.0   0.106314181   1.16217  -0.15775   1.00286   0.36271
  13   30504.2    327.8   0.266291796   2.87392  -0.35382  -0.90769  -1.38738
  14   31225.0    320.3   0.023010933   0.24261   0.19153   0.25361   0.37631
  15   31383.1    318.6   0.071980095   0.75508   0.22998  -0.81712   0.18574
  16   31842.3    314.0   0.025715012   0.26586  -0.45749  -0.05482   0.23144
  17   32082.6    311.7   0.057999281   0.59515   0.73098   0.03725   0.24378
  18   32211.5    310.4   0.090105871   0.92091   0.77071   0.17459   0.54445
  19   32356.1    309.1   0.035951304   0.36579  -0.16509   0.13907  -0.56498
  20   32636.3    306.4   0.140640865   1.41869   0.41405   0.17944   1.10229
  21   32927.4    303.7   0.034147366   0.34141  -0.13366  -0.17558   0.54103
  22   33286.8    300.4   0.313743560   3.10298   0.87750   0.22060   1.51139
  23   33658.6    297.1   0.022578685   0.22084   0.20229   0.34627   0.24499
  24   33714.9    296.6   0.139414643   1.36132  -0.08641   1.07219   0.45196
  25   33819.7    295.7   0.024900076   0.24239  -0.38538   0.03766  -0.30406
  26   34694.7    288.2   0.019827916   0.18814  -0.04200  -0.17214  -0.39591
  27   34921.4    286.4   0.168543014   1.58889   0.49148   1.07284   0.44311
  28   35138.6    284.6   0.074743977   0.70027   0.03675   0.82477   0.13665
  29   35201.0    284.1   0.017221417   0.16106   0.04330  -0.39893  -0.00654
  30   35318.2    283.1   0.041897711   0.39054  -0.15093  -0.52772  -0.29878
  31   35458.1    282.0   0.023415361   0.21740   0.11047  -0.36810  -0.26401
  32   35862.4    278.8   0.017751387   0.16296  -0.05099   0.38395   0.11374
  33   36225.6    276.0   0.055400174   0.50347   0.50502   0.06137   0.49463
  34   36369.8    275.0   0.240526848   2.17720  -0.47290  -1.37823   0.23246
  35   36637.0    272.9   0.186055268   1.67185  -0.20125   1.22447   0.36336
  36   36883.4    271.1   0.031319669   0.27955  -0.09291   0.51811   0.04983
  37   37072.3    269.7   0.013794362   0.12250   0.04921  -0.07799   0.33763
  38   37476.8    266.8   0.004600609   0.04041   0.10446   0.00414   0.17171
  39   37843.5    264.2   0.012501794   0.10876   0.24898  -0.20643  -0.06445
  40   38038.7    262.9   0.009318337   0.08065   0.05944  -0.25868  -0.10098
  41   38369.7    260.6   0.008082870   0.06935   0.24024   0.10642  -0.01770
  42   38477.8    259.9   0.034431601   0.29459  -0.01210  -0.18053   0.51172
  43   38539.4    259.5   0.044208402   0.37764  -0.49133  -0.29654   0.21978
  44   38972.6    256.6   0.017137128   0.14476   0.28625   0.06334  -0.24251
  45   39127.3    255.6   0.318012769   2.67572  -0.24698   1.60217  -0.21853
  46   39796.7    251.3   0.029300983   0.24239   0.42174   0.09790   0.23440
  47   39944.5    250.3   0.045799951   0.37747   0.49159  -0.35535   0.09763
  48   40210.2    248.7   0.044067884   0.36080   0.26149   0.51757   0.15665
  49   40282.6    248.2   0.007027599   0.05743   0.19457   0.11556  -0.07888

FINAL SINGLE POINT ENERGY     -7502.377715915822

DIPOLE MOMENT
-------------
                                X             Y             Z
Electronic contribution:     -2.19014     -80.87274     -39.42699
Nuclear contribution   :      2.32808      80.94000      37.19738
                        -----------------------------------------
Total Dipole Moment    :      0.13794       0.06727      -2.22961
                        -----------------------------------------
Magnitude (a.u.)       :      2.23489
Magnitude (Debye)      :      5.68063

Rotational constants in cm-1:     0.001904     0.000222     0.000213
Rotational constants in MHz :    57.070839     6.658558     6.373220

                             ****ORCA TERMINATED NORMALLY****
TOTAL RUN TIME: 0 days 0 hours 9 minutes 25 seconds 314 msec
