                         Program Version 4.2.0 -  RELEASE  -
|  1> # ORCA input file
|  2> # SCF done       -167.093150286641          0.000231310069
|  3> ! CAM-B3LYP def2-SVP def2/J RIJCOSX Grid4 TightSCF
|  4> %maxcore 5000
|  5> %tddft
|  6>     Mode sTDDFT
|  7>     Ethresh 5.0
|  8>     maxcore 5000
|  9> end
| 10>
| 11> %pal
| 12>   nprocs 6
| 13>   end
| 14> * xyz 0 1
| 15>    C        5.83020        -1.70111        -7.16658
| 16>    C        5.81435        -0.44676        -6.63947
| 17>    C        6.21056        -0.40801        -5.28745
| 18>    C        6.52318        -1.68396        -4.82582
| 19>    S        6.33258        -2.89841        -6.03035
| 20>    C        6.93484        -1.76895        -3.46787
| 21>    C        6.97786        -0.56156        -2.76992
| 22>   Si        6.44539         0.83028        -3.90462
| 23>    C        4.85079         1.64934        -3.35765
| 24>    C        7.79986         2.08122        -4.23873
| 25>    C        7.38460        -0.75515        -1.44600
| 26>    C        7.64572        -2.07214        -1.12917
| 27>    S        7.38945        -3.12089        -2.50748
| 28>    C        8.04762        -2.61962         0.11566
| 29>    C        8.25775        -3.94854         0.42672
| 30>    C        8.61105        -4.17139         1.75736
| 31>    C        8.67727        -2.96951         2.47576
| 32>    S        8.30764        -1.59177         1.50785
| 33>    C        8.98542        -3.08984         3.84920
| 34>    C        9.17399        -4.40274         4.30878
| 35>   Si        9.00280        -5.60911         2.88918
| 36>    C        7.59613        -6.82651         3.11515
| 37>    C       10.60865        -6.47433         2.45850
| 38>    C        9.40046        -4.43987         5.67737
| 39>    C        9.39341        -3.19382         6.29432
| 40>    S        9.13434        -1.92221         5.10518
| 41>    C        9.50721        -2.86463         7.65684
| 42>    C        9.34111        -3.73302         8.70895
| 43>    C        9.41553        -3.42750        10.09050
| 44>    C        9.08220        -4.45789        10.92243
| 45>    C        8.72031        -5.64012        10.24740
| 46>    S        8.86515        -5.41134         8.51739
| 47>    C        8.25888        -6.85456        10.71977
| 48>    C        8.05056        -7.32433        12.03087
| 49>    C        7.52459        -8.58339        12.08816
| 50>    C        7.27572        -9.18194        10.82835
| 51>    S        7.77911        -8.07808         9.56238
| 52>    C        6.69347       -10.40790        10.60561
| 53>    C        6.38490       -10.98532         9.36362
| 54>    C        6.63314       -10.53477         8.07004
| 55>    C        6.13181       -11.35555         7.07109
| 56>    C        5.47837       -12.48098         7.59964
| 57>    S        5.50433       -12.50983         9.31988
| 58>    C        4.91884       -13.35788         6.64470
| 59>    C        5.08909       -12.98899         5.30277
| 60>   Si        6.04691       -11.38440         5.20207
| 61>    C        5.06371        -9.95883         4.48719
| 62>    C        7.72474       -11.55352         4.38471
| 63>    C        4.49035       -13.90965         4.44349
| 64>    C        3.87148       -14.96223         5.08897
| 65>    S        4.03071       -14.82460         6.82629
| 66>    C        3.17104       -16.04798         4.50485
| 67>    C        2.53752       -17.10121         5.13151
| 68>    C        1.93099       -18.00209         4.25048
| 69>    C        2.11527       -17.61365         2.92299
| 70>    S        3.02219       -16.16138         2.76394
| 71>    C        1.53258       -18.46312         1.94340
| 72>    C        0.85243       -19.57597         2.43106
| 73>   Si        0.93458       -19.58742         4.30019
| 74>    C        1.89330       -21.03794         4.99935
| 75>    C       -0.73829       -19.38796         5.12083
| 76>    C        0.31569       -20.33885         1.37450
| 77>    C        0.58413       -19.81705         0.14683
| 78>    S        1.50967       -18.36298         0.22529
| 79>    H        5.57656        -2.00865        -8.16212
| 80>    H        5.52710         0.42360        -7.20269
| 81>    H        4.47338         2.33748        -4.11120
| 82>    H        4.98890         2.22411        -2.44413
| 83>    H        4.06307         0.92429        -3.16301
| 84>    H        8.72771         1.60821        -4.55389
| 85>    H        8.02644         2.67198        -3.35357
| 86>    H        7.51491         2.78054        -5.02208
| 87>    H        7.48663         0.03518        -0.72275
| 88>    H        8.14359        -4.72866        -0.30579
| 89>    H        6.65542        -6.33078         3.34617
| 90>    H        7.80076        -7.51974         3.92894
| 91>    H        7.43245        -7.42507         2.22136
| 92>    H       11.43274        -5.77427         2.33629
| 93>    H       10.52645        -7.03620         1.53033
| 94>    H       10.90168        -7.18069         3.23261
| 95>    H        9.59939        -5.35137         6.20855
| 96>    H        9.67654        -1.82420         7.90111
| 97>    H        9.70097        -2.44616        10.42775
| 98>    H        9.06714        -4.38969        11.99596
| 99>    H        8.28724        -6.72597        12.89296
|100>    H        7.29384        -9.10038        13.00346
|101>    H        6.41397       -10.97409        11.48480
|102>    H        7.17084        -9.63067         7.85847
|103>    H        4.91428       -10.06977         3.41513
|104>    H        5.57035        -9.00812         4.64022
|105>    H        4.07827        -9.87125         4.94033
|106>    H        8.29983       -12.38253         4.79219
|107>    H        8.32382       -10.65449         4.51530
|108>    H        7.63482       -11.72230         3.31359
|109>    H        4.49575       -13.82519         3.37062
|110>    H        2.52247       -17.20008         6.20301
|111>    H        2.86474       -21.15554         4.52341
|112>    H        1.35658       -21.97507         4.86720
|113>    H        2.07195       -20.92264         6.06643
|114>    H       -1.29720       -18.54738         4.71456
|115>    H       -0.64236       -19.22066         6.19164
|116>    H       -1.35576       -20.27461         4.99260
|117>    H       -0.25025       -21.24239         1.51795
|118>    H        0.29597       -20.19410        -0.81488
|119> *
|120>
|121>                          ****END OF INPUT****

CARTESIAN COORDINATES (ANGSTROEM)
---------------------------------
  C      5.830200   -1.701110   -7.166580
  C      5.814350   -0.446760   -6.639470
  C      6.210560   -0.408010   -5.287450
  C      6.523180   -1.683960   -4.825820
  S      6.332580   -2.898410   -6.030350
  C      6.934840   -1.768950   -3.467870
  C      6.977860   -0.561560   -2.769920
  Si     6.445390    0.830280   -3.904620
  C      4.850790    1.649340   -3.357650
  C      7.799860    2.081220   -4.238730
  C      7.384600   -0.755150   -1.446000
  C      7.645720   -2.072140   -1.129170
  S      7.389450   -3.120890   -2.507480
  C      8.047620   -2.619620    0.115660
  C      8.257750   -3.948540    0.426720
  C      8.611050   -4.171390    1.757360
  C      8.677270   -2.969510    2.475760
  S      8.307640   -1.591770    1.507850
  C      8.985420   -3.089840    3.849200
  C      9.173990   -4.402740    4.308780
  Si     9.002800   -5.609110    2.889180
  C      7.596130   -6.826510    3.115150
  C     10.608650   -6.474330    2.458500
  C      9.400460   -4.439870    5.677370
  C      9.393410   -3.193820    6.294320
  S      9.134340   -1.922210    5.105180
  C      9.507210   -2.864630    7.656840
  C      9.341110   -3.733020    8.708950
  C      9.415530   -3.427500   10.090500
  C      9.082200   -4.457890   10.922430
  C      8.720310   -5.640120   10.247400
  S      8.865150   -5.411340    8.517390
  C      8.258880   -6.854560   10.719770
  C      8.050560   -7.324330   12.030870
  C      7.524590   -8.583390   12.088160
  C      7.275720   -9.181940   10.828350
  S      7.779110   -8.078080    9.562380
  C      6.693470  -10.407900   10.605610
  C      6.384900  -10.985320    9.363620
  C      6.633140  -10.534770    8.070040
  C      6.131810  -11.355550    7.071090
  C      5.478370  -12.480980    7.599640
  S      5.504330  -12.509830    9.319880
  C      4.918840  -13.357880    6.644700
  C      5.089090  -12.988990    5.302770
  Si     6.046910  -11.384400    5.202070
  C      5.063710   -9.958830    4.487190
  C      7.724740  -11.553520    4.384710
  C      4.490350  -13.909650    4.443490
  C      3.871480  -14.962230    5.088970
  S      4.030710  -14.824600    6.826290
  C      3.171040  -16.047980    4.504850
  C      2.537520  -17.101210    5.131510
  C      1.930990  -18.002090    4.250480
  C      2.115270  -17.613650    2.922990
  S      3.022190  -16.161380    2.763940
  C      1.532580  -18.463120    1.943400
  C      0.852430  -19.575970    2.431060
  Si     0.934580  -19.587420    4.300190
  C      1.893300  -21.037940    4.999350
  C     -0.738290  -19.387960    5.120830
  C      0.315690  -20.338850    1.374500
  C      0.584130  -19.817050    0.146830
  S      1.509670  -18.362980    0.225290
  H      5.576560   -2.008650   -8.162120
  H      5.527100    0.423600   -7.202690
  H      4.473380    2.337480   -4.111200
  H      4.988900    2.224110   -2.444130
  H      4.063070    0.924290   -3.163010
  H      8.727710    1.608210   -4.553890
  H      8.026440    2.671980   -3.353570
  H      7.514910    2.780540   -5.022080
  H      7.486630    0.035180   -0.722750
  H      8.143590   -4.728660   -0.305790
  H      6.655420   -6.330780    3.346170
  H      7.800760   -7.519740    3.928940
  H      7.432450   -7.425070    2.221360
  H     11.432740   -5.774270    2.336290
  H     10.526450   -7.036200    1.530330
  H     10.901680   -7.180690    3.232610
  H      9.599390   -5.351370    6.208550
  H      9.676540   -1.824200    7.901110
  H      9.700970   -2.446160   10.427750
  H      9.067140   -4.389690   11.995960
  H      8.287240   -6.725970   12.892960
  H      7.293840   -9.100380   13.003460
  H      6.413970  -10.974090   11.484800
  H      7.170840   -9.630670    7.858470
  H      4.914280  -10.069770    3.415130
  H      5.570350   -9.008120    4.640220
  H      4.078270   -9.871250    4.940330
  H      8.299830  -12.382530    4.792190
  H      8.323820  -10.654490    4.515300
  H      7.634820  -11.722300    3.313590
  H      4.495750  -13.825190    3.370620
  H      2.522470  -17.200080    6.203010
  H      2.864740  -21.155540    4.523410
  H      1.356580  -21.975070    4.867200
  H      2.071950  -20.922640    6.066430
  H     -1.297200  -18.547380    4.714560
  H     -0.642360  -19.220660    6.191640
  H     -1.355760  -20.274610    4.992600
  H     -0.250250  -21.242390    1.517950
  H      0.295970  -20.194100   -0.814880

 Total Charge           Charge          ....    0
 Multiplicity           Mult            ....    1
 Number of Electrons    NEL             ....  556
 Basis Dimension        Dim             .... 1152

ORBITAL ENERGIES
----------------

  NO   OCC          E(Eh)            E(eV)
   0   2.0000     -88.950941     -2420.4782
   1   2.0000     -88.950790     -2420.4740
   2   2.0000     -88.949685     -2420.4440
   3   2.0000     -88.949654     -2420.4431
   4   2.0000     -88.948494     -2420.4116
   5   2.0000     -88.948178     -2420.4030
   6   2.0000     -88.947830     -2420.3935
   7   2.0000     -88.947762     -2420.3916
   8   2.0000     -88.933526     -2420.0043
   9   2.0000     -88.932835     -2419.9855
  10   2.0000     -66.185710     -1801.0047
  11   2.0000     -66.184589     -1800.9742
  12   2.0000     -66.184096     -1800.9608
  13   2.0000     -66.183979     -1800.9576
  14   2.0000     -10.297521      -280.2098
  15   2.0000     -10.296934      -280.1938
  16   2.0000     -10.296066      -280.1702
  17   2.0000     -10.295968      -280.1675
  18   2.0000     -10.295414      -280.1525
  19   2.0000     -10.295245      -280.1479
  20   2.0000     -10.295051      -280.1426
  21   2.0000     -10.294980      -280.1406
  22   2.0000     -10.294970      -280.1404
  23   2.0000     -10.294963      -280.1402
  24   2.0000     -10.293616      -280.1035
  25   2.0000     -10.293608      -280.1033
  26   2.0000     -10.293308      -280.0952
  27   2.0000     -10.293251      -280.0936
  28   2.0000     -10.292085      -280.0619
  29   2.0000     -10.291996      -280.0594
  30   2.0000     -10.290354      -280.0148
  31   2.0000     -10.290305      -280.0134
  32   2.0000     -10.279638      -279.7232
  33   2.0000     -10.279590      -279.7219
  34   2.0000     -10.276215      -279.6300
  35   2.0000     -10.276188      -279.6293
  36   2.0000     -10.275842      -279.6199
  37   2.0000     -10.275445      -279.6091
  38   2.0000     -10.275096      -279.5996
  39   2.0000     -10.274910      -279.5945
  40   2.0000     -10.264695      -279.3166
  41   2.0000     -10.264523      -279.3119
  42   2.0000     -10.264425      -279.3092
  43   2.0000     -10.264423      -279.3092
  44   2.0000     -10.262740      -279.2633
  45   2.0000     -10.262620      -279.2601
  46   2.0000     -10.262052      -279.2446
  47   2.0000     -10.261984      -279.2428
  48   2.0000     -10.245002      -278.7807
  49   2.0000     -10.244749      -278.7738
  50   2.0000     -10.244585      -278.7693
  51   2.0000     -10.242907      -278.7237
  52   2.0000     -10.242673      -278.7173
  53   2.0000     -10.242579      -278.7147
  54   2.0000     -10.242553      -278.7140
  55   2.0000     -10.242483      -278.7121
  56   2.0000     -10.242344      -278.7083
  57   2.0000     -10.241722      -278.6914
  58   2.0000     -10.241603      -278.6882
  59   2.0000     -10.241533      -278.6863
  60   2.0000     -10.241446      -278.6839
  61   2.0000     -10.241366      -278.6817
  62   2.0000     -10.240549      -278.6595
  63   2.0000     -10.240495      -278.6580
  64   2.0000      -8.046192      -218.9480
  65   2.0000      -8.046013      -218.9431
  66   2.0000      -8.045063      -218.9173
  67   2.0000      -8.044989      -218.9153
  68   2.0000      -8.043865      -218.8847
  69   2.0000      -8.043621      -218.8781
  70   2.0000      -8.043610      -218.8778
  71   2.0000      -8.043542      -218.8759
  72   2.0000      -8.029562      -218.4955
  73   2.0000      -8.028884      -218.4770
  74   2.0000      -6.015426      -163.6881
  75   2.0000      -6.015253      -163.6834
  76   2.0000      -6.014268      -163.6565
  77   2.0000      -6.014206      -163.6549
  78   2.0000      -6.013042      -163.6232
  79   2.0000      -6.012823      -163.6172
  80   2.0000      -6.012786      -163.6162
  81   2.0000      -6.012755      -163.6154
  82   2.0000      -6.011496      -163.5811
  83   2.0000      -6.011322      -163.5764
  84   2.0000      -6.010354      -163.5500
  85   2.0000      -6.010279      -163.5480
  86   2.0000      -6.009182      -163.5182
  87   2.0000      -6.008925      -163.5112
  88   2.0000      -6.008602      -163.5024
  89   2.0000      -6.008511      -163.4999
  90   2.0000      -6.008273      -163.4934
  91   2.0000      -6.008099      -163.4887
  92   2.0000      -6.007162      -163.4632
  93   2.0000      -6.007096      -163.4614
  94   2.0000      -6.006032      -163.4324
  95   2.0000      -6.006014      -163.4320
  96   2.0000      -6.005957      -163.4304
  97   2.0000      -6.005738      -163.4244
  98   2.0000      -5.999345      -163.2505
  99   2.0000      -5.998654      -163.2317
 100   2.0000      -5.995193      -163.1375
 101   2.0000      -5.994514      -163.1190
 102   2.0000      -5.990506      -163.0099
 103   2.0000      -5.989834      -162.9917
 104   2.0000      -5.352021      -145.6359
 105   2.0000      -5.351140      -145.6119
 106   2.0000      -5.350456      -145.5933
 107   2.0000      -5.350404      -145.5919
 108   2.0000      -3.715425      -101.1019
 109   2.0000      -3.714525      -101.0774
 110   2.0000      -3.714034      -101.0640
 111   2.0000      -3.713807      -101.0578
 112   2.0000      -3.713741      -101.0560
 113   2.0000      -3.713210      -101.0416
 114   2.0000      -3.713142      -101.0397
 115   2.0000      -3.712536      -101.0232
 116   2.0000      -3.712477      -101.0216
 117   2.0000      -3.712298      -101.0168
 118   2.0000      -3.711618      -100.9983
 119   2.0000      -3.711566      -100.9968
 120   2.0000      -0.988981       -26.9115
 121   2.0000      -0.988599       -26.9011
 122   2.0000      -0.985003       -26.8033
 123   2.0000      -0.980216       -26.6730
 124   2.0000      -0.978933       -26.6381
 125   2.0000      -0.966611       -26.3028
 126   2.0000      -0.962957       -26.2034
 127   2.0000      -0.958102       -26.0713
 128   2.0000      -0.949032       -25.8245
 129   2.0000      -0.947874       -25.7930
 130   2.0000      -0.890822       -24.2405
 131   2.0000      -0.882202       -24.0059
 132   2.0000      -0.868601       -23.6358
 133   2.0000      -0.859632       -23.3918
 134   2.0000      -0.846727       -23.0406
 135   2.0000      -0.835867       -22.7451
 136   2.0000      -0.835452       -22.7338
 137   2.0000      -0.829638       -22.5756
 138   2.0000      -0.828626       -22.5481
 139   2.0000      -0.825326       -22.4583
 140   2.0000      -0.824829       -22.4448
 141   2.0000      -0.813757       -22.1435
 142   2.0000      -0.812058       -22.0972
 143   2.0000      -0.807579       -21.9753
 144   2.0000      -0.804773       -21.8990
 145   2.0000      -0.802861       -21.8470
 146   2.0000      -0.799681       -21.7604
 147   2.0000      -0.786704       -21.4073
 148   2.0000      -0.786078       -21.3903
 149   2.0000      -0.784641       -21.3512
 150   2.0000      -0.783836       -21.3293
 151   2.0000      -0.782581       -21.2951
 152   2.0000      -0.770546       -20.9676
 153   2.0000      -0.761984       -20.7347
 154   2.0000      -0.760448       -20.6928
 155   2.0000      -0.760266       -20.6879
 156   2.0000      -0.760220       -20.6866
 157   2.0000      -0.749624       -20.3983
 158   2.0000      -0.729277       -19.8446
 159   2.0000      -0.715319       -19.4648
 160   2.0000      -0.693508       -18.8713
 161   2.0000      -0.676689       -18.4136
 162   2.0000      -0.671303       -18.2671
 163   2.0000      -0.668651       -18.1949
 164   2.0000      -0.660992       -17.9865
 165   2.0000      -0.654283       -17.8039
 166   2.0000      -0.650231       -17.6937
 167   2.0000      -0.643610       -17.5135
 168   2.0000      -0.634177       -17.2568
 169   2.0000      -0.623573       -16.9683
 170   2.0000      -0.618143       -16.8205
 171   2.0000      -0.613179       -16.6855
 172   2.0000      -0.611138       -16.6299
 173   2.0000      -0.602472       -16.3941
 174   2.0000      -0.598802       -16.2942
 175   2.0000      -0.597691       -16.2640
 176   2.0000      -0.597233       -16.2515
 177   2.0000      -0.594364       -16.1735
 178   2.0000      -0.592974       -16.1356
 179   2.0000      -0.583827       -15.8867
 180   2.0000      -0.583517       -15.8783
 181   2.0000      -0.571574       -15.5533
 182   2.0000      -0.571293       -15.5457
 183   2.0000      -0.561936       -15.2911
 184   2.0000      -0.553212       -15.0537
 185   2.0000      -0.537853       -14.6357
 186   2.0000      -0.537460       -14.6250
 187   2.0000      -0.533821       -14.5260
 188   2.0000      -0.521715       -14.1966
 189   2.0000      -0.516202       -14.0466
 190   2.0000      -0.514339       -13.9959
 191   2.0000      -0.510412       -13.8890
 192   2.0000      -0.509213       -13.8564
 193   2.0000      -0.500089       -13.6081
 194   2.0000      -0.496344       -13.5062
 195   2.0000      -0.495466       -13.4823
 196   2.0000      -0.495027       -13.4704
 197   2.0000      -0.490888       -13.3577
 198   2.0000      -0.490156       -13.3378
 199   2.0000      -0.488772       -13.3002
 200   2.0000      -0.486568       -13.2402
 201   2.0000      -0.484411       -13.1815
 202   2.0000      -0.483386       -13.1536
 203   2.0000      -0.482794       -13.1375
 204   2.0000      -0.482659       -13.1338
 205   2.0000      -0.480312       -13.0700
 206   2.0000      -0.479974       -13.0608
 207   2.0000      -0.479698       -13.0532
 208   2.0000      -0.479162       -13.0387
 209   2.0000      -0.478544       -13.0219
 210   2.0000      -0.478120       -13.0103
 211   2.0000      -0.477397       -12.9906
 212   2.0000      -0.468757       -12.7555
 213   2.0000      -0.466737       -12.7006
 214   2.0000      -0.466492       -12.6939
 215   2.0000      -0.465856       -12.6766
 216   2.0000      -0.464735       -12.6461
 217   2.0000      -0.464073       -12.6281
 218   2.0000      -0.462944       -12.5974
 219   2.0000      -0.462428       -12.5833
 220   2.0000      -0.462267       -12.5789
 221   2.0000      -0.459692       -12.5089
 222   2.0000      -0.457754       -12.4561
 223   2.0000      -0.454917       -12.3789
 224   2.0000      -0.452879       -12.3235
 225   2.0000      -0.450476       -12.2581
 226   2.0000      -0.448278       -12.1983
 227   2.0000      -0.447118       -12.1667
 228   2.0000      -0.444594       -12.0980
 229   2.0000      -0.444395       -12.0926
 230   2.0000      -0.437476       -11.9043
 231   2.0000      -0.436239       -11.8707
 232   2.0000      -0.434534       -11.8243
 233   2.0000      -0.430913       -11.7257
 234   2.0000      -0.430807       -11.7228
 235   2.0000      -0.430230       -11.7071
 236   2.0000      -0.424894       -11.5620
 237   2.0000      -0.422566       -11.4986
 238   2.0000      -0.422449       -11.4954
 239   2.0000      -0.416938       -11.3455
 240   2.0000      -0.412495       -11.2246
 241   2.0000      -0.408529       -11.1166
 242   2.0000      -0.404437       -11.0053
 243   2.0000      -0.404025       -10.9941
 244   2.0000      -0.396727       -10.7955
 245   2.0000      -0.390056       -10.6140
 246   2.0000      -0.385524       -10.4907
 247   2.0000      -0.385081       -10.4786
 248   2.0000      -0.383177       -10.4268
 249   2.0000      -0.378936       -10.3114
 250   2.0000      -0.376814       -10.2536
 251   2.0000      -0.374940       -10.2026
 252   2.0000      -0.373770       -10.1708
 253   2.0000      -0.373716       -10.1693
 254   2.0000      -0.370237       -10.0747
 255   2.0000      -0.366012        -9.9597
 256   2.0000      -0.365644        -9.9497
 257   2.0000      -0.364112        -9.9080
 258   2.0000      -0.363680        -9.8962
 259   2.0000      -0.358762        -9.7624
 260   2.0000      -0.342520        -9.3204
 261   2.0000      -0.330076        -8.9818
 262   2.0000      -0.320639        -8.7250
 263   2.0000      -0.318509        -8.6671
 264   2.0000      -0.318335        -8.6623
 265   2.0000      -0.315887        -8.5957
 266   2.0000      -0.313029        -8.5179
 267   2.0000      -0.311552        -8.4778
 268   2.0000      -0.311139        -8.4665
 269   2.0000      -0.310158        -8.4398
 270   2.0000      -0.309201        -8.4138
 271   2.0000      -0.308846        -8.4041
 272   2.0000      -0.300547        -8.1783
 273   2.0000      -0.277179        -7.5424
 274   2.0000      -0.257846        -7.0163
 275   2.0000      -0.231571        -6.3014
 276   2.0000      -0.215411        -5.8616
 277   2.0000      -0.186892        -5.0856
 278   0.0000      -0.073638        -2.0038
 279   0.0000      -0.039817        -1.0835
 280   0.0000      -0.027019        -0.7352
 281   0.0000      -0.008341        -0.2270
 282   0.0000       0.001578         0.0429

MULLIKEN ATOMIC CHARGES
-----------------------
   0 C :   -0.082226
   1 C :    0.019290
   2 C :   -0.137230
   3 C :   -0.118893
   4 S :    0.131235
   5 C :   -0.074483
   6 C :   -0.124066
   7 Si:    0.519223
   8 C :   -0.197026
   9 C :   -0.197200
  10 C :   -0.064397
  11 C :   -0.039724
  12 S :    0.128888
  13 C :   -0.035374
  14 C :   -0.067092
  15 C :   -0.117657
  16 C :   -0.084258
  17 S :    0.135478
  18 C :   -0.088930
  19 C :   -0.126854
  20 Si:    0.521208
  21 C :   -0.209018
  22 C :   -0.197934
  23 C :   -0.034650
  24 C :   -0.103400
  25 S :    0.134409
  26 C :    0.043233
  27 C :   -0.038851
  28 C :    0.035380
  29 C :    0.024705
  30 C :   -0.038378
  31 S :    0.040446
  32 C :   -0.027661
  33 C :    0.025003
  34 C :    0.033253
  35 C :   -0.035975
  36 S :    0.028618
  37 C :    0.048055
  38 C :   -0.098349
  39 C :   -0.034459
  40 C :   -0.130564
  41 C :   -0.084102
  42 S :    0.131573
  43 C :   -0.086514
  44 C :   -0.113471
  45 Si:    0.519278
  46 C :   -0.198104
  47 C :   -0.200984
  48 C :   -0.067267
  49 C :   -0.035647
  50 S :    0.134806
  51 C :   -0.040516
  52 C :   -0.064311
  53 C :   -0.121369
  54 C :   -0.073857
  55 S :    0.128842
  56 C :   -0.118736
  57 C :   -0.138667
  58 Si:    0.518521
  59 C :   -0.196510
  60 C :   -0.199951
  61 C :    0.020348
  62 C :   -0.082545
  63 S :    0.130994
  64 H :    0.019520
  65 H :   -0.019734
  66 H :    0.039266
  67 H :    0.039639
  68 H :    0.052675
  69 H :    0.052372
  70 H :    0.039130
  71 H :    0.039300
  72 H :   -0.020971
  73 H :   -0.019493
  74 H :    0.057604
  75 H :    0.047294
  76 H :    0.039601
  77 H :    0.053944
  78 H :    0.039551
  79 H :    0.041616
  80 H :   -0.003519
  81 H :   -0.018811
  82 H :   -0.016762
  83 H :   -0.016746
  84 H :   -0.018476
  85 H :   -0.017342
  86 H :   -0.023065
  87 H :   -0.004307
  88 H :    0.039514
  89 H :    0.041850
  90 H :    0.053396
  91 H :    0.053742
  92 H :    0.039960
  93 H :    0.040352
  94 H :   -0.019130
  95 H :   -0.020974
  96 H :    0.052434
  97 H :    0.038464
  98 H :    0.039883
  99 H :    0.052788
 100 H :    0.040604
 101 H :    0.039499
 102 H :   -0.019626
 103 H :    0.019370
Sum of atomic charges:   -0.0000000

LOEWDIN ATOMIC CHARGES
----------------------
   0 C :   -0.193782
   1 C :   -0.063204
   2 C :   -0.213126
   3 C :   -0.197384
   4 S :    0.428805
   5 C :   -0.192925
   6 C :   -0.205603
   7 Si:    0.664218
   8 C :   -0.243539
   9 C :   -0.243697
  10 C :   -0.065694
  11 C :   -0.186095
  12 S :    0.430779
  13 C :   -0.184154
  14 C :   -0.068045
  15 C :   -0.202562
  16 C :   -0.193884
  17 S :    0.430648
  18 C :   -0.190770
  19 C :   -0.203154
  20 Si:    0.665750
  21 C :   -0.244187
  22 C :   -0.242975
  23 C :   -0.066848
  24 C :   -0.176447
  25 S :    0.422873
  26 C :   -0.075514
  27 C :   -0.151274
  28 C :   -0.034837
  29 C :   -0.042101
  30 C :   -0.182160
  31 S :    0.379940
  32 C :   -0.180038
  33 C :   -0.044750
  34 C :   -0.033190
  35 C :   -0.154025
  36 S :    0.380188
  37 C :   -0.074514
  38 C :   -0.175171
  39 C :   -0.064998
  40 C :   -0.202747
  41 C :   -0.190607
  42 S :    0.423104
  43 C :   -0.194008
  44 C :   -0.201684
  45 Si:    0.665263
  46 C :   -0.242913
  47 C :   -0.243864
  48 C :   -0.068052
  49 C :   -0.183927
  50 S :    0.429966
  51 C :   -0.186014
  52 C :   -0.065719
  53 C :   -0.205461
  54 C :   -0.192783
  55 S :    0.430832
  56 C :   -0.197371
  57 C :   -0.213194
  58 Si:    0.664320
  59 C :   -0.243525
  60 C :   -0.244097
  61 C :   -0.063350
  62 C :   -0.193642
  63 S :    0.428774
  64 H :    0.019598
  65 H :    0.026196
  66 H :    0.034671
  67 H :    0.034967
  68 H :    0.040776
  69 H :    0.040631
  70 H :    0.035032
  71 H :    0.034857
  72 H :    0.021885
  73 H :    0.021537
  74 H :    0.041685
  75 H :    0.033942
  76 H :    0.034864
  77 H :    0.041310
  78 H :    0.034878
  79 H :    0.035776
  80 H :    0.013432
  81 H :    0.031464
  82 H :    0.031259
  83 H :    0.030628
  84 H :    0.030412
  85 H :    0.031223
  86 H :    0.031357
  87 H :    0.011484
  88 H :    0.035019
  89 H :    0.035927
  90 H :    0.041740
  91 H :    0.041330
  92 H :    0.034640
  93 H :    0.035064
  94 H :    0.021679
  95 H :    0.021935
  96 H :    0.040668
  97 H :    0.034581
  98 H :    0.035091
  99 H :    0.040831
 100 H :    0.035202
 101 H :    0.034824
 102 H :    0.026195
 103 H :    0.019558

  Mayer bond orders larger than 0.100000
B(  0-C ,  1-C ) :   1.5683 B(  0-C ,  4-S ) :   1.1430 B(  0-C , 64-H ) :   0.9719
B(  1-C ,  2-C ) :   1.2449 B(  1-C , 65-H ) :   0.9973 B(  2-C ,  3-C ) :   1.5439
B(  2-C ,  7-Si) :   0.8919 B(  3-C ,  4-S ) :   1.1271 B(  3-C ,  5-C ) :   1.1448
B(  5-C ,  6-C ) :   1.5432 B(  5-C , 12-S ) :   1.1068 B(  6-C ,  7-Si) :   0.8869
B(  6-C , 10-C ) :   1.2460 B(  7-Si,  8-C ) :   1.0503 B(  7-Si,  9-C ) :   1.0492
B(  8-C , 66-H ) :   0.9542 B(  8-C , 67-H ) :   0.9541 B(  8-C , 68-H ) :   0.9519
B(  9-C , 69-H ) :   0.9520 B(  9-C , 70-H ) :   0.9547 B(  9-C , 71-H ) :   0.9541
B( 10-C , 11-C ) :   1.4932 B( 10-C , 72-H ) :   0.9953 B( 11-C , 12-S ) :   1.1055
B( 11-C , 13-C ) :   1.1641 B( 13-C , 14-C ) :   1.4820 B( 13-C , 17-S ) :   1.1060
B( 14-C , 15-C ) :   1.2597 B( 14-C , 73-H ) :   0.9938 B( 15-C , 16-C ) :   1.5150
B( 15-C , 20-Si) :   0.8882 B( 16-C , 17-S ) :   1.1010 B( 16-C , 18-C ) :   1.1704
B( 18-C , 19-C ) :   1.4936 B( 18-C , 25-S ) :   1.1156 B( 19-C , 20-Si) :   0.8866
B( 19-C , 23-C ) :   1.3001 B( 20-Si, 21-C ) :   1.0471 B( 20-Si, 22-C ) :   1.0536
B( 21-C , 74-H ) :   0.9510 B( 21-C , 75-H ) :   0.9498 B( 21-C , 76-H ) :   0.9554
B( 22-C , 77-H ) :   0.9514 B( 22-C , 78-H ) :   0.9542 B( 22-C , 79-H ) :   0.9538
B( 23-C , 24-C ) :   1.4348 B( 23-C , 80-H ) :   0.9720 B( 24-C , 25-S ) :   1.0795
B( 24-C , 26-C ) :   1.1718 B( 26-C , 27-C ) :   1.5897 B( 26-C , 81-H ) :   0.9555
B( 27-C , 28-C ) :   1.1570 B( 27-C , 31-S ) :   1.0360 B( 28-C , 29-C ) :   1.5788
B( 28-C , 82-H ) :   0.9960 B( 29-C , 30-C ) :   1.1982 B( 29-C , 83-H ) :   0.9948
B( 30-C , 31-S ) :   1.0379 B( 30-C , 32-C ) :   1.4916 B( 32-C , 33-C ) :   1.2018
B( 32-C , 36-S ) :   1.0372 B( 33-C , 34-C ) :   1.5740 B( 33-C , 84-H ) :   0.9941
B( 34-C , 35-C ) :   1.1607 B( 34-C , 85-H ) :   0.9973 B( 35-C , 36-S ) :   1.0365
B( 35-C , 37-C ) :   1.5812 B( 37-C , 38-C ) :   1.1872 B( 37-C , 86-H ) :   0.9525
B( 38-C , 39-C ) :   1.4247 B( 38-C , 42-S ) :   1.0797 B( 39-C , 40-C ) :   1.3112
B( 39-C , 87-H ) :   0.9731 B( 40-C , 41-C ) :   1.4874 B( 40-C , 45-Si) :   0.8847
B( 41-C , 42-S ) :   1.1151 B( 41-C , 43-C ) :   1.1741 B( 43-C , 44-C ) :   1.5116
B( 43-C , 50-S ) :   1.0996 B( 44-C , 45-Si) :   0.8884 B( 44-C , 48-C ) :   1.2613
B( 45-Si, 46-C ) :   1.0544 B( 45-Si, 47-C ) :   1.0498 B( 46-C , 88-H ) :   0.9537
B( 46-C , 89-H ) :   0.9526 B( 46-C , 90-H ) :   0.9492 B( 47-C , 91-H ) :   0.9515
B( 47-C , 92-H ) :   0.9542 B( 47-C , 93-H ) :   0.9543 B( 48-C , 49-C ) :   1.4802
B( 48-C , 94-H ) :   0.9938 B( 49-C , 50-S ) :   1.1055 B( 49-C , 51-C ) :   1.1655
B( 51-C , 52-C ) :   1.4927 B( 51-C , 55-S ) :   1.1049 B( 52-C , 53-C ) :   1.2470
B( 52-C , 95-H ) :   0.9952 B( 53-C , 54-C ) :   1.5409 B( 53-C , 58-Si) :   0.8883
B( 54-C , 55-S ) :   1.1069 B( 54-C , 56-C ) :   1.1467 B( 56-C , 57-C ) :   1.5427
B( 56-C , 63-S ) :   1.1261 B( 57-C , 58-Si) :   0.8913 B( 57-C , 61-C ) :   1.2460
B( 58-Si, 59-C ) :   1.0503 B( 58-Si, 60-C ) :   1.0487 B( 59-C , 96-H ) :   0.9514
B( 59-C , 97-H ) :   0.9546 B( 59-C , 98-H ) :   0.9543 B( 60-C , 99-H ) :   0.9523
B( 60-C ,100-H ) :   0.9543 B( 60-C ,101-H ) :   0.9543 B( 61-C , 62-C ) :   1.5668
B( 61-C ,102-H ) :   0.9975 B( 62-C , 63-S ) :   1.1432 B( 62-C ,103-H ) :   0.9725

-----------------------------------------------------------------------------
         ABSORPTION SPECTRUM VIA TRANSITION ELECTRIC DIPOLE MOMENTS
-----------------------------------------------------------------------------
State   Energy  Wavelength   fosc         T2         TX        TY        TZ
        (cm-1)    (nm)                  (au**2)     (au)      (au)      (au)
-----------------------------------------------------------------------------
   0   11506.7    869.1   1.247428677  35.68947   1.86173   5.31165  -2.00246
   1   18481.8    541.1   0.183728982   3.27272  -0.47675  -0.53943  -1.65966
   2   19663.8    508.5   2.520594852  42.19980  -2.20193  -1.85917  -5.82192
   3   22421.6    446.0   0.020494462   0.30092  -0.09611  -0.51380   0.16638
   4   23417.2    427.0   0.032460057   0.45634  -0.17182   0.58891  -0.28285
   5   26407.6    378.7   0.031989552   0.39880   0.32249   0.16279   0.51798
   6   26810.5    373.0   0.118000477   1.44896  -0.11382  -0.99165   0.67278
   7   28083.5    356.1   0.025968383   0.30442   0.27358  -0.16553   0.44963
   8   28104.7    355.8   0.098284761   1.15129  -0.77789  -0.42813  -0.60239
   9   29620.9    337.6   0.112946369   1.25531  -0.44879  -0.31301  -0.97771
  10   30509.9    327.8   0.112802761   1.21718  -0.17982  -0.36773  -1.02451
  11   31409.6    318.4   0.011581256   0.12139  -0.06774  -0.12757  -0.31705
  12   32113.6    311.4   0.077377965   0.79324  -0.23217  -0.85292   0.10892
  13   32258.1    310.0   0.010726604   0.10947   0.03461   0.17737  -0.27715
  14   32837.9    304.5   0.022347236   0.22404   0.06794   0.41328  -0.22051
  15   33340.1    299.9   0.046458454   0.45875   0.04162   0.01499   0.67586
  16   34247.7    292.0   0.018246914   0.17540  -0.13825  -0.39502  -0.01560
  17   34525.5    289.6   0.036506098   0.34810   0.16861   0.13503   0.54903
  18   36040.5    277.5   0.002396418   0.02189  -0.06487  -0.12902   0.03217
  19   36634.3    273.0   0.000873658   0.00785   0.08247  -0.03215   0.00404
  20   36674.6    272.7   0.000988226   0.00887  -0.03175   0.06299   0.06241
  21   37039.2    270.0   0.002613240   0.02323   0.03100  -0.01368  -0.14859
  22   37214.3    268.7   0.017161169   0.15181   0.33031   0.02526   0.20512
  23   37685.4    265.4   0.121484573   1.06126   0.23924   0.54738   0.83928
  24   37843.5    264.2   0.053551751   0.46586  -0.01961   0.41780  -0.53937
  25   38079.5    262.6   0.009192592   0.07947   0.15791   0.21453   0.09229
  26   38347.3    260.8   0.077699313   0.66705   0.19132   0.68569  -0.40033
  27   38821.7    257.6   0.003147831   0.02669  -0.05150   0.09188  -0.12490
  28   38992.3    256.5   0.010004064   0.08446  -0.09180  -0.24979   0.11679
  29   39422.4    253.7   0.005869892   0.04902   0.00740  -0.07331  -0.20878
  30   39552.8    252.8   0.038114857   0.31724  -0.13675  -0.50322   0.21287
  31   39721.8    251.8   0.011588478   0.09604   0.08025   0.26537  -0.13850
  32   39860.6    250.9   0.010649231   0.08795   0.22036  -0.19162  -0.05174

FINAL SINGLE POINT ENERGY     -7065.295114565839

DIPOLE MOMENT
-------------
                                X             Y             Z
Electronic contribution:      7.89911       3.90055      12.70165
Nuclear contribution   :     -8.24831      -3.86183     -12.73803
                        -----------------------------------------
Total Dipole Moment    :     -0.34920       0.03872      -0.03639
                        -----------------------------------------
Magnitude (a.u.)       :      0.35322
Magnitude (Debye)      :      0.89782

Rotational constants in cm-1:     0.000684     0.000293     0.000210
Rotational constants in MHz :    20.510510     8.785822     6.289170

                             ****ORCA TERMINATED NORMALLY****
TOTAL RUN TIME: 0 days 0 hours 8 minutes 43 seconds 816 msec
