                         Program Version 4.2.0 -  RELEASE  -
|  1> # ORCA input file
|  2> # SCF done       -194.733345854787          0.000973602412
|  3> ! CAM-B3LYP def2-SVP def2/J RIJCOSX Grid4 TightSCF
|  4> %maxcore 5000
|  5> %tddft
|  6>     Mode sTDDFT
|  7>     Ethresh 5.0
|  8>     maxcore 5000
|  9> end
| 10>
| 11> %pal
| 12>   nprocs 6
| 13>   end
| 14> * xyz 0 1
| 15>    C        1.60521        -1.57771         2.44161
| 16>    C        0.98115        -1.33955         1.24317
| 17>    C        1.43131        -0.40132         0.29128
| 18>    N        1.75883         0.33357        -0.52673
| 19>    C       -0.23280        -1.94032         0.85757
| 20>    N       -1.24142        -2.37154         0.51800
| 21>    C        2.70940        -0.78982         2.98693
| 22>    C        2.77703        -1.00363         4.37630
| 23>    C        3.70877        -0.35736         5.16220
| 24>    C        4.60209         0.51135         4.54607
| 25>    C        4.55149         0.71481         3.16184
| 26>    C        3.60341         0.07001         2.37360
| 27>   Cl        5.67445         1.77442         2.41425
| 28>   Cl        5.77610         1.33336         5.49030
| 29>    C        1.75131        -1.99271         4.77305
| 30>    O        1.48084        -2.38332         5.88398
| 31>    C        1.14987        -2.45637         3.49309
| 32>    C        0.37041        -3.57964         3.49193
| 33>    C        0.02191        -4.40882         2.41248
| 34>    S       -1.38894        -5.42926         2.52713
| 35>    C       -1.19788        -6.05654         0.91706
| 36>    C       -0.05178        -5.52236         0.34502
| 37>    C        0.64943        -4.61113         1.17784
| 38>    C        1.84541        -4.16364         0.57198
| 39>    C        2.00601        -4.67270        -0.68346
| 40>    C        3.12874        -4.37788        -1.58307
| 41>    O        4.05710        -3.66772        -1.28751
| 42>    O        2.98079        -4.99481        -2.75684
| 43>    C        4.00353        -4.77540        -3.71780
| 44>    S        0.72865        -5.74225        -1.18607
| 45>    C       -2.11320        -6.97681         0.35726
| 46>    C       -2.05823        -7.55010        -0.90469
| 47>    C       -3.11017        -8.43583        -1.11635
| 48>    C       -3.97687        -8.53738        -0.01129
| 49>    S       -3.49507        -7.53839         1.28531
| 50>    C       -4.99473        -9.47273        -0.32077
| 51>    C       -4.77257        -9.96355        -1.61968
| 52>    C       -3.58414        -9.32737        -2.16420
| 53>    C       -3.02689        -9.53299        -3.39168
| 54>    C       -1.85286        -8.86870        -3.80673
| 55>    N       -0.89692        -8.33677        -4.14902
| 56>    C       -3.58863       -10.43544        -4.31984
| 57>    N       -4.05620       -11.16870        -5.06715
| 58>    C       -5.70749       -10.92041        -2.01196
| 59>    C       -6.64827       -11.16687        -1.02650
| 60>    S       -6.35909       -10.18671         0.41135
| 61>    C       -7.73109       -12.08776        -1.01435
| 62>    C       -8.33362       -12.79151        -2.05820
| 63>    C       -7.98010       -12.69676        -3.50829
| 64>    C       -6.92473       -13.73896        -3.88909
| 65>    C       -9.34883       -13.63390        -1.60685
| 66>    C       -9.56764       -13.59515        -0.23915
| 67>    S       -8.48277       -12.45836         0.51027
| 68>    C      -10.51439       -14.29674         0.53500
| 69>    C      -11.24478       -15.35405         0.07431
| 70>    C      -12.23386       -15.96990         0.85574
| 71>    C      -13.06913       -17.00814         0.53612
| 72>    C      -13.80844       -17.66272         1.64343
| 73>    O      -13.92119       -17.26432         2.77976
| 74>    C      -14.33402       -18.92469         1.07546
| 75>    C      -14.99972       -19.94461         1.72033
| 76>    C      -15.35160       -21.07327         0.97800
| 77>    C      -15.01818       -21.15001        -0.38738
| 78>    C      -14.35211       -20.10484        -1.03152
| 79>    C      -14.01637       -18.98171        -0.29505
| 80>    C      -13.34271       -17.73449        -0.68183
| 81>    C      -13.20042       -17.32105        -1.98200
| 82>    C      -12.75046       -16.05898        -2.42033
| 83>    N      -12.41427       -15.05956        -2.87589
| 84>    C      -13.57429       -18.09907        -3.10047
| 85>    N      -13.84094       -18.68111        -4.05285
| 86>    C      -15.35911       -22.31265        -1.12211
| 87>    N      -15.62611       -23.25136        -1.72058
| 88>    C      -16.03278       -22.14592         1.60185
| 89>    N      -16.58455       -23.00172         2.12577
| 90>    H        3.74216        -0.52374         6.22725
| 91>    H        3.59537         0.24099         1.30927
| 92>    H        0.01711        -3.89088         4.47042
| 93>    H        2.58066        -3.52592         1.02589
| 94>    H        3.72503        -5.35795        -4.59165
| 95>    H        4.96771        -5.10385        -3.32467
| 96>    H        4.06698        -3.71394        -3.96504
| 97>    H       -1.28587        -7.32689        -1.61696
| 98>    H       -5.67868       -11.43051        -2.95437
| 99>    H       -7.62620       -11.69355        -3.74722
|100>    H       -8.88250       -12.88122        -4.09373
|101>    H       -6.04070       -13.65139        -3.26124
|102>    H       -6.62662       -13.60679        -4.92544
|103>    H       -7.32717       -14.74169        -3.76757
|104>    H       -9.95109       -14.22765        -2.27171
|105>    H      -10.66224       -13.95818         1.55270
|106>    H      -11.04264       -15.73248        -0.91346
|107>    H      -12.33115       -15.62660         1.88161
|108>    H      -15.23804       -19.87290         2.77064
|109>    H      -14.10827       -20.20709        -2.07681
|110> *
|111>
|112>                          ****END OF INPUT****

CARTESIAN COORDINATES (ANGSTROEM)
---------------------------------
  C      1.605210   -1.577710    2.441610
  C      0.981150   -1.339550    1.243170
  C      1.431310   -0.401320    0.291280
  N      1.758830    0.333570   -0.526730
  C     -0.232800   -1.940320    0.857570
  N     -1.241420   -2.371540    0.518000
  C      2.709400   -0.789820    2.986930
  C      2.777030   -1.003630    4.376300
  C      3.708770   -0.357360    5.162200
  C      4.602090    0.511350    4.546070
  C      4.551490    0.714810    3.161840
  C      3.603410    0.070010    2.373600
  Cl     5.674450    1.774420    2.414250
  Cl     5.776100    1.333360    5.490300
  C      1.751310   -1.992710    4.773050
  O      1.480840   -2.383320    5.883980
  C      1.149870   -2.456370    3.493090
  C      0.370410   -3.579640    3.491930
  C      0.021910   -4.408820    2.412480
  S     -1.388940   -5.429260    2.527130
  C     -1.197880   -6.056540    0.917060
  C     -0.051780   -5.522360    0.345020
  C      0.649430   -4.611130    1.177840
  C      1.845410   -4.163640    0.571980
  C      2.006010   -4.672700   -0.683460
  C      3.128740   -4.377880   -1.583070
  O      4.057100   -3.667720   -1.287510
  O      2.980790   -4.994810   -2.756840
  C      4.003530   -4.775400   -3.717800
  S      0.728650   -5.742250   -1.186070
  C     -2.113200   -6.976810    0.357260
  C     -2.058230   -7.550100   -0.904690
  C     -3.110170   -8.435830   -1.116350
  C     -3.976870   -8.537380   -0.011290
  S     -3.495070   -7.538390    1.285310
  C     -4.994730   -9.472730   -0.320770
  C     -4.772570   -9.963550   -1.619680
  C     -3.584140   -9.327370   -2.164200
  C     -3.026890   -9.532990   -3.391680
  C     -1.852860   -8.868700   -3.806730
  N     -0.896920   -8.336770   -4.149020
  C     -3.588630  -10.435440   -4.319840
  N     -4.056200  -11.168700   -5.067150
  C     -5.707490  -10.920410   -2.011960
  C     -6.648270  -11.166870   -1.026500
  S     -6.359090  -10.186710    0.411350
  C     -7.731090  -12.087760   -1.014350
  C     -8.333620  -12.791510   -2.058200
  C     -7.980100  -12.696760   -3.508290
  C     -6.924730  -13.738960   -3.889090
  C     -9.348830  -13.633900   -1.606850
  C     -9.567640  -13.595150   -0.239150
  S     -8.482770  -12.458360    0.510270
  C    -10.514390  -14.296740    0.535000
  C    -11.244780  -15.354050    0.074310
  C    -12.233860  -15.969900    0.855740
  C    -13.069130  -17.008140    0.536120
  C    -13.808440  -17.662720    1.643430
  O    -13.921190  -17.264320    2.779760
  C    -14.334020  -18.924690    1.075460
  C    -14.999720  -19.944610    1.720330
  C    -15.351600  -21.073270    0.978000
  C    -15.018180  -21.150010   -0.387380
  C    -14.352110  -20.104840   -1.031520
  C    -14.016370  -18.981710   -0.295050
  C    -13.342710  -17.734490   -0.681830
  C    -13.200420  -17.321050   -1.982000
  C    -12.750460  -16.058980   -2.420330
  N    -12.414270  -15.059560   -2.875890
  C    -13.574290  -18.099070   -3.100470
  N    -13.840940  -18.681110   -4.052850
  C    -15.359110  -22.312650   -1.122110
  N    -15.626110  -23.251360   -1.720580
  C    -16.032780  -22.145920    1.601850
  N    -16.584550  -23.001720    2.125770
  H      3.742160   -0.523740    6.227250
  H      3.595370    0.240990    1.309270
  H      0.017110   -3.890880    4.470420
  H      2.580660   -3.525920    1.025890
  H      3.725030   -5.357950   -4.591650
  H      4.967710   -5.103850   -3.324670
  H      4.066980   -3.713940   -3.965040
  H     -1.285870   -7.326890   -1.616960
  H     -5.678680  -11.430510   -2.954370
  H     -7.626200  -11.693550   -3.747220
  H     -8.882500  -12.881220   -4.093730
  H     -6.040700  -13.651390   -3.261240
  H     -6.626620  -13.606790   -4.925440
  H     -7.327170  -14.741690   -3.767570
  H     -9.951090  -14.227650   -2.271710
  H    -10.662240  -13.958180    1.552700
  H    -11.042640  -15.732480   -0.913460
  H    -12.331150  -15.626600    1.881610
  H    -15.238040  -19.872900    2.770640
  H    -14.108270  -20.207090   -2.076810

 Total Charge           Charge          ....    0
 Multiplicity           Mult            ....    1
 Number of Electrons    NEL             ....  558
 Basis Dimension        Dim             .... 1178

ORBITAL ENERGIES
----------------

  NO   OCC          E(Eh)            E(eV)
   0   2.0000    -101.601947     -2764.7295
   1   2.0000    -101.600969     -2764.7029
   2   2.0000     -89.007940     -2422.0292
   3   2.0000     -89.006081     -2421.9786
   4   2.0000     -88.993760     -2421.6433
   5   2.0000     -88.985228     -2421.4111
   6   2.0000     -88.982059     -2421.3249
   7   2.0000     -19.277052      -524.5553
   8   2.0000     -19.234003      -523.3838
   9   2.0000     -19.224437      -523.1235
  10   2.0000     -19.219387      -522.9861
  11   2.0000     -14.445728      -393.0882
  12   2.0000     -14.443829      -393.0366
  13   2.0000     -14.436568      -392.8390
  14   2.0000     -14.431892      -392.7117
  15   2.0000     -14.428273      -392.6133
  16   2.0000     -14.427243      -392.5852
  17   2.0000     -14.421021      -392.4159
  18   2.0000     -14.420043      -392.3893
  19   2.0000     -10.419995      -283.5425
  20   2.0000     -10.384461      -282.5756
  21   2.0000     -10.380574      -282.4698
  22   2.0000     -10.375591      -282.3342
  23   2.0000     -10.367144      -282.1043
  24   2.0000     -10.364968      -282.0451
  25   2.0000     -10.363362      -282.0014
  26   2.0000     -10.359585      -281.8987
  27   2.0000     -10.358866      -281.8791
  28   2.0000     -10.358776      -281.8766
  29   2.0000     -10.357991      -281.8553
  30   2.0000     -10.351418      -281.6764
  31   2.0000     -10.350713      -281.6572
  32   2.0000     -10.350488      -281.6511
  33   2.0000     -10.349616      -281.6274
  34   2.0000     -10.348188      -281.5885
  35   2.0000     -10.346903      -281.5536
  36   2.0000     -10.346312      -281.5375
  37   2.0000     -10.345727      -281.5215
  38   2.0000     -10.343604      -281.4638
  39   2.0000     -10.341289      -281.4008
  40   2.0000     -10.340007      -281.3659
  41   2.0000     -10.339514      -281.3525
  42   2.0000     -10.335066      -281.2314
  43   2.0000     -10.333853      -281.1984
  44   2.0000     -10.333484      -281.1884
  45   2.0000     -10.333315      -281.1838
  46   2.0000     -10.333069      -281.1771
  47   2.0000     -10.332816      -281.1702
  48   2.0000     -10.332077      -281.1501
  49   2.0000     -10.331640      -281.1382
  50   2.0000     -10.330555      -281.1087
  51   2.0000     -10.329713      -281.0858
  52   2.0000     -10.329702      -281.0855
  53   2.0000     -10.324887      -280.9544
  54   2.0000     -10.324163      -280.9347
  55   2.0000     -10.323599      -280.9194
  56   2.0000     -10.322965      -280.9022
  57   2.0000     -10.322341      -280.8852
  58   2.0000     -10.321010      -280.8490
  59   2.0000     -10.320474      -280.8344
  60   2.0000     -10.319635      -280.8115
  61   2.0000     -10.319516      -280.8083
  62   2.0000     -10.318207      -280.7727
  63   2.0000     -10.317551      -280.7548
  64   2.0000     -10.312545      -280.6186
  65   2.0000     -10.311529      -280.5910
  66   2.0000     -10.310700      -280.5684
  67   2.0000     -10.309104      -280.5250
  68   2.0000     -10.307676      -280.4861
  69   2.0000     -10.306087      -280.4429
  70   2.0000     -10.305245      -280.4200
  71   2.0000     -10.304970      -280.4125
  72   2.0000     -10.302945      -280.3574
  73   2.0000     -10.288448      -279.9629
  74   2.0000     -10.271565      -279.5035
  75   2.0000      -9.557055      -260.0607
  76   2.0000      -9.556023      -260.0326
  77   2.0000      -8.102738      -220.4867
  78   2.0000      -8.100878      -220.4361
  79   2.0000      -8.088919      -220.1107
  80   2.0000      -8.081220      -219.9012
  81   2.0000      -8.076680      -219.7776
  82   2.0000      -7.327416      -199.3891
  83   2.0000      -7.326414      -199.3619
  84   2.0000      -7.317304      -199.1140
  85   2.0000      -7.316601      -199.0948
  86   2.0000      -7.316291      -199.0864
  87   2.0000      -7.315527      -199.0656
  88   2.0000      -6.072040      -165.2286
  89   2.0000      -6.070194      -165.1784
  90   2.0000      -6.067814      -165.1136
  91   2.0000      -6.065933      -165.0624
  92   2.0000      -6.064969      -165.0362
  93   2.0000      -6.063115      -164.9858
  94   2.0000      -6.058290      -164.8545
  95   2.0000      -6.054057      -164.7393
  96   2.0000      -6.050979      -164.6555
  97   2.0000      -6.050483      -164.6420
  98   2.0000      -6.046439      -164.5320
  99   2.0000      -6.046390      -164.5306
 100   2.0000      -6.043206      -164.4440
 101   2.0000      -6.042062      -164.4129
 102   2.0000      -6.038125      -164.3057
 103   2.0000      -1.208570       -32.8869
 104   2.0000      -1.149339       -31.2751
 105   2.0000      -1.140005       -31.0211
 106   2.0000      -1.113590       -30.3023
 107   2.0000      -1.062091       -28.9010
 108   2.0000      -1.043035       -28.3824
 109   2.0000      -1.041360       -28.3369
 110   2.0000      -1.036560       -28.2062
 111   2.0000      -1.033682       -28.1279
 112   2.0000      -1.030329       -28.0367
 113   2.0000      -1.024303       -27.8727
 114   2.0000      -1.021790       -27.8043
 115   2.0000      -1.018859       -27.7246
 116   2.0000      -1.013260       -27.5722
 117   2.0000      -1.010584       -27.4994
 118   2.0000      -1.007029       -27.4027
 119   2.0000      -1.006754       -27.3952
 120   2.0000      -0.998693       -27.1758
 121   2.0000      -0.995335       -27.0844
 122   2.0000      -0.980200       -26.6726
 123   2.0000      -0.978999       -26.6399
 124   2.0000      -0.971171       -26.4269
 125   2.0000      -0.964025       -26.2324
 126   2.0000      -0.946100       -25.7447
 127   2.0000      -0.940981       -25.6054
 128   2.0000      -0.930716       -25.3261
 129   2.0000      -0.926945       -25.2234
 130   2.0000      -0.914173       -24.8759
 131   2.0000      -0.908265       -24.7152
 132   2.0000      -0.903944       -24.5976
 133   2.0000      -0.896867       -24.4050
 134   2.0000      -0.890777       -24.2393
 135   2.0000      -0.884103       -24.0577
 136   2.0000      -0.873871       -23.7792
 137   2.0000      -0.869177       -23.6515
 138   2.0000      -0.864080       -23.5128
 139   2.0000      -0.862988       -23.4831
 140   2.0000      -0.856653       -23.3107
 141   2.0000      -0.836873       -22.7725
 142   2.0000      -0.834003       -22.6944
 143   2.0000      -0.820501       -22.3270
 144   2.0000      -0.817669       -22.2499
 145   2.0000      -0.809294       -22.0220
 146   2.0000      -0.796793       -21.6819
 147   2.0000      -0.792190       -21.5566
 148   2.0000      -0.776901       -21.1406
 149   2.0000      -0.768712       -20.9177
 150   2.0000      -0.755476       -20.5575
 151   2.0000      -0.750677       -20.4270
 152   2.0000      -0.739508       -20.1230
 153   2.0000      -0.734255       -19.9801
 154   2.0000      -0.725109       -19.7312
 155   2.0000      -0.717201       -19.5160
 156   2.0000      -0.713553       -19.4168
 157   2.0000      -0.710390       -19.3307
 158   2.0000      -0.704779       -19.1780
 159   2.0000      -0.701849       -19.0983
 160   2.0000      -0.692659       -18.8482
 161   2.0000      -0.685447       -18.6520
 162   2.0000      -0.684200       -18.6180
 163   2.0000      -0.676825       -18.4174
 164   2.0000      -0.664205       -18.0739
 165   2.0000      -0.658183       -17.9101
 166   2.0000      -0.657358       -17.8876
 167   2.0000      -0.651159       -17.7189
 168   2.0000      -0.649758       -17.6808
 169   2.0000      -0.645447       -17.5635
 170   2.0000      -0.633678       -17.2433
 171   2.0000      -0.629660       -17.1339
 172   2.0000      -0.624969       -17.0063
 173   2.0000      -0.624369       -16.9900
 174   2.0000      -0.615418       -16.7464
 175   2.0000      -0.608096       -16.5471
 176   2.0000      -0.601047       -16.3553
 177   2.0000      -0.599459       -16.3121
 178   2.0000      -0.596177       -16.2228
 179   2.0000      -0.595189       -16.1959
 180   2.0000      -0.586105       -15.9487
 181   2.0000      -0.584689       -15.9102
 182   2.0000      -0.577098       -15.7036
 183   2.0000      -0.570155       -15.5147
 184   2.0000      -0.568561       -15.4713
 185   2.0000      -0.565396       -15.3852
 186   2.0000      -0.564286       -15.3550
 187   2.0000      -0.561480       -15.2786
 188   2.0000      -0.557341       -15.1660
 189   2.0000      -0.554553       -15.0901
 190   2.0000      -0.551592       -15.0096
 191   2.0000      -0.548517       -14.9259
 192   2.0000      -0.547066       -14.8864
 193   2.0000      -0.545290       -14.8381
 194   2.0000      -0.540370       -14.7042
 195   2.0000      -0.538231       -14.6460
 196   2.0000      -0.535902       -14.5826
 197   2.0000      -0.531941       -14.4749
 198   2.0000      -0.530016       -14.4225
 199   2.0000      -0.526771       -14.3342
 200   2.0000      -0.525026       -14.2867
 201   2.0000      -0.522180       -14.2092
 202   2.0000      -0.518207       -14.1011
 203   2.0000      -0.516940       -14.0667
 204   2.0000      -0.515774       -14.0349
 205   2.0000      -0.513266       -13.9667
 206   2.0000      -0.512609       -13.9488
 207   2.0000      -0.511177       -13.9098
 208   2.0000      -0.509469       -13.8634
 209   2.0000      -0.506234       -13.7753
 210   2.0000      -0.500082       -13.6079
 211   2.0000      -0.499008       -13.5787
 212   2.0000      -0.498486       -13.5645
 213   2.0000      -0.494658       -13.4603
 214   2.0000      -0.491898       -13.3852
 215   2.0000      -0.491007       -13.3610
 216   2.0000      -0.489091       -13.3088
 217   2.0000      -0.481522       -13.1029
 218   2.0000      -0.479657       -13.0521
 219   2.0000      -0.478231       -13.0133
 220   2.0000      -0.475642       -12.9429
 221   2.0000      -0.473744       -12.8912
 222   2.0000      -0.471617       -12.8334
 223   2.0000      -0.470575       -12.8050
 224   2.0000      -0.468843       -12.7579
 225   2.0000      -0.466443       -12.6926
 226   2.0000      -0.462503       -12.5853
 227   2.0000      -0.460752       -12.5377
 228   2.0000      -0.458760       -12.4835
 229   2.0000      -0.457551       -12.4506
 230   2.0000      -0.455849       -12.4043
 231   2.0000      -0.454578       -12.3697
 232   2.0000      -0.454338       -12.3632
 233   2.0000      -0.453509       -12.3406
 234   2.0000      -0.452621       -12.3164
 235   2.0000      -0.451537       -12.2869
 236   2.0000      -0.451500       -12.2860
 237   2.0000      -0.449872       -12.2416
 238   2.0000      -0.448629       -12.2078
 239   2.0000      -0.446497       -12.1498
 240   2.0000      -0.446276       -12.1438
 241   2.0000      -0.443105       -12.0575
 242   2.0000      -0.442333       -12.0365
 243   2.0000      -0.440409       -11.9841
 244   2.0000      -0.439520       -11.9599
 245   2.0000      -0.437786       -11.9128
 246   2.0000      -0.434562       -11.8250
 247   2.0000      -0.434009       -11.8100
 248   2.0000      -0.432944       -11.7810
 249   2.0000      -0.430754       -11.7214
 250   2.0000      -0.430065       -11.7027
 251   2.0000      -0.428300       -11.6546
 252   2.0000      -0.427690       -11.6380
 253   2.0000      -0.427573       -11.6348
 254   2.0000      -0.423713       -11.5298
 255   2.0000      -0.418405       -11.3854
 256   2.0000      -0.412335       -11.2202
 257   2.0000      -0.410595       -11.1729
 258   2.0000      -0.408405       -11.1133
 259   2.0000      -0.394364       -10.7312
 260   2.0000      -0.392886       -10.6910
 261   2.0000      -0.383639       -10.4394
 262   2.0000      -0.381941       -10.3931
 263   2.0000      -0.372188       -10.1278
 264   2.0000      -0.368522       -10.0280
 265   2.0000      -0.366737        -9.9794
 266   2.0000      -0.360212        -9.8019
 267   2.0000      -0.356820        -9.7096
 268   2.0000      -0.350921        -9.5490
 269   2.0000      -0.346858        -9.4385
 270   2.0000      -0.344890        -9.3849
 271   2.0000      -0.339139        -9.2284
 272   2.0000      -0.337798        -9.1920
 273   2.0000      -0.335549        -9.1307
 274   2.0000      -0.331887        -9.0311
 275   2.0000      -0.317261        -8.6331
 276   2.0000      -0.311990        -8.4897
 277   2.0000      -0.283571        -7.7164
 278   2.0000      -0.254661        -6.9297
 279   0.0000      -0.128364        -3.4930
 280   0.0000      -0.113626        -3.0919
 281   0.0000      -0.105924        -2.8823
 282   0.0000      -0.094987        -2.5847
 283   0.0000      -0.073190        -1.9916

MULLIKEN ATOMIC CHARGES
-----------------------
   0 C :    0.240344
   1 C :   -0.339626
   2 C :   -0.186653
   3 N :    0.166386
   4 C :   -0.189939
   5 N :    0.171865
   6 C :    0.020622
   7 C :    0.006469
   8 C :   -0.032628
   9 C :    0.057011
  10 C :    0.049900
  11 C :   -0.013386
  12 Cl:   -0.034212
  13 Cl:   -0.042779
  14 C :    0.133796
  15 O :   -0.134666
  16 C :   -0.142386
  17 C :    0.073323
  18 C :   -0.142549
  19 S :    0.184406
  20 C :   -0.089634
  21 C :   -0.055789
  22 C :    0.135828
  23 C :   -0.002617
  24 C :   -0.102520
  25 C :    0.206733
  26 O :   -0.189015
  27 O :   -0.301910
  28 C :    0.185546
  29 S :    0.180199
  30 C :   -0.070658
  31 C :   -0.046916
  32 C :    0.005069
  33 C :   -0.093612
  34 S :    0.204029
  35 C :   -0.096028
  36 C :    0.002722
  37 C :    0.308958
  38 C :   -0.290440
  39 C :   -0.187061
  40 N :    0.182150
  41 C :   -0.183473
  42 N :    0.170001
  43 C :   -0.043628
  44 C :   -0.057229
  45 S :    0.190904
  46 C :   -0.085629
  47 C :   -0.037932
  48 C :    0.054902
  49 C :    0.023728
  50 C :   -0.001131
  51 C :   -0.074027
  52 S :    0.133819
  53 C :    0.082720
  54 C :    0.001428
  55 C :    0.027771
  56 C :   -0.120357
  57 C :    0.140629
  58 O :   -0.133377
  59 C :    0.005761
  60 C :   -0.033392
  61 C :   -0.067869
  62 C :   -0.063677
  63 C :   -0.037495
  64 C :    0.030368
  65 C :    0.314218
  66 C :   -0.339882
  67 C :   -0.193834
  68 N :    0.168716
  69 C :   -0.189674
  70 N :    0.165151
  71 C :   -0.174868
  72 N :    0.200733
  73 C :   -0.174662
  74 N :    0.197830
  75 H :    0.001385
  76 H :    0.007313
  77 H :    0.023155
  78 H :    0.015737
  79 H :    0.045132
  80 H :    0.037381
  81 H :    0.042870
  82 H :    0.015279
  83 H :    0.001588
  84 H :    0.017824
  85 H :    0.022141
  86 H :    0.017300
  87 H :    0.037534
  88 H :    0.011292
  89 H :   -0.005728
  90 H :    0.007807
  91 H :    0.016702
  92 H :    0.019130
  93 H :    0.016839
  94 H :    0.022442
Sum of atomic charges:   -0.0000000

LOEWDIN ATOMIC CHARGES
----------------------
   0 C :    0.055445
   1 C :   -0.133399
   2 C :   -0.022238
   3 N :   -0.043927
   4 C :   -0.015367
   5 N :   -0.048030
   6 C :   -0.010929
   7 C :   -0.047146
   8 C :    0.001499
   9 C :   -0.136294
  10 C :   -0.129345
  11 C :   -0.013888
  12 Cl:    0.164674
  13 Cl:    0.158949
  14 C :    0.082892
  15 O :   -0.137276
  16 C :   -0.097850
  17 C :    0.040334
  18 C :   -0.182053
  19 S :    0.476151
  20 C :   -0.180403
  21 C :   -0.181188
  22 C :   -0.051005
  23 C :   -0.015565
  24 C :   -0.179683
  25 C :    0.066979
  26 O :   -0.165253
  27 O :   -0.090310
  28 C :    0.086584
  29 S :    0.460760
  30 C :   -0.182285
  31 C :   -0.022589
  32 C :   -0.064980
  33 C :   -0.175622
  34 S :    0.481391
  35 C :   -0.178097
  36 C :   -0.067229
  37 C :    0.080926
  38 C :   -0.095823
  39 C :   -0.018460
  40 N :   -0.024034
  41 C :   -0.014065
  42 N :   -0.029713
  43 C :   -0.025040
  44 C :   -0.175405
  45 S :    0.473945
  46 C :   -0.174293
  47 C :   -0.039330
  48 C :   -0.029411
  49 C :   -0.047681
  50 C :   -0.011377
  51 C :   -0.182887
  52 S :    0.433291
  53 C :    0.032637
  54 C :   -0.040565
  55 C :    0.076527
  56 C :   -0.111242
  57 C :    0.080665
  58 O :   -0.134699
  59 C :   -0.029834
  60 C :    0.047815
  61 C :   -0.029587
  62 C :   -0.024328
  63 C :    0.031303
  64 C :    0.004960
  65 C :    0.068056
  66 C :   -0.132359
  67 C :   -0.014638
  68 N :   -0.047902
  69 C :   -0.023494
  70 N :   -0.037965
  71 C :   -0.031397
  72 N :   -0.012118
  73 C :   -0.031925
  74 N :   -0.014630
  75 H :    0.046305
  76 H :    0.045927
  77 H :    0.046876
  78 H :    0.042128
  79 H :    0.031045
  80 H :    0.026059
  81 H :    0.028308
  82 H :    0.031934
  83 H :    0.041126
  84 H :    0.029654
  85 H :    0.039244
  86 H :    0.021916
  87 H :    0.034020
  88 H :    0.026340
  89 H :    0.036494
  90 H :    0.038142
  91 H :    0.032394
  92 H :    0.046136
  93 H :    0.054272
  94 H :    0.052049

  Mayer bond orders larger than 0.100000
B(  0-C ,  1-C ) :   1.6403 B(  0-C ,  6-C ) :   1.0005 B(  0-C , 16-C ) :   1.0653
B(  1-C ,  2-C ) :   1.1347 B(  1-C ,  4-C ) :   1.1638 B(  2-C ,  3-N ) :   2.9929
B(  4-C ,  5-N ) :   3.0063 B(  6-C ,  7-C ) :   1.3298 B(  6-C , 11-C ) :   1.3528
B(  7-C ,  8-C ) :   1.3491 B(  7-C , 14-C ) :   0.9187 B(  8-C ,  9-C ) :   1.3425
B(  8-C , 75-H ) :   1.0159 B(  9-C , 10-C ) :   1.4088 B(  9-C , 13-Cl) :   1.0468
B( 10-C , 11-C ) :   1.3549 B( 10-C , 12-Cl) :   1.0716 B( 11-C , 76-H ) :   0.9895
B( 14-C , 15-O ) :   2.2766 B( 14-C , 16-C ) :   0.9473 B( 16-C , 17-C ) :   1.6152
B( 17-C , 18-C ) :   1.1783 B( 17-C , 77-H ) :   0.9313 B( 18-C , 19-S ) :   1.1004
B( 18-C , 20-C ) :   0.1072 B( 18-C , 22-C ) :   1.3330 B( 19-S , 20-C ) :   1.1568
B( 20-C , 21-C ) :   1.5064 B( 20-C , 30-C ) :   1.1628 B( 21-C , 22-C ) :   1.2734
B( 21-C , 29-S ) :   1.0577 B( 22-C , 23-C ) :   1.1556 B( 23-C , 24-C ) :   1.6132
B( 23-C , 78-H ) :   0.9944 B( 24-C , 25-C ) :   0.9392 B( 24-C , 29-S ) :   1.0868
B( 25-C , 26-O ) :   2.1442 B( 25-C , 27-O ) :   1.2500 B( 27-O , 28-C ) :   0.9111
B( 28-C , 79-H ) :   0.9812 B( 28-C , 80-H ) :   0.9767 B( 28-C , 81-H ) :   0.9770
B( 30-C , 31-C ) :   1.4596 B( 30-C , 34-S ) :   1.0944 B( 31-C , 32-C ) :   1.3208
B( 31-C , 82-H ) :   0.9796 B( 32-C , 33-C ) :   1.4324 B( 32-C , 37-C ) :   0.9924
B( 33-C , 34-S ) :   1.1292 B( 33-C , 35-C ) :   1.1949 B( 35-C , 36-C ) :   1.4325
B( 35-C , 45-S ) :   1.1261 B( 36-C , 37-C ) :   0.9981 B( 36-C , 43-C ) :   1.2997
B( 37-C , 38-C ) :   1.7135 B( 38-C , 39-C ) :   1.1344 B( 38-C , 41-C ) :   1.1351
B( 39-C , 40-N ) :   2.9877 B( 41-C , 42-N ) :   2.9845 B( 43-C , 44-C ) :   1.4653
B( 43-C , 83-H ) :   0.9860 B( 44-C , 45-S ) :   1.0967 B( 44-C , 46-C ) :   1.1285
B( 46-C , 47-C ) :   1.4858 B( 46-C , 51-C ) :   0.1016 B( 46-C , 52-S ) :   1.1377
B( 47-C , 48-C ) :   1.0647 B( 47-C , 50-C ) :   1.3149 B( 48-C , 49-C ) :   1.1002
B( 48-C , 84-H ) :   0.9227 B( 48-C , 85-H ) :   0.9215 B( 49-C , 86-H ) :   0.9674
B( 49-C , 87-H ) :   0.9681 B( 49-C , 88-H ) :   0.9644 B( 50-C , 51-C ) :   1.4352
B( 50-C , 89-H ) :   0.9852 B( 51-C , 52-S ) :   1.0900 B( 51-C , 53-C ) :   1.1488
B( 53-C , 54-C ) :   1.5981 B( 53-C , 90-H ) :   0.9709 B( 54-C , 55-C ) :   1.1950
B( 54-C , 91-H ) :   0.9599 B( 55-C , 56-C ) :   1.5376 B( 55-C , 92-H ) :   0.9513
B( 56-C , 57-C ) :   0.9608 B( 56-C , 65-C ) :   1.0580 B( 57-C , 58-O ) :   2.2620
B( 57-C , 59-C ) :   0.9028 B( 59-C , 60-C ) :   1.3734 B( 59-C , 64-C ) :   1.3354
B( 60-C , 61-C ) :   1.3603 B( 60-C , 93-H ) :   1.0142 B( 61-C , 62-C ) :   1.4074
B( 61-C , 73-C ) :   1.0863 B( 62-C , 63-C ) :   1.3899 B( 62-C , 71-C ) :   1.0866
B( 63-C , 64-C ) :   1.3609 B( 63-C , 94-H ) :   0.9859 B( 64-C , 65-C ) :   0.9685
B( 65-C , 66-C ) :   1.6319 B( 66-C , 67-C ) :   1.1733 B( 66-C , 69-C ) :   1.1318
B( 67-C , 68-N ) :   2.9689 B( 69-C , 70-N ) :   2.9743 B( 71-C , 72-N ) :   3.0436
B( 73-C , 74-N ) :   3.0454

-----------------------------------------------------------------------------
         ABSORPTION SPECTRUM VIA TRANSITION ELECTRIC DIPOLE MOMENTS
-----------------------------------------------------------------------------
State   Energy  Wavelength   fosc         T2         TX        TY        TZ
        (cm-1)    (nm)                  (au**2)     (au)      (au)      (au)
-----------------------------------------------------------------------------
   0   11175.2    894.8   0.555997785  16.37922   2.73339   2.89993   0.70583
   1   16064.6    622.5   1.683044841  34.49065  -3.68388  -4.44018  -1.09748
   2   17740.5    563.7   0.168751386   3.13153  -1.47872  -0.38387   0.89306
   3   20051.2    498.7   0.005424972   0.08907   0.23458   0.18416   0.01137
   4   22749.1    439.6   0.294325347   4.25931  -1.55095  -1.14454   0.73749
   5   24234.8    412.6   0.058839513   0.79929  -0.34471  -0.14387  -0.81226
   6   25121.2    398.1   0.095702878   1.25418   0.83599   0.74058   0.08275
   7   25982.7    384.9   0.055282786   0.70046   0.17204  -0.65189  -0.49588
   8   26209.0    381.5   0.161114873   2.02377   0.81532   0.39742   1.09594
   9   27115.6    368.8   0.019252460   0.23375  -0.21837   0.06675   0.42615
  10   29061.4    344.1   0.015946542   0.18064   0.22556   0.28176  -0.22445
  11   29236.4    342.0   0.074780181   0.84205   0.77136   0.49072   0.07908
  12   29398.9    340.1   0.043112871   0.48278   0.54643   0.33408   0.26941
  13   29909.0    334.3   0.074921803   0.82467  -0.29243  -0.13486  -0.84910
  14   30297.6    330.1   0.167198369   1.81677  -0.67725  -0.59533   1.00184
  15   30655.1    326.2   0.093413574   1.00319  -0.34906   0.57119   0.74504
  16   30903.8    323.6   0.059619762   0.63512   0.07234   0.53255   0.58845
  17   31084.8    321.7   0.327797767   3.47163  -1.60103  -0.90220   0.30719
  18   31368.1    318.8   0.033044974   0.34681  -0.00197  -0.58511  -0.06670
  19   31380.3    318.7   0.092642779   0.97192   0.45410  -0.03942  -0.87416
  20   31927.9    313.2   0.388707790   4.00800   0.41972  -0.27773  -1.93771
  21   32238.9    310.2   0.131588379   1.34373  -0.11421   0.25076  -1.12597
  22   32548.0    307.2   0.008915297   0.09018  -0.26610  -0.01679   0.13815
  23   32616.2    306.6   0.082014352   0.82781  -0.71128  -0.54750  -0.14878
  24   32953.7    303.5   0.113221473   1.13110  -0.43995  -0.84458   0.47352
  25   33176.6    301.4   0.233405758   2.31609  -1.09224  -1.01144  -0.31637
  26   33555.6    298.0   0.007628511   0.07484  -0.08718  -0.06847  -0.25011
  27   33783.7    296.0   0.043395003   0.42287  -0.58090  -0.29220   0.00664
  28   34139.5    292.9   0.070264335   0.67757  -0.59915  -0.56079   0.06411
  29   34367.0    291.0   0.145390123   1.39273  -0.92115  -0.39309  -0.62426
  30   34762.6    287.7   0.184909584   1.75115  -0.07612  -0.39873   1.25951
  31   35007.0    285.7   0.250581596   2.35651  -0.70192  -0.22130  -1.34716
  32   35269.7    283.5   0.189738726   1.77105   0.73419   1.04330  -0.37887
  33   35447.6    282.1   0.199132307   1.84940  -0.23072  -0.83987   1.04441
  34   35671.3    280.3   0.015965063   0.14734   0.07634   0.29218  -0.23695
  35   35940.9    278.2   0.000505562   0.00463   0.02133  -0.06269   0.01568
  36   36189.3    276.3   0.026581825   0.24181   0.43161   0.07179  -0.22445
  37   36371.2    274.9   0.121761961   1.10212  -0.51621   0.00365   0.91413
  38   36768.9    272.0   0.031644816   0.28333   0.15996   0.13402   0.48968
  39   36982.5    270.4   0.007582268   0.06750   0.18304   0.13935  -0.12073
  40   37228.3    268.6   0.001104706   0.00977   0.09464  -0.01447  -0.02454
  41   37610.0    265.9   0.080698803   0.70638   0.35453   0.42226  -0.63434
  42   38057.0    262.8   0.039534091   0.34199  -0.27724  -0.48014  -0.18599
  43   38352.5    260.7   0.028432318   0.24406  -0.22092  -0.42869   0.10714
  44   38612.7    259.0   0.049423242   0.42138  -0.09951  -0.16519  -0.61983
  45   38788.1    257.8   0.034175987   0.29007  -0.40669  -0.30672   0.17491
  46   39098.4    255.8   0.101204549   0.85215   0.58610   0.58827  -0.40320
  47   39401.6    253.8   0.005962848   0.04982  -0.17802   0.07238   0.11354
  48   39624.5    252.4   0.003740977   0.03108  -0.13798  -0.08618   0.06794
  49   40052.2    249.7   0.053333615   0.43838   0.38710   0.46564   0.26779
  50   40092.1    249.4   0.041123398   0.33768  -0.03650  -0.57706  -0.05783

FINAL SINGLE POINT ENERGY     -5791.569458300917

DIPOLE MOMENT
-------------
                                X             Y             Z
Electronic contribution:     36.78082      53.81953      37.26034
Nuclear contribution   :    -34.45842     -52.42836     -35.60198
                        -----------------------------------------
Total Dipole Moment    :      2.32239       1.39117       1.65836
                        -----------------------------------------
Magnitude (a.u.)       :      3.17475
Magnitude (Debye)      :      8.06957

Rotational constants in cm-1:     0.002293     0.000159     0.000151
Rotational constants in MHz :    68.727684     4.756775     4.522460

                             ****ORCA TERMINATED NORMALLY****
TOTAL RUN TIME: 0 days 0 hours 13 minutes 21 seconds 574 msec
