                         Program Version 4.2.0 -  RELEASE  -
|  1> # ORCA input file
|  2> # SCF done       -195.525586831839          0.000717391680
|  3> ! CAM-B3LYP def2-SVP def2/J RIJCOSX Grid4 TightSCF
|  4> %maxcore 5000
|  5> %tddft
|  6>     Mode sTDDFT
|  7>     Ethresh 5.0
|  8>     maxcore 5000
|  9> end
| 10>
| 11> %pal
| 12>   nprocs 6
| 13>   end
| 14> * xyz 0 1
| 15>    C       -5.92721       -13.31394        -5.76302
| 16>    C       -5.66598       -13.53094        -4.46811
| 17>    C       -6.42773       -14.31335        -3.53523
| 18>    C       -5.91512       -14.35329        -2.28741
| 19>    C       -4.71069       -13.60876        -2.12428
| 20>    S       -4.25576       -12.85192        -3.63911
| 21>    C       -3.97133       -13.46212        -0.97915
| 22>    C       -4.21527       -14.01407         0.30541
| 23>    C       -3.29841       -13.67723         1.24627
| 24>    C       -2.26143       -12.82813         0.77106
| 25>    S       -2.50976       -12.48873        -0.94612
| 26>    C       -1.22105       -12.31473         1.48024
| 27>    N       -0.29031       -11.49497         0.91633
| 28>    C        0.74785       -10.89874         1.53408
| 29>    S        1.03506       -11.11955         3.23003
| 30>    C        2.39875       -10.04340         3.12098
| 31>    N        3.11119        -9.81777         4.29710
| 32>    O        4.07387        -9.07311         4.25309
| 33>    O        2.70576       -10.39728         5.29516
| 34>    C        2.60813        -9.55004         1.86192
| 35>    C        1.67529       -10.03053         0.92404
| 36>    C        1.65221        -9.71469        -0.47208
| 37>    C        2.39295        -8.76078        -1.07539
| 38>    C        2.34605        -8.49976        -2.47246
| 39>    C        3.00787        -7.47675        -3.13925
| 40>    C        3.82033        -6.57078        -2.43913
| 41>    N        4.47122        -5.86254        -1.81491
| 42>    C        2.75702        -7.48093        -4.53915
| 43>    C        1.91165        -8.52648        -4.89177
| 44>    S        1.40173        -9.49363        -3.56485
| 45>    S        1.54170        -8.64678        -6.58263
| 46>    C        2.53698        -7.25416        -6.83791
| 47>    C        3.12127        -6.72351        -5.69202
| 48>    C        3.89870        -5.57538        -6.00129
| 49>    C        4.61717        -4.83555        -5.04861
| 50>    N        5.21251        -4.23150        -4.27630
| 51>    C        3.89124        -5.27430        -7.35948
| 52>    S        2.92573        -6.40698        -8.28221
| 53>    C        4.53571        -4.18171        -8.01252
| 54>    C        4.70639        -3.99620        -9.38012
| 55>    C        4.23441        -4.88029       -10.36249
| 56>    N        3.83219        -5.58069       -11.17759
| 57>    C        5.37308        -2.77865        -9.68485
| 58>    C        5.65481        -2.05604        -8.53177
| 59>    S        5.18172        -2.84635        -7.08050
| 60>    S        6.39296        -0.50870        -8.79551
| 61>    C        6.33502        -0.83038       -10.49622
| 62>    C        5.79548        -2.06814       -10.84546
| 63>    C        5.81076        -2.25775       -12.24933
| 64>    C        5.52679        -3.46222       -12.91055
| 65>    N        5.35984        -4.43685       -13.49202
| 66>    C        6.31006        -1.15097       -12.93171
| 67>    S        6.83819         0.10854       -11.84007
| 68>    C        6.48962        -0.96413       -14.32769
| 69>    C        5.83882        -1.54253       -15.36820
| 70>    C        6.48265        -1.50035       -16.72025
| 71>    O        7.39648        -0.78685       -17.05538
| 72>    C        5.80124        -2.54946       -17.49949
| 73>    C        6.10903        -3.03721       -18.73752
| 74>    C        5.34246        -4.10027       -19.26483
| 75>    C        4.27578        -4.64690       -18.49210
| 76>    C        3.53101        -5.72252       -19.01659
| 77>    C        3.82616        -6.22718       -20.25183
| 78>    C        4.87694        -5.68186       -21.01757
| 79>    C        5.62020        -4.64115       -20.53560
| 80>    F        5.14275        -6.19578       -22.22541
| 81>    F        3.11755        -7.24798       -20.74984
| 82>    C        3.97171        -4.11328       -17.21923
| 83>    C        4.71736        -3.07153       -16.73695
| 84>    C        4.62834        -2.33279       -15.48257
| 85>    C        3.50723        -2.23752       -14.70478
| 86>    C        3.40260        -1.39036       -13.58495
| 87>    N        3.28326        -0.70301       -12.67324
| 88>    C        2.30468        -2.92434       -14.97919
| 89>    N        1.29989        -3.44321       -15.16972
| 90>    H       -6.79574       -13.74644        -6.22735
| 91>    H       -5.28578       -12.70817        -6.37650
| 92>    H       -7.32876       -14.81078        -3.84728
| 93>    H       -6.35591       -14.88998        -1.46620
| 94>    H       -5.06590       -14.64459         0.49069
| 95>    H       -3.32412       -14.00158         2.27094
| 96>    H       -1.10062       -12.53739         2.52924
| 97>    H       -0.41671       -11.30037        -0.07153
| 98>    H        3.41730        -8.87933         1.63913
| 99>    H        0.98267       -10.29608        -1.09573
|100>    H        3.05863        -8.12670        -0.50765
|101>    H        7.29941        -0.29690       -14.60980
|102>    H        6.93001        -2.62373       -19.30328
|103>    H        2.72272        -6.14945       -18.44388
|104>    H        6.42233        -4.23703       -21.13311
|105>    H        3.17261        -4.55302       -16.64450
|106> *
|107>
|108>                          ****END OF INPUT****

CARTESIAN COORDINATES (ANGSTROEM)
---------------------------------
  C     -5.927210  -13.313940   -5.763020
  C     -5.665980  -13.530940   -4.468110
  C     -6.427730  -14.313350   -3.535230
  C     -5.915120  -14.353290   -2.287410
  C     -4.710690  -13.608760   -2.124280
  S     -4.255760  -12.851920   -3.639110
  C     -3.971330  -13.462120   -0.979150
  C     -4.215270  -14.014070    0.305410
  C     -3.298410  -13.677230    1.246270
  C     -2.261430  -12.828130    0.771060
  S     -2.509760  -12.488730   -0.946120
  C     -1.221050  -12.314730    1.480240
  N     -0.290310  -11.494970    0.916330
  C      0.747850  -10.898740    1.534080
  S      1.035060  -11.119550    3.230030
  C      2.398750  -10.043400    3.120980
  N      3.111190   -9.817770    4.297100
  O      4.073870   -9.073110    4.253090
  O      2.705760  -10.397280    5.295160
  C      2.608130   -9.550040    1.861920
  C      1.675290  -10.030530    0.924040
  C      1.652210   -9.714690   -0.472080
  C      2.392950   -8.760780   -1.075390
  C      2.346050   -8.499760   -2.472460
  C      3.007870   -7.476750   -3.139250
  C      3.820330   -6.570780   -2.439130
  N      4.471220   -5.862540   -1.814910
  C      2.757020   -7.480930   -4.539150
  C      1.911650   -8.526480   -4.891770
  S      1.401730   -9.493630   -3.564850
  S      1.541700   -8.646780   -6.582630
  C      2.536980   -7.254160   -6.837910
  C      3.121270   -6.723510   -5.692020
  C      3.898700   -5.575380   -6.001290
  C      4.617170   -4.835550   -5.048610
  N      5.212510   -4.231500   -4.276300
  C      3.891240   -5.274300   -7.359480
  S      2.925730   -6.406980   -8.282210
  C      4.535710   -4.181710   -8.012520
  C      4.706390   -3.996200   -9.380120
  C      4.234410   -4.880290  -10.362490
  N      3.832190   -5.580690  -11.177590
  C      5.373080   -2.778650   -9.684850
  C      5.654810   -2.056040   -8.531770
  S      5.181720   -2.846350   -7.080500
  S      6.392960   -0.508700   -8.795510
  C      6.335020   -0.830380  -10.496220
  C      5.795480   -2.068140  -10.845460
  C      5.810760   -2.257750  -12.249330
  C      5.526790   -3.462220  -12.910550
  N      5.359840   -4.436850  -13.492020
  C      6.310060   -1.150970  -12.931710
  S      6.838190    0.108540  -11.840070
  C      6.489620   -0.964130  -14.327690
  C      5.838820   -1.542530  -15.368200
  C      6.482650   -1.500350  -16.720250
  O      7.396480   -0.786850  -17.055380
  C      5.801240   -2.549460  -17.499490
  C      6.109030   -3.037210  -18.737520
  C      5.342460   -4.100270  -19.264830
  C      4.275780   -4.646900  -18.492100
  C      3.531010   -5.722520  -19.016590
  C      3.826160   -6.227180  -20.251830
  C      4.876940   -5.681860  -21.017570
  C      5.620200   -4.641150  -20.535600
  F      5.142750   -6.195780  -22.225410
  F      3.117550   -7.247980  -20.749840
  C      3.971710   -4.113280  -17.219230
  C      4.717360   -3.071530  -16.736950
  C      4.628340   -2.332790  -15.482570
  C      3.507230   -2.237520  -14.704780
  C      3.402600   -1.390360  -13.584950
  N      3.283260   -0.703010  -12.673240
  C      2.304680   -2.924340  -14.979190
  N      1.299890   -3.443210  -15.169720
  H     -6.795740  -13.746440   -6.227350
  H     -5.285780  -12.708170   -6.376500
  H     -7.328760  -14.810780   -3.847280
  H     -6.355910  -14.889980   -1.466200
  H     -5.065900  -14.644590    0.490690
  H     -3.324120  -14.001580    2.270940
  H     -1.100620  -12.537390    2.529240
  H     -0.416710  -11.300370   -0.071530
  H      3.417300   -8.879330    1.639130
  H      0.982670  -10.296080   -1.095730
  H      3.058630   -8.126700   -0.507650
  H      7.299410   -0.296900  -14.609800
  H      6.930010   -2.623730  -19.303280
  H      2.722720   -6.149450  -18.443880
  H      6.422330   -4.237030  -21.133110
  H      3.172610   -4.553020  -16.644500

 Total Charge           Charge          ....    0
 Multiplicity           Mult            ....    1
 Number of Electrons    NEL             ....  576
 Basis Dimension        Dim             .... 1166

ORBITAL ENERGIES
----------------

  NO   OCC          E(Eh)            E(eV)
   0   2.0000     -88.999585     -2421.8018
   1   2.0000     -88.999371     -2421.7960
   2   2.0000     -88.997675     -2421.7498
   3   2.0000     -88.995442     -2421.6891
   4   2.0000     -88.994286     -2421.6576
   5   2.0000     -88.990176     -2421.5458
   6   2.0000     -88.986564     -2421.4475
   7   2.0000     -88.957084     -2420.6453
   8   2.0000     -88.944597     -2420.3055
   9   2.0000     -24.799132      -674.8187
  10   2.0000     -24.798184      -674.7929
  11   2.0000     -19.231922      -523.3272
  12   2.0000     -19.231882      -523.3261
  13   2.0000     -19.225663      -523.1569
  14   2.0000     -14.643862      -398.4798
  15   2.0000     -14.495450      -394.4413
  16   2.0000     -14.424657      -392.5149
  17   2.0000     -14.423928      -392.4950
  18   2.0000     -14.421745      -392.4356
  19   2.0000     -14.418810      -392.3558
  20   2.0000     -14.418476      -392.3467
  21   2.0000     -14.406221      -392.0132
  22   2.0000     -10.382431      -282.5203
  23   2.0000     -10.381811      -282.5034
  24   2.0000     -10.376488      -282.3586
  25   2.0000     -10.376161      -282.3497
  26   2.0000     -10.355433      -281.7856
  27   2.0000     -10.353935      -281.7449
  28   2.0000     -10.353359      -281.7292
  29   2.0000     -10.350598      -281.6541
  30   2.0000     -10.348791      -281.6049
  31   2.0000     -10.348687      -281.6021
  32   2.0000     -10.347318      -281.5648
  33   2.0000     -10.345226      -281.5079
  34   2.0000     -10.343949      -281.4732
  35   2.0000     -10.343334      -281.4564
  36   2.0000     -10.340342      -281.3750
  37   2.0000     -10.340248      -281.3725
  38   2.0000     -10.339202      -281.3440
  39   2.0000     -10.338692      -281.3301
  40   2.0000     -10.337114      -281.2872
  41   2.0000     -10.332731      -281.1679
  42   2.0000     -10.325874      -280.9813
  43   2.0000     -10.325174      -280.9623
  44   2.0000     -10.323867      -280.9267
  45   2.0000     -10.322053      -280.8773
  46   2.0000     -10.321966      -280.8750
  47   2.0000     -10.320456      -280.8339
  48   2.0000     -10.319830      -280.8169
  49   2.0000     -10.319367      -280.8043
  50   2.0000     -10.319304      -280.8025
  51   2.0000     -10.318751      -280.7875
  52   2.0000     -10.316555      -280.7277
  53   2.0000     -10.316316      -280.7212
  54   2.0000     -10.316074      -280.7147
  55   2.0000     -10.315248      -280.6922
  56   2.0000     -10.312193      -280.6090
  57   2.0000     -10.312096      -280.6064
  58   2.0000     -10.311902      -280.6011
  59   2.0000     -10.311218      -280.5825
  60   2.0000     -10.310720      -280.5689
  61   2.0000     -10.309943      -280.5478
  62   2.0000     -10.305997      -280.4404
  63   2.0000     -10.305888      -280.4375
  64   2.0000     -10.303408      -280.3700
  65   2.0000     -10.303155      -280.3631
  66   2.0000     -10.302222      -280.3377
  67   2.0000     -10.300752      -280.2977
  68   2.0000     -10.300635      -280.2945
  69   2.0000     -10.297695      -280.2145
  70   2.0000     -10.297263      -280.2028
  71   2.0000     -10.296047      -280.1697
  72   2.0000     -10.295548      -280.1561
  73   2.0000     -10.290384      -280.0156
  74   2.0000     -10.275239      -279.6035
  75   2.0000      -8.095029      -220.2769
  76   2.0000      -8.094517      -220.2630
  77   2.0000      -8.092195      -220.1998
  78   2.0000      -8.089982      -220.1396
  79   2.0000      -8.089440      -220.1248
  80   2.0000      -8.085361      -220.0139
  81   2.0000      -8.081928      -219.9205
  82   2.0000      -8.053437      -219.1452
  83   2.0000      -8.041358      -218.8165
  84   2.0000      -6.064567      -165.0253
  85   2.0000      -6.064517      -165.0239
  86   2.0000      -6.061834      -164.9509
  87   2.0000      -6.060319      -164.9097
  88   2.0000      -6.060192      -164.9062
  89   2.0000      -6.059596      -164.8900
  90   2.0000      -6.059396      -164.8845
  91   2.0000      -6.057408      -164.8304
  92   2.0000      -6.056647      -164.8097
  93   2.0000      -6.055297      -164.7730
  94   2.0000      -6.055219      -164.7709
  95   2.0000      -6.055154      -164.7691
  96   2.0000      -6.054912      -164.7625
  97   2.0000      -6.053761      -164.7312
  98   2.0000      -6.051716      -164.6756
  99   2.0000      -6.051570      -164.6716
 100   2.0000      -6.050807      -164.6508
 101   2.0000      -6.050260      -164.6360
 102   2.0000      -6.047258      -164.5543
 103   2.0000      -6.046928      -164.5453
 104   2.0000      -6.043198      -164.4438
 105   2.0000      -6.023337      -163.9033
 106   2.0000      -6.019463      -163.7979
 107   2.0000      -6.013938      -163.6476
 108   2.0000      -6.011197      -163.5730
 109   2.0000      -6.007335      -163.4679
 110   2.0000      -6.001812      -163.3176
 111   2.0000      -1.321819       -35.9685
 112   2.0000      -1.312061       -35.7030
 113   2.0000      -1.306915       -35.5630
 114   2.0000      -1.141660       -31.0661
 115   2.0000      -1.131267       -30.7834
 116   2.0000      -1.102465       -29.9996
 117   2.0000      -1.057509       -28.7763
 118   2.0000      -1.049253       -28.5516
 119   2.0000      -1.031162       -28.0594
 120   2.0000      -1.023705       -27.8564
 121   2.0000      -1.013299       -27.5733
 122   2.0000      -1.009135       -27.4600
 123   2.0000      -1.008637       -27.4464
 124   2.0000      -1.008185       -27.4341
 125   2.0000      -1.001737       -27.2586
 126   2.0000      -0.999132       -27.1878
 127   2.0000      -0.997842       -27.1527
 128   2.0000      -0.997577       -27.1454
 129   2.0000      -0.986824       -26.8529
 130   2.0000      -0.985167       -26.8078
 131   2.0000      -0.975320       -26.5398
 132   2.0000      -0.968393       -26.3513
 133   2.0000      -0.952570       -25.9208
 134   2.0000      -0.934756       -25.4360
 135   2.0000      -0.925466       -25.1832
 136   2.0000      -0.913974       -24.8705
 137   2.0000      -0.908298       -24.7161
 138   2.0000      -0.905459       -24.6388
 139   2.0000      -0.899731       -24.4829
 140   2.0000      -0.894880       -24.3509
 141   2.0000      -0.888841       -24.1866
 142   2.0000      -0.883379       -24.0380
 143   2.0000      -0.881098       -23.9759
 144   2.0000      -0.875878       -23.8338
 145   2.0000      -0.861395       -23.4397
 146   2.0000      -0.856155       -23.2972
 147   2.0000      -0.854170       -23.2432
 148   2.0000      -0.852996       -23.2112
 149   2.0000      -0.842789       -22.9335
 150   2.0000      -0.835095       -22.7241
 151   2.0000      -0.829165       -22.5627
 152   2.0000      -0.824178       -22.4270
 153   2.0000      -0.809733       -22.0340
 154   2.0000      -0.803579       -21.8665
 155   2.0000      -0.789379       -21.4801
 156   2.0000      -0.772826       -21.0297
 157   2.0000      -0.769695       -20.9445
 158   2.0000      -0.756675       -20.5902
 159   2.0000      -0.744041       -20.2464
 160   2.0000      -0.735366       -20.0103
 161   2.0000      -0.731191       -19.8967
 162   2.0000      -0.726013       -19.7558
 163   2.0000      -0.720472       -19.6050
 164   2.0000      -0.713843       -19.4246
 165   2.0000      -0.712169       -19.3791
 166   2.0000      -0.703888       -19.1538
 167   2.0000      -0.695966       -18.9382
 168   2.0000      -0.691451       -18.8153
 169   2.0000      -0.688769       -18.7423
 170   2.0000      -0.687067       -18.6961
 171   2.0000      -0.676839       -18.4177
 172   2.0000      -0.665601       -18.1119
 173   2.0000      -0.662600       -18.0303
 174   2.0000      -0.656544       -17.8655
 175   2.0000      -0.652953       -17.7678
 176   2.0000      -0.651408       -17.7257
 177   2.0000      -0.644888       -17.5483
 178   2.0000      -0.642611       -17.4863
 179   2.0000      -0.634926       -17.2772
 180   2.0000      -0.631000       -17.1704
 181   2.0000      -0.626596       -17.0505
 182   2.0000      -0.625275       -17.0146
 183   2.0000      -0.624774       -17.0010
 184   2.0000      -0.623292       -16.9606
 185   2.0000      -0.619806       -16.8658
 186   2.0000      -0.606538       -16.5047
 187   2.0000      -0.600150       -16.3309
 188   2.0000      -0.593881       -16.1603
 189   2.0000      -0.593537       -16.1510
 190   2.0000      -0.586184       -15.9509
 191   2.0000      -0.585724       -15.9383
 192   2.0000      -0.583815       -15.8864
 193   2.0000      -0.580317       -15.7912
 194   2.0000      -0.566263       -15.4088
 195   2.0000      -0.563245       -15.3267
 196   2.0000      -0.558533       -15.1984
 197   2.0000      -0.556379       -15.1398
 198   2.0000      -0.554051       -15.0765
 199   2.0000      -0.553081       -15.0501
 200   2.0000      -0.548847       -14.9349
 201   2.0000      -0.547788       -14.9061
 202   2.0000      -0.547342       -14.8939
 203   2.0000      -0.545720       -14.8498
 204   2.0000      -0.544273       -14.8104
 205   2.0000      -0.539595       -14.6831
 206   2.0000      -0.536174       -14.5900
 207   2.0000      -0.534209       -14.5366
 208   2.0000      -0.531804       -14.4711
 209   2.0000      -0.528004       -14.3677
 210   2.0000      -0.526849       -14.3363
 211   2.0000      -0.524643       -14.2763
 212   2.0000      -0.520673       -14.1682
 213   2.0000      -0.520024       -14.1506
 214   2.0000      -0.516844       -14.0641
 215   2.0000      -0.512412       -13.9434
 216   2.0000      -0.509295       -13.8586
 217   2.0000      -0.508574       -13.8390
 218   2.0000      -0.502959       -13.6862
 219   2.0000      -0.501338       -13.6421
 220   2.0000      -0.498971       -13.5777
 221   2.0000      -0.497387       -13.5346
 222   2.0000      -0.494984       -13.4692
 223   2.0000      -0.492165       -13.3925
 224   2.0000      -0.489619       -13.3232
 225   2.0000      -0.487416       -13.2633
 226   2.0000      -0.485816       -13.2197
 227   2.0000      -0.483384       -13.1535
 228   2.0000      -0.477762       -13.0006
 229   2.0000      -0.476417       -12.9640
 230   2.0000      -0.475083       -12.9277
 231   2.0000      -0.472880       -12.8677
 232   2.0000      -0.470241       -12.7959
 233   2.0000      -0.469531       -12.7766
 234   2.0000      -0.468004       -12.7350
 235   2.0000      -0.466549       -12.6954
 236   2.0000      -0.464776       -12.6472
 237   2.0000      -0.459370       -12.5001
 238   2.0000      -0.456794       -12.4300
 239   2.0000      -0.454631       -12.3711
 240   2.0000      -0.454547       -12.3689
 241   2.0000      -0.451996       -12.2994
 242   2.0000      -0.450873       -12.2689
 243   2.0000      -0.447559       -12.1787
 244   2.0000      -0.446593       -12.1524
 245   2.0000      -0.446241       -12.1428
 246   2.0000      -0.445215       -12.1149
 247   2.0000      -0.443353       -12.0643
 248   2.0000      -0.439191       -11.9510
 249   2.0000      -0.438546       -11.9335
 250   2.0000      -0.437720       -11.9110
 251   2.0000      -0.436373       -11.8743
 252   2.0000      -0.432440       -11.7673
 253   2.0000      -0.431321       -11.7368
 254   2.0000      -0.431179       -11.7330
 255   2.0000      -0.430456       -11.7133
 256   2.0000      -0.428560       -11.6617
 257   2.0000      -0.422425       -11.4948
 258   2.0000      -0.421949       -11.4818
 259   2.0000      -0.414064       -11.2673
 260   2.0000      -0.408105       -11.1051
 261   2.0000      -0.404653       -11.0112
 262   2.0000      -0.400038       -10.8856
 263   2.0000      -0.393868       -10.7177
 264   2.0000      -0.392196       -10.6722
 265   2.0000      -0.390742       -10.6326
 266   2.0000      -0.387358       -10.5406
 267   2.0000      -0.384823       -10.4716
 268   2.0000      -0.380508       -10.3542
 269   2.0000      -0.380321       -10.3491
 270   2.0000      -0.372533       -10.1371
 271   2.0000      -0.363382        -9.8881
 272   2.0000      -0.360742        -9.8163
 273   2.0000      -0.354162        -9.6372
 274   2.0000      -0.348482        -9.4827
 275   2.0000      -0.344126        -9.3642
 276   2.0000      -0.342904        -9.3309
 277   2.0000      -0.339315        -9.2332
 278   2.0000      -0.331876        -9.0308
 279   2.0000      -0.327358        -8.9079
 280   2.0000      -0.321982        -8.7616
 281   2.0000      -0.317903        -8.6506
 282   2.0000      -0.303739        -8.2652
 283   2.0000      -0.302130        -8.2214
 284   2.0000      -0.294440        -8.0121
 285   2.0000      -0.280594        -7.6354
 286   2.0000      -0.268869        -7.3163
 287   2.0000      -0.224580        -6.1111
 288   0.0000      -0.103862        -2.8262
 289   0.0000      -0.073537        -2.0010
 290   0.0000      -0.071923        -1.9571
 291   0.0000      -0.062726        -1.7069
 292   0.0000      -0.058487        -1.5915

MULLIKEN ATOMIC CHARGES
-----------------------
   0 C :   -0.028867
   1 C :   -0.061999
   2 C :    0.053292
   3 C :    0.030260
   4 C :   -0.066207
   5 S :    0.070153
   6 C :   -0.046868
   7 C :    0.030132
   8 C :    0.042608
   9 C :   -0.040560
  10 S :    0.023692
  11 C :    0.021824
  12 N :   -0.028327
  13 C :   -0.108144
  14 S :    0.152119
  15 C :   -0.004328
  16 N :    0.278262
  17 O :   -0.249839
  18 O :   -0.274330
  19 C :    0.009357
  20 C :    0.123767
  21 C :   -0.045763
  22 C :   -0.010249
  23 C :   -0.081367
  24 C :   -0.022602
  25 C :   -0.327248
  26 N :    0.210468
  27 C :    0.165115
  28 C :   -0.230905
  29 S :    0.142946
  30 S :    0.202138
  31 C :   -0.217183
  32 C :    0.123472
  33 C :    0.025346
  34 C :   -0.364345
  35 N :    0.238637
  36 C :   -0.133256
  37 S :    0.206769
  38 C :   -0.121631
  39 C :    0.027112
  40 C :   -0.352185
  41 N :    0.226175
  42 C :    0.130541
  43 C :   -0.218284
  44 S :    0.215724
  45 S :    0.212238
  46 C :   -0.211397
  47 C :    0.142593
  48 C :   -0.007458
  49 C :   -0.316099
  50 N :    0.226880
  51 C :   -0.126566
  52 S :    0.204733
  53 C :    0.055316
  54 C :   -0.118948
  55 C :    0.135516
  56 O :   -0.134075
  57 C :    0.020354
  58 C :   -0.081790
  59 C :    0.112208
  60 C :    0.108872
  61 C :   -0.105101
  62 C :    0.244441
  63 C :    0.239049
  64 C :   -0.103714
  65 F :   -0.170735
  66 F :   -0.170144
  67 C :   -0.065814
  68 C :    0.035490
  69 C :    0.263513
  70 C :   -0.303362
  71 C :   -0.189166
  72 N :    0.164782
  73 C :   -0.181117
  74 N :    0.170571
  75 H :    0.022333
  76 H :    0.022636
  77 H :   -0.009714
  78 H :   -0.010468
  79 H :   -0.010806
  80 H :   -0.008680
  81 H :    0.026517
  82 H :    0.149873
  83 H :    0.018578
  84 H :   -0.021201
  85 H :    0.017702
  86 H :    0.029310
  87 H :   -0.007815
  88 H :    0.008577
  89 H :    0.000108
  90 H :    0.006562
Sum of atomic charges:   -0.0000000

LOEWDIN ATOMIC CHARGES
----------------------
   0 C :   -0.074311
   1 C :   -0.138916
   2 C :   -0.029218
   3 C :   -0.026280
   4 C :   -0.179488
   5 S :    0.343607
   6 C :   -0.176900
   7 C :   -0.034743
   8 C :   -0.030980
   9 C :   -0.177280
  10 S :    0.329922
  11 C :   -0.018867
  12 N :    0.050105
  13 C :   -0.093261
  14 S :    0.452655
  15 C :   -0.210939
  16 N :    0.273547
  17 O :   -0.216907
  18 O :   -0.240383
  19 C :    0.011681
  20 C :   -0.114655
  21 C :   -0.016274
  22 C :   -0.044215
  23 C :   -0.122054
  24 C :   -0.102006
  25 C :   -0.042676
  26 N :   -0.035479
  27 C :   -0.062758
  28 C :   -0.330994
  29 S :    0.440853
  30 S :    0.433674
  31 C :   -0.331098
  32 C :   -0.061687
  33 C :   -0.097072
  34 C :   -0.061226
  35 N :   -0.019834
  36 C :   -0.153873
  37 S :    0.501649
  38 C :   -0.149557
  39 C :   -0.098508
  40 C :   -0.060338
  41 N :   -0.023366
  42 C :   -0.060170
  43 C :   -0.327825
  44 S :    0.506995
  45 S :    0.442935
  46 C :   -0.317627
  47 C :   -0.056355
  48 C :   -0.077095
  49 C :   -0.032013
  50 N :   -0.025482
  51 C :   -0.144531
  52 S :    0.481843
  53 C :    0.029286
  54 C :   -0.064662
  55 C :    0.087275
  56 O :   -0.133413
  57 C :   -0.055479
  58 C :    0.032796
  59 C :   -0.008596
  60 C :   -0.003230
  61 C :   -0.027795
  62 C :    0.068123
  63 C :    0.067557
  64 C :   -0.032767
  65 F :   -0.048557
  66 F :   -0.047614
  67 C :    0.024774
  68 C :   -0.014992
  69 C :    0.069817
  70 C :   -0.121293
  71 C :   -0.015292
  72 N :   -0.043747
  73 C :   -0.015834
  74 N :   -0.041028
  75 H :    0.029869
  76 H :    0.026769
  77 H :    0.034420
  78 H :    0.032768
  79 H :    0.033542
  80 H :    0.035118
  81 H :    0.031000
  82 H :    0.084905
  83 H :    0.048538
  84 H :    0.015016
  85 H :    0.043825
  86 H :    0.048682
  87 H :    0.041040
  88 H :    0.048545
  89 H :    0.044970
  90 H :    0.043442

  Mayer bond orders larger than 0.100000
B(  0-C ,  1-C ) :   1.8698 B(  0-C , 75-H ) :   0.9507 B(  0-C , 76-H ) :   0.9420
B(  1-C ,  2-C ) :   1.0768 B(  1-C ,  5-S ) :   1.0054 B(  2-C ,  3-C ) :   1.6703
B(  2-C , 77-H ) :   0.9932 B(  3-C ,  4-C ) :   1.1444 B(  3-C , 78-H ) :   0.9920
B(  4-C ,  5-S ) :   1.0402 B(  4-C ,  6-C ) :   1.5802 B(  6-C ,  7-C ) :   1.1625
B(  6-C , 10-S ) :   1.0298 B(  7-C ,  8-C ) :   1.6376 B(  7-C , 79-H ) :   0.9911
B(  8-C ,  9-C ) :   1.1385 B(  8-C , 80-H ) :   0.9940 B(  9-C , 10-S ) :   1.0087
B(  9-C , 11-C ) :   1.6347 B( 11-C , 12-N ) :   1.1160 B( 11-C , 81-H ) :   0.9592
B( 12-N , 13-C ) :   1.2674 B( 12-N , 82-H ) :   0.9030 B( 13-C , 14-S ) :   1.1337
B( 13-C , 20-C ) :   1.3209 B( 14-S , 15-C ) :   1.0557 B( 15-C , 16-N ) :   0.9821
B( 15-C , 19-C ) :   1.4952 B( 16-N , 17-O ) :   1.5300 B( 16-N , 18-O ) :   1.4985
B( 17-O , 18-O ) :   0.2538 B( 19-C , 20-C ) :   1.2334 B( 19-C , 83-H ) :   1.0011
B( 20-C , 21-C ) :   1.0838 B( 21-C , 22-C ) :   1.6878 B( 21-C , 84-H ) :   0.9653
B( 22-C , 23-C ) :   1.1782 B( 22-C , 85-H ) :   0.9653 B( 23-C , 24-C ) :   1.4908
B( 23-C , 29-S ) :   1.1108 B( 24-C , 25-C ) :   1.1783 B( 24-C , 27-C ) :   1.2388
B( 25-C , 26-N ) :   2.9839 B( 27-C , 28-C ) :   1.4212 B( 27-C , 32-C ) :   1.0625
B( 28-C , 29-S ) :   1.0887 B( 28-C , 30-S ) :   1.0821 B( 30-S , 31-C ) :   1.0905
B( 31-C , 32-C ) :   1.4086 B( 31-C , 37-S ) :   1.0928 B( 32-C , 33-C ) :   1.2713
B( 33-C , 34-C ) :   1.1475 B( 33-C , 36-C ) :   1.4684 B( 34-C , 35-N ) :   2.9645
B( 36-C , 37-S ) :   1.1540 B( 36-C , 38-C ) :   1.2141 B( 38-C , 39-C ) :   1.4690
B( 38-C , 44-S ) :   1.1557 B( 39-C , 40-C ) :   1.1428 B( 39-C , 42-C ) :   1.2681
B( 40-C , 41-N ) :   2.9596 B( 42-C , 43-C ) :   1.4157 B( 42-C , 47-C ) :   1.0760
B( 43-C , 44-S ) :   1.0961 B( 43-C , 45-S ) :   1.0840 B( 45-S , 46-C ) :   1.0920
B( 46-C , 47-C ) :   1.3955 B( 46-C , 52-S ) :   1.1086 B( 47-C , 48-C ) :   1.2861
B( 48-C , 49-C ) :   1.1834 B( 48-C , 51-C ) :   1.4611 B( 49-C , 50-N ) :   2.9567
B( 51-C , 52-S ) :   1.1347 B( 51-C , 53-C ) :   1.1106 B( 53-C , 54-C ) :   1.7210
B( 53-C , 86-H ) :   0.9225 B( 54-C , 55-C ) :   0.9298 B( 54-C , 69-C ) :   1.0195
B( 55-C , 56-O ) :   2.2757 B( 55-C , 57-C ) :   0.9219 B( 57-C , 58-C ) :   1.4638
B( 57-C , 68-C ) :   1.2213 B( 58-C , 59-C ) :   1.1999 B( 58-C , 87-H ) :   1.0167
B( 59-C , 60-C ) :   1.2561 B( 59-C , 64-C ) :   1.1901 B( 60-C , 61-C ) :   1.1908
B( 60-C , 67-C ) :   1.2147 B( 61-C , 62-C ) :   1.4403 B( 61-C , 64-C ) :   0.1087
B( 61-C , 88-H ) :   1.0076 B( 62-C , 63-C ) :   1.1896 B( 62-C , 66-F ) :   1.1355
B( 63-C , 64-C ) :   1.4451 B( 63-C , 65-F ) :   1.1348 B( 64-C , 89-H ) :   1.0069
B( 67-C , 68-C ) :   1.4629 B( 67-C , 90-H ) :   0.9941 B( 68-C , 69-C ) :   0.9974
B( 69-C , 70-C ) :   1.6654 B( 70-C , 71-C ) :   1.1690 B( 70-C , 73-C ) :   1.1382
B( 71-C , 72-N ) :   2.9898 B( 73-C , 74-N ) :   2.9995

-----------------------------------------------------------------------------
         ABSORPTION SPECTRUM VIA TRANSITION ELECTRIC DIPOLE MOMENTS
-----------------------------------------------------------------------------
State   Energy  Wavelength   fosc         T2         TX        TY        TZ
        (cm-1)    (nm)                  (au**2)     (au)      (au)      (au)
-----------------------------------------------------------------------------
   0   18471.7    541.4   1.088816590  19.40543   3.55454   2.03900   1.61652
   1   20462.2    488.7   0.000324345   0.00522   0.04120   0.01228   0.05805
   2   21886.8    456.9   0.673359111  10.12840  -0.91931   0.25700  -3.03599
   3   23294.5    429.3   0.576241459   8.14379  -0.56177   0.29816  -2.78196
   4   24000.2    416.7   0.001776558   0.02437  -0.09467  -0.11576   0.04481
   5   24266.0    412.1   0.045371865   0.61555   0.48677   0.23387   0.56913
   6   25744.7    388.4   0.164480729   2.10330   0.22367  -0.43992  -1.36373
   7   26319.1    380.0   0.037924631   0.47438   0.55856   0.36543   0.16986
   8   27822.9    359.4   0.027255730   0.32250  -0.05846   0.53922  -0.16830
   9   27925.7    358.1   1.407440535  16.59208  -1.35852  -2.35281   3.03493
  10   28565.3    350.1   0.009115311   0.10505   0.18582   0.26042  -0.05201
  11   28858.8    346.5   0.092524031   1.05549  -0.23329  -0.46156   0.88770
  12   29361.3    340.6   0.102486411   1.14912  -0.42070  -0.22004  -0.96110
  13   29470.6    339.3   0.012545900   0.14015  -0.10729  -0.27686  -0.22800
  14   29848.7    335.0   0.012554822   0.13847   0.03978  -0.06021   0.36505
  15   29951.2    333.9   0.366770666   4.03140   0.11477  -0.41491   1.96114
  16   31061.2    321.9   0.000359011   0.00381   0.01506  -0.02856   0.05256
  17   31905.4    313.4   0.006054874   0.06248   0.11027  -0.22203  -0.03196
  18   32292.3    309.7   0.098158648   1.00070   0.01412  -0.35609  -0.93472
  19   32956.8    303.4   0.023141653   0.23117  -0.28683  -0.38268   0.04947
  20   33135.9    301.8   0.630143813   6.26062   0.42698  -0.89296  -2.29803
  21   33646.4    297.2   0.390242624   3.81831  -0.53378   1.18992   1.45515
  22   33776.0    296.1   0.028251360   0.27536   0.36936   0.02511   0.37189
  23   34951.6    286.1   0.000030996   0.00029   0.01173   0.01178  -0.00395
  24   35186.6    284.2   0.007738923   0.07241   0.02032   0.13936   0.22929
  25   35307.0    283.2   0.046303419   0.43175   0.46582   0.22106   0.40730
  26   35682.4    280.3   0.034980454   0.32274  -0.40256  -0.22056  -0.33472
  27   35753.3    279.7   0.044379377   0.40864   0.38574   0.42795   0.27696
  28   35859.0    278.9   0.000213630   0.00196  -0.02729  -0.03359   0.00940
  29   36496.9    274.0   0.023628811   0.21314   0.03794  -0.01064  -0.45998
  30   36569.6    273.5   0.152122437   1.36946  -0.23105  -0.54063  -1.01183
  31   36711.8    272.4   0.038176351   0.34235   0.31660   0.47575  -0.12557
  32   37178.6    269.0   0.021222463   0.18792  -0.06805  -0.04987  -0.42521
  33   37377.7    267.5   0.017822465   0.15698  -0.19227   0.04371   0.34365
  34   37468.2    266.9   0.033418989   0.29363  -0.48992  -0.22927  -0.03242
  35   37901.5    263.8   0.025629815   0.22262  -0.32601  -0.13042  -0.31517
  36   38325.3    260.9   0.000158377   0.00136  -0.00270   0.01356  -0.03420
  37   38481.7    259.9   0.021043017   0.18002   0.00898  -0.00172   0.42419
  38   39292.5    254.5   0.003745758   0.03138  -0.13612  -0.00702   0.11316
  39   39533.9    252.9   0.074272126   0.61849  -0.70611  -0.31513   0.14349
  40   39982.7    250.1   0.194216995   1.59915   1.10383   0.56166   0.25543

FINAL SINGLE POINT ENERGY     -6471.402260838303

DIPOLE MOMENT
-------------
                                X             Y             Z
Electronic contribution:     41.13665      42.07844     -45.88846
Nuclear contribution   :    -43.18119     -43.89891      44.67813
                        -----------------------------------------
Total Dipole Moment    :     -2.04454      -1.82047      -1.21033
                        -----------------------------------------
Magnitude (a.u.)       :      2.99319
Magnitude (Debye)      :      7.60807

Rotational constants in cm-1:     0.001029     0.000211     0.000180
Rotational constants in MHz :    30.849904     6.320445     5.409135

                             ****ORCA TERMINATED NORMALLY****
TOTAL RUN TIME: 0 days 0 hours 8 minutes 30 seconds 969 msec
