                         Program Version 4.2.0 -  RELEASE  -
|  1> # ORCA input file
|  2> # SCF done       -157.153645941589          0.000693816162
|  3> ! CAM-B3LYP def2-SVP def2/J RIJCOSX Grid4 TightSCF
|  4> %maxcore 5000
|  5> %tddft
|  6>     Mode sTDDFT
|  7>     Ethresh 5.0
|  8>     maxcore 5000
|  9> end
| 10>
| 11> %pal
| 12>   nprocs 6
| 13>   end
| 14> * xyz 0 1
| 15>    C       12.77843        -9.14815         4.61307
| 16>    C       12.45705        -8.40958         3.54297
| 17>    C       13.32066        -7.56345         2.76847
| 18>    C       12.71518        -6.94405         1.73318
| 19>    C       11.32947        -7.24394         1.59745
| 20>    S       10.82411        -8.35232         2.86147
| 21>    C       10.46457        -6.77802         0.64193
| 22>    C       10.73742        -5.89344        -0.43412
| 23>    C        9.66554        -5.63530        -1.22042
| 24>    C        8.45751        -6.29112        -0.83209
| 25>    S        8.77758        -7.25702         0.60648
| 26>    C        7.27408        -6.15563        -1.49372
| 27>    C        5.98783        -6.72599        -1.23153
| 28>    C        5.73875        -7.62797        -0.18201
| 29>    C        4.46985        -8.10660         0.02160
| 30>    C        3.41953        -7.74609        -0.84389
| 31>    C        3.65032        -6.86558        -1.89344
| 32>    C        4.91854        -6.35922        -2.07003
| 33>    C        2.22627        -8.45591        -0.44639
| 34>    C        2.52986        -9.24188         0.67902
| 35>    C        3.97477        -9.05357         1.09109
| 36>    C        3.97402        -8.38951         2.48725
| 37>    C        5.34211        -8.11708         3.10071
| 38>    C        4.74225       -10.38371         1.08767
| 39>    C        4.64450       -11.10789        -0.24989
| 40>    C        1.57263       -10.03412         1.26080
| 41>    C        0.28170       -10.07984         0.71091
| 42>    C        0.00312        -9.31264        -0.42918
| 43>    C        0.95388        -8.49354        -1.00176
| 44>    C       -0.74949       -10.91755         1.27371
| 45>    C       -0.77473       -11.36111         2.54815
| 46>    C       -1.72546       -12.26301         3.09914
| 47>    C       -2.72369       -13.00508         2.55015
| 48>    C       -3.28890       -13.89790         3.53891
| 49>    C       -2.65110       -13.75633         4.72507
| 50>    C       -1.72576       -12.57467         4.56598
| 51>    O       -1.26047       -11.88202         5.43843
| 52>    C       -2.75640       -14.49545         5.94803
| 53>    C       -3.88758       -14.99301         6.56470
| 54>    C       -5.31313       -14.94419         6.14938
| 55>    N       -3.49745       -15.55091         7.74480
| 56>    C       -2.14722       -15.43566         7.91510
| 57>    C       -1.46562       -16.00274         9.10770
| 58>    C       -1.63954       -14.79203         6.80674
| 59>    C       -0.26945       -14.46692         6.50865
| 60>    C        0.21150       -14.41963         5.25334
| 61>    C        1.47593       -13.87772         4.85201
| 62>    S        2.18130       -14.39931         3.34232
| 63>    C        3.48147       -13.29763         3.51799
| 64>    C        3.37603       -12.56036         4.66118
| 65>    C        2.22968       -12.88373         5.43103
| 66>    C        1.87360       -12.11861         6.66387
| 67>    C        2.56838       -10.75924         6.65188
| 68>    C        4.06955       -10.94391         6.45520
| 69>    C        4.35872       -11.49238         5.06217
| 70>    N        5.70307       -12.12482         5.00354
| 71>    O        6.08090       -12.75264         5.96156
| 72>    O        6.31267       -11.99854         3.96775
| 73>    H       13.78468        -9.15492         4.99350
| 74>    H       12.05105        -9.75480         5.12013
| 75>    H       14.36028        -7.46096         3.02511
| 76>    H       13.21168        -6.27749         1.05022
| 77>    H       11.71737        -5.47887        -0.59036
| 78>    H        9.68715        -4.98951        -2.08108
| 79>    H        7.31211        -5.49742        -2.35477
| 80>    H        6.54870        -7.95562         0.44656
| 81>    H        2.84985        -6.58488        -2.56208
| 82>    H        5.10746        -5.66779        -2.87941
| 83>    H        3.39804        -9.03340         3.15775
| 84>    H        3.42958        -7.44474         2.40536
| 85>    H        5.93327        -9.02486         3.18887
| 86>    H        5.21221        -7.69661         4.09657
| 87>    H        5.89920        -7.39968         2.50591
| 88>    H        4.33676       -11.02472         1.87237
| 89>    H        5.79235       -10.19841         1.31281
| 90>    H        3.61083       -11.35468        -0.48347
| 91>    H        5.22041       -12.02966        -0.21519
| 92>    H        5.03889       -10.48678        -1.05134
| 93>    H        1.81282       -10.65487         2.11139
| 94>    H       -0.99018        -9.35737        -0.85404
| 95>    H        0.71452        -7.90020        -1.87202
| 96>    H       -1.56385       -11.18023         0.61058
| 97>    H       -0.01724       -11.03426         3.24962
| 98>    H       -3.03690       -12.99802         1.52131
| 99>    H       -4.05240       -14.62030         3.31044
|100>    H       -5.60984       -15.87384         5.66046
|101>    H       -5.46244       -14.12834         5.44683
|102>    H       -5.96149       -14.79212         7.01123
|103>    H       -4.12146       -15.98459         8.40629
|104>    H       -2.02408       -15.77411        10.01516
|105>    H       -0.46600       -15.58780         9.19676
|106>    H       -1.37681       -17.08759         9.02777
|107>    H        0.37237       -14.24180         7.34751
|108>    H       -0.39700       -14.80242         4.44293
|109>    H        4.25650       -13.26437         2.77728
|110>    H        2.19131       -12.67393         7.55203
|111>    H        0.78887       -11.99579         6.70820
|112>    H        2.38159       -10.24295         7.59390
|113>    H        2.16186       -10.14446         5.84601
|114>    H        4.44746       -11.65216         7.19635
|115>    H        4.59412        -9.99559         6.58788
|116>    H        4.37307       -10.69690         4.30928
|117> *
|118>
|119>                          ****END OF INPUT****

CARTESIAN COORDINATES (ANGSTROEM)
---------------------------------
  C     12.778430   -9.148150    4.613070
  C     12.457050   -8.409580    3.542970
  C     13.320660   -7.563450    2.768470
  C     12.715180   -6.944050    1.733180
  C     11.329470   -7.243940    1.597450
  S     10.824110   -8.352320    2.861470
  C     10.464570   -6.778020    0.641930
  C     10.737420   -5.893440   -0.434120
  C      9.665540   -5.635300   -1.220420
  C      8.457510   -6.291120   -0.832090
  S      8.777580   -7.257020    0.606480
  C      7.274080   -6.155630   -1.493720
  C      5.987830   -6.725990   -1.231530
  C      5.738750   -7.627970   -0.182010
  C      4.469850   -8.106600    0.021600
  C      3.419530   -7.746090   -0.843890
  C      3.650320   -6.865580   -1.893440
  C      4.918540   -6.359220   -2.070030
  C      2.226270   -8.455910   -0.446390
  C      2.529860   -9.241880    0.679020
  C      3.974770   -9.053570    1.091090
  C      3.974020   -8.389510    2.487250
  C      5.342110   -8.117080    3.100710
  C      4.742250  -10.383710    1.087670
  C      4.644500  -11.107890   -0.249890
  C      1.572630  -10.034120    1.260800
  C      0.281700  -10.079840    0.710910
  C      0.003120   -9.312640   -0.429180
  C      0.953880   -8.493540   -1.001760
  C     -0.749490  -10.917550    1.273710
  C     -0.774730  -11.361110    2.548150
  C     -1.725460  -12.263010    3.099140
  C     -2.723690  -13.005080    2.550150
  C     -3.288900  -13.897900    3.538910
  C     -2.651100  -13.756330    4.725070
  C     -1.725760  -12.574670    4.565980
  O     -1.260470  -11.882020    5.438430
  C     -2.756400  -14.495450    5.948030
  C     -3.887580  -14.993010    6.564700
  C     -5.313130  -14.944190    6.149380
  N     -3.497450  -15.550910    7.744800
  C     -2.147220  -15.435660    7.915100
  C     -1.465620  -16.002740    9.107700
  C     -1.639540  -14.792030    6.806740
  C     -0.269450  -14.466920    6.508650
  C      0.211500  -14.419630    5.253340
  C      1.475930  -13.877720    4.852010
  S      2.181300  -14.399310    3.342320
  C      3.481470  -13.297630    3.517990
  C      3.376030  -12.560360    4.661180
  C      2.229680  -12.883730    5.431030
  C      1.873600  -12.118610    6.663870
  C      2.568380  -10.759240    6.651880
  C      4.069550  -10.943910    6.455200
  C      4.358720  -11.492380    5.062170
  N      5.703070  -12.124820    5.003540
  O      6.080900  -12.752640    5.961560
  O      6.312670  -11.998540    3.967750
  H     13.784680   -9.154920    4.993500
  H     12.051050   -9.754800    5.120130
  H     14.360280   -7.460960    3.025110
  H     13.211680   -6.277490    1.050220
  H     11.717370   -5.478870   -0.590360
  H      9.687150   -4.989510   -2.081080
  H      7.312110   -5.497420   -2.354770
  H      6.548700   -7.955620    0.446560
  H      2.849850   -6.584880   -2.562080
  H      5.107460   -5.667790   -2.879410
  H      3.398040   -9.033400    3.157750
  H      3.429580   -7.444740    2.405360
  H      5.933270   -9.024860    3.188870
  H      5.212210   -7.696610    4.096570
  H      5.899200   -7.399680    2.505910
  H      4.336760  -11.024720    1.872370
  H      5.792350  -10.198410    1.312810
  H      3.610830  -11.354680   -0.483470
  H      5.220410  -12.029660   -0.215190
  H      5.038890  -10.486780   -1.051340
  H      1.812820  -10.654870    2.111390
  H     -0.990180   -9.357370   -0.854040
  H      0.714520   -7.900200   -1.872020
  H     -1.563850  -11.180230    0.610580
  H     -0.017240  -11.034260    3.249620
  H     -3.036900  -12.998020    1.521310
  H     -4.052400  -14.620300    3.310440
  H     -5.609840  -15.873840    5.660460
  H     -5.462440  -14.128340    5.446830
  H     -5.961490  -14.792120    7.011230
  H     -4.121460  -15.984590    8.406290
  H     -2.024080  -15.774110   10.015160
  H     -0.466000  -15.587800    9.196760
  H     -1.376810  -17.087590    9.027770
  H      0.372370  -14.241800    7.347510
  H     -0.397000  -14.802420    4.442930
  H      4.256500  -13.264370    2.777280
  H      2.191310  -12.673930    7.552030
  H      0.788870  -11.995790    6.708200
  H      2.381590  -10.242950    7.593900
  H      2.161860  -10.144460    5.846010
  H      4.447460  -11.652160    7.196350
  H      4.594120   -9.995590    6.587880
  H      4.373070  -10.696900    4.309280

 Total Charge           Charge          ....    0
 Multiplicity           Mult            ....    1
 Number of Electrons    NEL             ....  430
 Basis Dimension        Dim             .... 1044

ORBITAL ENERGIES
----------------

  NO   OCC          E(Eh)            E(eV)
   0   2.0000     -88.940481     -2420.1935
   1   2.0000     -88.933596     -2420.0062
   2   2.0000     -88.926333     -2419.8085
   3   2.0000     -19.231944      -523.3278
   4   2.0000     -19.231616      -523.3189
   5   2.0000     -19.211946      -522.7836
   6   2.0000     -14.627676      -398.0393
   7   2.0000     -14.453236      -393.2925
   8   2.0000     -10.349383      -281.6210
   9   2.0000     -10.317213      -280.7456
  10   2.0000     -10.298163      -280.2273
  11   2.0000     -10.296708      -280.1877
  12   2.0000     -10.295484      -280.1544
  13   2.0000     -10.294546      -280.1288
  14   2.0000     -10.292755      -280.0801
  15   2.0000     -10.289558      -279.9931
  16   2.0000     -10.281403      -279.7712
  17   2.0000     -10.280772      -279.7540
  18   2.0000     -10.279612      -279.7224
  19   2.0000     -10.275444      -279.6091
  20   2.0000     -10.274990      -279.5967
  21   2.0000     -10.274428      -279.5814
  22   2.0000     -10.273638      -279.5599
  23   2.0000     -10.272658      -279.5332
  24   2.0000     -10.271802      -279.5099
  25   2.0000     -10.271003      -279.4882
  26   2.0000     -10.270968      -279.4872
  27   2.0000     -10.269379      -279.4440
  28   2.0000     -10.267269      -279.3866
  29   2.0000     -10.266503      -279.3657
  30   2.0000     -10.265101      -279.3276
  31   2.0000     -10.264658      -279.3155
  32   2.0000     -10.263856      -279.2937
  33   2.0000     -10.262610      -279.2598
  34   2.0000     -10.261979      -279.2426
  35   2.0000     -10.261024      -279.2167
  36   2.0000     -10.260906      -279.2135
  37   2.0000     -10.259333      -279.1706
  38   2.0000     -10.258991      -279.1613
  39   2.0000     -10.258940      -279.1599
  40   2.0000     -10.258885      -279.1585
  41   2.0000     -10.258778      -279.1555
  42   2.0000     -10.258684      -279.1530
  43   2.0000     -10.258433      -279.1462
  44   2.0000     -10.257982      -279.1339
  45   2.0000     -10.256845      -279.1030
  46   2.0000     -10.256580      -279.0957
  47   2.0000     -10.255648      -279.0704
  48   2.0000     -10.255000      -279.0527
  49   2.0000     -10.254927      -279.0507
  50   2.0000     -10.254318      -279.0342
  51   2.0000     -10.253769      -279.0192
  52   2.0000     -10.253075      -279.0004
  53   2.0000     -10.250919      -278.9417
  54   2.0000     -10.248076      -278.8643
  55   2.0000     -10.246201      -278.8133
  56   2.0000     -10.238891      -278.6144
  57   2.0000     -10.232157      -278.4311
  58   2.0000      -8.036336      -218.6798
  59   2.0000      -8.028978      -218.4796
  60   2.0000      -8.023103      -218.3197
  61   2.0000      -6.005533      -163.4189
  62   2.0000      -6.001350      -163.3050
  63   2.0000      -5.998813      -163.2360
  64   2.0000      -5.998703      -163.2330
  65   2.0000      -5.994806      -163.1270
  66   2.0000      -5.992967      -163.0769
  67   2.0000      -5.989808      -162.9909
  68   2.0000      -5.989018      -162.9695
  69   2.0000      -5.983550      -162.8207
  70   2.0000      -1.311134       -35.6778
  71   2.0000      -1.131496       -30.7896
  72   2.0000      -1.122529       -30.5456
  73   2.0000      -1.069672       -29.1073
  74   2.0000      -0.980631       -26.6843
  75   2.0000      -0.978902       -26.6373
  76   2.0000      -0.973650       -26.4944
  77   2.0000      -0.957504       -26.0550
  78   2.0000      -0.952121       -25.9085
  79   2.0000      -0.932182       -25.3660
  80   2.0000      -0.927075       -25.2270
  81   2.0000      -0.907266       -24.6880
  82   2.0000      -0.897233       -24.4150
  83   2.0000      -0.881266       -23.9805
  84   2.0000      -0.877295       -23.8724
  85   2.0000      -0.873330       -23.7645
  86   2.0000      -0.868954       -23.6454
  87   2.0000      -0.854823       -23.2609
  88   2.0000      -0.845362       -23.0035
  89   2.0000      -0.835023       -22.7221
  90   2.0000      -0.832673       -22.6582
  91   2.0000      -0.823329       -22.4039
  92   2.0000      -0.818753       -22.2794
  93   2.0000      -0.817660       -22.2496
  94   2.0000      -0.815748       -22.1976
  95   2.0000      -0.813039       -22.1239
  96   2.0000      -0.810650       -22.0589
  97   2.0000      -0.802749       -21.8439
  98   2.0000      -0.786651       -21.4059
  99   2.0000      -0.777585       -21.1592
 100   2.0000      -0.762536       -20.7497
 101   2.0000      -0.751915       -20.4606
 102   2.0000      -0.750809       -20.4305
 103   2.0000      -0.746473       -20.3126
 104   2.0000      -0.725021       -19.7288
 105   2.0000      -0.721121       -19.6227
 106   2.0000      -0.700478       -19.0610
 107   2.0000      -0.698683       -19.0121
 108   2.0000      -0.686782       -18.6883
 109   2.0000      -0.679171       -18.4812
 110   2.0000      -0.676675       -18.4133
 111   2.0000      -0.673425       -18.3248
 112   2.0000      -0.671177       -18.2637
 113   2.0000      -0.664939       -18.0939
 114   2.0000      -0.660665       -17.9776
 115   2.0000      -0.655735       -17.8435
 116   2.0000      -0.641407       -17.4536
 117   2.0000      -0.632054       -17.1991
 118   2.0000      -0.627729       -17.0814
 119   2.0000      -0.624827       -17.0024
 120   2.0000      -0.617874       -16.8132
 121   2.0000      -0.616828       -16.7847
 122   2.0000      -0.608098       -16.5472
 123   2.0000      -0.605180       -16.4678
 124   2.0000      -0.595244       -16.1974
 125   2.0000      -0.594831       -16.1862
 126   2.0000      -0.589543       -16.0423
 127   2.0000      -0.586840       -15.9687
 128   2.0000      -0.579091       -15.7579
 129   2.0000      -0.578368       -15.7382
 130   2.0000      -0.574032       -15.6202
 131   2.0000      -0.569239       -15.4898
 132   2.0000      -0.566154       -15.4058
 133   2.0000      -0.555253       -15.1092
 134   2.0000      -0.552831       -15.0433
 135   2.0000      -0.547714       -14.9041
 136   2.0000      -0.534149       -14.5349
 137   2.0000      -0.531725       -14.4690
 138   2.0000      -0.528275       -14.3751
 139   2.0000      -0.522082       -14.2066
 140   2.0000      -0.519762       -14.1434
 141   2.0000      -0.517500       -14.0819
 142   2.0000      -0.515428       -14.0255
 143   2.0000      -0.513397       -13.9702
 144   2.0000      -0.510306       -13.8861
 145   2.0000      -0.509684       -13.8692
 146   2.0000      -0.505250       -13.7485
 147   2.0000      -0.502867       -13.6837
 148   2.0000      -0.501760       -13.6536
 149   2.0000      -0.500212       -13.6115
 150   2.0000      -0.498922       -13.5763
 151   2.0000      -0.497224       -13.5302
 152   2.0000      -0.491099       -13.3635
 153   2.0000      -0.490156       -13.3378
 154   2.0000      -0.488485       -13.2923
 155   2.0000      -0.487373       -13.2621
 156   2.0000      -0.484923       -13.1954
 157   2.0000      -0.483641       -13.1605
 158   2.0000      -0.480911       -13.0862
 159   2.0000      -0.477390       -12.9904
 160   2.0000      -0.474289       -12.9060
 161   2.0000      -0.472961       -12.8699
 162   2.0000      -0.469439       -12.7741
 163   2.0000      -0.468610       -12.7515
 164   2.0000      -0.463201       -12.6044
 165   2.0000      -0.460823       -12.5396
 166   2.0000      -0.458296       -12.4709
 167   2.0000      -0.456837       -12.4312
 168   2.0000      -0.454027       -12.3547
 169   2.0000      -0.449363       -12.2278
 170   2.0000      -0.448514       -12.2047
 171   2.0000      -0.445393       -12.1198
 172   2.0000      -0.442314       -12.0360
 173   2.0000      -0.438226       -11.9247
 174   2.0000      -0.436057       -11.8657
 175   2.0000      -0.435600       -11.8533
 176   2.0000      -0.431311       -11.7366
 177   2.0000      -0.428139       -11.6503
 178   2.0000      -0.424940       -11.5632
 179   2.0000      -0.421048       -11.4573
 180   2.0000      -0.418703       -11.3935
 181   2.0000      -0.415578       -11.3085
 182   2.0000      -0.415183       -11.2977
 183   2.0000      -0.413891       -11.2626
 184   2.0000      -0.408764       -11.1230
 185   2.0000      -0.405830       -11.0432
 186   2.0000      -0.405441       -11.0326
 187   2.0000      -0.402705       -10.9582
 188   2.0000      -0.399106       -10.8602
 189   2.0000      -0.395878       -10.7724
 190   2.0000      -0.390708       -10.6317
 191   2.0000      -0.388045       -10.5592
 192   2.0000      -0.381115       -10.3707
 193   2.0000      -0.378555       -10.3010
 194   2.0000      -0.371959       -10.1215
 195   2.0000      -0.370690       -10.0870
 196   2.0000      -0.369031       -10.0419
 197   2.0000      -0.364310        -9.9134
 198   2.0000      -0.363136        -9.8814
 199   2.0000      -0.358305        -9.7500
 200   2.0000      -0.352617        -9.5952
 201   2.0000      -0.346268        -9.4224
 202   2.0000      -0.327281        -8.9058
 203   2.0000      -0.326630        -8.8880
 204   2.0000      -0.320493        -8.7211
 205   2.0000      -0.313730        -8.5370
 206   2.0000      -0.307681        -8.3724
 207   2.0000      -0.304901        -8.2968
 208   2.0000      -0.300911        -8.1882
 209   2.0000      -0.299295        -8.1442
 210   2.0000      -0.286186        -7.7875
 211   2.0000      -0.265137        -7.2147
 212   2.0000      -0.239159        -6.5078
 213   2.0000      -0.231670        -6.3041
 214   2.0000      -0.206114        -5.6086
 215   0.0000      -0.062789        -1.7086
 216   0.0000      -0.050803        -1.3824
 217   0.0000      -0.003166        -0.0862
 218   0.0000      -0.001987        -0.0541
 219   0.0000      -0.001060        -0.0289

MULLIKEN ATOMIC CHARGES
-----------------------
   0 C :   -0.033128
   1 C :   -0.061549
   2 C :    0.049431
   3 C :    0.029527
   4 C :   -0.068135
   5 S :    0.080839
   6 C :   -0.030726
   7 C :    0.031265
   8 C :    0.033030
   9 C :   -0.002232
  10 S :    0.036450
  11 C :   -0.050322
  12 C :    0.124131
  13 C :   -0.102271
  14 C :    0.021587
  15 C :    0.095613
  16 C :   -0.049479
  17 C :   -0.022596
  18 C :    0.099316
  19 C :    0.020587
  20 C :   -0.135514
  21 C :    0.067198
  22 C :    0.028196
  23 C :    0.048250
  24 C :    0.024148
  25 C :   -0.098888
  26 C :    0.123179
  27 C :   -0.018025
  28 C :   -0.049464
  29 C :   -0.011830
  30 C :    0.032720
  31 C :    0.019309
  32 C :   -0.028802
  33 C :   -0.025235
  34 C :   -0.078362
  35 C :    0.109792
  36 O :   -0.134520
  37 C :    0.094868
  38 C :   -0.166539
  39 C :    0.126197
  40 N :   -0.039433
  41 C :   -0.167135
  42 C :    0.137562
  43 C :    0.054074
  44 C :   -0.036490
  45 C :    0.014891
  46 C :   -0.188254
  47 S :    0.126492
  48 C :   -0.122756
  49 C :   -0.076134
  50 C :   -0.033917
  51 C :    0.109819
  52 C :    0.014196
  53 C :    0.056748
  54 C :    0.153227
  55 N :    0.194762
  56 O :   -0.224285
  57 O :   -0.236385
  58 H :    0.016664
  59 H :    0.023490
  60 H :   -0.014147
  61 H :   -0.013847
  62 H :   -0.019227
  63 H :   -0.016122
  64 H :   -0.028756
  65 H :   -0.020487
  66 H :   -0.039619
  67 H :   -0.032798
  68 H :   -0.007908
  69 H :   -0.000636
  70 H :    0.018717
  71 H :    0.005229
  72 H :    0.016163
  73 H :   -0.010283
  74 H :    0.022865
  75 H :    0.018281
  76 H :    0.007919
  77 H :    0.019026
  78 H :   -0.033903
  79 H :   -0.035493
  80 H :   -0.040496
  81 H :   -0.026570
  82 H :   -0.009772
  83 H :   -0.017201
  84 H :   -0.026462
  85 H :    0.027396
  86 H :    0.026335
  87 H :    0.006825
  88 H :    0.109500
  89 H :    0.010339
  90 H :    0.013983
  91 H :    0.030614
  92 H :   -0.012146
  93 H :    0.000221
  94 H :    0.040093
  95 H :    0.013094
  96 H :    0.042898
  97 H :    0.003137
  98 H :    0.014324
  99 H :    0.026168
 100 H :    0.009223
 101 H :    0.018373
Sum of atomic charges:   -0.0000000

LOEWDIN ATOMIC CHARGES
----------------------
   0 C :   -0.079696
   1 C :   -0.139508
   2 C :   -0.033579
   3 C :   -0.027149
   4 C :   -0.179015
   5 S :    0.349619
   6 C :   -0.181328
   7 C :   -0.039059
   8 C :   -0.030090
   9 C :   -0.146405
  10 S :    0.373494
  11 C :   -0.051463
  12 C :   -0.029376
  13 C :   -0.028667
  14 C :    0.005680
  15 C :   -0.016139
  16 C :   -0.023839
  17 C :   -0.017350
  18 C :   -0.019583
  19 C :    0.007000
  20 C :   -0.032854
  21 C :   -0.012405
  22 C :   -0.063300
  23 C :   -0.015434
  24 C :   -0.055993
  25 C :   -0.018849
  26 C :   -0.023817
  27 C :   -0.022043
  28 C :   -0.021713
  29 C :   -0.008905
  30 C :   -0.023063
  31 C :   -0.074241
  32 C :    0.005634
  33 C :   -0.025173
  34 C :   -0.049431
  35 C :    0.113932
  36 O :   -0.106814
  37 C :   -0.074750
  38 C :   -0.011423
  39 C :   -0.055103
  40 N :    0.089016
  41 C :   -0.019089
  42 C :   -0.052733
  43 C :   -0.071407
  44 C :   -0.002458
  45 C :   -0.061610
  46 C :   -0.175789
  47 S :    0.440631
  48 C :   -0.189610
  49 C :   -0.084940
  50 C :   -0.053880
  51 C :   -0.029202
  52 C :   -0.023375
  53 C :   -0.031832
  54 C :    0.017630
  55 N :    0.278599
  56 O :   -0.194046
  57 O :   -0.207652
  58 H :    0.027276
  59 H :    0.026804
  60 H :    0.032194
  61 H :    0.031293
  62 H :    0.029796
  63 H :    0.031593
  64 H :    0.031410
  65 H :    0.006950
  66 H :    0.025393
  67 H :    0.024109
  68 H :    0.013529
  69 H :    0.026939
  70 H :    0.020998
  71 H :    0.024785
  72 H :    0.024127
  73 H :    0.017558
  74 H :    0.024936
  75 H :    0.023709
  76 H :    0.023241
  77 H :    0.025239
  78 H :    0.024763
  79 H :    0.023763
  80 H :    0.024760
  81 H :    0.023225
  82 H :    0.029372
  83 H :    0.023881
  84 H :    0.022449
  85 H :    0.034559
  86 H :    0.040754
  87 H :    0.030066
  88 H :    0.085283
  89 H :    0.030696
  90 H :    0.039707
  91 H :    0.036175
  92 H :    0.026149
  93 H :    0.029873
  94 H :    0.023823
  95 H :    0.027619
  96 H :    0.039100
  97 H :    0.027718
  98 H :    0.023875
  99 H :    0.029841
 100 H :    0.027967
 101 H :    0.036652

  Mayer bond orders larger than 0.100000
B(  0-C ,  1-C ) :   1.8661 B(  0-C , 58-H ) :   0.9507 B(  0-C , 59-H ) :   0.9418
B(  1-C ,  2-C ) :   1.0776 B(  1-C ,  5-S ) :   1.0084 B(  2-C ,  3-C ) :   1.6663
B(  2-C , 60-H ) :   0.9927 B(  3-C ,  4-C ) :   1.1451 B(  3-C , 61-H ) :   0.9920
B(  4-C ,  5-S ) :   1.0397 B(  4-C ,  6-C ) :   1.5743 B(  6-C ,  7-C ) :   1.1566
B(  6-C , 10-S ) :   1.0297 B(  7-C ,  8-C ) :   1.6264 B(  7-C , 62-H ) :   0.9907
B(  8-C ,  9-C ) :   1.1176 B(  8-C , 63-H ) :   0.9991 B(  9-C , 10-S ) :   1.0216
B(  9-C , 11-C ) :   1.6131 B( 11-C , 12-C ) :   1.0989 B( 11-C , 64-H ) :   0.9695
B( 12-C , 13-C ) :   1.2774 B( 12-C , 17-C ) :   1.3149 B( 13-C , 14-C ) :   1.4452
B( 13-C , 65-H ) :   0.9736 B( 14-C , 15-C ) :   1.3708 B( 14-C , 20-C ) :   0.9200
B( 15-C , 16-C ) :   1.3283 B( 15-C , 18-C ) :   0.9983 B( 16-C , 17-C ) :   1.3896
B( 16-C , 66-H ) :   0.9902 B( 17-C , 67-H ) :   0.9936 B( 18-C , 19-C ) :   1.3680
B( 18-C , 28-C ) :   1.3369 B( 19-C , 20-C ) :   0.9181 B( 19-C , 25-C ) :   1.4033
B( 20-C , 21-C ) :   1.0166 B( 20-C , 23-C ) :   1.0320 B( 21-C , 22-C ) :   1.1096
B( 21-C , 68-H ) :   0.9348 B( 21-C , 69-H ) :   0.9310 B( 22-C , 70-H ) :   0.9579
B( 22-C , 71-H ) :   0.9591 B( 22-C , 72-H ) :   0.9542 B( 23-C , 24-C ) :   1.1055
B( 23-C , 73-H ) :   0.9318 B( 23-C , 74-H ) :   0.9363 B( 24-C , 75-H ) :   0.9625
B( 24-C , 76-H ) :   0.9642 B( 24-C , 77-H ) :   0.9642 B( 25-C , 26-C ) :   1.3030
B( 25-C , 78-H ) :   0.9958 B( 26-C , 27-C ) :   1.3347 B( 26-C , 29-C ) :   1.0542
B( 27-C , 28-C ) :   1.3770 B( 27-C , 79-H ) :   0.9930 B( 28-C , 80-H ) :   0.9920
B( 29-C , 30-C ) :   1.6864 B( 29-C , 81-H ) :   0.9784 B( 30-C , 31-C ) :   1.1119
B( 30-C , 82-H ) :   0.9623 B( 31-C , 32-C ) :   1.6635 B( 31-C , 35-C ) :   0.9152
B( 32-C , 33-C ) :   1.0093 B( 32-C , 83-H ) :   1.0025 B( 33-C , 34-C ) :   1.7089
B( 33-C , 84-H ) :   1.0116 B( 34-C , 35-C ) :   0.9213 B( 34-C , 37-C ) :   0.9796
B( 35-C , 36-O ) :   2.1813 B( 37-C , 38-C ) :   1.4804 B( 37-C , 43-C ) :   1.2516
B( 38-C , 39-C ) :   1.1142 B( 38-C , 40-N ) :   1.2217 B( 39-C , 85-H ) :   0.9425
B( 39-C , 86-H ) :   0.9372 B( 39-C , 87-H ) :   0.9403 B( 40-N , 41-C ) :   1.2091
B( 40-N , 88-H ) :   0.9398 B( 41-C , 42-C ) :   1.1124 B( 41-C , 43-C ) :   1.4596
B( 42-C , 89-H ) :   0.9411 B( 42-C , 90-H ) :   0.9396 B( 42-C , 91-H ) :   0.9446
B( 43-C , 44-C ) :   1.0805 B( 44-C , 45-C ) :   1.7611 B( 44-C , 92-H ) :   0.9607
B( 45-C , 46-C ) :   1.0815 B( 45-C , 93-H ) :   0.9377 B( 46-C , 47-S ) :   1.1340
B( 46-C , 50-C ) :   1.5499 B( 47-S , 48-C ) :   1.1662 B( 48-C , 49-C ) :   1.5703
B( 48-C , 94-H ) :   0.9531 B( 49-C , 50-C ) :   1.3082 B( 49-C , 54-C ) :   0.9788
B( 50-C , 51-C ) :   1.0570 B( 51-C , 52-C ) :   1.0788 B( 51-C , 95-H ) :   0.9033
B( 51-C , 96-H ) :   0.9035 B( 52-C , 53-C ) :   1.0783 B( 52-C , 97-H ) :   0.9303
B( 52-C , 98-H ) :   0.9463 B( 53-C , 54-C ) :   1.0620 B( 53-C , 99-H ) :   0.9139
B( 53-C ,100-H ) :   0.9308 B( 54-C , 55-N ) :   0.8297 B( 54-C ,101-H ) :   0.8843
B( 55-N , 56-O ) :   1.5891 B( 55-N , 57-O ) :   1.5431 B( 56-O , 57-O ) :   0.2652

-----------------------------------------------------------------------------
         ABSORPTION SPECTRUM VIA TRANSITION ELECTRIC DIPOLE MOMENTS
-----------------------------------------------------------------------------
State   Energy  Wavelength   fosc         T2         TX        TY        TZ
        (cm-1)    (nm)                  (au**2)     (au)      (au)      (au)
-----------------------------------------------------------------------------
   0   16901.7    591.7   0.466281228   9.08226   2.40259   1.51128  -1.01285
   1   18896.7    529.2   0.105493645   1.83787   1.33877   0.10645   0.18502
   2   19896.6    502.6   1.250119108  20.68469  -3.93735   0.49099  -2.22282
   3   22904.0    436.6   0.049060873   0.70518  -0.54650   0.30305  -0.56096
   4   25479.7    392.5   0.022423924   0.28973   0.34720   0.33290  -0.24157
   5   27800.2    359.7   0.371097949   4.39457  -0.67532  -1.33612   1.46741
   6   28824.4    346.9   0.048538718   0.55438   0.22374  -0.36814   0.60728
   7   30174.9    331.4   0.270149768   2.94736  -0.66378  -1.12980   1.10920
   8   30974.4    322.8   0.072554454   0.77115  -0.83702  -0.22001   0.14879
   9   31300.4    319.5   0.000134952   0.00142  -0.02408  -0.02880   0.00322
  10   31473.1    317.7   0.028987197   0.30321  -0.15890  -0.33586   0.40640
  11   32619.6    306.6   0.142288523   1.43604   0.82396   0.65187  -0.57636
  12   33170.3    301.5   0.055259134   0.54844  -0.68825  -0.24619   0.11895
  13   33601.8    297.6   0.158722357   1.55508  -0.65921  -0.79455   0.69943
  14   34293.3    291.6   0.029681983   0.28494   0.28349   0.23534  -0.38625
  15   34541.0    289.5   0.278747931   2.65676  -1.33028  -0.49908   0.79878
  16   34758.0    287.7   0.024563631   0.23266   0.36971  -0.04179  -0.30696
  17   35016.9    285.6   0.611812840   5.75197   1.60314   1.05147  -1.44094
  18   35286.6    283.4   0.086144291   0.80370   0.78148   0.33699  -0.28184
  19   35394.4    282.5   0.010159033   0.09449   0.09896   0.18918  -0.22116
  20   35567.1    281.2   0.005661374   0.05240  -0.22431  -0.03500  -0.02934
  21   36123.0    276.8   0.006849575   0.06242   0.20223   0.00174  -0.14671
  22   36810.7    271.7   0.057764860   0.51661   0.40099   0.26935  -0.53223
  23   37103.4    269.5   0.062725019   0.55655   0.67803   0.29721  -0.09214
  24   37215.6    268.7   0.006245847   0.05525   0.18979   0.07069  -0.11931
  25   37971.8    263.4   0.006207247   0.05382  -0.12978  -0.18649  -0.04686
  26   39065.7    256.0   0.004511225   0.03802   0.17403   0.07813  -0.04031
  27   39977.8    250.1   0.034641138   0.28527  -0.34756   0.13279  -0.38319

FINAL SINGLE POINT ENERGY     -3458.157330700778

DIPOLE MOMENT
-------------
                                X             Y             Z
Electronic contribution:     19.34772       3.66098     -14.40062
Nuclear contribution   :    -21.35124      -4.03522      15.00797
                        -----------------------------------------
Total Dipole Moment    :     -2.00352      -0.37424       0.60735
                        -----------------------------------------
Magnitude (a.u.)       :      2.12674
Magnitude (Debye)      :      5.40573

Rotational constants in cm-1:     0.002491     0.000627     0.000523
Rotational constants in MHz :    74.687577    18.800066    15.668784

                             ****ORCA TERMINATED NORMALLY****
TOTAL RUN TIME: 0 days 0 hours 9 minutes 23 seconds 27 msec
