                         Program Version 4.2.0 -  RELEASE  -
|  1> # ORCA input file
|  2> # SCF done       -197.161032157592          0.000863673806
|  3> ! CAM-B3LYP def2-SVP def2/J RIJCOSX Grid4 TightSCF
|  4> %maxcore 5000
|  5> %tddft
|  6>     Mode sTDDFT
|  7>     Ethresh 5.0
|  8>     maxcore 5000
|  9> end
| 10>
| 11> %pal
| 12>   nprocs 6
| 13>   end
| 14> * xyz 0 1
| 15>    C       -2.70090        -0.56097        -0.28020
| 16>    C       -3.02768        -0.52283        -1.71310
| 17>    O       -3.53088        -1.39802        -2.39169
| 18>    C       -2.55840         0.79176        -2.18356
| 19>    C       -2.03577         1.52804        -1.10136
| 20>    C       -2.24384         0.75720         0.12850
| 21>    C       -2.21806         1.20881         1.42668
| 22>    C       -1.52395         2.39953         1.95434
| 23>    O       -0.66853         3.07393         1.41727
| 24>    C       -1.98201         2.56472         3.35399
| 25>    C       -2.87327         1.54049         3.67958
| 26>    C       -3.03736         0.63059         2.52223
| 27>    O       -3.77303        -0.33353         2.49120
| 28>    C       -3.45131         1.47025         4.93332
| 29>    C       -3.11094         2.44480         5.86237
| 30>    C       -2.21994         3.46005         5.54073
| 31>    C       -1.64130         3.53226         4.28012
| 32>    C       -1.51604         2.79111        -1.33974
| 33>    C       -1.53446         3.29027        -2.63623
| 34>    C       -2.06111         2.56002        -3.69087
| 35>    C       -2.58140         1.29258        -3.46996
| 36>    C       -2.60450        -1.69046         0.48482
| 37>    C       -2.99435        -3.01253         0.19892
| 38>    C       -2.76235        -4.05655         1.09802
| 39>    C       -3.24246        -5.26730         0.63735
| 40>    C       -3.86054        -5.17254        -0.62532
| 41>    S       -3.83176        -3.55979        -1.24310
| 42>    C       -4.32525        -6.39075        -1.10418
| 43>    C       -4.07711        -7.43185        -0.22097
| 44>    S       -3.25909        -6.89472         1.23437
| 45>    C       -4.39300        -8.80445        -0.41826
| 46>    C       -4.07386        -9.78752         0.54426
| 47>    C       -4.32186       -11.18476         0.33428
| 48>    N       -4.00170       -12.06349         1.30497
| 49>    C       -3.46988       -11.64128         2.40457
| 50>    C       -3.20706       -10.26098         2.60552
| 51>    N       -3.50755        -9.38857         1.70026
| 52>    F       -2.65476        -9.82686         3.73460
| 53>    F       -3.19324       -12.53756         3.34838
| 54>    C       -4.90260       -11.68539        -0.85053
| 55>    C       -5.27421       -10.70350        -1.79928
| 56>    C       -5.02155        -9.29355        -1.58973
| 57>    N       -5.44533        -8.56522        -2.62339
| 58>    S       -6.08726        -9.52901        -3.73094
| 59>    N       -5.86689       -10.92472        -2.97364
| 60>    C       -5.08655       -13.08002        -1.05982
| 61>    C       -5.76247       -13.68155        -2.10873
| 62>    C       -5.76819       -15.06713        -1.99380
| 63>    C       -5.07279       -15.54311        -0.86929
| 64>    S       -4.42324       -14.24839         0.07058
| 65>    C       -5.16863       -16.92105        -0.69694
| 66>    C       -5.94566       -17.51192        -1.67304
| 67>    S       -6.50159       -16.36066        -2.86891
| 68>    C       -6.43118       -18.85012        -1.72595
| 69>    C       -6.75005       -19.63308        -0.66753
| 70>    C       -6.94542       -21.09462        -0.87180
| 71>    O       -7.12091       -21.66631        -1.92250
| 72>    C       -6.79701       -21.68038         0.47153
| 73>    C       -6.62387       -20.65808         1.42910
| 74>    C       -6.75174       -19.36018         0.76794
| 75>    C       -6.99755       -18.13006         1.32094
| 76>    C       -6.58126       -17.62030         2.64519
| 77>    O       -6.09305       -18.22234         3.57728
| 78>    C       -6.76008       -16.14826         2.58186
| 79>    C       -7.40144       -15.79445         1.39256
| 80>    C       -7.64434       -17.01130         0.58801
| 81>    O       -8.32534       -17.08236        -0.41281
| 82>    C       -7.67161       -14.47215         1.09419
| 83>    C       -7.26125       -13.50321         2.00011
| 84>    C       -6.61522       -13.85379         3.17763
| 85>    C       -6.35899       -15.18319         3.48645
| 86>    C       -6.46800       -21.00527         2.76401
| 87>    C       -6.47679       -22.34899         3.11172
| 88>    C       -6.64918       -23.34621         2.16213
| 89>    C       -6.81294       -23.01608         0.82496
| 90>    H       -4.13932         0.67446         5.17425
| 91>    H       -3.54124         2.41050         6.85224
| 92>    H       -1.97423         4.20490         6.28310
| 93>    H       -0.95040         4.31938         4.01973
| 94>    H       -1.07902         3.37217        -0.54521
| 95>    H       -1.12441         4.27170        -2.82348
| 96>    H       -2.06359         2.97778        -4.68647
| 97>    H       -2.99902         0.70206        -4.27108
| 98>    H       -2.12888        -1.58728         1.45209
| 99>    H       -2.26919        -3.90999         2.04160
|100>    H       -4.82001        -6.53755        -2.04529
|101>    H       -6.23184       -13.11972        -2.89365
|102>    H       -4.69356       -17.46935         0.09579
|103>    H       -6.58546       -19.28484        -2.70781
|104>    H       -8.16604       -14.20922         0.17126
|105>    H       -7.44166       -12.46057         1.78148
|106>    H       -6.30714       -13.08089         3.86561
|107>    H       -5.85828       -15.46247         4.40020
|108>    H       -6.32328       -20.25036         3.51827
|109>    H       -6.34921       -22.62168         4.14885
|110>    H       -6.66025       -24.38218         2.46673
|111>    H       -6.95739       -23.77128         0.06752
|112> *
|113>
|114>                          ****END OF INPUT****

CARTESIAN COORDINATES (ANGSTROEM)
---------------------------------
  C     -2.700900   -0.560970   -0.280200
  C     -3.027680   -0.522830   -1.713100
  O     -3.530880   -1.398020   -2.391690
  C     -2.558400    0.791760   -2.183560
  C     -2.035770    1.528040   -1.101360
  C     -2.243840    0.757200    0.128500
  C     -2.218060    1.208810    1.426680
  C     -1.523950    2.399530    1.954340
  O     -0.668530    3.073930    1.417270
  C     -1.982010    2.564720    3.353990
  C     -2.873270    1.540490    3.679580
  C     -3.037360    0.630590    2.522230
  O     -3.773030   -0.333530    2.491200
  C     -3.451310    1.470250    4.933320
  C     -3.110940    2.444800    5.862370
  C     -2.219940    3.460050    5.540730
  C     -1.641300    3.532260    4.280120
  C     -1.516040    2.791110   -1.339740
  C     -1.534460    3.290270   -2.636230
  C     -2.061110    2.560020   -3.690870
  C     -2.581400    1.292580   -3.469960
  C     -2.604500   -1.690460    0.484820
  C     -2.994350   -3.012530    0.198920
  C     -2.762350   -4.056550    1.098020
  C     -3.242460   -5.267300    0.637350
  C     -3.860540   -5.172540   -0.625320
  S     -3.831760   -3.559790   -1.243100
  C     -4.325250   -6.390750   -1.104180
  C     -4.077110   -7.431850   -0.220970
  S     -3.259090   -6.894720    1.234370
  C     -4.393000   -8.804450   -0.418260
  C     -4.073860   -9.787520    0.544260
  C     -4.321860  -11.184760    0.334280
  N     -4.001700  -12.063490    1.304970
  C     -3.469880  -11.641280    2.404570
  C     -3.207060  -10.260980    2.605520
  N     -3.507550   -9.388570    1.700260
  F     -2.654760   -9.826860    3.734600
  F     -3.193240  -12.537560    3.348380
  C     -4.902600  -11.685390   -0.850530
  C     -5.274210  -10.703500   -1.799280
  C     -5.021550   -9.293550   -1.589730
  N     -5.445330   -8.565220   -2.623390
  S     -6.087260   -9.529010   -3.730940
  N     -5.866890  -10.924720   -2.973640
  C     -5.086550  -13.080020   -1.059820
  C     -5.762470  -13.681550   -2.108730
  C     -5.768190  -15.067130   -1.993800
  C     -5.072790  -15.543110   -0.869290
  S     -4.423240  -14.248390    0.070580
  C     -5.168630  -16.921050   -0.696940
  C     -5.945660  -17.511920   -1.673040
  S     -6.501590  -16.360660   -2.868910
  C     -6.431180  -18.850120   -1.725950
  C     -6.750050  -19.633080   -0.667530
  C     -6.945420  -21.094620   -0.871800
  O     -7.120910  -21.666310   -1.922500
  C     -6.797010  -21.680380    0.471530
  C     -6.623870  -20.658080    1.429100
  C     -6.751740  -19.360180    0.767940
  C     -6.997550  -18.130060    1.320940
  C     -6.581260  -17.620300    2.645190
  O     -6.093050  -18.222340    3.577280
  C     -6.760080  -16.148260    2.581860
  C     -7.401440  -15.794450    1.392560
  C     -7.644340  -17.011300    0.588010
  O     -8.325340  -17.082360   -0.412810
  C     -7.671610  -14.472150    1.094190
  C     -7.261250  -13.503210    2.000110
  C     -6.615220  -13.853790    3.177630
  C     -6.358990  -15.183190    3.486450
  C     -6.468000  -21.005270    2.764010
  C     -6.476790  -22.348990    3.111720
  C     -6.649180  -23.346210    2.162130
  C     -6.812940  -23.016080    0.824960
  H     -4.139320    0.674460    5.174250
  H     -3.541240    2.410500    6.852240
  H     -1.974230    4.204900    6.283100
  H     -0.950400    4.319380    4.019730
  H     -1.079020    3.372170   -0.545210
  H     -1.124410    4.271700   -2.823480
  H     -2.063590    2.977780   -4.686470
  H     -2.999020    0.702060   -4.271080
  H     -2.128880   -1.587280    1.452090
  H     -2.269190   -3.909990    2.041600
  H     -4.820010   -6.537550   -2.045290
  H     -6.231840  -13.119720   -2.893650
  H     -4.693560  -17.469350    0.095790
  H     -6.585460  -19.284840   -2.707810
  H     -8.166040  -14.209220    0.171260
  H     -7.441660  -12.460570    1.781480
  H     -6.307140  -13.080890    3.865610
  H     -5.858280  -15.462470    4.400200
  H     -6.323280  -20.250360    3.518270
  H     -6.349210  -22.621680    4.148850
  H     -6.660250  -24.382180    2.466730
  H     -6.957390  -23.771280    0.067520

 Total Charge           Charge          ....    0
 Multiplicity           Mult            ....    1
 Number of Electrons    NEL             ....  544
 Basis Dimension        Dim             .... 1180

ORBITAL ENERGIES
----------------

  NO   OCC          E(Eh)            E(eV)
   0   2.0000     -89.045598     -2423.0539
   1   2.0000     -88.960366     -2420.7346
   2   2.0000     -88.955667     -2420.6068
   3   2.0000     -88.951518     -2420.4939
   4   2.0000     -88.949638     -2420.4427
   5   2.0000     -24.822410      -675.4521
   6   2.0000     -24.821222      -675.4198
   7   2.0000     -19.206753      -522.6423
   8   2.0000     -19.205836      -522.6174
   9   2.0000     -19.202876      -522.5368
  10   2.0000     -19.202329      -522.5219
  11   2.0000     -19.201903      -522.5104
  12   2.0000     -19.201301      -522.4940
  13   2.0000     -14.462392      -393.5417
  14   2.0000     -14.461505      -393.5176
  15   2.0000     -14.455207      -393.3462
  16   2.0000     -14.454457      -393.3258
  17   2.0000     -10.437894      -284.0295
  18   2.0000     -10.437412      -284.0164
  19   2.0000     -10.360631      -281.9271
  20   2.0000     -10.356276      -281.8086
  21   2.0000     -10.355938      -281.7994
  22   2.0000     -10.353904      -281.7440
  23   2.0000     -10.352788      -281.7137
  24   2.0000     -10.350951      -281.6637
  25   2.0000     -10.349392      -281.6213
  26   2.0000     -10.349107      -281.6135
  27   2.0000     -10.344606      -281.4910
  28   2.0000     -10.344367      -281.4845
  29   2.0000     -10.319721      -280.8139
  30   2.0000     -10.319627      -280.8113
  31   2.0000     -10.317784      -280.7612
  32   2.0000     -10.316836      -280.7354
  33   2.0000     -10.314278      -280.6658
  34   2.0000     -10.314150      -280.6623
  35   2.0000     -10.309858      -280.5455
  36   2.0000     -10.307972      -280.4942
  37   2.0000     -10.305307      -280.4216
  38   2.0000     -10.305290      -280.4212
  39   2.0000     -10.300933      -280.3026
  40   2.0000     -10.297228      -280.2018
  41   2.0000     -10.291147      -280.0363
  42   2.0000     -10.290311      -280.0136
  43   2.0000     -10.289882      -280.0019
  44   2.0000     -10.288607      -279.9672
  45   2.0000     -10.286108      -279.8992
  46   2.0000     -10.285993      -279.8961
  47   2.0000     -10.285845      -279.8921
  48   2.0000     -10.285198      -279.8745
  49   2.0000     -10.285105      -279.8719
  50   2.0000     -10.284902      -279.8664
  51   2.0000     -10.284815      -279.8640
  52   2.0000     -10.284482      -279.8550
  53   2.0000     -10.284239      -279.8484
  54   2.0000     -10.284083      -279.8441
  55   2.0000     -10.283420      -279.8261
  56   2.0000     -10.282170      -279.7921
  57   2.0000     -10.281708      -279.7795
  58   2.0000     -10.281015      -279.7607
  59   2.0000     -10.280357      -279.7427
  60   2.0000     -10.279479      -279.7189
  61   2.0000     -10.279479      -279.7188
  62   2.0000     -10.279278      -279.7134
  63   2.0000     -10.278996      -279.7057
  64   2.0000     -10.278918      -279.7036
  65   2.0000     -10.278850      -279.7017
  66   2.0000     -10.278443      -279.6907
  67   2.0000     -10.277723      -279.6711
  68   2.0000     -10.276937      -279.6497
  69   2.0000     -10.276416      -279.6355
  70   2.0000     -10.274975      -279.5963
  71   2.0000     -10.274338      -279.5789
  72   2.0000     -10.273138      -279.5463
  73   2.0000     -10.273039      -279.5436
  74   2.0000     -10.270642      -279.4784
  75   2.0000      -8.136946      -221.4175
  76   2.0000      -8.055525      -219.2020
  77   2.0000      -8.049096      -219.0270
  78   2.0000      -8.045393      -218.9263
  79   2.0000      -8.043153      -218.8653
  80   2.0000      -6.108091      -166.2096
  81   2.0000      -6.100158      -165.9938
  82   2.0000      -6.099720      -165.9818
  83   2.0000      -6.024944      -163.9471
  84   2.0000      -6.020944      -163.8382
  85   2.0000      -6.018859      -163.7815
  86   2.0000      -6.017253      -163.7378
  87   2.0000      -6.015152      -163.6806
  88   2.0000      -6.014395      -163.6600
  89   2.0000      -6.012788      -163.6163
  90   2.0000      -6.010737      -163.5605
  91   2.0000      -6.010650      -163.5581
  92   2.0000      -6.008324      -163.4948
  93   2.0000      -6.006828      -163.4541
  94   2.0000      -6.004812      -163.3993
  95   2.0000      -1.349825       -36.7306
  96   2.0000      -1.335797       -36.3489
  97   2.0000      -1.143508       -31.1164
  98   2.0000      -1.123978       -30.5850
  99   2.0000      -1.121842       -30.5269
 100   2.0000      -1.121763       -30.5247
 101   2.0000      -1.120693       -30.4956
 102   2.0000      -1.117031       -30.3959
 103   2.0000      -1.115888       -30.3648
 104   2.0000      -1.115621       -30.3576
 105   2.0000      -1.048306       -28.5259
 106   2.0000      -1.009949       -27.4821
 107   2.0000      -1.004290       -27.3281
 108   2.0000      -0.995659       -27.0933
 109   2.0000      -0.984817       -26.7982
 110   2.0000      -0.982436       -26.7334
 111   2.0000      -0.978927       -26.6380
 112   2.0000      -0.972513       -26.4634
 113   2.0000      -0.971738       -26.4423
 114   2.0000      -0.951239       -25.8845
 115   2.0000      -0.942003       -25.6332
 116   2.0000      -0.929013       -25.2797
 117   2.0000      -0.926317       -25.2064
 118   2.0000      -0.905611       -24.6429
 119   2.0000      -0.903874       -24.5957
 120   2.0000      -0.890349       -24.2276
 121   2.0000      -0.890088       -24.2205
 122   2.0000      -0.869268       -23.6540
 123   2.0000      -0.863831       -23.5060
 124   2.0000      -0.856190       -23.2981
 125   2.0000      -0.852630       -23.2012
 126   2.0000      -0.851293       -23.1649
 127   2.0000      -0.849957       -23.1285
 128   2.0000      -0.847771       -23.0690
 129   2.0000      -0.847690       -23.0668
 130   2.0000      -0.829460       -22.5708
 131   2.0000      -0.827966       -22.5301
 132   2.0000      -0.821682       -22.3591
 133   2.0000      -0.811235       -22.0748
 134   2.0000      -0.801838       -21.8191
 135   2.0000      -0.798777       -21.7358
 136   2.0000      -0.794413       -21.6171
 137   2.0000      -0.776600       -21.1323
 138   2.0000      -0.772515       -21.0212
 139   2.0000      -0.760836       -20.7034
 140   2.0000      -0.757561       -20.6143
 141   2.0000      -0.749570       -20.3968
 142   2.0000      -0.744226       -20.2514
 143   2.0000      -0.728053       -19.8113
 144   2.0000      -0.726992       -19.7825
 145   2.0000      -0.717809       -19.5326
 146   2.0000      -0.704930       -19.1821
 147   2.0000      -0.702480       -19.1155
 148   2.0000      -0.696788       -18.9606
 149   2.0000      -0.686196       -18.6724
 150   2.0000      -0.684790       -18.6341
 151   2.0000      -0.674844       -18.3634
 152   2.0000      -0.670893       -18.2559
 153   2.0000      -0.666031       -18.1236
 154   2.0000      -0.663668       -18.0593
 155   2.0000      -0.657168       -17.8825
 156   2.0000      -0.652766       -17.7627
 157   2.0000      -0.651299       -17.7228
 158   2.0000      -0.645542       -17.5661
 159   2.0000      -0.642724       -17.4894
 160   2.0000      -0.635534       -17.2937
 161   2.0000      -0.633907       -17.2495
 162   2.0000      -0.633398       -17.2356
 163   2.0000      -0.630615       -17.1599
 164   2.0000      -0.628154       -17.0929
 165   2.0000      -0.624847       -17.0030
 166   2.0000      -0.621035       -16.8992
 167   2.0000      -0.612593       -16.6695
 168   2.0000      -0.605200       -16.4683
 169   2.0000      -0.592363       -16.1190
 170   2.0000      -0.582872       -15.8607
 171   2.0000      -0.581468       -15.8226
 172   2.0000      -0.579339       -15.7646
 173   2.0000      -0.576989       -15.7007
 174   2.0000      -0.576106       -15.6766
 175   2.0000      -0.573384       -15.6026
 176   2.0000      -0.569906       -15.5079
 177   2.0000      -0.569549       -15.4982
 178   2.0000      -0.563605       -15.3365
 179   2.0000      -0.559246       -15.2178
 180   2.0000      -0.557357       -15.1665
 181   2.0000      -0.555947       -15.1281
 182   2.0000      -0.554152       -15.0792
 183   2.0000      -0.550820       -14.9886
 184   2.0000      -0.547396       -14.8954
 185   2.0000      -0.538592       -14.6558
 186   2.0000      -0.536067       -14.5871
 187   2.0000      -0.533528       -14.5180
 188   2.0000      -0.528280       -14.3752
 189   2.0000      -0.527536       -14.3550
 190   2.0000      -0.526743       -14.3334
 191   2.0000      -0.524814       -14.2809
 192   2.0000      -0.524392       -14.2694
 193   2.0000      -0.523919       -14.2566
 194   2.0000      -0.520167       -14.1545
 195   2.0000      -0.519315       -14.1313
 196   2.0000      -0.517296       -14.0763
 197   2.0000      -0.516593       -14.0572
 198   2.0000      -0.514699       -14.0057
 199   2.0000      -0.514061       -13.9883
 200   2.0000      -0.509938       -13.8761
 201   2.0000      -0.509297       -13.8587
 202   2.0000      -0.507950       -13.8220
 203   2.0000      -0.507027       -13.7969
 204   2.0000      -0.504654       -13.7323
 205   2.0000      -0.501670       -13.6511
 206   2.0000      -0.499682       -13.5970
 207   2.0000      -0.497857       -13.5474
 208   2.0000      -0.497727       -13.5439
 209   2.0000      -0.494040       -13.4435
 210   2.0000      -0.490472       -13.3464
 211   2.0000      -0.489129       -13.3099
 212   2.0000      -0.484668       -13.1885
 213   2.0000      -0.483364       -13.1530
 214   2.0000      -0.476954       -12.9786
 215   2.0000      -0.475127       -12.9289
 216   2.0000      -0.470268       -12.7966
 217   2.0000      -0.465759       -12.6739
 218   2.0000      -0.464544       -12.6409
 219   2.0000      -0.463619       -12.6157
 220   2.0000      -0.460028       -12.5180
 221   2.0000      -0.458214       -12.4687
 222   2.0000      -0.454034       -12.3549
 223   2.0000      -0.451723       -12.2920
 224   2.0000      -0.451384       -12.2828
 225   2.0000      -0.449615       -12.2346
 226   2.0000      -0.448467       -12.2034
 227   2.0000      -0.447063       -12.1652
 228   2.0000      -0.444327       -12.0908
 229   2.0000      -0.443729       -12.0745
 230   2.0000      -0.441235       -12.0066
 231   2.0000      -0.439593       -11.9619
 232   2.0000      -0.438348       -11.9281
 233   2.0000      -0.434800       -11.8315
 234   2.0000      -0.434452       -11.8220
 235   2.0000      -0.429752       -11.6942
 236   2.0000      -0.426454       -11.6044
 237   2.0000      -0.423793       -11.5320
 238   2.0000      -0.420315       -11.4373
 239   2.0000      -0.417164       -11.3516
 240   2.0000      -0.410715       -11.1761
 241   2.0000      -0.407582       -11.0909
 242   2.0000      -0.404413       -11.0046
 243   2.0000      -0.396305       -10.7840
 244   2.0000      -0.392408       -10.6780
 245   2.0000      -0.380056       -10.3418
 246   2.0000      -0.375776       -10.2254
 247   2.0000      -0.364624        -9.9219
 248   2.0000      -0.359934        -9.7943
 249   2.0000      -0.357484        -9.7276
 250   2.0000      -0.357009        -9.7147
 251   2.0000      -0.348704        -9.4887
 252   2.0000      -0.347289        -9.4502
 253   2.0000      -0.339612        -9.2413
 254   2.0000      -0.336535        -9.1576
 255   2.0000      -0.333711        -9.0807
 256   2.0000      -0.333067        -9.0632
 257   2.0000      -0.332028        -9.0349
 258   2.0000      -0.328603        -8.9417
 259   2.0000      -0.327774        -8.9192
 260   2.0000      -0.326267        -8.8782
 261   2.0000      -0.324773        -8.8375
 262   2.0000      -0.319445        -8.6925
 263   2.0000      -0.315651        -8.5893
 264   2.0000      -0.311947        -8.4885
 265   2.0000      -0.309348        -8.4178
 266   2.0000      -0.299478        -8.1492
 267   2.0000      -0.293765        -7.9938
 268   2.0000      -0.289168        -7.8687
 269   2.0000      -0.287020        -7.8102
 270   2.0000      -0.267694        -7.2843
 271   2.0000      -0.234851        -6.3906
 272   0.0000      -0.119874        -3.2619
 273   0.0000      -0.081980        -2.2308
 274   0.0000      -0.075247        -2.0476
 275   0.0000      -0.047779        -1.3001
 276   0.0000      -0.046538        -1.2664

MULLIKEN ATOMIC CHARGES
-----------------------
   0 C :   -0.083380
   1 C :    0.160507
   2 O :   -0.177781
   3 C :   -0.031190
   4 C :    0.061645
   5 C :    0.150101
   6 C :   -0.235217
   7 C :    0.161370
   8 O :   -0.166848
   9 C :    0.013591
  10 C :    0.003109
  11 C :    0.139678
  12 O :   -0.157248
  13 C :   -0.028017
  14 C :    0.040404
  15 C :    0.039856
  16 C :   -0.032163
  17 C :   -0.046212
  18 C :    0.042391
  19 C :    0.041618
  20 C :   -0.024474
  21 C :    0.048043
  22 C :   -0.069346
  23 C :   -0.048545
  24 C :    0.045087
  25 C :    0.012272
  26 S :    0.196584
  27 C :   -0.045442
  28 C :   -0.174987
  29 S :    0.150239
  30 C :    0.182796
  31 C :   -0.062895
  32 C :   -0.062516
  33 N :   -0.030216
  34 C :    0.143842
  35 C :    0.148264
  36 N :   -0.031865
  37 F :   -0.136754
  38 F :   -0.139222
  39 C :    0.195833
  40 C :   -0.013308
  41 C :   -0.007312
  42 N :   -0.294546
  43 S :    0.552022
  44 N :   -0.295302
  45 C :   -0.202632
  46 C :   -0.040708
  47 C :    0.000430
  48 C :   -0.024027
  49 S :    0.165764
  50 C :    0.044652
  51 C :   -0.152266
  52 S :    0.183385
  53 C :    0.071591
  54 C :   -0.085954
  55 C :    0.132376
  56 O :   -0.147503
  57 C :   -0.027044
  58 C :    0.063569
  59 C :    0.143899
  60 C :   -0.257133
  61 C :    0.172253
  62 O :   -0.158952
  63 C :    0.002651
  64 C :    0.014234
  65 C :    0.155930
  66 O :   -0.143660
  67 C :   -0.026565
  68 C :    0.041664
  69 C :    0.049905
  70 C :   -0.030294
  71 C :   -0.043309
  72 C :    0.041019
  73 C :    0.042089
  74 C :   -0.023532
  75 H :   -0.008624
  76 H :   -0.005147
  77 H :   -0.003887
  78 H :   -0.008150
  79 H :    0.002273
  80 H :   -0.008435
  81 H :   -0.007391
  82 H :   -0.009530
  83 H :    0.001059
  84 H :   -0.011070
  85 H :   -0.001976
  86 H :   -0.001446
  87 H :   -0.002556
  88 H :    0.020671
  89 H :   -0.008540
  90 H :   -0.010749
  91 H :   -0.010998
  92 H :   -0.009888
  93 H :    0.003521
  94 H :   -0.005671
  95 H :   -0.004553
  96 H :   -0.005214
Sum of atomic charges:   -0.0000000

LOEWDIN ATOMIC CHARGES
----------------------
   0 C :   -0.105244
   1 C :    0.082216
   2 O :   -0.164475
   3 C :   -0.045435
   4 C :   -0.009604
   5 C :    0.088035
   6 C :   -0.146390
   7 C :    0.083057
   8 O :   -0.152875
   9 C :   -0.042864
  10 C :   -0.043907
  11 C :    0.077435
  12 O :   -0.149996
  13 C :    0.007356
  14 C :   -0.006794
  15 C :   -0.006228
  16 C :    0.006911
  17 C :    0.003279
  18 C :   -0.007517
  19 C :   -0.008198
  20 C :    0.006309
  21 C :    0.074660
  22 C :   -0.171616
  23 C :   -0.031707
  24 C :   -0.206832
  25 C :   -0.195678
  26 S :    0.487668
  27 C :   -0.050208
  28 C :   -0.151794
  29 S :    0.441366
  30 C :   -0.043699
  31 C :   -0.014534
  32 C :   -0.018423
  33 N :   -0.047937
  34 C :    0.059055
  35 C :    0.062368
  36 N :   -0.049041
  37 F :   -0.025967
  38 F :   -0.026824
  39 C :   -0.040313
  40 C :   -0.038915
  41 C :   -0.036066
  42 N :   -0.276436
  43 S :    0.674649
  44 N :   -0.278739
  45 C :   -0.160376
  46 C :   -0.046960
  47 C :   -0.200852
  48 C :   -0.198133
  49 S :    0.464147
  50 C :   -0.055423
  51 C :   -0.166332
  52 S :    0.456515
  53 C :    0.050709
  54 C :   -0.070512
  55 C :    0.080177
  56 O :   -0.144237
  57 C :   -0.046944
  58 C :   -0.008722
  59 C :    0.076022
  60 C :   -0.128479
  61 C :    0.082043
  62 O :   -0.148788
  63 C :   -0.046434
  64 C :   -0.041125
  65 C :    0.075908
  66 O :   -0.144359
  67 C :    0.007078
  68 C :   -0.006337
  69 C :   -0.007654
  70 C :    0.009969
  71 C :    0.004200
  72 C :   -0.005524
  73 C :   -0.005349
  74 C :    0.007901
  75 H :    0.036713
  76 H :    0.032108
  77 H :    0.032340
  78 H :    0.036717
  79 H :    0.031687
  80 H :    0.031803
  81 H :    0.030969
  82 H :    0.036479
  83 H :    0.044971
  84 H :    0.034986
  85 H :    0.031135
  86 H :    0.031872
  87 H :    0.036407
  88 H :    0.044418
  89 H :    0.036411
  90 H :    0.029072
  91 H :    0.028445
  92 H :    0.036745
  93 H :    0.031821
  94 H :    0.032735
  95 H :    0.032014
  96 H :    0.037916

  Mayer bond orders larger than 0.100000
B(  0-C ,  1-C ) :   0.9696 B(  0-C ,  5-C ) :   1.0970 B(  0-C , 21-C ) :   1.5360
B(  1-C ,  2-O ) :   2.1342 B(  1-C ,  3-C ) :   0.9625 B(  3-C ,  4-C ) :   1.3178
B(  3-C , 20-C ) :   1.4006 B(  4-C ,  5-C ) :   1.0438 B(  4-C , 17-C ) :   1.3926
B(  5-C ,  6-C ) :   1.5338 B(  6-C ,  7-C ) :   0.9687 B(  6-C , 11-C ) :   0.9819
B(  7-C ,  8-O ) :   2.1744 B(  7-C ,  9-C ) :   0.9237 B(  9-C , 10-C ) :   1.3527
B(  9-C , 16-C ) :   1.3833 B( 10-C , 11-C ) :   0.9270 B( 10-C , 13-C ) :   1.3890
B( 11-C , 12-O ) :   2.2088 B( 13-C , 14-C ) :   1.3563 B( 13-C , 75-H ) :   1.0042
B( 14-C , 15-C ) :   1.3812 B( 14-C , 76-H ) :   0.9878 B( 15-C , 16-C ) :   1.3570
B( 15-C , 77-H ) :   0.9881 B( 16-C , 78-H ) :   1.0045 B( 17-C , 18-C ) :   1.3561
B( 17-C , 79-H ) :   0.9797 B( 18-C , 19-C ) :   1.3799 B( 18-C , 80-H ) :   0.9856
B( 19-C , 20-C ) :   1.3384 B( 19-C , 81-H ) :   0.9896 B( 20-C , 82-H ) :   1.0046
B( 21-C , 22-C ) :   1.2594 B( 21-C , 83-H ) :   0.9504 B( 22-C , 23-C ) :   1.3807
B( 22-C , 26-S ) :   1.0904 B( 23-C , 24-C ) :   1.3056 B( 23-C , 84-H ) :   1.0131
B( 24-C , 25-C ) :   1.3390 B( 24-C , 29-S ) :   1.0100 B( 25-C , 26-S ) :   1.0500
B( 25-C , 27-C ) :   1.2500 B( 27-C , 28-C ) :   1.4725 B( 27-C , 85-H ) :   0.9879
B( 28-C , 29-S ) :   1.0884 B( 28-C , 30-C ) :   1.1985 B( 30-C , 31-C ) :   1.2911
B( 30-C , 39-C ) :   0.1283 B( 30-C , 41-C ) :   1.1900 B( 31-C , 32-C ) :   1.1175
B( 31-C , 36-N ) :   1.3861 B( 32-C , 33-N ) :   1.3816 B( 32-C , 39-C ) :   1.2921
B( 33-N , 34-C ) :   1.6567 B( 34-C , 35-C ) :   1.1069 B( 34-C , 38-F ) :   1.1747
B( 35-C , 36-N ) :   1.6609 B( 35-C , 37-F ) :   1.1841 B( 39-C , 40-C ) :   1.1926
B( 39-C , 45-C ) :   1.1897 B( 40-C , 41-C ) :   1.1036 B( 40-C , 44-N ) :   1.5080
B( 41-C , 42-N ) :   1.5074 B( 42-N , 43-S ) :   1.2789 B( 42-N , 44-N ) :   0.1508
B( 43-S , 44-N ) :   1.2781 B( 45-C , 46-C ) :   1.4749 B( 45-C , 49-S ) :   1.0857
B( 46-C , 47-C ) :   1.2419 B( 46-C , 86-H ) :   0.9891 B( 47-C , 48-C ) :   1.3728
B( 47-C , 52-S ) :   1.0839 B( 48-C , 49-S ) :   1.0437 B( 48-C , 50-C ) :   1.2813
B( 50-C , 51-C ) :   1.4843 B( 50-C , 87-H ) :   1.0029 B( 51-C , 52-S ) :   1.1127
B( 51-C , 53-C ) :   1.0635 B( 53-C , 54-C ) :   1.7509 B( 53-C , 88-H ) :   0.9369
B( 54-C , 55-C ) :   0.9423 B( 54-C , 59-C ) :   1.0356 B( 55-C , 56-O ) :   2.2566
B( 55-C , 57-C ) :   0.9332 B( 57-C , 58-C ) :   1.3055 B( 57-C , 74-C ) :   1.3940
B( 58-C , 59-C ) :   1.0549 B( 58-C , 71-C ) :   1.3864 B( 59-C , 60-C ) :   1.5933
B( 60-C , 61-C ) :   0.9505 B( 60-C , 65-C ) :   0.9700 B( 61-C , 62-O ) :   2.1764
B( 61-C , 63-C ) :   0.9325 B( 63-C , 64-C ) :   1.3507 B( 63-C , 70-C ) :   1.3815
B( 64-C , 65-C ) :   0.9165 B( 64-C , 67-C ) :   1.3853 B( 65-C , 66-O ) :   2.2368
B( 67-C , 68-C ) :   1.3548 B( 67-C , 89-H ) :   1.0054 B( 68-C , 69-C ) :   1.3723
B( 68-C , 90-H ) :   0.9884 B( 69-C , 70-C ) :   1.3620 B( 69-C , 91-H ) :   0.9859
B( 70-C , 92-H ) :   1.0034 B( 71-C , 72-C ) :   1.3657 B( 71-C , 93-H ) :   0.9760
B( 72-C , 73-C ) :   1.3673 B( 72-C , 94-H ) :   0.9871 B( 73-C , 74-C ) :   1.3527
B( 73-C , 95-H ) :   0.9906 B( 74-C , 96-H ) :   1.0036

-----------------------------------------------------------------------------
         ABSORPTION SPECTRUM VIA TRANSITION ELECTRIC DIPOLE MOMENTS
-----------------------------------------------------------------------------
State   Energy  Wavelength   fosc         T2         TX        TY        TZ
        (cm-1)    (nm)                  (au**2)     (au)      (au)      (au)
-----------------------------------------------------------------------------
   0   10067.8    993.3   0.961159461  31.42953   1.12171   5.48626   0.26883
   1   17183.4    582.0   0.034591679   0.66273  -0.49723  -0.07750   0.63992
   2   18155.3    550.8   0.081244924   1.47322  -0.25816  -1.14821   0.29698
   3   19988.0    500.3   0.096534578   1.58997   0.24431   1.18310   0.36131
   4   20420.4    489.7   0.519281355   8.37172   0.47644   2.77567   0.66362
   5   20918.6    478.0   0.071654877   1.12769   0.00499  -1.03853   0.22162
   6   22801.4    438.6   0.037671278   0.54391  -0.04111  -0.72669  -0.11890
   7   24274.7    412.0   0.036316464   0.49252  -0.03318  -0.66989   0.20657
   8   24936.8    401.0   0.230450688   3.04237  -0.44341  -1.66257   0.28572
   9   25644.8    389.9   0.241471723   3.09987  -0.06068  -1.74235   0.24576
  10   26111.8    383.0   0.004810803   0.06065   0.11765   0.21221   0.04219
  11   26393.0    378.9   0.010244351   0.12778   0.12602  -0.23769   0.23538
  12   26647.1    375.3   0.123559859   1.52652  -0.23976  -1.20726   0.10757
  13   27061.0    369.5   0.014578925   0.17736  -0.08674   0.18914   0.36615
  14   27423.6    364.6   0.015307384   0.18376   0.02843  -0.11648   0.41156
  15   27754.2    360.3   0.211902810   2.51353  -0.08362  -1.47266  -0.58122
  16   27844.3    359.1   0.022029012   0.26046   0.28188  -0.06156  -0.42096
  17   28577.5    349.9   0.171309706   1.97348   0.28128   1.20351  -0.66777
  18   28866.5    346.4   0.015900020   0.18133   0.21576   0.29773  -0.21480
  19   29284.3    341.5   0.054248929   0.60986  -0.02820   0.24115  -0.74224
  20   29366.0    340.5   0.006603317   0.07403  -0.05387  -0.26660   0.00709
  21   29589.5    338.0   0.069796957   0.77656  -0.03182  -0.13970   0.86950
  22   29701.2    336.7   0.007303926   0.08096  -0.19909   0.17504  -0.10336
  23   29767.6    335.9   0.001851170   0.02047  -0.04165  -0.03154   0.13320
  24   30038.9    332.9   0.023289930   0.25525  -0.17250   0.43749   0.18463
  25   30222.2    330.9   0.033781720   0.36799   0.15019   0.50383   0.30262
  26   30439.8    328.5   0.165599859   1.79099   0.33077  -0.73974   1.06507
  27   30592.3    326.9   0.014208409   0.15290   0.21012   0.22571  -0.24044
  28   30886.2    323.8   0.167843832   1.78903  -0.05863   1.33418  -0.07459
  29   31139.4    321.1   0.123562387   1.30633   0.17496   1.11756  -0.16362
  30   31337.6    319.1   0.292978925   3.07784   0.17643   1.47853   0.92771
  31   31894.1    313.5   0.052797771   0.54498  -0.06608  -0.72409   0.12768
  32   32414.3    308.5   0.000365144   0.00371   0.00380  -0.05969  -0.01144
  33   32512.5    307.6   0.053403519   0.54075  -0.13273   0.71451  -0.11231
  34   32608.5    306.7   0.010635551   0.10738   0.03398  -0.32046   0.05938
  35   32939.8    303.6   0.049336385   0.49309  -0.09948  -0.16549   0.67513
  36   33001.5    303.0   0.175644485   1.75217   0.14012   0.46291  -1.23217
  37   33173.7    301.4   0.021814299   0.21648  -0.03941   0.31460  -0.34052
  38   33501.6    298.5   0.066710601   0.65555   0.10951   0.17726   0.78239
  39   33899.6    295.0   0.213708731   2.07541   0.42325   0.10820   1.37279
  40   34190.4    292.5   0.052686751   0.50731  -0.23320   0.40979   0.53385
  41   34353.3    291.1   0.093255409   0.89368   0.11830  -0.65937  -0.66702
  42   34601.3    289.0   0.165795586   1.57745  -0.04271  -1.22059   0.29289
  43   34692.2    288.2   0.106187760   1.00767  -0.07055  -0.99107   0.14309
  44   34997.8    285.7   0.155714451   1.46475   0.14541   0.76835   0.92371
  45   35132.6    284.6   0.030564103   0.28640  -0.19958  -0.48263   0.11679
  46   35255.3    283.6   0.040984263   0.38271  -0.10652   0.31066  -0.52426
  47   35463.7    282.0   0.115627117   1.07337   0.28051  -0.07563   0.99447
  48   35639.6    280.6   0.033264047   0.30727  -0.13480  -0.49236  -0.21606
  49   35693.5    280.2   0.026916894   0.24826   0.16503   0.12897  -0.45210
  50   35895.3    278.6   0.024724841   0.22676  -0.31366   0.30803  -0.18303
  51   35970.2    278.0   0.015599318   0.14277   0.09865   0.00638   0.36469
  52   36025.0    277.6   0.012864689   0.11756  -0.28184  -0.13962  -0.13651
  53   36222.5    276.1   0.053459255   0.48587  -0.10673   0.29597  -0.62200
  54   36308.7    275.4   0.068441852   0.62056  -0.07377  -0.33901   0.70724
  55   36351.4    275.1   0.091577963   0.82936   0.22816   0.37956   0.79577
  56   36581.4    273.4   0.005305051   0.04774   0.05416  -0.17957   0.11208
  57   36664.4    272.7   0.025189407   0.22618  -0.20773   0.15389  -0.39918
  58   36722.3    272.3   0.067859079   0.60835   0.29954   0.21381   0.68769
  59   36793.8    271.8   0.016606551   0.14859  -0.13348  -0.11037  -0.34437
  60   36901.6    271.0   0.227888894   2.03308   0.27789  -0.72358   1.19678
  61   37086.1    269.6   0.032793064   0.29110  -0.31256   0.22268  -0.37924
  62   37196.6    268.8   0.023795876   0.21061  -0.14741   0.41927  -0.11442
  63   37504.6    266.6   0.074095483   0.65040  -0.31058   0.00424  -0.74426
  64   38028.3    263.0   0.016415236   0.14211  -0.16692  -0.25280   0.22436
  65   38168.0    262.0   0.026495608   0.22853   0.08186   0.07028   0.46572
  66   38333.4    260.9   0.071519121   0.61421   0.22257  -0.57410  -0.48485
  67   38446.2    260.1   0.135566967   1.16085  -0.14818  -1.04676   0.20781
  68   38679.2    258.5   0.016209039   0.13796   0.01567  -0.35598   0.10484
  69   38763.8    258.0   0.041421390   0.35178  -0.22554  -0.25078  -0.48788
  70   38895.7    257.1   0.032508270   0.27515  -0.05518  -0.47655  -0.21214
  71   39006.9    256.4   0.003431312   0.02896  -0.15939  -0.05833   0.01236
  72   39068.6    256.0   0.001786756   0.01506  -0.02729  -0.07329  -0.09455
  73   39196.7    255.1   0.022069496   0.18536   0.03918  -0.42870  -0.00666
  74   39498.1    253.2   0.045735192   0.38120  -0.17009  -0.01616  -0.59330
  75   39559.0    252.8   0.050480387   0.42010  -0.24577  -0.02852  -0.59907
  76   39867.7    250.8   0.000095419   0.00079   0.02087   0.01744   0.00693
  77   39899.2    250.6   0.027476742   0.22671  -0.15751   0.17511  -0.41381
  78   39960.7    250.2   0.018032032   0.14856  -0.29276  -0.21296  -0.13228

FINAL SINGLE POINT ENERGY     -5079.974820690149

DIPOLE MOMENT
-------------
                                X             Y             Z
Electronic contribution:      1.77912     -22.50193     -10.42452
Nuclear contribution   :     -1.28974      23.82020      11.28183
                        -----------------------------------------
Total Dipole Moment    :      0.48938       1.31827       0.85731
                        -----------------------------------------
Magnitude (a.u.)       :      1.64691
Magnitude (Debye)      :      4.18610

Rotational constants in cm-1:     0.002549     0.000231     0.000216
Rotational constants in MHz :    76.429701     6.935790     6.488535

                             ****ORCA TERMINATED NORMALLY****
TOTAL RUN TIME: 0 days 0 hours 10 minutes 42 seconds 143 msec
