                         Program Version 4.2.0 -  RELEASE  -
|  1> # ORCA input file
|  2> # SCF done       -164.799558296674          0.000495443776
|  3> ! CAM-B3LYP def2-SVP def2/J RIJCOSX Grid4 TightSCF
|  4> %maxcore 5000
|  5> %tddft
|  6>     Mode sTDDFT
|  7>     Ethresh 5.0
|  8>     maxcore 5000
|  9> end
| 10>
| 11> %pal
| 12>   nprocs 6
| 13>   end
| 14> * xyz 0 1
| 15>    C       -9.86758         1.99873         6.43581
| 16>    C       -9.79016         1.97942         7.79999
| 17>    F       -9.95058         3.11020         8.49986
| 18>    C       -9.54238         0.77419         8.48746
| 19>    F       -9.47265         0.78489         9.82554
| 20>    C       -9.37536        -0.39559         7.80076
| 21>    C       -9.45090        -0.40866         6.39445
| 22>    C       -9.70103         0.80920         5.69813
| 23>    C       -9.78376         0.82036         4.28709
| 24>    C       -9.62497        -0.35078         3.59360
| 25>    C       -9.38015        -1.56235         4.29748
| 26>    C       -9.29000        -1.60374         5.65885
| 27>    C       -9.27089        -2.67672         3.33458
| 28>    O       -9.04763        -3.83851         3.60222
| 29>    C       -9.50300        -2.07383         1.99862
| 30>    C       -9.66747        -0.64275         2.16249
| 31>    C       -9.80762         0.29303         1.17005
| 32>    C       -9.94830         1.67751         1.40329
| 33>    N      -10.06991         2.81248         1.52481
| 34>    C       -9.81389         0.02857        -0.21569
| 35>    N       -9.82153        -0.09971        -1.35690
| 36>    C       -9.59985        -2.77882         0.82891
| 37>    C       -9.43946        -4.17463         0.70689
| 38>    C       -9.61561        -4.80266        -0.49085
| 39>    C       -9.49429        -6.19570        -0.73656
| 40>    C       -9.00707        -7.11033         0.14166
| 41>    C       -8.89089        -8.51488        -0.09722
| 42>    C       -9.43182        -9.19199        -1.18438
| 43>    C       -9.29155       -10.56424        -1.35521
| 44>    F       -9.88641       -11.07642        -2.44987
| 45>    C       -8.59722       -11.40816        -0.48690
| 46>    C       -8.03360       -10.73714         0.63594
| 47>    C       -8.18263        -9.32274         0.83549
| 48>    N       -7.58278        -8.91180         1.94992
| 49>    S       -6.90253       -10.17302         2.67228
| 50>    N       -7.33099       -11.30454         1.61458
| 51>    C       -8.40188       -12.81799        -0.61324
| 52>    C       -8.88715       -13.63648        -1.58136
| 53>    C       -8.59281       -15.02088        -1.61981
| 54>    C       -9.11303       -15.85660        -2.55992
| 55>    C       -8.90881       -17.25404        -2.64088
| 56>    C       -7.91069       -18.05014        -2.15620
| 57>    C       -8.18036       -19.51133        -2.03707
| 58>    O       -9.12188       -20.11107        -2.50205
| 59>    C       -7.09079       -20.04580        -1.19724
| 60>    C       -6.93160       -21.30607        -0.69793
| 61>    C       -5.80783       -21.58666         0.11103
| 62>    C       -4.87308       -20.54827         0.39200
| 63>    C       -3.75639       -20.83312         1.20333
| 64>    C       -3.57512       -22.08963         1.70918
| 65>    C       -4.50021       -23.11581         1.43044
| 66>    C       -5.59370       -22.87105         0.64805
| 67>    F       -4.29807       -24.33751         1.94185
| 68>    F       -2.51226       -22.35856         2.47860
| 69>    C       -5.06345       -19.25337        -0.14291
| 70>    C       -6.15343       -19.00734        -0.93433
| 71>    C       -6.58254       -17.80066        -1.64217
| 72>    C       -5.76109       -16.74548        -1.94678
| 73>    C       -6.10911       -15.69874        -2.82237
| 74>    N       -6.33149       -14.83598        -3.54570
| 75>    C       -4.43753       -16.61822        -1.47778
| 76>    N       -3.36269       -16.45401        -1.10962
| 77>    H      -10.05737         2.92982         5.92498
| 78>    H       -9.18677        -1.30965         8.34170
| 79>    H       -9.97697         1.75795         3.79191
| 80>    H       -9.10254        -2.53731         6.16723
| 81>    H       -9.83277        -2.24039        -0.08123
| 82>    H       -9.19011        -4.73345         1.59533
| 83>    H       -9.89530        -4.19286        -1.34241
| 84>    H       -9.79936        -6.52294        -1.72131
| 85>    H       -8.63434        -6.78958         1.10409
| 86>    H       -9.99913        -8.66275        -1.93338
| 87>    H       -7.79006       -13.24200         0.17336
| 88>    H       -9.50659       -13.25367        -2.37744
| 89>    H       -7.96196       -15.41755        -0.83416
| 90>    H       -9.81999       -15.44282        -3.26762
| 91>    H       -9.71000       -17.81471        -3.11660
| 92>    H       -7.65253       -22.07861        -0.91786
| 93>    H       -3.03635       -20.06046         1.42330
| 94>    H       -6.29251       -23.66696         0.44344
| 95>    H       -4.34383       -18.48619         0.09411
| 96> *
| 97>
| 98>                          ****END OF INPUT****

CARTESIAN COORDINATES (ANGSTROEM)
---------------------------------
  C     -9.867580    1.998730    6.435810
  C     -9.790160    1.979420    7.799990
  F     -9.950580    3.110200    8.499860
  C     -9.542380    0.774190    8.487460
  F     -9.472650    0.784890    9.825540
  C     -9.375360   -0.395590    7.800760
  C     -9.450900   -0.408660    6.394450
  C     -9.701030    0.809200    5.698130
  C     -9.783760    0.820360    4.287090
  C     -9.624970   -0.350780    3.593600
  C     -9.380150   -1.562350    4.297480
  C     -9.290000   -1.603740    5.658850
  C     -9.270890   -2.676720    3.334580
  O     -9.047630   -3.838510    3.602220
  C     -9.503000   -2.073830    1.998620
  C     -9.667470   -0.642750    2.162490
  C     -9.807620    0.293030    1.170050
  C     -9.948300    1.677510    1.403290
  N    -10.069910    2.812480    1.524810
  C     -9.813890    0.028570   -0.215690
  N     -9.821530   -0.099710   -1.356900
  C     -9.599850   -2.778820    0.828910
  C     -9.439460   -4.174630    0.706890
  C     -9.615610   -4.802660   -0.490850
  C     -9.494290   -6.195700   -0.736560
  C     -9.007070   -7.110330    0.141660
  C     -8.890890   -8.514880   -0.097220
  C     -9.431820   -9.191990   -1.184380
  C     -9.291550  -10.564240   -1.355210
  F     -9.886410  -11.076420   -2.449870
  C     -8.597220  -11.408160   -0.486900
  C     -8.033600  -10.737140    0.635940
  C     -8.182630   -9.322740    0.835490
  N     -7.582780   -8.911800    1.949920
  S     -6.902530  -10.173020    2.672280
  N     -7.330990  -11.304540    1.614580
  C     -8.401880  -12.817990   -0.613240
  C     -8.887150  -13.636480   -1.581360
  C     -8.592810  -15.020880   -1.619810
  C     -9.113030  -15.856600   -2.559920
  C     -8.908810  -17.254040   -2.640880
  C     -7.910690  -18.050140   -2.156200
  C     -8.180360  -19.511330   -2.037070
  O     -9.121880  -20.111070   -2.502050
  C     -7.090790  -20.045800   -1.197240
  C     -6.931600  -21.306070   -0.697930
  C     -5.807830  -21.586660    0.111030
  C     -4.873080  -20.548270    0.392000
  C     -3.756390  -20.833120    1.203330
  C     -3.575120  -22.089630    1.709180
  C     -4.500210  -23.115810    1.430440
  C     -5.593700  -22.871050    0.648050
  F     -4.298070  -24.337510    1.941850
  F     -2.512260  -22.358560    2.478600
  C     -5.063450  -19.253370   -0.142910
  C     -6.153430  -19.007340   -0.934330
  C     -6.582540  -17.800660   -1.642170
  C     -5.761090  -16.745480   -1.946780
  C     -6.109110  -15.698740   -2.822370
  N     -6.331490  -14.835980   -3.545700
  C     -4.437530  -16.618220   -1.477780
  N     -3.362690  -16.454010   -1.109620
  H    -10.057370    2.929820    5.924980
  H     -9.186770   -1.309650    8.341700
  H     -9.976970    1.757950    3.791910
  H     -9.102540   -2.537310    6.167230
  H     -9.832770   -2.240390   -0.081230
  H     -9.190110   -4.733450    1.595330
  H     -9.895300   -4.192860   -1.342410
  H     -9.799360   -6.522940   -1.721310
  H     -8.634340   -6.789580    1.104090
  H     -9.999130   -8.662750   -1.933380
  H     -7.790060  -13.242000    0.173360
  H     -9.506590  -13.253670   -2.377440
  H     -7.961960  -15.417550   -0.834160
  H     -9.819990  -15.442820   -3.267620
  H     -9.710000  -17.814710   -3.116600
  H     -7.652530  -22.078610   -0.917860
  H     -3.036350  -20.060460    1.423300
  H     -6.292510  -23.666960    0.443440
  H     -4.343830  -18.486190    0.094110

 Total Charge           Charge          ....    0
 Multiplicity           Mult            ....    1
 Number of Electrons    NEL             ....  426
 Basis Dimension        Dim             ....  967

ORBITAL ENERGIES
----------------

  NO   OCC          E(Eh)            E(eV)
   0   2.0000     -89.037511     -2422.8338
   1   2.0000     -24.806981      -675.0323
   2   2.0000     -24.799965      -674.8414
   3   2.0000     -24.799226      -674.8212
   4   2.0000     -24.798691      -674.8067
   5   2.0000     -24.798606      -674.8044
   6   2.0000     -19.220557      -523.0180
   7   2.0000     -19.216549      -522.9089
   8   2.0000     -14.452613      -393.2756
   9   2.0000     -14.450426      -393.2161
  10   2.0000     -14.419497      -392.3745
  11   2.0000     -14.418533      -392.3482
  12   2.0000     -14.418015      -392.3341
  13   2.0000     -14.417340      -392.3158
  14   2.0000     -10.388530      -282.6863
  15   2.0000     -10.383040      -282.5369
  16   2.0000     -10.382353      -282.5182
  17   2.0000     -10.382193      -282.5138
  18   2.0000     -10.381898      -282.5058
  19   2.0000     -10.371217      -282.2152
  20   2.0000     -10.367324      -282.1092
  21   2.0000     -10.345678      -281.5202
  22   2.0000     -10.345070      -281.5037
  23   2.0000     -10.344871      -281.4983
  24   2.0000     -10.343904      -281.4719
  25   2.0000     -10.340701      -281.3848
  26   2.0000     -10.338236      -281.3177
  27   2.0000     -10.322289      -280.8838
  28   2.0000     -10.321404      -280.8597
  29   2.0000     -10.320578      -280.8372
  30   2.0000     -10.320327      -280.8304
  31   2.0000     -10.318756      -280.7876
  32   2.0000     -10.318330      -280.7760
  33   2.0000     -10.316834      -280.7353
  34   2.0000     -10.315523      -280.6997
  35   2.0000     -10.312046      -280.6050
  36   2.0000     -10.311753      -280.5971
  37   2.0000     -10.311716      -280.5961
  38   2.0000     -10.311332      -280.5856
  39   2.0000     -10.310743      -280.5696
  40   2.0000     -10.310473      -280.5622
  41   2.0000     -10.309291      -280.5301
  42   2.0000     -10.308985      -280.5217
  43   2.0000     -10.306603      -280.4569
  44   2.0000     -10.306460      -280.4530
  45   2.0000     -10.303935      -280.3843
  46   2.0000     -10.303823      -280.3813
  47   2.0000     -10.303648      -280.3765
  48   2.0000     -10.303499      -280.3725
  49   2.0000     -10.302620      -280.3486
  50   2.0000     -10.302154      -280.3359
  51   2.0000     -10.301818      -280.3267
  52   2.0000     -10.301772      -280.3255
  53   2.0000     -10.301741      -280.3246
  54   2.0000     -10.301412      -280.3157
  55   2.0000     -10.301182      -280.3094
  56   2.0000     -10.299379      -280.2603
  57   2.0000     -10.294568      -280.1294
  58   2.0000     -10.294551      -280.1290
  59   2.0000     -10.293506      -280.1005
  60   2.0000     -10.292308      -280.0679
  61   2.0000     -10.291043      -280.0335
  62   2.0000      -8.129302      -221.2096
  63   2.0000      -6.100513      -166.0034
  64   2.0000      -6.092743      -165.7920
  65   2.0000      -6.091681      -165.7631
  66   2.0000      -1.322210       -35.9792
  67   2.0000      -1.321866       -35.9698
  68   2.0000      -1.321278       -35.9538
  69   2.0000      -1.307321       -35.5740
  70   2.0000      -1.307009       -35.5655
  71   2.0000      -1.139024       -30.9944
  72   2.0000      -1.135091       -30.8874
  73   2.0000      -1.132049       -30.8046
  74   2.0000      -1.021977       -27.8094
  75   2.0000      -1.021833       -27.8055
  76   2.0000      -1.006398       -27.3855
  77   2.0000      -1.005740       -27.3676
  78   2.0000      -0.996975       -27.1291
  79   2.0000      -0.996938       -27.1281
  80   2.0000      -0.995336       -27.0845
  81   2.0000      -0.986613       -26.8471
  82   2.0000      -0.983147       -26.7528
  83   2.0000      -0.982587       -26.7375
  84   2.0000      -0.944665       -25.7056
  85   2.0000      -0.940330       -25.5877
  86   2.0000      -0.931931       -25.3591
  87   2.0000      -0.927744       -25.2452
  88   2.0000      -0.913992       -24.8710
  89   2.0000      -0.903989       -24.5988
  90   2.0000      -0.897336       -24.4177
  91   2.0000      -0.894146       -24.3309
  92   2.0000      -0.891997       -24.2725
  93   2.0000      -0.883794       -24.0492
  94   2.0000      -0.874708       -23.8020
  95   2.0000      -0.867071       -23.5942
  96   2.0000      -0.844667       -22.9846
  97   2.0000      -0.841968       -22.9111
  98   2.0000      -0.841682       -22.9033
  99   2.0000      -0.826247       -22.4833
 100   2.0000      -0.806021       -21.9330
 101   2.0000      -0.786862       -21.4116
 102   2.0000      -0.770007       -20.9529
 103   2.0000      -0.769327       -20.9344
 104   2.0000      -0.766076       -20.8460
 105   2.0000      -0.747053       -20.3283
 106   2.0000      -0.744219       -20.2512
 107   2.0000      -0.732706       -19.9380
 108   2.0000      -0.730550       -19.8793
 109   2.0000      -0.722329       -19.6556
 110   2.0000      -0.718975       -19.5643
 111   2.0000      -0.714474       -19.4418
 112   2.0000      -0.699712       -19.0401
 113   2.0000      -0.693889       -18.8817
 114   2.0000      -0.685669       -18.6580
 115   2.0000      -0.680721       -18.5234
 116   2.0000      -0.672140       -18.2899
 117   2.0000      -0.667061       -18.1516
 118   2.0000      -0.660979       -17.9861
 119   2.0000      -0.656568       -17.8661
 120   2.0000      -0.649341       -17.6695
 121   2.0000      -0.648838       -17.6558
 122   2.0000      -0.643681       -17.5154
 123   2.0000      -0.643350       -17.5064
 124   2.0000      -0.639719       -17.4077
 125   2.0000      -0.630277       -17.1507
 126   2.0000      -0.620487       -16.8843
 127   2.0000      -0.617610       -16.8060
 128   2.0000      -0.615974       -16.7615
 129   2.0000      -0.606827       -16.5126
 130   2.0000      -0.597824       -16.2676
 131   2.0000      -0.591895       -16.1063
 132   2.0000      -0.590272       -16.0621
 133   2.0000      -0.586732       -15.9658
 134   2.0000      -0.586435       -15.9577
 135   2.0000      -0.584718       -15.9110
 136   2.0000      -0.581323       -15.8186
 137   2.0000      -0.578229       -15.7344
 138   2.0000      -0.575309       -15.6549
 139   2.0000      -0.563262       -15.3271
 140   2.0000      -0.560589       -15.2544
 141   2.0000      -0.556573       -15.1451
 142   2.0000      -0.555581       -15.1181
 143   2.0000      -0.554721       -15.0947
 144   2.0000      -0.548583       -14.9277
 145   2.0000      -0.548330       -14.9208
 146   2.0000      -0.548104       -14.9147
 147   2.0000      -0.543001       -14.7758
 148   2.0000      -0.540992       -14.7211
 149   2.0000      -0.537378       -14.6228
 150   2.0000      -0.535457       -14.5705
 151   2.0000      -0.533587       -14.5197
 152   2.0000      -0.530596       -14.4383
 153   2.0000      -0.527958       -14.3665
 154   2.0000      -0.524921       -14.2838
 155   2.0000      -0.523060       -14.2332
 156   2.0000      -0.518710       -14.1148
 157   2.0000      -0.516163       -14.0455
 158   2.0000      -0.513611       -13.9761
 159   2.0000      -0.508945       -13.8491
 160   2.0000      -0.506563       -13.7843
 161   2.0000      -0.501117       -13.6361
 162   2.0000      -0.499941       -13.6041
 163   2.0000      -0.498830       -13.5738
 164   2.0000      -0.497446       -13.5362
 165   2.0000      -0.488263       -13.2863
 166   2.0000      -0.486305       -13.2330
 167   2.0000      -0.482888       -13.1400
 168   2.0000      -0.479086       -13.0366
 169   2.0000      -0.475452       -12.9377
 170   2.0000      -0.470935       -12.8148
 171   2.0000      -0.470296       -12.7974
 172   2.0000      -0.469229       -12.7684
 173   2.0000      -0.467712       -12.7271
 174   2.0000      -0.464360       -12.6359
 175   2.0000      -0.462420       -12.5831
 176   2.0000      -0.459888       -12.5142
 177   2.0000      -0.454520       -12.3681
 178   2.0000      -0.452919       -12.3246
 179   2.0000      -0.451835       -12.2950
 180   2.0000      -0.448330       -12.1997
 181   2.0000      -0.447832       -12.1861
 182   2.0000      -0.446305       -12.1446
 183   2.0000      -0.445941       -12.1347
 184   2.0000      -0.445330       -12.1180
 185   2.0000      -0.442398       -12.0383
 186   2.0000      -0.437472       -11.9042
 187   2.0000      -0.432334       -11.7644
 188   2.0000      -0.429762       -11.6944
 189   2.0000      -0.428405       -11.6575
 190   2.0000      -0.427987       -11.6461
 191   2.0000      -0.426247       -11.5988
 192   2.0000      -0.420267       -11.4360
 193   2.0000      -0.413879       -11.2622
 194   2.0000      -0.410432       -11.1684
 195   2.0000      -0.406980       -11.0745
 196   2.0000      -0.400719       -10.9041
 197   2.0000      -0.395172       -10.7532
 198   2.0000      -0.387800       -10.5526
 199   2.0000      -0.385214       -10.4822
 200   2.0000      -0.382358       -10.4045
 201   2.0000      -0.369143       -10.0449
 202   2.0000      -0.360111        -9.7991
 203   2.0000      -0.345821        -9.4103
 204   2.0000      -0.339729        -9.2445
 205   2.0000      -0.339142        -9.2285
 206   2.0000      -0.329648        -8.9702
 207   2.0000      -0.319389        -8.6910
 208   2.0000      -0.318372        -8.6634
 209   2.0000      -0.305956        -8.3255
 210   2.0000      -0.302539        -8.2325
 211   2.0000      -0.292433        -7.9575
 212   2.0000      -0.261112        -7.1052
 213   0.0000      -0.120298        -3.2735
 214   0.0000      -0.095617        -2.6019
 215   0.0000      -0.075092        -2.0433
 216   0.0000      -0.061074        -1.6619
 217   0.0000      -0.057706        -1.5703

MULLIKEN ATOMIC CHARGES
-----------------------
   0 C :   -0.106731
   1 C :    0.241710
   2 F :   -0.170732
   3 C :    0.238383
   4 F :   -0.172066
   5 C :   -0.103670
   6 C :    0.116549
   7 C :    0.111942
   8 C :   -0.084712
   9 C :    0.051019
  10 C :   -0.003958
  11 C :   -0.080850
  12 C :    0.147567
  13 O :   -0.148482
  14 C :   -0.075896
  15 C :    0.330761
  16 C :   -0.349057
  17 C :   -0.181279
  18 N :    0.147716
  19 C :   -0.193849
  20 N :    0.148132
  21 C :   -0.035781
  22 C :    0.005426
  23 C :    0.048336
  24 C :    0.027357
  25 C :    0.006375
  26 C :    0.093670
  27 C :   -0.094775
  28 C :    0.232690
  29 F :   -0.181450
  30 C :    0.033714
  31 C :    0.003020
  32 C :    0.026150
  33 N :   -0.272128
  34 S :    0.524127
  35 N :   -0.285510
  36 C :   -0.023420
  37 C :    0.027653
  38 C :    0.049148
  39 C :    0.003633
  40 C :    0.047274
  41 C :   -0.126448
  42 C :    0.132450
  43 O :   -0.142903
  44 C :    0.021557
  45 C :   -0.083706
  46 C :    0.113567
  47 C :    0.112101
  48 C :   -0.108365
  49 C :    0.240946
  50 C :    0.238967
  51 C :   -0.104282
  52 F :   -0.171638
  53 F :   -0.170808
  54 C :   -0.085277
  55 C :    0.032835
  56 C :    0.277919
  57 C :   -0.341140
  58 C :   -0.204846
  59 N :    0.173175
  60 C :   -0.173317
  61 N :    0.152470
  62 H :    0.008106
  63 H :   -0.001754
  64 H :   -0.006385
  65 H :   -0.011467
  66 H :    0.011653
  67 H :    0.033501
  68 H :    0.012022
  69 H :   -0.003939
  70 H :    0.020543
  71 H :   -0.005907
  72 H :    0.005556
  73 H :    0.011978
  74 H :    0.014329
  75 H :    0.006944
  76 H :    0.031202
  77 H :   -0.009035
  78 H :    0.006177
  79 H :   -0.000120
  80 H :   -0.004665
Sum of atomic charges:   -0.0000000

LOEWDIN ATOMIC CHARGES
----------------------
   0 C :   -0.029092
   1 C :    0.066604
   2 F :   -0.048689
   3 C :    0.067816
   4 F :   -0.049413
   5 C :   -0.033378
   6 C :   -0.008608
   7 C :   -0.006526
   8 C :    0.017358
   9 C :   -0.022370
  10 C :   -0.052213
  11 C :    0.029216
  12 C :    0.084056
  13 O :   -0.145082
  14 C :   -0.094105
  15 C :    0.074515
  16 C :   -0.138795
  17 C :   -0.017345
  18 N :   -0.053585
  19 C :   -0.020738
  20 N :   -0.052235
  21 C :    0.069144
  22 C :   -0.019223
  23 C :    0.027839
  24 C :   -0.022756
  25 C :    0.027542
  26 C :   -0.019754
  27 C :   -0.024062
  28 C :    0.104369
  29 F :   -0.051303
  30 C :   -0.059606
  31 C :   -0.039081
  32 C :   -0.050360
  33 N :   -0.279177
  34 S :    0.657112
  35 N :   -0.288302
  36 C :    0.009538
  37 C :   -0.007410
  38 C :    0.041110
  39 C :   -0.038212
  40 C :    0.067822
  41 C :   -0.093996
  42 C :    0.082397
  43 O :   -0.142066
  44 C :   -0.053851
  45 C :    0.030297
  46 C :   -0.009556
  47 C :   -0.005894
  48 C :   -0.030511
  49 C :    0.066682
  50 C :    0.066804
  51 C :   -0.032962
  52 F :   -0.049536
  53 F :   -0.048944
  54 C :    0.012817
  55 C :   -0.020342
  56 C :    0.064532
  57 C :   -0.140825
  58 C :   -0.017522
  59 N :   -0.039989
  60 C :   -0.019566
  61 N :   -0.053668
  62 H :    0.047901
  63 H :    0.044503
  64 H :    0.039919
  65 H :    0.039729
  66 H :    0.042334
  67 H :    0.033757
  68 H :    0.038326
  69 H :    0.030902
  70 H :    0.042032
  71 H :    0.042094
  72 H :    0.039028
  73 H :    0.030798
  74 H :    0.033481
  75 H :    0.037467
  76 H :    0.048675
  77 H :    0.040696
  78 H :    0.047248
  79 H :    0.044924
  80 H :    0.039263

  Mayer bond orders larger than 0.100000
B(  0-C ,  1-C ) :   1.4418 B(  0-C ,  5-C ) :   0.1084 B(  0-C ,  7-C ) :   1.1874
B(  0-C , 62-H ) :   1.0069 B(  1-C ,  2-F ) :   1.1357 B(  1-C ,  3-C ) :   1.1906
B(  3-C ,  4-F ) :   1.1330 B(  3-C ,  5-C ) :   1.4431 B(  5-C ,  6-C ) :   1.1926
B(  5-C , 63-H ) :   1.0073 B(  6-C ,  7-C ) :   1.2557 B(  6-C , 11-C ) :   1.1884
B(  7-C ,  8-C ) :   1.2183 B(  8-C ,  9-C ) :   1.4485 B(  8-C , 64-H ) :   0.9892
B(  9-C , 10-C ) :   1.2208 B(  9-C , 15-C ) :   0.9864 B( 10-C , 11-C ) :   1.4740
B( 10-C , 12-C ) :   0.9415 B( 11-C , 65-H ) :   1.0160 B( 12-C , 13-O ) :   2.2031
B( 12-C , 14-C ) :   0.9467 B( 14-C , 15-C ) :   1.0678 B( 14-C , 21-C ) :   1.5262
B( 15-C , 16-C ) :   1.6266 B( 16-C , 17-C ) :   1.1446 B( 16-C , 19-C ) :   1.1460
B( 17-C , 18-N ) :   2.9606 B( 19-C , 20-N ) :   2.9656 B( 21-C , 22-C ) :   1.1791
B( 21-C , 66-H ) :   0.9612 B( 22-C , 23-C ) :   1.5792 B( 22-C , 67-H ) :   0.9680
B( 23-C , 24-C ) :   1.1457 B( 23-C , 68-H ) :   0.9772 B( 24-C , 25-C ) :   1.6335
B( 24-C , 69-H ) :   0.9690 B( 25-C , 26-C ) :   1.1457 B( 25-C , 70-H ) :   0.9749
B( 26-C , 27-C ) :   1.3747 B( 26-C , 30-C ) :   0.1067 B( 26-C , 32-C ) :   1.1578
B( 27-C , 28-C ) :   1.2648 B( 27-C , 71-H ) :   0.9939 B( 28-C , 29-F ) :   1.0885
B( 28-C , 30-C ) :   1.3433 B( 30-C , 31-C ) :   1.1468 B( 30-C , 36-C ) :   1.1456
B( 31-C , 32-C ) :   1.1531 B( 31-C , 35-N ) :   1.5544 B( 32-C , 33-N ) :   1.5491
B( 33-N , 34-S ) :   1.2739 B( 33-N , 35-N ) :   0.1475 B( 34-S , 35-N ) :   1.2608
B( 36-C , 37-C ) :   1.5799 B( 36-C , 72-H ) :   0.9796 B( 37-C , 38-C ) :   1.1639
B( 37-C , 73-H ) :   0.9839 B( 38-C , 39-C ) :   1.5886 B( 38-C , 74-H ) :   0.9775
B( 39-C , 40-C ) :   1.1632 B( 39-C , 75-H ) :   0.9632 B( 40-C , 41-C ) :   1.6372
B( 40-C , 76-H ) :   0.9266 B( 41-C , 42-C ) :   0.9470 B( 41-C , 56-C ) :   1.0477
B( 42-C , 43-O ) :   2.2642 B( 42-C , 44-C ) :   0.9161 B( 44-C , 45-C ) :   1.4740
B( 44-C , 55-C ) :   1.2222 B( 45-C , 46-C ) :   1.1928 B( 45-C , 77-H ) :   1.0159
B( 46-C , 47-C ) :   1.2572 B( 46-C , 51-C ) :   1.1918 B( 47-C , 48-C ) :   1.1901
B( 47-C , 54-C ) :   1.2158 B( 48-C , 49-C ) :   1.4419 B( 48-C , 51-C ) :   0.1091
B( 48-C , 78-H ) :   1.0062 B( 49-C , 50-C ) :   1.1927 B( 49-C , 53-F ) :   1.1348
B( 50-C , 51-C ) :   1.4438 B( 50-C , 52-F ) :   1.1337 B( 51-C , 79-H ) :   1.0064
B( 54-C , 55-C ) :   1.4569 B( 54-C , 80-H ) :   0.9924 B( 55-C , 56-C ) :   0.9924
B( 56-C , 57-C ) :   1.6372 B( 57-C , 58-C ) :   1.1737 B( 57-C , 60-C ) :   1.1309
B( 58-C , 59-N ) :   2.9885 B( 60-C , 61-N ) :   2.9813

-----------------------------------------------------------------------------
         ABSORPTION SPECTRUM VIA TRANSITION ELECTRIC DIPOLE MOMENTS
-----------------------------------------------------------------------------
State   Energy  Wavelength   fosc         T2         TX        TY        TZ
        (cm-1)    (nm)                  (au**2)     (au)      (au)      (au)
-----------------------------------------------------------------------------
   0   16070.0    622.3   2.121637651  43.46411  -1.16721   6.31478   1.49174
   1   21408.7    467.1   0.099032067   1.52286   0.77028   0.82694   0.49568
   2   24226.1    412.8   0.031098480   0.42260   0.12242   0.63512  -0.06510
   3   25384.6    393.9   0.012230251   0.15861  -0.28304   0.25808   0.10907
   4   26173.0    382.1   0.066673238   0.83864   0.17046   0.77973   0.44900
   5   26434.3    378.3   0.002789777   0.03474   0.01818   0.08465   0.16507
   6   26529.0    376.9   0.053066878   0.65853  -0.01771   0.00363  -0.81130
   7   28105.6    355.8   0.005180891   0.06069  -0.24417   0.02966   0.01366
   8   28276.8    353.6   0.007254818   0.08446  -0.09842  -0.14928  -0.22911
   9   28912.5    345.9   0.099874457   1.13722   0.30604   0.83345   0.59070
  10   29292.8    341.4   0.063106532   0.70923   0.03511   0.14228   0.82931
  11   29678.2    336.9   0.257239559   2.85348  -0.01583  -1.29080   1.08952
  12   31280.5    319.7   0.156787308   1.65011   0.42811  -0.73439  -0.96307
  13   31983.1    312.7   0.123740913   1.27370  -0.19902  -0.80634  -0.76414
  14   32938.7    303.6   0.061885911   0.61853  -0.76705   0.14970  -0.08804
  15   33141.5    301.7   0.216443198   2.15005  -0.16833   0.86913  -1.16890
  16   33228.6    300.9   0.364401432   3.61030  -0.31352   1.28381  -1.36523
  17   33533.4    298.2   0.363949555   3.57305   0.24035  -1.43806  -1.20302
  18   33836.2    295.5   0.030474481   0.29650  -0.16138   0.07296   0.51491
  19   34262.2    291.9   0.150097940   1.44223   0.40697  -0.40002   1.05669
  20   34629.2    288.8   0.033501782   0.31849   0.09661   0.01705   0.55576
  21   34816.8    287.2   0.153280685   1.44935   0.14428   1.04499   0.58012
  22   35750.1    279.7   0.022475840   0.20697   0.13286  -0.19277   0.39008
  23   36288.6    275.6   0.000547235   0.00496  -0.02876   0.03895  -0.05119
  24   36391.3    274.8   0.057177655   0.51725  -0.27798   0.54185  -0.38260
  25   37179.6    269.0   0.314783758   2.78730   0.09571   1.46597  -0.79313
  26   37433.1    267.1   0.491365001   4.32140   0.49165  -0.58328   1.93377
  27   37933.5    263.6   0.076704215   0.66569   0.36787   0.60997  -0.39787
  28   38640.7    258.8   0.076051050   0.64794   0.18647   0.71440  -0.32064
  29   38759.6    258.0   0.059991168   0.50955   0.23373  -0.52936   0.41796
  30   38920.0    256.9   0.001756763   0.01486  -0.00509  -0.10227  -0.06614
  31   39388.7    253.9   0.027744649   0.23189   0.46421  -0.11255  -0.06111
  32   39677.4    252.0   0.112596460   0.93424   0.20112  -0.93838  -0.11502
  33   40063.9    249.6   0.075053349   0.61673  -0.40261  -0.36190  -0.56891

FINAL SINGLE POINT ENERGY     -3213.194752155425

DIPOLE MOMENT
-------------
                                X             Y             Z
Electronic contribution:     12.43376      -2.51612      24.95729
Nuclear contribution   :    -13.54363       0.94906     -23.52521
                        -----------------------------------------
Total Dipole Moment    :     -1.10987      -1.56705       1.43208
                        -----------------------------------------
Magnitude (a.u.)       :      2.39548
Magnitude (Debye)      :      6.08882

Rotational constants in cm-1:     0.002528     0.000245     0.000229
Rotational constants in MHz :    75.778967     7.359217     6.870742

                             ****ORCA TERMINATED NORMALLY****
TOTAL RUN TIME: 0 days 0 hours 6 minutes 13 seconds 691 msec
