                         Program Version 4.2.0 -  RELEASE  -
|  1> # ORCA input file
|  2> # SCF done       -220.573367981120          0.000990775069
|  3> ! CAM-B3LYP def2-SVP def2/J RIJCOSX Grid4 TightSCF
|  4> %maxcore 5000
|  5> %tddft
|  6>     Mode sTDDFT
|  7>     Ethresh 5.0
|  8>     maxcore 5000
|  9> end
| 10>
| 11> %pal
| 12>   nprocs 6
| 13>   end
| 14> * xyz 0 1
| 15>    C       -9.42674         2.25026        -3.00423
| 16>    C      -10.48922         2.50374        -3.82588
| 17>    F      -10.85360         3.76694        -4.08534
| 18>    C      -11.21363         1.44519        -4.40865
| 19>    F      -12.25158         1.72290        -5.21020
| 20>    C      -10.86547         0.14669        -4.16158
| 21>    C       -9.77628        -0.14659        -3.31872
| 22>    C       -9.04270         0.92271        -2.72869
| 23>    C       -7.94633         0.65287        -1.87677
| 24>    C       -7.59627        -0.64632        -1.62084
| 25>    C       -8.33571        -1.70640        -2.21512
| 26>    C       -9.39596        -1.47917        -3.04306
| 27>    C       -7.76694        -2.99473        -1.77793
| 28>    O       -8.15493        -4.10024        -2.10998
| 29>    C       -6.65882        -2.66644        -0.87534
| 30>    C       -6.53861        -1.22544        -0.79315
| 31>    C       -5.61100        -0.50210        -0.08560
| 32>    C       -4.57673        -1.03564         0.71019
| 33>    N       -3.70703        -1.38357         1.37653
| 34>    C       -5.56151         0.90725        -0.05978
| 35>    N       -5.46440         2.04948         0.00704
| 36>    C       -5.88131        -3.57454        -0.19639
| 37>    C       -5.90971        -4.97379        -0.18185
| 38>    C       -5.02952        -5.70632         0.62916
| 39>    C       -5.22048        -7.06628         0.50509
| 40>    C       -6.25289        -7.39947        -0.42068
| 41>    S       -6.98885        -6.00951        -1.11710
| 42>    C       -6.32401        -8.78764        -0.44126
| 43>    C       -5.34341        -9.26576         0.46831
| 44>    N       -4.68712        -8.20967         1.04246
| 45>    C       -3.59782        -8.28147         1.97617
| 46>    C       -5.29759       -10.65037         0.55569
| 47>    C       -6.22934       -11.24954        -0.28309
| 48>    S       -7.17413       -10.08045        -1.19973
| 49>    C       -6.47717       -12.63705        -0.47953
| 50>    C       -5.86760       -13.68533         0.25464
| 51>    C       -6.13448       -15.07782        -0.01510
| 52>    N       -5.51450       -16.01599         0.73176
| 53>    C       -4.70095       -15.66407         1.67223
| 54>    C       -4.44329       -14.30030         1.93959
| 55>    N       -5.01145       -13.36752         1.24860
| 56>    F       -3.60932       -13.92368         2.91096
| 57>    F       -4.12127       -16.63694         2.37837
| 58>    C       -7.01663       -15.49812        -1.04156
| 59>    C       -7.64146       -14.44875        -1.75157
| 60>    C       -7.38736       -13.06182        -1.47303
| 61>    N       -8.09653       -12.26387        -2.27124
| 62>    S       -8.98637       -13.15353        -3.26449
| 63>    N       -8.52320       -14.59696        -2.74021
| 64>    C       -7.27863       -16.85207        -1.39310
| 65>    C       -6.80473       -18.00928        -0.79059
| 66>    C       -7.25043       -19.15152        -1.44449
| 67>    C       -8.07364       -18.87028        -2.56793
| 68>    S       -8.30805       -17.17747        -2.78574
| 69>    C       -8.40725       -20.09529        -3.12666
| 70>    C       -7.79447       -21.09629        -2.32614
| 71>    N       -7.09615       -20.50481        -1.30800
| 72>    C       -6.31974       -21.19223        -0.31352
| 73>    C       -8.05250       -22.38911        -2.76450
| 74>    C       -8.80519       -22.39807        -3.92998
| 75>    S       -9.26849       -20.77471        -4.44855
| 76>    C       -9.24999       -23.54305        -4.62594
| 77>    C       -9.64444       -23.63069        -5.92882
| 78>    C      -10.53755       -24.73109        -6.37316
| 79>    O      -10.81414       -25.73741        -5.76130
| 80>    C      -11.05791       -24.29528        -7.68792
| 81>    C      -12.00995       -24.87920        -8.47238
| 82>    C      -12.37010       -24.26079        -9.69137
| 83>    C      -11.73777       -23.04175       -10.07242
| 84>    C      -12.10706       -22.42797       -11.28601
| 85>    C      -13.05627       -22.99919       -12.08613
| 86>    C      -13.67973       -24.20534       -11.70960
| 87>    C      -13.34500       -24.82390       -10.53771
| 88>    F      -14.60827       -24.74273       -12.51324
| 89>    F      -13.40458       -22.41486       -13.24062
| 90>    C      -10.74936       -22.46371        -9.24324
| 91>    C      -10.41135       -23.08568        -8.07216
| 92>    C       -9.42072       -22.75051        -7.05389
| 93>    C       -8.31473       -21.96506        -7.25407
| 94>    C       -7.23572       -21.91187        -6.34781
| 95>    N       -6.31977       -21.89313        -5.65552
| 96>    C       -8.09211       -21.20897        -8.42123
| 97>    N       -7.87503       -20.56612        -9.34717
| 98>    H       -8.88284         3.07265        -2.56635
| 99>    H      -11.43006        -0.65282        -4.61514
|100>    H       -7.41445         1.48572        -1.44673
|101>    H       -9.93805        -2.30430        -3.47933
|102>    H       -5.11800        -3.16282         0.45267
|103>    H       -4.30291        -5.22675         1.26015
|104>    H       -3.62802        -9.24066         2.48930
|105>    H       -3.68990        -7.48089         2.71019
|106>    H       -2.63504        -8.18225         1.46642
|107>    H       -4.63762       -11.22303         1.17694
|108>    H       -6.16829       -17.98154         0.07189
|109>    H       -6.96213       -21.82084         0.30802
|110>    H       -5.82189       -20.46009         0.31753
|111>    H       -5.56688       -21.82278        -0.79107
|112>    H       -7.68499       -23.29022        -2.30866
|113>    H       -9.36699       -24.44749        -4.03679
|114>    H      -12.48293       -25.80067        -8.16888
|115>    H      -11.63660       -21.50620       -11.59051
|116>    H      -13.83192       -25.74673       -10.26404
|117>    H      -10.28978       -21.53704        -9.54838
|118> *
|119>
|120>                          ****END OF INPUT****

CARTESIAN COORDINATES (ANGSTROEM)
---------------------------------
  C     -9.426740    2.250260   -3.004230
  C    -10.489220    2.503740   -3.825880
  F    -10.853600    3.766940   -4.085340
  C    -11.213630    1.445190   -4.408650
  F    -12.251580    1.722900   -5.210200
  C    -10.865470    0.146690   -4.161580
  C     -9.776280   -0.146590   -3.318720
  C     -9.042700    0.922710   -2.728690
  C     -7.946330    0.652870   -1.876770
  C     -7.596270   -0.646320   -1.620840
  C     -8.335710   -1.706400   -2.215120
  C     -9.395960   -1.479170   -3.043060
  C     -7.766940   -2.994730   -1.777930
  O     -8.154930   -4.100240   -2.109980
  C     -6.658820   -2.666440   -0.875340
  C     -6.538610   -1.225440   -0.793150
  C     -5.611000   -0.502100   -0.085600
  C     -4.576730   -1.035640    0.710190
  N     -3.707030   -1.383570    1.376530
  C     -5.561510    0.907250   -0.059780
  N     -5.464400    2.049480    0.007040
  C     -5.881310   -3.574540   -0.196390
  C     -5.909710   -4.973790   -0.181850
  C     -5.029520   -5.706320    0.629160
  C     -5.220480   -7.066280    0.505090
  C     -6.252890   -7.399470   -0.420680
  S     -6.988850   -6.009510   -1.117100
  C     -6.324010   -8.787640   -0.441260
  C     -5.343410   -9.265760    0.468310
  N     -4.687120   -8.209670    1.042460
  C     -3.597820   -8.281470    1.976170
  C     -5.297590  -10.650370    0.555690
  C     -6.229340  -11.249540   -0.283090
  S     -7.174130  -10.080450   -1.199730
  C     -6.477170  -12.637050   -0.479530
  C     -5.867600  -13.685330    0.254640
  C     -6.134480  -15.077820   -0.015100
  N     -5.514500  -16.015990    0.731760
  C     -4.700950  -15.664070    1.672230
  C     -4.443290  -14.300300    1.939590
  N     -5.011450  -13.367520    1.248600
  F     -3.609320  -13.923680    2.910960
  F     -4.121270  -16.636940    2.378370
  C     -7.016630  -15.498120   -1.041560
  C     -7.641460  -14.448750   -1.751570
  C     -7.387360  -13.061820   -1.473030
  N     -8.096530  -12.263870   -2.271240
  S     -8.986370  -13.153530   -3.264490
  N     -8.523200  -14.596960   -2.740210
  C     -7.278630  -16.852070   -1.393100
  C     -6.804730  -18.009280   -0.790590
  C     -7.250430  -19.151520   -1.444490
  C     -8.073640  -18.870280   -2.567930
  S     -8.308050  -17.177470   -2.785740
  C     -8.407250  -20.095290   -3.126660
  C     -7.794470  -21.096290   -2.326140
  N     -7.096150  -20.504810   -1.308000
  C     -6.319740  -21.192230   -0.313520
  C     -8.052500  -22.389110   -2.764500
  C     -8.805190  -22.398070   -3.929980
  S     -9.268490  -20.774710   -4.448550
  C     -9.249990  -23.543050   -4.625940
  C     -9.644440  -23.630690   -5.928820
  C    -10.537550  -24.731090   -6.373160
  O    -10.814140  -25.737410   -5.761300
  C    -11.057910  -24.295280   -7.687920
  C    -12.009950  -24.879200   -8.472380
  C    -12.370100  -24.260790   -9.691370
  C    -11.737770  -23.041750  -10.072420
  C    -12.107060  -22.427970  -11.286010
  C    -13.056270  -22.999190  -12.086130
  C    -13.679730  -24.205340  -11.709600
  C    -13.345000  -24.823900  -10.537710
  F    -14.608270  -24.742730  -12.513240
  F    -13.404580  -22.414860  -13.240620
  C    -10.749360  -22.463710   -9.243240
  C    -10.411350  -23.085680   -8.072160
  C     -9.420720  -22.750510   -7.053890
  C     -8.314730  -21.965060   -7.254070
  C     -7.235720  -21.911870   -6.347810
  N     -6.319770  -21.893130   -5.655520
  C     -8.092110  -21.208970   -8.421230
  N     -7.875030  -20.566120   -9.347170
  H     -8.882840    3.072650   -2.566350
  H    -11.430060   -0.652820   -4.615140
  H     -7.414450    1.485720   -1.446730
  H     -9.938050   -2.304300   -3.479330
  H     -5.118000   -3.162820    0.452670
  H     -4.302910   -5.226750    1.260150
  H     -3.628020   -9.240660    2.489300
  H     -3.689900   -7.480890    2.710190
  H     -2.635040   -8.182250    1.466420
  H     -4.637620  -11.223030    1.176940
  H     -6.168290  -17.981540    0.071890
  H     -6.962130  -21.820840    0.308020
  H     -5.821890  -20.460090    0.317530
  H     -5.566880  -21.822780   -0.791070
  H     -7.684990  -23.290220   -2.308660
  H     -9.366990  -24.447490   -4.036790
  H    -12.482930  -25.800670   -8.168880
  H    -11.636600  -21.506200  -11.590510
  H    -13.831920  -25.746730  -10.264040
  H    -10.289780  -21.537040   -9.548380

 Total Charge           Charge          ....    0
 Multiplicity           Mult            ....    1
 Number of Electrons    NEL             ....  600
 Basis Dimension        Dim             .... 1282

ORBITAL ENERGIES
----------------

  NO   OCC          E(Eh)            E(eV)
   0   2.0000     -89.049705     -2423.1657
   1   2.0000     -88.966671     -2420.9062
   2   2.0000     -88.959371     -2420.7075
   3   2.0000     -88.958694     -2420.6891
   4   2.0000     -88.958426     -2420.6818
   5   2.0000     -24.823317      -675.4768
   6   2.0000     -24.823130      -675.4717
   7   2.0000     -24.795377      -674.7165
   8   2.0000     -24.794780      -674.7003
   9   2.0000     -24.794137      -674.6828
  10   2.0000     -24.792808      -674.6466
  11   2.0000     -19.214005      -522.8397
  12   2.0000     -19.210721      -522.7503
  13   2.0000     -14.476888      -393.9361
  14   2.0000     -14.473141      -393.8342
  15   2.0000     -14.462068      -393.5329
  16   2.0000     -14.461741      -393.5240
  17   2.0000     -14.457396      -393.4057
  18   2.0000     -14.456951      -393.3936
  19   2.0000     -14.412211      -392.1762
  20   2.0000     -14.411840      -392.1661
  21   2.0000     -14.408450      -392.0738
  22   2.0000     -14.407828      -392.0569
  23   2.0000     -10.438139      -284.0362
  24   2.0000     -10.437762      -284.0260
  25   2.0000     -10.377998      -282.3997
  26   2.0000     -10.377611      -282.3892
  27   2.0000     -10.376596      -282.3615
  28   2.0000     -10.375697      -282.3371
  29   2.0000     -10.362992      -281.9914
  30   2.0000     -10.362705      -281.9836
  31   2.0000     -10.353801      -281.7412
  32   2.0000     -10.353383      -281.7299
  33   2.0000     -10.344294      -281.4826
  34   2.0000     -10.344037      -281.4756
  35   2.0000     -10.337740      -281.3042
  36   2.0000     -10.336739      -281.2770
  37   2.0000     -10.335502      -281.2433
  38   2.0000     -10.333463      -281.1878
  39   2.0000     -10.328789      -281.0606
  40   2.0000     -10.326911      -281.0095
  41   2.0000     -10.321618      -280.8655
  42   2.0000     -10.320966      -280.8478
  43   2.0000     -10.320455      -280.8339
  44   2.0000     -10.320101      -280.8242
  45   2.0000     -10.319794      -280.8159
  46   2.0000     -10.319537      -280.8089
  47   2.0000     -10.319534      -280.8088
  48   2.0000     -10.318840      -280.7899
  49   2.0000     -10.318098      -280.7697
  50   2.0000     -10.317536      -280.7544
  51   2.0000     -10.316849      -280.7357
  52   2.0000     -10.315890      -280.7096
  53   2.0000     -10.314659      -280.6761
  54   2.0000     -10.314212      -280.6640
  55   2.0000     -10.311755      -280.5971
  56   2.0000     -10.311090      -280.5790
  57   2.0000     -10.310076      -280.5514
  58   2.0000     -10.307036      -280.4687
  59   2.0000     -10.306681      -280.4590
  60   2.0000     -10.304991      -280.4131
  61   2.0000     -10.304603      -280.4025
  62   2.0000     -10.303681      -280.3774
  63   2.0000     -10.303657      -280.3768
  64   2.0000     -10.302638      -280.3490
  65   2.0000     -10.300994      -280.3043
  66   2.0000     -10.299457      -280.2625
  67   2.0000     -10.298985      -280.2496
  68   2.0000     -10.298739      -280.2429
  69   2.0000     -10.298134      -280.2265
  70   2.0000     -10.298038      -280.2239
  71   2.0000     -10.297164      -280.2001
  72   2.0000     -10.296566      -280.1838
  73   2.0000     -10.296405      -280.1794
  74   2.0000     -10.296267      -280.1757
  75   2.0000     -10.296069      -280.1703
  76   2.0000     -10.295531      -280.1556
  77   2.0000     -10.292306      -280.0679
  78   2.0000     -10.290058      -280.0067
  79   2.0000     -10.289096      -279.9805
  80   2.0000     -10.287027      -279.9242
  81   2.0000     -10.286294      -279.9043
  82   2.0000     -10.284845      -279.8649
  83   2.0000      -8.140446      -221.5128
  84   2.0000      -8.061005      -219.3511
  85   2.0000      -8.052287      -219.1139
  86   2.0000      -8.052104      -219.1089
  87   2.0000      -8.051953      -219.1048
  88   2.0000      -6.111550      -166.3037
  89   2.0000      -6.103849      -166.0942
  90   2.0000      -6.103209      -166.0767
  91   2.0000      -6.030727      -164.1044
  92   2.0000      -6.026623      -163.9927
  93   2.0000      -6.022355      -163.8766
  94   2.0000      -6.022182      -163.8719
  95   2.0000      -6.021939      -163.8653
  96   2.0000      -6.021773      -163.8608
  97   2.0000      -6.017681      -163.7494
  98   2.0000      -6.017337      -163.7401
  99   2.0000      -6.017330      -163.7399
 100   2.0000      -6.013599      -163.6384
 101   2.0000      -6.013577      -163.6377
 102   2.0000      -6.013377      -163.6323
 103   2.0000      -1.349720       -36.7278
 104   2.0000      -1.336175       -36.3592
 105   2.0000      -1.317802       -35.8592
 106   2.0000      -1.316237       -35.8166
 107   2.0000      -1.302967       -35.4555
 108   2.0000      -1.301376       -35.4122
 109   2.0000      -1.147398       -31.2223
 110   2.0000      -1.129991       -30.7486
 111   2.0000      -1.126055       -30.6415
 112   2.0000      -1.120638       -30.4941
 113   2.0000      -1.104397       -30.0522
 114   2.0000      -1.101272       -29.9671
 115   2.0000      -1.045293       -28.4439
 116   2.0000      -1.016159       -27.6511
 117   2.0000      -1.013987       -27.5920
 118   2.0000      -1.007487       -27.4151
 119   2.0000      -0.999729       -27.2040
 120   2.0000      -0.999226       -27.1903
 121   2.0000      -0.993469       -27.0337
 122   2.0000      -0.992115       -26.9968
 123   2.0000      -0.988769       -26.9058
 124   2.0000      -0.984352       -26.7856
 125   2.0000      -0.982793       -26.7431
 126   2.0000      -0.976315       -26.5669
 127   2.0000      -0.975135       -26.5348
 128   2.0000      -0.974225       -26.5100
 129   2.0000      -0.962989       -26.2043
 130   2.0000      -0.928579       -25.2679
 131   2.0000      -0.926404       -25.2087
 132   2.0000      -0.911880       -24.8135
 133   2.0000      -0.905755       -24.6468
 134   2.0000      -0.897426       -24.4202
 135   2.0000      -0.892860       -24.2960
 136   2.0000      -0.891906       -24.2700
 137   2.0000      -0.888557       -24.1789
 138   2.0000      -0.886022       -24.1099
 139   2.0000      -0.880680       -23.9645
 140   2.0000      -0.867166       -23.5968
 141   2.0000      -0.859758       -23.3952
 142   2.0000      -0.850297       -23.1377
 143   2.0000      -0.845896       -23.0180
 144   2.0000      -0.842461       -22.9245
 145   2.0000      -0.841176       -22.8896
 146   2.0000      -0.836893       -22.7730
 147   2.0000      -0.834975       -22.7208
 148   2.0000      -0.824968       -22.4485
 149   2.0000      -0.815161       -22.1816
 150   2.0000      -0.811434       -22.0802
 151   2.0000      -0.798223       -21.7207
 152   2.0000      -0.786269       -21.3955
 153   2.0000      -0.773446       -21.0465
 154   2.0000      -0.769242       -20.9321
 155   2.0000      -0.765825       -20.8391
 156   2.0000      -0.762197       -20.7404
 157   2.0000      -0.761277       -20.7154
 158   2.0000      -0.757610       -20.6156
 159   2.0000      -0.742210       -20.1966
 160   2.0000      -0.735557       -20.0155
 161   2.0000      -0.725825       -19.7507
 162   2.0000      -0.715306       -19.4645
 163   2.0000      -0.713161       -19.4061
 164   2.0000      -0.709159       -19.2972
 165   2.0000      -0.702054       -19.1039
 166   2.0000      -0.690285       -18.7836
 167   2.0000      -0.685731       -18.6597
 168   2.0000      -0.682958       -18.5842
 169   2.0000      -0.680247       -18.5105
 170   2.0000      -0.677883       -18.4461
 171   2.0000      -0.673444       -18.3253
 172   2.0000      -0.667728       -18.1698
 173   2.0000      -0.659834       -17.9550
 174   2.0000      -0.657538       -17.8925
 175   2.0000      -0.651939       -17.7402
 176   2.0000      -0.651515       -17.7286
 177   2.0000      -0.648913       -17.6578
 178   2.0000      -0.648270       -17.6403
 179   2.0000      -0.644915       -17.5490
 180   2.0000      -0.638549       -17.3758
 181   2.0000      -0.637112       -17.3367
 182   2.0000      -0.630703       -17.1623
 183   2.0000      -0.629125       -17.1194
 184   2.0000      -0.625762       -17.0278
 185   2.0000      -0.623592       -16.9688
 186   2.0000      -0.618677       -16.8351
 187   2.0000      -0.611863       -16.6496
 188   2.0000      -0.610386       -16.6094
 189   2.0000      -0.606434       -16.5019
 190   2.0000      -0.595804       -16.2127
 191   2.0000      -0.593218       -16.1423
 192   2.0000      -0.589966       -16.0538
 193   2.0000      -0.587773       -15.9941
 194   2.0000      -0.583614       -15.8810
 195   2.0000      -0.582386       -15.8475
 196   2.0000      -0.580827       -15.8051
 197   2.0000      -0.578080       -15.7304
 198   2.0000      -0.575952       -15.6724
 199   2.0000      -0.574780       -15.6405
 200   2.0000      -0.573669       -15.6103
 201   2.0000      -0.573292       -15.6001
 202   2.0000      -0.571206       -15.5433
 203   2.0000      -0.567776       -15.4500
 204   2.0000      -0.560224       -15.2445
 205   2.0000      -0.554493       -15.0885
 206   2.0000      -0.551787       -15.0149
 207   2.0000      -0.550938       -14.9918
 208   2.0000      -0.548733       -14.9318
 209   2.0000      -0.544174       -14.8077
 210   2.0000      -0.542552       -14.7636
 211   2.0000      -0.542047       -14.7499
 212   2.0000      -0.540979       -14.7208
 213   2.0000      -0.537393       -14.6232
 214   2.0000      -0.534792       -14.5524
 215   2.0000      -0.533270       -14.5110
 216   2.0000      -0.530543       -14.4368
 217   2.0000      -0.527542       -14.3552
 218   2.0000      -0.527014       -14.3408
 219   2.0000      -0.526795       -14.3348
 220   2.0000      -0.522463       -14.2169
 221   2.0000      -0.520652       -14.1677
 222   2.0000      -0.519889       -14.1469
 223   2.0000      -0.517386       -14.0788
 224   2.0000      -0.515017       -14.0143
 225   2.0000      -0.512331       -13.9412
 226   2.0000      -0.511132       -13.9086
 227   2.0000      -0.509860       -13.8740
 228   2.0000      -0.509672       -13.8689
 229   2.0000      -0.506397       -13.7797
 230   2.0000      -0.503098       -13.6900
 231   2.0000      -0.498839       -13.5741
 232   2.0000      -0.497202       -13.5296
 233   2.0000      -0.496800       -13.5186
 234   2.0000      -0.493196       -13.4205
 235   2.0000      -0.492387       -13.3985
 236   2.0000      -0.491345       -13.3702
 237   2.0000      -0.487904       -13.2765
 238   2.0000      -0.486418       -13.2361
 239   2.0000      -0.485004       -13.1976
 240   2.0000      -0.483218       -13.1490
 241   2.0000      -0.481784       -13.1100
 242   2.0000      -0.478793       -13.0286
 243   2.0000      -0.477017       -12.9803
 244   2.0000      -0.470119       -12.7926
 245   2.0000      -0.468042       -12.7361
 246   2.0000      -0.464571       -12.6416
 247   2.0000      -0.464278       -12.6337
 248   2.0000      -0.461648       -12.5621
 249   2.0000      -0.458815       -12.4850
 250   2.0000      -0.458153       -12.4670
 251   2.0000      -0.454974       -12.3805
 252   2.0000      -0.449052       -12.2193
 253   2.0000      -0.446455       -12.1487
 254   2.0000      -0.445467       -12.1218
 255   2.0000      -0.443069       -12.0565
 256   2.0000      -0.442393       -12.0381
 257   2.0000      -0.441776       -12.0213
 258   2.0000      -0.440383       -11.9834
 259   2.0000      -0.438686       -11.9372
 260   2.0000      -0.438270       -11.9259
 261   2.0000      -0.432643       -11.7728
 262   2.0000      -0.429759       -11.6943
 263   2.0000      -0.426492       -11.6054
 264   2.0000      -0.424596       -11.5538
 265   2.0000      -0.423687       -11.5291
 266   2.0000      -0.422028       -11.4840
 267   2.0000      -0.421824       -11.4784
 268   2.0000      -0.417846       -11.3702
 269   2.0000      -0.413053       -11.2397
 270   2.0000      -0.412676       -11.2295
 271   2.0000      -0.410658       -11.1746
 272   2.0000      -0.406796       -11.0695
 273   2.0000      -0.402251       -10.9458
 274   2.0000      -0.399986       -10.8842
 275   2.0000      -0.395523       -10.7627
 276   2.0000      -0.392820       -10.6892
 277   2.0000      -0.390833       -10.6351
 278   2.0000      -0.382949       -10.4206
 279   2.0000      -0.382108       -10.3977
 280   2.0000      -0.375814       -10.2264
 281   2.0000      -0.370848       -10.0913
 282   2.0000      -0.365267        -9.9394
 283   2.0000      -0.362683        -9.8691
 284   2.0000      -0.350222        -9.5300
 285   2.0000      -0.346081        -9.4173
 286   2.0000      -0.336878        -9.1669
 287   2.0000      -0.333802        -9.0832
 288   2.0000      -0.333409        -9.0725
 289   2.0000      -0.329523        -8.9668
 290   2.0000      -0.326424        -8.8825
 291   2.0000      -0.313541        -8.5319
 292   2.0000      -0.312787        -8.5114
 293   2.0000      -0.302926        -8.2430
 294   2.0000      -0.296848        -8.0776
 295   2.0000      -0.292305        -7.9540
 296   2.0000      -0.280266        -7.6264
 297   2.0000      -0.277723        -7.5572
 298   2.0000      -0.261591        -7.1183
 299   2.0000      -0.230467        -6.2713
 300   0.0000      -0.125000        -3.4014
 301   0.0000      -0.089842        -2.4447
 302   0.0000      -0.084990        -2.3127
 303   0.0000      -0.054893        -1.4937
 304   0.0000      -0.053738        -1.4623

MULLIKEN ATOMIC CHARGES
-----------------------
   0 C :   -0.106980
   1 C :    0.239888
   2 F :   -0.173004
   3 C :    0.236275
   4 F :   -0.174003
   5 C :   -0.104698
   6 C :    0.115671
   7 C :    0.111662
   8 C :   -0.084476
   9 C :    0.047489
  10 C :   -0.004429
  11 C :   -0.083772
  12 C :    0.160486
  13 O :   -0.176770
  14 C :   -0.097402
  15 C :    0.333306
  16 C :   -0.365819
  17 C :   -0.185111
  18 N :    0.133855
  19 C :   -0.183352
  20 N :    0.141466
  21 C :   -0.028029
  22 C :   -0.051277
  23 C :   -0.126613
  24 C :    0.206547
  25 C :   -0.092595
  26 S :    0.200965
  27 C :   -0.098590
  28 C :    0.197997
  29 N :   -0.161167
  30 C :    0.123749
  31 C :   -0.118931
  32 C :   -0.168839
  33 S :    0.167459
  34 C :    0.193636
  35 C :   -0.075735
  36 C :   -0.080595
  37 N :   -0.001878
  38 C :    0.143928
  39 C :    0.144431
  40 N :   -0.002050
  41 F :   -0.146538
  42 F :   -0.147088
  43 C :    0.199081
  44 C :   -0.023586
  45 C :   -0.022710
  46 N :   -0.321380
  47 S :    0.564523
  48 N :   -0.321714
  49 C :   -0.169021
  50 C :   -0.118433
  51 C :    0.193665
  52 C :   -0.086901
  53 S :    0.164121
  54 C :   -0.107548
  55 C :    0.178540
  56 N :   -0.164761
  57 C :    0.123922
  58 C :   -0.034818
  59 C :   -0.105489
  60 S :    0.160347
  61 C :    0.049983
  62 C :   -0.145025
  63 C :    0.142455
  64 O :   -0.144778
  65 C :    0.008464
  66 C :   -0.082988
  67 C :    0.111549
  68 C :    0.110915
  69 C :   -0.106041
  70 C :    0.240526
  71 C :    0.237606
  72 C :   -0.103465
  73 F :   -0.174170
  74 F :   -0.172298
  75 C :   -0.081314
  76 C :    0.041707
  77 C :    0.247263
  78 C :   -0.323582
  79 C :   -0.195607
  80 N :    0.163446
  81 C :   -0.176364
  82 N :    0.148762
  83 H :    0.006318
  84 H :   -0.002405
  85 H :   -0.008616
  86 H :   -0.012969
  87 H :    0.005162
  88 H :   -0.002420
  89 H :    0.044147
  90 H :    0.043254
  91 H :    0.044545
  92 H :   -0.008464
  93 H :   -0.005260
  94 H :    0.041474
  95 H :    0.044781
  96 H :    0.048810
  97 H :   -0.013188
  98 H :    0.025244
  99 H :   -0.011086
 100 H :    0.003830
 101 H :   -0.001990
 102 H :   -0.005120
Sum of atomic charges:   -0.0000000

LOEWDIN ATOMIC CHARGES
----------------------
   0 C :   -0.029464
   1 C :    0.064730
   2 F :   -0.050673
   3 C :    0.065973
   4 F :   -0.051312
   5 C :   -0.034211
   6 C :   -0.009675
   7 C :   -0.007797
   8 C :    0.016046
   9 C :   -0.021400
  10 C :   -0.049915
  11 C :    0.026398
  12 C :    0.080953
  13 O :   -0.167997
  14 C :   -0.119611
  15 C :    0.077842
  16 C :   -0.151731
  17 C :   -0.020023
  18 N :   -0.063920
  19 C :   -0.017748
  20 N :   -0.062296
  21 C :    0.053134
  22 C :   -0.174620
  23 C :   -0.035068
  24 C :   -0.016694
  25 C :   -0.200675
  26 S :    0.485250
  27 C :   -0.227566
  28 C :    0.000317
  29 N :    0.021317
  30 C :    0.040409
  31 C :   -0.065333
  32 C :   -0.145698
  33 S :    0.457718
  34 C :   -0.046930
  35 C :   -0.006271
  36 C :   -0.008307
  37 N :   -0.030025
  38 C :    0.055847
  39 C :    0.056413
  40 N :   -0.030205
  41 F :   -0.035111
  42 F :   -0.035479
  43 C :   -0.042659
  44 C :   -0.047826
  45 C :   -0.046885
  46 N :   -0.296078
  47 S :    0.682704
  48 N :   -0.295613
  49 C :   -0.149004
  50 C :   -0.060528
  51 C :   -0.003759
  52 C :   -0.221580
  53 S :    0.453953
  54 C :   -0.195438
  55 C :   -0.011461
  56 N :    0.029353
  57 C :    0.040827
  58 C :   -0.024525
  59 C :   -0.171830
  60 S :    0.446022
  61 C :    0.051422
  62 C :   -0.106764
  63 C :    0.081365
  64 O :   -0.147933
  65 C :   -0.052902
  66 C :    0.028321
  67 C :   -0.010347
  68 C :   -0.006219
  69 C :   -0.030863
  70 C :    0.065765
  71 C :    0.065554
  72 C :   -0.033217
  73 F :   -0.051263
  74 F :   -0.050246
  75 C :    0.011954
  76 C :   -0.018336
  77 C :    0.058582
  78 C :   -0.143874
  79 C :   -0.030672
  80 N :   -0.054851
  81 C :   -0.019283
  82 N :   -0.056735
  83 H :    0.047232
  84 H :    0.043915
  85 H :    0.039424
  86 H :    0.039086
  87 H :    0.049511
  88 H :    0.038474
  89 H :    0.037345
  90 H :    0.034637
  91 H :    0.030155
  92 H :    0.028112
  93 H :    0.028380
  94 H :    0.030842
  95 H :    0.039067
  96 H :    0.034717
  97 H :    0.037533
  98 H :    0.050231
  99 H :    0.039756
 100 H :    0.046531
 101 H :    0.044194
 102 H :    0.039134

  Mayer bond orders larger than 0.100000
B(  0-C ,  1-C ) :   1.4390 B(  0-C ,  5-C ) :   0.1084 B(  0-C ,  7-C ) :   1.1909
B(  0-C , 83-H ) :   1.0067 B(  1-C ,  2-F ) :   1.1326 B(  1-C ,  3-C ) :   1.1935
B(  3-C ,  4-F ) :   1.1312 B(  3-C ,  5-C ) :   1.4413 B(  5-C ,  6-C ) :   1.1944
B(  5-C , 84-H ) :   1.0068 B(  6-C ,  7-C ) :   1.2591 B(  6-C , 11-C ) :   1.1826
B(  7-C ,  8-C ) :   1.2114 B(  8-C ,  9-C ) :   1.4572 B(  8-C , 85-H ) :   0.9890
B(  9-C , 10-C ) :   1.2227 B(  9-C , 15-C ) :   0.9763 B( 10-C , 11-C ) :   1.4765
B( 10-C , 12-C ) :   0.9524 B( 11-C , 86-H ) :   1.0162 B( 12-C , 13-O ) :   2.1418
B( 12-C , 14-C ) :   0.9822 B( 14-C , 15-C ) :   1.1047 B( 14-C , 21-C ) :   1.4399
B( 15-C , 16-C ) :   1.6011 B( 16-C , 17-C ) :   1.1471 B( 16-C , 19-C ) :   1.1516
B( 17-C , 18-N ) :   2.9529 B( 19-C , 20-N ) :   2.9567 B( 21-C , 22-C ) :   1.3174
B( 21-C , 87-H ) :   0.9365 B( 22-C , 23-C ) :   1.2993 B( 22-C , 26-S ) :   1.0676
B( 23-C , 24-C ) :   1.2811 B( 23-C , 88-H ) :   1.0322 B( 24-C , 25-C ) :   1.2989
B( 24-C , 29-N ) :   1.1328 B( 25-C , 26-S ) :   1.0178 B( 25-C , 27-C ) :   1.4185
B( 27-C , 28-C ) :   1.3447 B( 27-C , 33-S ) :   0.9970 B( 28-C , 29-N ) :   1.1491
B( 28-C , 31-C ) :   1.2097 B( 29-N , 30-C ) :   0.9662 B( 30-C , 89-H ) :   0.9726
B( 30-C , 90-H ) :   0.9711 B( 30-C , 91-H ) :   0.9735 B( 31-C , 32-C ) :   1.4186
B( 31-C , 92-H ) :   1.0048 B( 32-C , 33-S ) :   1.1041 B( 32-C , 34-C ) :   1.1991
B( 34-C , 35-C ) :   1.2867 B( 34-C , 43-C ) :   0.1203 B( 34-C , 45-C ) :   1.1892
B( 35-C , 36-C ) :   1.1076 B( 35-C , 40-N ) :   1.4332 B( 36-C , 37-N ) :   1.4371
B( 36-C , 43-C ) :   1.2837 B( 37-N , 38-C ) :   1.6593 B( 38-C , 39-C ) :   1.1145
B( 38-C , 42-F ) :   1.1685 B( 39-C , 40-N ) :   1.6622 B( 39-C , 41-F ) :   1.1686
B( 43-C , 44-C ) :   1.1881 B( 43-C , 49-C ) :   1.2051 B( 44-C , 45-C ) :   1.1232
B( 44-C , 48-N ) :   1.4749 B( 45-C , 46-N ) :   1.4764 B( 46-N , 47-S ) :   1.2771
B( 46-N , 48-N ) :   0.1530 B( 47-S , 48-N ) :   1.2773 B( 49-C , 50-C ) :   1.4246
B( 49-C , 53-S ) :   1.0937 B( 50-C , 51-C ) :   1.2040 B( 50-C , 93-H ) :   1.0028
B( 51-C , 52-C ) :   1.3422 B( 51-C , 56-N ) :   1.1522 B( 52-C , 53-S ) :   0.9979
B( 52-C , 54-C ) :   1.4312 B( 54-C , 55-C ) :   1.3333 B( 54-C , 60-S ) :   1.0482
B( 55-C , 56-N ) :   1.1439 B( 55-C , 58-C ) :   1.2609 B( 56-N , 57-C ) :   0.9651
B( 57-C , 94-H ) :   0.9722 B( 57-C , 95-H ) :   0.9740 B( 57-C , 96-H ) :   0.9714
B( 58-C , 59-C ) :   1.3816 B( 58-C , 97-H ) :   1.0182 B( 59-C , 60-S ) :   1.0877
B( 59-C , 61-C ) :   1.1664 B( 61-C , 62-C ) :   1.5977 B( 61-C , 98-H ) :   0.9506
B( 62-C , 63-C ) :   0.9485 B( 62-C , 77-C ) :   1.0531 B( 63-C , 64-O ) :   2.2751
B( 63-C , 65-C ) :   0.9156 B( 65-C , 66-C ) :   1.4779 B( 65-C , 76-C ) :   1.2229
B( 66-C , 67-C ) :   1.1920 B( 66-C , 99-H ) :   1.0159 B( 67-C , 68-C ) :   1.2607
B( 67-C , 72-C ) :   1.1936 B( 68-C , 69-C ) :   1.1895 B( 68-C , 75-C ) :   1.2115
B( 69-C , 70-C ) :   1.4410 B( 69-C , 72-C ) :   0.1090 B( 69-C ,100-H ) :   1.0072
B( 70-C , 71-C ) :   1.1930 B( 70-C , 74-F ) :   1.1339 B( 71-C , 72-C ) :   1.4428
B( 71-C , 73-F ) :   1.1306 B( 72-C ,101-H ) :   1.0069 B( 75-C , 76-C ) :   1.4604
B( 75-C ,102-H ) :   0.9947 B( 76-C , 77-C ) :   0.9968 B( 77-C , 78-C ) :   1.6507
B( 78-C , 79-C ) :   1.1511 B( 78-C , 81-C ) :   1.1422 B( 79-C , 80-N ) :   3.0162
B( 81-C , 82-N ) :   2.9851

-----------------------------------------------------------------------------
         ABSORPTION SPECTRUM VIA TRANSITION ELECTRIC DIPOLE MOMENTS
-----------------------------------------------------------------------------
State   Energy  Wavelength   fosc         T2         TX        TY        TZ
        (cm-1)    (nm)                  (au**2)     (au)      (au)      (au)
-----------------------------------------------------------------------------
   0    8741.9   1143.9   1.219388674  45.92128   0.91699   6.50833   1.64987
   1   16322.8    612.6   0.235134683   4.74239  -0.72382   0.40974  -2.01261
   2   17513.1    571.0   0.475281775   8.93434  -0.36246  -2.47696  -1.63330
   3   17866.7    559.7   0.008045476   0.14825   0.09975   0.25562  -0.27010
   4   18214.7    549.0   0.070889943   1.28127  -0.58617   0.47069  -0.84624
   5   18822.4    531.3   0.785565644  13.73990  -0.38300   3.63799  -0.59851
   6   23364.2    428.0   0.021754893   0.30654   0.50302  -0.00076   0.23131
   7   24271.1    412.0   0.098610733   1.33755   0.21637   1.01291   0.51454
   8   24902.5    401.6   0.010788431   0.14262  -0.13476  -0.34704   0.06344
   9   25033.2    399.5   0.058023772   0.76307   0.49436  -0.42468   0.58166
  10   25386.6    393.9   0.111999496   1.45241   0.59069   1.02082   0.24783
  11   25728.8    388.7   0.004952221   0.06337   0.10260  -0.16573  -0.15929
  12   26442.8    378.2   0.101140893   1.25920   0.75457   0.82951   0.04161
  13   26923.6    371.4   0.108558513   1.32741  -0.64106  -0.10823  -0.95118
  14   27067.0    369.5   0.125822680   1.53036  -0.38265  -0.98164  -0.64833
  15   27573.9    362.7   0.126702859   1.51274   0.73449  -0.76097   0.62784
  16   27972.4    357.5   0.000552336   0.00650   0.04383  -0.02072  -0.06443
  17   28397.6    352.1   0.021544306   0.24976   0.17341   0.46829  -0.01998
  18   29200.3    342.5   0.002058086   0.02320   0.08511  -0.03288   0.12198
  19   29374.0    340.4   0.006569918   0.07363  -0.20114  -0.14679  -0.10783
  20   29499.2    339.0   0.001647179   0.01838   0.05401  -0.09798   0.07659
  21   29634.3    337.4   0.002871176   0.03190   0.09453   0.14918   0.02653
  22   30367.2    329.3   0.110310251   1.19588   0.40764   0.93808   0.38692
  23   30694.7    325.8   0.181851884   1.95043   0.95452  -0.44343   0.91798
  24   30767.8    325.0   0.355254402   3.80118   0.36749   1.88346   0.34456
  25   31320.2    319.3   0.100170013   1.05290   0.69917  -0.18291   0.72843
  26   31809.2    314.4   0.008666706   0.08970  -0.04595   0.22581  -0.19130
  27   31881.3    313.7   0.027241718   0.28130  -0.28965   0.09470  -0.43410
  28   32044.7    312.1   0.385139644   3.95674  -1.56222   0.29051  -1.19658
  29   32639.0    306.4   0.073507516   0.74143  -0.12425  -0.85020   0.05608
  30   32731.6    305.5   0.053183267   0.53491  -0.21842  -0.54480   0.43634
  31   32850.4    304.4   0.061117607   0.61249   0.49783   0.02221   0.60346
  32   33065.4    302.4   0.174023177   1.73264  -0.95927   0.18281  -0.88263
  33   33156.8    301.6   0.000471894   0.00469  -0.00356   0.06166   0.02951
  34   33494.5    298.6   0.065481303   0.64360  -0.38486  -0.69345  -0.12090
  35   33571.1    297.9   0.173587496   1.70227  -0.80434   0.21051  -1.00548
  36   33954.0    294.5   0.035962227   0.34868   0.58648   0.06349  -0.02627
  37   34199.5    292.4   0.004682274   0.04507   0.06656   0.15017   0.13450
  38   34271.6    291.8   0.033936290   0.32599  -0.36512  -0.00192  -0.43895
  39   34605.9    289.0   0.025581118   0.24336  -0.38039  -0.11231  -0.29334
  40   34863.5    286.8   0.067727491   0.63954  -0.60368   0.07480  -0.51915
  41   34951.6    286.1   0.003657505   0.03445   0.16647  -0.01756   0.08018
  42   35069.3    285.1   0.030306051   0.28450  -0.15499  -0.50791  -0.04999
  43   35481.2    281.8   0.167816493   1.55708   0.89717  -0.34207   0.79697
  44   35584.2    281.0   0.008980506   0.08308   0.18122  -0.02886   0.22228
  45   35678.9    280.3   0.042095650   0.38842   0.44030   0.06445   0.43635
  46   35788.3    279.4   0.207785627   1.91139  -0.85576   0.36229  -1.02362
  47   36061.8    277.3   0.857626713   7.82935  -2.27406  -0.59634  -1.51736
  48   36276.9    275.7   0.310613700   2.81881  -1.08022   0.55003  -1.16164
  49   36404.0    274.7   0.092384492   0.83546  -0.66843  -0.27748  -0.55827
  50   37370.4    267.6   0.004633645   0.04082   0.15953   0.07314   0.10010
  51   37433.4    267.1   0.000819850   0.00721   0.00068   0.06880   0.04976
  52   37495.6    266.7   0.032755886   0.28760  -0.28186  -0.37740  -0.25636
  53   37731.8    265.0   0.028775081   0.25106   0.40448   0.09045   0.28156
  54   37919.5    263.7   0.006338414   0.05503  -0.08246   0.21726  -0.03206
  55   38509.1    259.7   0.011963776   0.10228   0.10275   0.29851  -0.05111
  56   38823.9    257.6   0.002936527   0.02490  -0.10748  -0.11440   0.01621
  57   39270.4    254.6   0.115218184   0.96590   0.00678   0.98278  -0.00066
  58   39500.0    253.2   0.043139194   0.35954   0.23361   0.54932   0.05668
  59   39625.8    252.4   0.013159477   0.10933   0.16909   0.02501  -0.28304
  60   40229.3    248.6   0.042302388   0.34618  -0.06520   0.33703  -0.47784

FINAL SINGLE POINT ENERGY     -5581.321028542209

DIPOLE MOMENT
-------------
                                X             Y             Z
Electronic contribution:    -19.79668      10.69520     -21.25483
Nuclear contribution   :     19.31478     -13.54813      23.46034
                        -----------------------------------------
Total Dipole Moment    :     -0.48190      -2.85293       2.20551
                        -----------------------------------------
Magnitude (a.u.)       :      3.63810
Magnitude (Debye)      :      9.24730

Rotational constants in cm-1:     0.000888     0.000162     0.000139
Rotational constants in MHz :    26.608948     4.862463     4.171077

                             ****ORCA TERMINATED NORMALLY****
TOTAL RUN TIME: 0 days 0 hours 11 minutes 56 seconds 84 msec
