                         Program Version 4.2.0 -  RELEASE  -
|  1> # ORCA input file
|  2> # SCF done       -228.048700357205          0.000668708136
|  3> ! CAM-B3LYP def2-SVP def2/J RIJCOSX Grid4 TightSCF
|  4> %maxcore 5000
|  5> %tddft
|  6>     Mode sTDDFT
|  7>     Ethresh 5.0
|  8>     maxcore 5000
|  9> end
| 10>
| 11> %pal
| 12>   nprocs 6
| 13>   end
| 14> * xyz 0 1
| 15>    C       -6.64842        -6.28804        11.45872
| 16>    C       -6.08477        -7.18918        12.31800
| 17>    F       -6.03263        -6.92636        13.63007
| 18>    C       -5.55250        -8.40268        11.83776
| 19>    F       -5.00545        -9.26649        12.70298
| 20>    C       -5.59197        -8.69871        10.50392
| 21>    C       -6.16690        -7.79075         9.59385
| 22>    C       -6.70471        -6.56295        10.07757
| 23>    C       -7.28640        -5.63512         9.18274
| 24>    C       -7.33044        -5.92622         7.84464
| 25>    C       -6.79222        -7.15601         7.37307
| 26>    C       -6.22317        -8.07112         8.21062
| 27>    C       -6.96669        -7.23054         5.91279
| 28>    O       -6.62267        -8.15102         5.19325
| 29>    C       -7.62369        -5.97954         5.51334
| 30>    C       -7.85805        -5.18085         6.70294
| 31>    C       -8.47090        -3.95702         6.77765
| 32>    C       -9.00122        -3.22982         5.69138
| 33>    N       -9.45991        -2.57677         4.86523
| 34>    C       -8.66503        -3.24351         7.97980
| 35>    N       -8.85648        -2.61313         8.91963
| 36>    C       -7.93345        -5.61998         4.22727
| 37>    C       -7.76352        -6.32334         3.02318
| 38>    C       -8.10972        -5.77923         1.78715
| 39>    C       -7.88338        -6.61880         0.70129
| 40>    C       -8.08777        -6.23590        -0.69797
| 41>    C       -7.11150        -6.54042        -1.64124
| 42>    C       -7.33480        -6.24479        -2.97990
| 43>    C       -8.51483        -5.61322        -3.35613
| 44>    C       -9.47236        -5.27152        -2.40743
| 45>    C       -9.25698        -5.58497        -1.06917
| 46>    O      -10.58240        -4.65382        -2.88864
| 47>    C      -11.59334        -4.28040        -1.98230
| 48>    O       -6.47662        -6.54909        -3.99222
| 49>    C       -5.29676        -7.25066        -3.68601
| 50>    C       -7.37123        -7.85020         1.11250
| 51>    S       -7.13554        -7.93751         2.82028
| 52>    C       -7.04878        -8.99246         0.29699
| 53>    C       -5.97024        -9.80653         0.59038
| 54>    C       -5.61841       -10.88090        -0.22324
| 55>    F       -4.52900       -11.57870         0.15679
| 56>    C       -6.28720       -11.25470        -1.38408
| 57>    C       -7.42711       -10.45551        -1.68422
| 58>    C       -7.81566        -9.35589        -0.84039
| 59>    N       -8.94057        -8.78030        -1.26001
| 60>    S       -9.43550        -9.50462        -2.59769
| 61>    N       -8.26829       -10.60427        -2.70711
| 62>    C       -5.89673       -12.36557        -2.20267
| 63>    C       -6.53440       -12.84000        -3.32962
| 64>    C       -5.92286       -13.96375        -3.89635
| 65>    C       -6.43848       -14.69720        -5.04548
| 66>    C       -6.98674       -14.01871        -6.12229
| 67>    C       -7.45742       -14.72806        -7.22831
| 68>    C       -7.38380       -16.11260        -7.23844
| 69>    C       -6.84998       -16.79765        -6.14431
| 70>    C       -6.37743       -16.09311        -5.04810
| 71>    O       -6.83853       -18.15077        -6.25580
| 72>    C       -6.28026       -18.90519        -5.20503
| 73>    O       -7.96133       -13.97505        -8.23981
| 74>    C       -8.43998       -14.62886        -9.39142
| 75>    C       -4.78561       -14.36331        -3.19131
| 76>    S       -4.50108       -13.32839        -1.82494
| 77>    C       -3.86536       -15.36387        -3.57967
| 78>    C       -2.94810       -16.01245        -2.80846
| 79>    C       -1.76142       -16.65252        -3.42945
| 80>    O       -1.60146       -16.90897        -4.60110
| 81>    C       -0.81077       -16.85833        -2.31447
| 82>    C        0.48155       -17.29506        -2.35541
| 83>    C        1.21568       -17.38232        -1.15079
| 84>    C        0.59508       -17.01029         0.07729
| 85>    C        1.33738       -17.09135         1.27250
| 86>    C        2.63308       -17.52494         1.25080
| 87>    C        3.24495       -17.89524         0.03660
| 88>    C        2.55240       -17.82602        -1.13958
| 89>    F        4.51738       -18.31650         0.04473
| 90>    F        3.33679       -17.60204         2.38845
| 91>    C       -0.74879       -16.57182         0.09109
| 92>    C       -1.44116       -16.50292        -1.08720
| 93>    C       -2.82313       -16.13159        -1.37211
| 94>    C       -3.86163       -16.17343        -0.47900
| 95>    C       -5.20885       -16.12616        -0.89173
| 96>    N       -6.30732       -16.16060        -1.22379
| 97>    C       -3.69966       -16.38391         0.90398
| 98>    N       -3.60960       -16.54508         2.03678
| 99>    H       -7.05116        -5.36405        11.84328
|100>    H       -5.18050        -9.63167        10.15179
|101>    H       -7.68195        -4.71605         9.58321
|102>    H       -5.82319        -8.99557         7.82276
|103>    H       -8.38108        -4.64375         4.08497
|104>    H       -8.49180        -4.77766         1.69265
|105>    H       -6.19918        -7.01430        -1.31588
|106>    H       -8.68905        -5.38647        -4.39436
|107>    H       -9.99517        -5.36916        -0.31493
|108>    H      -12.36635        -3.80591        -2.58456
|109>    H      -11.22453        -3.56519        -1.24051
|110>    H      -12.01681        -5.15073        -1.47108
|111>    H       -4.79549        -7.41245        -4.63879
|112>    H       -5.51187        -8.22048        -3.22263
|113>    H       -4.64097        -6.67226        -3.02750
|114>    H       -5.35619        -9.60397         1.45446
|115>    H       -7.43430       -12.39201        -3.70721
|116>    H       -7.03398       -12.94243        -6.13857
|117>    H       -7.73601       -16.70361        -8.06703
|118>    H       -6.01014       -16.59942        -4.17098
|119>    H       -6.36771       -19.94587        -5.51257
|120>    H       -6.82640       -18.75680        -4.26838
|121>    H       -5.22413       -18.65965        -5.05393
|122>    H       -7.64908       -15.20233        -9.88456
|123>    H       -8.78110       -13.83829       -10.05778
|124>    H       -9.27827       -15.29212        -9.15707
|125>    H       -3.81966       -15.57458        -4.64451
|126>    H        0.93980       -17.56925        -3.29345
|127>    H        0.88240       -16.81488         2.21077
|128>    H        3.03560       -18.11267        -2.06053
|129>    H       -1.19673       -16.28937         1.03067
|130> *
|131>
|132>                          ****END OF INPUT****

CARTESIAN COORDINATES (ANGSTROEM)
---------------------------------
  C     -6.648420   -6.288040   11.458720
  C     -6.084770   -7.189180   12.318000
  F     -6.032630   -6.926360   13.630070
  C     -5.552500   -8.402680   11.837760
  F     -5.005450   -9.266490   12.702980
  C     -5.591970   -8.698710   10.503920
  C     -6.166900   -7.790750    9.593850
  C     -6.704710   -6.562950   10.077570
  C     -7.286400   -5.635120    9.182740
  C     -7.330440   -5.926220    7.844640
  C     -6.792220   -7.156010    7.373070
  C     -6.223170   -8.071120    8.210620
  C     -6.966690   -7.230540    5.912790
  O     -6.622670   -8.151020    5.193250
  C     -7.623690   -5.979540    5.513340
  C     -7.858050   -5.180850    6.702940
  C     -8.470900   -3.957020    6.777650
  C     -9.001220   -3.229820    5.691380
  N     -9.459910   -2.576770    4.865230
  C     -8.665030   -3.243510    7.979800
  N     -8.856480   -2.613130    8.919630
  C     -7.933450   -5.619980    4.227270
  C     -7.763520   -6.323340    3.023180
  C     -8.109720   -5.779230    1.787150
  C     -7.883380   -6.618800    0.701290
  C     -8.087770   -6.235900   -0.697970
  C     -7.111500   -6.540420   -1.641240
  C     -7.334800   -6.244790   -2.979900
  C     -8.514830   -5.613220   -3.356130
  C     -9.472360   -5.271520   -2.407430
  C     -9.256980   -5.584970   -1.069170
  O    -10.582400   -4.653820   -2.888640
  C    -11.593340   -4.280400   -1.982300
  O     -6.476620   -6.549090   -3.992220
  C     -5.296760   -7.250660   -3.686010
  C     -7.371230   -7.850200    1.112500
  S     -7.135540   -7.937510    2.820280
  C     -7.048780   -8.992460    0.296990
  C     -5.970240   -9.806530    0.590380
  C     -5.618410  -10.880900   -0.223240
  F     -4.529000  -11.578700    0.156790
  C     -6.287200  -11.254700   -1.384080
  C     -7.427110  -10.455510   -1.684220
  C     -7.815660   -9.355890   -0.840390
  N     -8.940570   -8.780300   -1.260010
  S     -9.435500   -9.504620   -2.597690
  N     -8.268290  -10.604270   -2.707110
  C     -5.896730  -12.365570   -2.202670
  C     -6.534400  -12.840000   -3.329620
  C     -5.922860  -13.963750   -3.896350
  C     -6.438480  -14.697200   -5.045480
  C     -6.986740  -14.018710   -6.122290
  C     -7.457420  -14.728060   -7.228310
  C     -7.383800  -16.112600   -7.238440
  C     -6.849980  -16.797650   -6.144310
  C     -6.377430  -16.093110   -5.048100
  O     -6.838530  -18.150770   -6.255800
  C     -6.280260  -18.905190   -5.205030
  O     -7.961330  -13.975050   -8.239810
  C     -8.439980  -14.628860   -9.391420
  C     -4.785610  -14.363310   -3.191310
  S     -4.501080  -13.328390   -1.824940
  C     -3.865360  -15.363870   -3.579670
  C     -2.948100  -16.012450   -2.808460
  C     -1.761420  -16.652520   -3.429450
  O     -1.601460  -16.908970   -4.601100
  C     -0.810770  -16.858330   -2.314470
  C      0.481550  -17.295060   -2.355410
  C      1.215680  -17.382320   -1.150790
  C      0.595080  -17.010290    0.077290
  C      1.337380  -17.091350    1.272500
  C      2.633080  -17.524940    1.250800
  C      3.244950  -17.895240    0.036600
  C      2.552400  -17.826020   -1.139580
  F      4.517380  -18.316500    0.044730
  F      3.336790  -17.602040    2.388450
  C     -0.748790  -16.571820    0.091090
  C     -1.441160  -16.502920   -1.087200
  C     -2.823130  -16.131590   -1.372110
  C     -3.861630  -16.173430   -0.479000
  C     -5.208850  -16.126160   -0.891730
  N     -6.307320  -16.160600   -1.223790
  C     -3.699660  -16.383910    0.903980
  N     -3.609600  -16.545080    2.036780
  H     -7.051160   -5.364050   11.843280
  H     -5.180500   -9.631670   10.151790
  H     -7.681950   -4.716050    9.583210
  H     -5.823190   -8.995570    7.822760
  H     -8.381080   -4.643750    4.084970
  H     -8.491800   -4.777660    1.692650
  H     -6.199180   -7.014300   -1.315880
  H     -8.689050   -5.386470   -4.394360
  H     -9.995170   -5.369160   -0.314930
  H    -12.366350   -3.805910   -2.584560
  H    -11.224530   -3.565190   -1.240510
  H    -12.016810   -5.150730   -1.471080
  H     -4.795490   -7.412450   -4.638790
  H     -5.511870   -8.220480   -3.222630
  H     -4.640970   -6.672260   -3.027500
  H     -5.356190   -9.603970    1.454460
  H     -7.434300  -12.392010   -3.707210
  H     -7.033980  -12.942430   -6.138570
  H     -7.736010  -16.703610   -8.067030
  H     -6.010140  -16.599420   -4.170980
  H     -6.367710  -19.945870   -5.512570
  H     -6.826400  -18.756800   -4.268380
  H     -5.224130  -18.659650   -5.053930
  H     -7.649080  -15.202330   -9.884560
  H     -8.781100  -13.838290  -10.057780
  H     -9.278270  -15.292120   -9.157070
  H     -3.819660  -15.574580   -4.644510
  H      0.939800  -17.569250   -3.293450
  H      0.882400  -16.814880    2.210770
  H      3.035600  -18.112670   -2.060530
  H     -1.196730  -16.289370    1.030670

 Total Charge           Charge          ....    0
 Multiplicity           Mult            ....    1
 Number of Electrons    NEL             ....  598
 Basis Dimension        Dim             .... 1343

ORBITAL ENERGIES
----------------

  NO   OCC          E(Eh)            E(eV)
   0   2.0000     -89.036079     -2422.7949
   1   2.0000     -88.974319     -2421.1143
   2   2.0000     -88.965284     -2420.8685
   3   2.0000     -24.809501      -675.1008
   4   2.0000     -24.800717      -674.8618
   5   2.0000     -24.799707      -674.8343
   6   2.0000     -24.796870      -674.7571
   7   2.0000     -24.796326      -674.7423
   8   2.0000     -19.242324      -523.6103
   9   2.0000     -19.241672      -523.5925
  10   2.0000     -19.241127      -523.5777
  11   2.0000     -19.239322      -523.5286
  12   2.0000     -19.228072      -523.2224
  13   2.0000     -19.212365      -522.7950
  14   2.0000     -14.448650      -393.1678
  15   2.0000     -14.447628      -393.1399
  16   2.0000     -14.422957      -392.4686
  17   2.0000     -14.419097      -392.3636
  18   2.0000     -14.414236      -392.2313
  19   2.0000     -14.412294      -392.1785
  20   2.0000     -10.388223      -282.6779
  21   2.0000     -10.384208      -282.5687
  22   2.0000     -10.383458      -282.5483
  23   2.0000     -10.379734      -282.4469
  24   2.0000     -10.379332      -282.4360
  25   2.0000     -10.376154      -282.3495
  26   2.0000     -10.364353      -282.0284
  27   2.0000     -10.347713      -281.5756
  28   2.0000     -10.347075      -281.5582
  29   2.0000     -10.341803      -281.4148
  30   2.0000     -10.340234      -281.3721
  31   2.0000     -10.338807      -281.3332
  32   2.0000     -10.336827      -281.2794
  33   2.0000     -10.331264      -281.1280
  34   2.0000     -10.331219      -281.1268
  35   2.0000     -10.330985      -281.1204
  36   2.0000     -10.330500      -281.1072
  37   2.0000     -10.330439      -281.1055
  38   2.0000     -10.325735      -280.9775
  39   2.0000     -10.324490      -280.9437
  40   2.0000     -10.324016      -280.9307
  41   2.0000     -10.322884      -280.9000
  42   2.0000     -10.322586      -280.8918
  43   2.0000     -10.322161      -280.8803
  44   2.0000     -10.321503      -280.8624
  45   2.0000     -10.321285      -280.8564
  46   2.0000     -10.321145      -280.8526
  47   2.0000     -10.319462      -280.8068
  48   2.0000     -10.317467      -280.7525
  49   2.0000     -10.316940      -280.7382
  50   2.0000     -10.315222      -280.6915
  51   2.0000     -10.314787      -280.6796
  52   2.0000     -10.313703      -280.6501
  53   2.0000     -10.313424      -280.6425
  54   2.0000     -10.311168      -280.5812
  55   2.0000     -10.310006      -280.5495
  56   2.0000     -10.308910      -280.5197
  57   2.0000     -10.308896      -280.5193
  58   2.0000     -10.308532      -280.5094
  59   2.0000     -10.306459      -280.4530
  60   2.0000     -10.305963      -280.4395
  61   2.0000     -10.305683      -280.4319
  62   2.0000     -10.304572      -280.4017
  63   2.0000     -10.303930      -280.3842
  64   2.0000     -10.303155      -280.3631
  65   2.0000     -10.300796      -280.2989
  66   2.0000     -10.300332      -280.2863
  67   2.0000     -10.300152      -280.2814
  68   2.0000     -10.299702      -280.2691
  69   2.0000     -10.298930      -280.2481
  70   2.0000     -10.297169      -280.2002
  71   2.0000     -10.296902      -280.1929
  72   2.0000     -10.296084      -280.1707
  73   2.0000     -10.292525      -280.0739
  74   2.0000     -10.291887      -280.0565
  75   2.0000     -10.286924      -279.9214
  76   2.0000     -10.284509      -279.8557
  77   2.0000     -10.277514      -279.6654
  78   2.0000     -10.262665      -279.2613
  79   2.0000     -10.262655      -279.2610
  80   2.0000     -10.260735      -279.2088
  81   2.0000     -10.260487      -279.2020
  82   2.0000     -10.258598      -279.1506
  83   2.0000     -10.256227      -279.0861
  84   2.0000      -8.127419      -221.1583
  85   2.0000      -8.067626      -219.5313
  86   2.0000      -8.059915      -219.3214
  87   2.0000      -6.098618      -165.9518
  88   2.0000      -6.090802      -165.7392
  89   2.0000      -6.089979      -165.7167
  90   2.0000      -6.036997      -164.2751
  91   2.0000      -6.032399      -164.1499
  92   2.0000      -6.030016      -164.0851
  93   2.0000      -6.029368      -164.0674
  94   2.0000      -6.024969      -163.9477
  95   2.0000      -6.021928      -163.8650
  96   2.0000      -1.324024       -36.0285
  97   2.0000      -1.323283       -36.0084
  98   2.0000      -1.319377       -35.9021
  99   2.0000      -1.308364       -35.6024
 100   2.0000      -1.304549       -35.4986
 101   2.0000      -1.147764       -31.2323
 102   2.0000      -1.146381       -31.1946
 103   2.0000      -1.145741       -31.1772
 104   2.0000      -1.143729       -31.1225
 105   2.0000      -1.143654       -31.1204
 106   2.0000      -1.136837       -30.9349
 107   2.0000      -1.127353       -30.6768
 108   2.0000      -1.025091       -27.8942
 109   2.0000      -1.019002       -27.7285
 110   2.0000      -1.012143       -27.5418
 111   2.0000      -1.008986       -27.4559
 112   2.0000      -1.004930       -27.3455
 113   2.0000      -1.001673       -27.2569
 114   2.0000      -0.999458       -27.1966
 115   2.0000      -0.992186       -26.9988
 116   2.0000      -0.987919       -26.8827
 117   2.0000      -0.985359       -26.8130
 118   2.0000      -0.979862       -26.6634
 119   2.0000      -0.976764       -26.5791
 120   2.0000      -0.948761       -25.8171
 121   2.0000      -0.945755       -25.7353
 122   2.0000      -0.936112       -25.4729
 123   2.0000      -0.930454       -25.3189
 124   2.0000      -0.916504       -24.9393
 125   2.0000      -0.907480       -24.6938
 126   2.0000      -0.898939       -24.4614
 127   2.0000      -0.895685       -24.3728
 128   2.0000      -0.891204       -24.2509
 129   2.0000      -0.888397       -24.1745
 130   2.0000      -0.878688       -23.9103
 131   2.0000      -0.874833       -23.8054
 132   2.0000      -0.870002       -23.6740
 133   2.0000      -0.866710       -23.5844
 134   2.0000      -0.844906       -22.9911
 135   2.0000      -0.844154       -22.9706
 136   2.0000      -0.842845       -22.9350
 137   2.0000      -0.840129       -22.8611
 138   2.0000      -0.838776       -22.8243
 139   2.0000      -0.827504       -22.5175
 140   2.0000      -0.825683       -22.4680
 141   2.0000      -0.815841       -22.2002
 142   2.0000      -0.800016       -21.7696
 143   2.0000      -0.790125       -21.5004
 144   2.0000      -0.783339       -21.3157
 145   2.0000      -0.780284       -21.2326
 146   2.0000      -0.773672       -21.0527
 147   2.0000      -0.773085       -21.0367
 148   2.0000      -0.768589       -20.9144
 149   2.0000      -0.763243       -20.7689
 150   2.0000      -0.761061       -20.7095
 151   2.0000      -0.741764       -20.1844
 152   2.0000      -0.739096       -20.1118
 153   2.0000      -0.728229       -19.8161
 154   2.0000      -0.724561       -19.7163
 155   2.0000      -0.721757       -19.6400
 156   2.0000      -0.715688       -19.4748
 157   2.0000      -0.709941       -19.3185
 158   2.0000      -0.707018       -19.2389
 159   2.0000      -0.702918       -19.1274
 160   2.0000      -0.691909       -18.8278
 161   2.0000      -0.683080       -18.5876
 162   2.0000      -0.680949       -18.5296
 163   2.0000      -0.673874       -18.3370
 164   2.0000      -0.672045       -18.2873
 165   2.0000      -0.666047       -18.1241
 166   2.0000      -0.661027       -17.9875
 167   2.0000      -0.658015       -17.9055
 168   2.0000      -0.653852       -17.7922
 169   2.0000      -0.648111       -17.6360
 170   2.0000      -0.647304       -17.6140
 171   2.0000      -0.644786       -17.5455
 172   2.0000      -0.640872       -17.4390
 173   2.0000      -0.638320       -17.3696
 174   2.0000      -0.636741       -17.3266
 175   2.0000      -0.632419       -17.2090
 176   2.0000      -0.627530       -17.0760
 177   2.0000      -0.620832       -16.8937
 178   2.0000      -0.613061       -16.6822
 179   2.0000      -0.612453       -16.6657
 180   2.0000      -0.607247       -16.5240
 181   2.0000      -0.599057       -16.3012
 182   2.0000      -0.592876       -16.1330
 183   2.0000      -0.590135       -16.0584
 184   2.0000      -0.587843       -15.9960
 185   2.0000      -0.586338       -15.9551
 186   2.0000      -0.584681       -15.9100
 187   2.0000      -0.583993       -15.8913
 188   2.0000      -0.583830       -15.8868
 189   2.0000      -0.580396       -15.7934
 190   2.0000      -0.579168       -15.7600
 191   2.0000      -0.577073       -15.7030
 192   2.0000      -0.573732       -15.6120
 193   2.0000      -0.571137       -15.5414
 194   2.0000      -0.567742       -15.4491
 195   2.0000      -0.567153       -15.4330
 196   2.0000      -0.564285       -15.3550
 197   2.0000      -0.562759       -15.3135
 198   2.0000      -0.560450       -15.2506
 199   2.0000      -0.556303       -15.1378
 200   2.0000      -0.554818       -15.0974
 201   2.0000      -0.552225       -15.0268
 202   2.0000      -0.551408       -15.0046
 203   2.0000      -0.550991       -14.9932
 204   2.0000      -0.549363       -14.9489
 205   2.0000      -0.547523       -14.8989
 206   2.0000      -0.546568       -14.8729
 207   2.0000      -0.545717       -14.8497
 208   2.0000      -0.544607       -14.8195
 209   2.0000      -0.540488       -14.7074
 210   2.0000      -0.534470       -14.5437
 211   2.0000      -0.534265       -14.5381
 212   2.0000      -0.533086       -14.5060
 213   2.0000      -0.532400       -14.4873
 214   2.0000      -0.528467       -14.3803
 215   2.0000      -0.527102       -14.3432
 216   2.0000      -0.523966       -14.2578
 217   2.0000      -0.522321       -14.2131
 218   2.0000      -0.518126       -14.0989
 219   2.0000      -0.517059       -14.0699
 220   2.0000      -0.513709       -13.9787
 221   2.0000      -0.512329       -13.9412
 222   2.0000      -0.510063       -13.8795
 223   2.0000      -0.505100       -13.7445
 224   2.0000      -0.504460       -13.7271
 225   2.0000      -0.502758       -13.6807
 226   2.0000      -0.501555       -13.6480
 227   2.0000      -0.498224       -13.5574
 228   2.0000      -0.495598       -13.4859
 229   2.0000      -0.493701       -13.4343
 230   2.0000      -0.492511       -13.4019
 231   2.0000      -0.488394       -13.2899
 232   2.0000      -0.485079       -13.1997
 233   2.0000      -0.484433       -13.1821
 234   2.0000      -0.483079       -13.1452
 235   2.0000      -0.481595       -13.1049
 236   2.0000      -0.478339       -13.0163
 237   2.0000      -0.475099       -12.9281
 238   2.0000      -0.473055       -12.8725
 239   2.0000      -0.472308       -12.8522
 240   2.0000      -0.467762       -12.7284
 241   2.0000      -0.466908       -12.7052
 242   2.0000      -0.464164       -12.6305
 243   2.0000      -0.463430       -12.6106
 244   2.0000      -0.462863       -12.5951
 245   2.0000      -0.459806       -12.5120
 246   2.0000      -0.455624       -12.3982
 247   2.0000      -0.454951       -12.3798
 248   2.0000      -0.452315       -12.3081
 249   2.0000      -0.450897       -12.2695
 250   2.0000      -0.450324       -12.2539
 251   2.0000      -0.448895       -12.2150
 252   2.0000      -0.448217       -12.1966
 253   2.0000      -0.444829       -12.1044
 254   2.0000      -0.443540       -12.0693
 255   2.0000      -0.441453       -12.0125
 256   2.0000      -0.437571       -11.9069
 257   2.0000      -0.436149       -11.8682
 258   2.0000      -0.434278       -11.8173
 259   2.0000      -0.431523       -11.7423
 260   2.0000      -0.425815       -11.5870
 261   2.0000      -0.424877       -11.5615
 262   2.0000      -0.421345       -11.4654
 263   2.0000      -0.419673       -11.4199
 264   2.0000      -0.418882       -11.3984
 265   2.0000      -0.418509       -11.3882
 266   2.0000      -0.417962       -11.3733
 267   2.0000      -0.415453       -11.3051
 268   2.0000      -0.411798       -11.2056
 269   2.0000      -0.410483       -11.1698
 270   2.0000      -0.409726       -11.1492
 271   2.0000      -0.407839       -11.0979
 272   2.0000      -0.406427       -11.0594
 273   2.0000      -0.401137       -10.9155
 274   2.0000      -0.399465       -10.8700
 275   2.0000      -0.395928       -10.7738
 276   2.0000      -0.392002       -10.6669
 277   2.0000      -0.387904       -10.5554
 278   2.0000      -0.383829       -10.4445
 279   2.0000      -0.382213       -10.4005
 280   2.0000      -0.369940       -10.0666
 281   2.0000      -0.362871        -9.8742
 282   2.0000      -0.359423        -9.7804
 283   2.0000      -0.345070        -9.3898
 284   2.0000      -0.342995        -9.3334
 285   2.0000      -0.338106        -9.2003
 286   2.0000      -0.335554        -9.1309
 287   2.0000      -0.331132        -9.0106
 288   2.0000      -0.326737        -8.8910
 289   2.0000      -0.321577        -8.7506
 290   2.0000      -0.314990        -8.5713
 291   2.0000      -0.307717        -8.3734
 292   2.0000      -0.300352        -8.1730
 293   2.0000      -0.295441        -8.0393
 294   2.0000      -0.291131        -7.9221
 295   2.0000      -0.286200        -7.7879
 296   2.0000      -0.282281        -7.6813
 297   2.0000      -0.278433        -7.5765
 298   2.0000      -0.261660        -7.1201
 299   0.0000      -0.109240        -2.9726
 300   0.0000      -0.092101        -2.5062
 301   0.0000      -0.072200        -1.9647
 302   0.0000      -0.063965        -1.7406
 303   0.0000      -0.054017        -1.4699

MULLIKEN ATOMIC CHARGES
-----------------------
   0 C :   -0.108315
   1 C :    0.241201
   2 F :   -0.170346
   3 C :    0.239037
   4 F :   -0.170205
   5 C :   -0.104274
   6 C :    0.118311
   7 C :    0.115913
   8 C :   -0.085782
   9 C :    0.047232
  10 C :   -0.001395
  11 C :   -0.082874
  12 C :    0.169364
  13 O :   -0.178658
  14 C :   -0.099012
  15 C :    0.337460
  16 C :   -0.356140
  17 C :   -0.187524
  18 N :    0.146522
  19 C :   -0.180496
  20 N :    0.145877
  21 C :   -0.002734
  22 C :   -0.050556
  23 C :   -0.045527
  24 C :    0.174124
  25 C :    0.078865
  26 C :   -0.123322
  27 C :    0.240989
  28 C :   -0.090214
  29 C :    0.254349
  30 C :   -0.129037
  31 O :   -0.310939
  32 C :    0.177127
  33 O :   -0.311255
  34 C :    0.178557
  35 C :   -0.157745
  36 S :    0.207497
  37 C :    0.057945
  38 C :   -0.101902
  39 C :    0.188680
  40 F :   -0.183100
  41 C :    0.128195
  42 C :   -0.010924
  43 C :    0.016809
  44 N :   -0.234043
  45 S :    0.540491
  46 N :   -0.292986
  47 C :   -0.110309
  48 C :   -0.037228
  49 C :    0.197738
  50 C :    0.061731
  51 C :   -0.072450
  52 C :    0.264734
  53 C :   -0.145452
  54 C :    0.251484
  55 C :   -0.156628
  56 O :   -0.308889
  57 C :    0.172057
  58 O :   -0.310727
  59 C :    0.175627
  60 C :   -0.165739
  61 S :    0.158770
  62 C :    0.008262
  63 C :   -0.140247
  64 C :    0.140461
  65 O :   -0.142059
  66 C :    0.012081
  67 C :   -0.087887
  68 C :    0.114396
  69 C :    0.114070
  70 C :   -0.108855
  71 C :    0.242143
  72 C :    0.238075
  73 C :   -0.104922
  74 F :   -0.172842
  75 F :   -0.172738
  76 C :   -0.082284
  77 C :    0.037184
  78 C :    0.254332
  79 C :   -0.320626
  80 C :   -0.185473
  81 N :    0.154968
  82 C :   -0.176369
  83 N :    0.150036
  84 H :    0.008302
  85 H :   -0.000043
  86 H :   -0.006012
  87 H :   -0.009425
  88 H :    0.008462
  89 H :    0.004448
  90 H :   -0.033471
  91 H :   -0.026682
  92 H :   -0.043236
  93 H :    0.037786
  94 H :    0.023868
  95 H :    0.021959
  96 H :    0.038873
  97 H :    0.015212
  98 H :    0.023944
  99 H :    0.006277
 100 H :    0.002706
 101 H :   -0.029588
 102 H :   -0.032477
 103 H :   -0.010152
 104 H :    0.035021
 105 H :    0.033879
 106 H :    0.025817
 107 H :    0.024768
 108 H :    0.036556
 109 H :    0.024598
 110 H :    0.048794
 111 H :   -0.010128
 112 H :    0.004629
 113 H :   -0.002154
 114 H :   -0.004192
Sum of atomic charges:   -0.0000000

LOEWDIN ATOMIC CHARGES
----------------------
   0 C :   -0.028768
   1 C :    0.067255
   2 F :   -0.048043
   3 C :    0.068291
   4 F :   -0.048193
   5 C :   -0.032540
   6 C :   -0.008558
   7 C :   -0.006340
   8 C :    0.018798
   9 C :   -0.022918
  10 C :   -0.052391
  11 C :    0.030936
  12 C :    0.084698
  13 O :   -0.165560
  14 C :   -0.108241
  15 C :    0.077626
  16 C :   -0.140963
  17 C :   -0.020924
  18 N :   -0.052924
  19 C :   -0.017078
  20 N :   -0.053172
  21 C :    0.063473
  22 C :   -0.185927
  23 C :   -0.002658
  24 C :   -0.038546
  25 C :    0.000070
  26 C :   -0.095255
  27 C :    0.060342
  28 C :   -0.073678
  29 C :    0.065006
  30 C :   -0.087543
  31 O :   -0.103370
  32 C :    0.076135
  33 O :   -0.104767
  34 C :    0.075210
  35 C :   -0.152725
  36 S :    0.525772
  37 C :   -0.033460
  38 C :   -0.032781
  39 C :    0.092557
  40 F :   -0.056216
  41 C :   -0.071298
  42 C :   -0.035417
  43 C :   -0.049741
  44 N :   -0.253382
  45 S :    0.669483
  46 N :   -0.284128
  47 C :   -0.142704
  48 C :   -0.034469
  49 C :    0.000553
  50 C :   -0.006934
  51 C :   -0.059546
  52 C :    0.066490
  53 C :   -0.093903
  54 C :    0.069471
  55 C :   -0.085990
  56 O :   -0.102175
  57 C :    0.076295
  58 O :   -0.102611
  59 C :    0.076333
  60 C :   -0.187043
  61 S :    0.474378
  62 C :    0.056057
  63 C :   -0.109174
  64 C :    0.081258
  65 O :   -0.146105
  66 C :   -0.052767
  67 C :    0.028415
  68 C :   -0.009982
  69 C :   -0.006168
  70 C :   -0.030940
  71 C :    0.066240
  72 C :    0.065936
  73 C :   -0.033125
  74 F :   -0.050727
  75 F :   -0.050170
  76 C :    0.012713
  77 C :   -0.018886
  78 C :    0.061660
  79 C :   -0.144775
  80 C :   -0.028798
  81 N :   -0.053619
  82 C :   -0.019348
  83 N :   -0.055213
  84 H :    0.048033
  85 H :    0.045203
  86 H :    0.040197
  87 H :    0.040673
  88 H :    0.051494
  89 H :    0.038951
  90 H :    0.023208
  91 H :    0.036006
  92 H :    0.024168
  93 H :    0.029241
  94 H :    0.015643
  95 H :    0.014551
  96 H :    0.029903
  97 H :    0.011700
  98 H :    0.015083
  99 H :    0.042767
 100 H :    0.032547
 101 H :    0.030827
 102 H :    0.031738
 103 H :    0.029781
 104 H :    0.028399
 105 H :    0.019229
 106 H :    0.017242
 107 H :    0.016101
 108 H :    0.028480
 109 H :    0.015832
 110 H :    0.053752
 111 H :    0.040057
 112 H :    0.046668
 113 H :    0.044341
 114 H :    0.039411

  Mayer bond orders larger than 0.100000
B(  0-C ,  1-C ) :   1.4406 B(  0-C ,  5-C ) :   0.1083 B(  0-C ,  7-C ) :   1.1892
B(  0-C , 84-H ) :   1.0063 B(  1-C ,  2-F ) :   1.1352 B(  1-C ,  3-C ) :   1.1925
B(  3-C ,  4-F ) :   1.1347 B(  3-C ,  5-C ) :   1.4431 B(  5-C ,  6-C ) :   1.1926
B(  5-C , 85-H ) :   1.0068 B(  6-C ,  7-C ) :   1.2537 B(  6-C , 11-C ) :   1.1871
B(  7-C ,  8-C ) :   1.2160 B(  8-C ,  9-C ) :   1.4530 B(  8-C , 86-H ) :   0.9887
B(  9-C , 10-C ) :   1.2201 B(  9-C , 15-C ) :   0.9817 B( 10-C , 11-C ) :   1.4701
B( 10-C , 12-C ) :   0.9568 B( 11-C , 87-H ) :   1.0167 B( 12-C , 13-O ) :   2.1344
B( 12-C , 14-C ) :   0.9754 B( 14-C , 15-C ) :   1.0770 B( 14-C , 21-C ) :   1.5033
B( 15-C , 16-C ) :   1.6245 B( 16-C , 17-C ) :   1.1434 B( 16-C , 19-C ) :   1.1494
B( 17-C , 18-N ) :   2.9574 B( 19-C , 20-N ) :   2.9577 B( 21-C , 22-C ) :   1.2480
B( 21-C , 88-H ) :   0.9388 B( 22-C , 23-C ) :   1.3486 B( 22-C , 36-S ) :   1.0960
B( 23-C , 24-C ) :   1.3138 B( 23-C , 89-H ) :   1.0095 B( 24-C , 25-C ) :   0.9669
B( 24-C , 35-C ) :   1.4372 B( 25-C , 26-C ) :   1.3542 B( 25-C , 30-C ) :   1.3615
B( 26-C , 27-C ) :   1.2950 B( 26-C , 90-H ) :   0.9857 B( 27-C , 28-C ) :   1.3497
B( 27-C , 33-O ) :   1.1401 B( 28-C , 29-C ) :   1.3441 B( 28-C , 91-H ) :   1.0162
B( 29-C , 30-C ) :   1.2792 B( 29-C , 31-O ) :   1.1417 B( 30-C , 92-H ) :   0.9967
B( 31-O , 32-C ) :   0.9676 B( 32-C , 93-H ) :   0.9790 B( 32-C , 94-H ) :   0.9694
B( 32-C , 95-H ) :   0.9694 B( 33-O , 34-C ) :   0.9707 B( 34-C , 96-H ) :   0.9777
B( 34-C , 97-H ) :   0.9686 B( 34-C , 98-H ) :   0.9684 B( 35-C , 36-S ) :   1.1484
B( 35-C , 37-C ) :   1.0441 B( 37-C , 38-C ) :   1.4231 B( 37-C , 41-C ) :   0.1101
B( 37-C , 43-C ) :   1.2031 B( 38-C , 39-C ) :   1.2289 B( 38-C , 99-H ) :   0.9988
B( 39-C , 40-F ) :   1.0877 B( 39-C , 41-C ) :   1.3712 B( 41-C , 42-C ) :   1.1682
B( 41-C , 47-C ) :   1.1123 B( 42-C , 43-C ) :   1.1535 B( 42-C , 46-N ) :   1.5298
B( 43-C , 44-N ) :   1.5569 B( 44-N , 45-S ) :   1.2908 B( 44-N , 46-N ) :   0.1433
B( 45-S , 46-N ) :   1.2571 B( 47-C , 48-C ) :   1.4868 B( 47-C , 61-S ) :   1.1338
B( 48-C , 49-C ) :   1.2634 B( 48-C ,100-H ) :   0.9811 B( 49-C , 50-C ) :   1.0009
B( 49-C , 60-C ) :   1.4053 B( 50-C , 51-C ) :   1.3762 B( 50-C , 55-C ) :   1.2926
B( 51-C , 52-C ) :   1.3167 B( 51-C ,101-H ) :   1.0069 B( 52-C , 53-C ) :   1.3087
B( 52-C , 58-O ) :   1.1432 B( 53-C , 54-C ) :   1.3196 B( 53-C ,102-H ) :   1.0050
B( 54-C , 55-C ) :   1.3129 B( 54-C , 56-O ) :   1.1587 B( 55-C ,103-H ) :   0.9908
B( 56-O , 57-C ) :   0.9616 B( 57-C ,104-H ) :   0.9780 B( 57-C ,105-H ) :   0.9691
B( 57-C ,106-H ) :   0.9697 B( 58-O , 59-C ) :   0.9676 B( 59-C ,107-H ) :   0.9695
B( 59-C ,108-H ) :   0.9792 B( 59-C ,109-H ) :   0.9696 B( 60-C , 61-S ) :   1.0855
B( 60-C , 62-C ) :   1.1435 B( 62-C , 63-C ) :   1.6138 B( 62-C ,110-H ) :   0.9454
B( 63-C , 64-C ) :   0.9489 B( 63-C , 78-C ) :   1.0454 B( 64-C , 65-O ) :   2.2756
B( 64-C , 66-C ) :   0.9117 B( 66-C , 67-C ) :   1.4762 B( 66-C , 77-C ) :   1.2225
B( 67-C , 68-C ) :   1.1929 B( 67-C ,111-H ) :   1.0164 B( 68-C , 69-C ) :   1.2597
B( 68-C , 73-C ) :   1.1921 B( 69-C , 70-C ) :   1.1893 B( 69-C , 76-C ) :   1.2094
B( 70-C , 71-C ) :   1.4403 B( 70-C , 73-C ) :   0.1091 B( 70-C ,112-H ) :   1.0075
B( 71-C , 72-C ) :   1.1936 B( 71-C , 75-F ) :   1.1321 B( 72-C , 73-C ) :   1.4432
B( 72-C , 74-F ) :   1.1325 B( 73-C ,113-H ) :   1.0073 B( 76-C , 77-C ) :   1.4619
B( 76-C ,114-H ) :   0.9950 B( 77-C , 78-C ) :   0.9973 B( 78-C , 79-C ) :   1.6496
B( 79-C , 80-C ) :   1.1619 B( 79-C , 82-C ) :   1.1356 B( 80-C , 81-N ) :   2.9723
B( 82-C , 83-N ) :   2.9886

-----------------------------------------------------------------------------
         ABSORPTION SPECTRUM VIA TRANSITION ELECTRIC DIPOLE MOMENTS
-----------------------------------------------------------------------------
State   Energy  Wavelength   fosc         T2         TX        TY        TZ
        (cm-1)    (nm)                  (au**2)     (au)      (au)      (au)
-----------------------------------------------------------------------------
   0   17575.4    569.0   1.098045847  20.56797  -1.82815   3.52670   2.18819
   1   21223.1    471.2   0.444924045   6.90166   1.00793  -0.28184   2.40963
   2   22285.6    448.7   0.016288684   0.24062   0.37871  -0.26194   0.16909
   3   22386.2    446.7   0.027870988   0.40987   0.02173   0.09442   0.63284
   4   22942.4    435.9   0.374119739   5.36843   0.17444   0.58042   2.23631
   5   24853.1    402.4   0.183946679   2.43662  -0.43906  -0.51312  -1.40732
   6   25170.1    397.3   0.054011082   0.70644   0.51441   0.40009   0.53080
   7   26076.1    383.5   0.070104825   0.88508  -0.57078   0.27988   0.69351
   8   27035.8    369.9   0.009917821   0.12077  -0.23957  -0.08026   0.23860
   9   27625.5    362.0   0.056473307   0.67299   0.19396   0.07456   0.79361
  10   27762.2    360.2   0.019749165   0.23419  -0.36528   0.17816   0.26272
  11   28078.6    356.1   0.008759751   0.10271   0.15474  -0.10911  -0.25857
  12   28454.4    351.4   0.138651658   1.60418   0.40738  -0.45724   1.10867
  13   28580.5    349.9   0.020526544   0.23644   0.33777  -0.34948  -0.01477
  14   28685.0    348.6   0.070939550   0.81416   0.25064  -0.27737  -0.82122
  15   28853.6    346.6   0.006260865   0.07143  -0.15765  -0.03433  -0.21308
  16   29271.2    341.6   0.161721173   1.81887   1.20561  -0.57380   0.19010
  17   29711.7    336.6   0.129809707   1.43832   0.54279  -0.61751   0.87314
  18   30020.8    333.1   0.142224614   1.55966  -1.03211   0.55746  -0.42853
  19   30337.3    329.6   0.031500691   0.34184  -0.45467  -0.32933  -0.16327
  20   30856.4    324.1   0.039929621   0.42602  -0.32655   0.20795  -0.52549
  21   32115.5    311.4   0.025274672   0.25909   0.32649  -0.19889  -0.33606
  22   32341.9    309.2   0.035539208   0.36176  -0.19709   0.49701   0.27549
  23   32727.8    305.6   0.000614331   0.00618   0.02384  -0.03987  -0.06342
  24   32956.0    303.4   0.054846990   0.54789  -0.27333   0.37228  -0.57844
  25   33195.3    301.2   0.040178957   0.39847   0.52206  -0.07495   0.34686
  26   33396.2    299.4   0.009968177   0.09826  -0.00924   0.05265   0.30888
  27   33556.0    298.0   0.013042969   0.12796   0.00694  -0.15989   0.31992
  28   33618.8    297.5   0.519012518   5.08243  -2.15225   0.66785  -0.06494
  29   34003.7    294.1   0.483107903   4.67728  -0.22037   1.32502  -1.69501
  30   34235.7    292.1   0.032655631   0.31402   0.43386  -0.25825   0.24308
  31   34399.9    290.7   0.021170308   0.20260   0.06372   0.19184   0.40217
  32   34633.5    288.7   0.394410634   3.74910  -1.61697   0.78019  -0.72514
  33   34736.6    287.9   0.143140283   1.35660  -1.00177   0.16000  -0.57224
  34   35328.4    283.1   0.165878120   1.54576   0.48705  -0.91595   0.68525
  35   35375.1    282.7   0.023349818   0.21730   0.33950  -0.31637  -0.04418
  36   35554.6    281.3   0.063794645   0.59070   0.16190  -0.66999  -0.33999
  37   35766.1    279.6   0.054419322   0.50091  -0.09704  -0.61422  -0.33798
  38   36008.8    277.7   0.038598533   0.35289   0.21202  -0.55489  -0.00598
  39   36326.8    275.3   0.045237793   0.40997  -0.08496   0.39745  -0.49475
  40   36549.9    273.6   0.006444545   0.05805   0.00960   0.23931   0.02615
  41   36780.3    271.9   0.027147615   0.24299   0.20665  -0.02739   0.44670
  42   36978.8    270.4   0.015645224   0.13928   0.14220   0.17607   0.29676
  43   37094.4    269.6   0.101511175   0.90091  -0.64076  -0.07619  -0.69609
  44   37434.7    267.1   0.091834775   0.80762   0.77462  -0.44290   0.10686
  45   37700.3    265.3   0.186073746   1.62486  -1.16124   0.06845   0.52124
  46   37997.6    263.2   0.007427506   0.06435  -0.17509   0.16156   0.08714
  47   38512.0    259.7   0.314077642   2.68483   0.36332  -1.23063  -1.01901
  48   38692.0    258.5   0.003177272   0.02703   0.10470   0.06147   0.11087
  49   39255.5    254.7   0.015655885   0.13130  -0.19006   0.19756   0.23695
  50   39348.0    254.1   0.017865234   0.14947  -0.38386   0.03923   0.02424
  51   39503.5    253.1   0.014816653   0.12348   0.30317  -0.03907   0.17332
  52   39647.7    252.2   0.002751487   0.02285   0.07458  -0.07300   0.10935
  53   39792.0    251.3   0.031342132   0.25930   0.39061  -0.20432  -0.25491
  54   40088.7    249.4   0.046952858   0.38558   0.02275   0.22212   0.57942
  55   40297.1    248.2   0.027073149   0.22118   0.40666  -0.14041  -0.18998

FINAL SINGLE POINT ENERGY     -4926.071566636231

DIPOLE MOMENT
-------------
                                X             Y             Z
Electronic contribution:     40.36136      -5.06322      87.80601
Nuclear contribution   :    -40.12199       4.71840     -89.40732
                        -----------------------------------------
Total Dipole Moment    :      0.23937      -0.34482      -1.60131
                        -----------------------------------------
Magnitude (a.u.)       :      1.65541
Magnitude (Debye)      :      4.20772

Rotational constants in cm-1:     0.000661     0.000322     0.000233
Rotational constants in MHz :    19.811868     9.652526     6.979842

                             ****ORCA TERMINATED NORMALLY****
TOTAL RUN TIME: 0 days 0 hours 13 minutes 57 seconds 511 msec
