                         Program Version 4.2.0 -  RELEASE  -
|  1> # ORCA input file
|  2> # SCF done       -196.064714129684          0.000926082048
|  3> ! CAM-B3LYP def2-SVP def2/J RIJCOSX Grid4 TightSCF
|  4> %maxcore 5000
|  5> %tddft
|  6>     Mode sTDDFT
|  7>     Ethresh 5.0
|  8>     maxcore 5000
|  9> end
| 10>
| 11> %pal
| 12>   nprocs 6
| 13>   end
| 14> * xyz 0 1
| 15>    C       -6.84508        -2.11420         0.58940
| 16>    C       -6.10369        -2.37685         1.71082
| 17>    C       -5.86798        -3.67201         2.21642
| 18>    N       -5.64616        -4.70289         2.67004
| 19>    C       -5.51447        -1.38828         2.52719
| 20>    N       -5.03774        -0.63240         3.24791
| 21>    C       -7.56301        -3.09526        -0.21309
| 22>    C       -8.35851        -2.41165        -1.16515
| 23>    C       -9.15994        -3.06811        -2.06697
| 24>    C       -9.17664        -4.46621        -2.02869
| 25>    C       -8.37252        -5.14088        -1.07900
| 26>    C       -7.56288        -4.47738        -0.16603
| 27>    S       -8.53349        -6.86587        -1.21559
| 28>    C       -9.66495        -6.65988        -2.52602
| 29>    C       -9.91094        -5.36751        -2.84703
| 30>   Br      -10.41307        -8.17027        -3.34860
| 31>    C       -8.15039        -0.95393        -1.03365
| 32>    O       -8.63678        -0.09122        -1.73046
| 33>    C       -7.14679        -0.79936         0.05330
| 34>    C       -6.49866         0.36150         0.33759
| 35>    C       -6.85495         1.65555        -0.17051
| 36>    C       -5.85958         2.44316        -0.69435
| 37>    S       -6.41903         3.82708        -1.51872
| 38>    C       -8.05847         3.42424        -1.09441
| 39>    C       -8.15879         2.25868        -0.32375
| 40>    C       -9.40916         1.92384         0.25524
| 41>    C       -9.44916         0.91091         1.37124
| 42>    C       -8.60070         1.35621         2.56405
| 43>    C      -10.55150         2.61213        -0.13633
| 44>    C      -11.90409         2.28060         0.43855
| 45>    C      -12.18185         3.11151         1.69318
| 46>    C      -10.45830         3.70626        -1.03139
| 47>    C      -11.47450         4.59742        -1.53974
| 48>    C      -10.94158         5.64678        -2.22824
| 49>    S       -9.23003         5.61444        -2.36172
| 50>    C       -9.18746         4.14650        -1.43781
| 51>    C      -12.92138         4.49423        -1.46743
| 52>    C      -13.69923         5.55079        -1.18016
| 53>    C      -15.11882         5.54523        -1.29887
| 54>    O      -15.80869         4.41202        -1.59037
| 55>    C      -15.99872         6.60701        -1.28589
| 56>    C      -16.10706         8.05748        -1.12948
| 57>    O      -15.29329         8.89595        -0.83733
| 58>    N      -17.45066         8.31385        -1.40585
| 59>    C      -18.22137         7.19332        -1.72381
| 60>    O      -19.39506         7.22070        -1.99621
| 61>    C      -17.26883         6.09011        -1.64049
| 62>    C      -17.11170         4.72839        -1.82850
| 63>    C      -18.03838         3.79175        -2.33524
| 64>    C      -17.91283         2.43501        -2.36394
| 65>    C      -18.70898         1.61225        -3.19478
| 66>    C      -19.16433         2.02422        -4.42365
| 67>    C      -19.88097         1.27306        -5.39275
| 68>    C      -19.96701         1.86886        -6.61621
| 69>    C      -19.31282         3.11939        -6.68245
| 70>    S      -18.67788         3.56263        -5.11836
| 71>    C      -19.05822         3.95501        -7.75458
| 72>    C      -19.50922         3.91409        -9.09047
| 73>    C      -18.98286         4.89731        -9.87320
| 74>    C      -18.06761         5.75328        -9.20209
| 75>    S      -17.94456         5.28452        -7.52162
| 76>    C      -17.36151         6.77884        -9.77728
| 77>    C      -16.36505         7.58107        -9.18446
| 78>    S      -15.64662         8.87231       -10.14196
| 79>    C      -14.53531         9.34822        -8.92364
| 80>    C      -14.69092         8.56026        -7.80859
| 81>    C      -15.72399         7.57842        -7.95460
| 82>    O      -15.81641         6.82827        -6.83357
| 83>    C      -14.86260         7.30383        -5.99112
| 84>    N      -14.72202         6.68635        -4.73132
| 85>    O      -13.76538         7.03226        -4.05718
| 86>    O      -15.54489         5.85904        -4.39357
| 87>    C      -14.14618         8.34876        -6.51379
| 88>    H       -9.75471        -2.51921        -2.78011
| 89>    H       -6.96256        -5.03417         0.53404
| 90>    H      -10.58048        -5.06035        -3.62953
| 91>    H       -5.57176         0.31680         0.89685
| 92>    H       -4.81128         2.21136        -0.70774
| 93>    H       -9.10087        -0.06263         1.02248
| 94>    H      -10.46717         0.77268         1.72446
| 95>    H       -7.54042         1.36607         2.32489
| 96>    H       -8.74992         0.67596         3.39983
| 97>    H       -8.88730         2.35764         2.87743
| 98>    H      -11.97933         1.21778         0.66830
| 99>    H      -12.67443         2.49571        -0.29478
|100>    H      -11.43498         2.91989         2.45962
|101>    H      -13.16252         2.86921         2.09630
|102>    H      -12.16142         4.17166         1.45146
|103>    H      -11.49580         6.42251        -2.72154
|104>    H      -13.38633         3.56343        -1.76231
|105>    H      -13.27241         6.50369        -0.90500
|106>    H      -17.83930         9.24548        -1.37589
|107>    H      -18.93027         4.25517        -2.73433
|108>    H      -17.16274         1.95540        -1.74855
|109>    H      -18.86363         0.57814        -2.91848
|110>    H      -20.28719         0.30400        -5.16058
|111>    H      -20.43604         1.42482        -7.47650
|112>    H      -20.20643         3.17050        -9.43379
|113>    H      -19.20470         5.02891       -10.91759
|114>    H      -17.56896         6.99387       -10.81702
|115>    H      -13.85133        10.15159        -9.09857
|116>    H      -13.35208         8.87597        -6.02727
|117> *
|118>
|119>                          ****END OF INPUT****

CARTESIAN COORDINATES (ANGSTROEM)
---------------------------------
  C     -6.845080   -2.114200    0.589400
  C     -6.103690   -2.376850    1.710820
  C     -5.867980   -3.672010    2.216420
  N     -5.646160   -4.702890    2.670040
  C     -5.514470   -1.388280    2.527190
  N     -5.037740   -0.632400    3.247910
  C     -7.563010   -3.095260   -0.213090
  C     -8.358510   -2.411650   -1.165150
  C     -9.159940   -3.068110   -2.066970
  C     -9.176640   -4.466210   -2.028690
  C     -8.372520   -5.140880   -1.079000
  C     -7.562880   -4.477380   -0.166030
  S     -8.533490   -6.865870   -1.215590
  C     -9.664950   -6.659880   -2.526020
  C     -9.910940   -5.367510   -2.847030
  Br   -10.413070   -8.170270   -3.348600
  C     -8.150390   -0.953930   -1.033650
  O     -8.636780   -0.091220   -1.730460
  C     -7.146790   -0.799360    0.053300
  C     -6.498660    0.361500    0.337590
  C     -6.854950    1.655550   -0.170510
  C     -5.859580    2.443160   -0.694350
  S     -6.419030    3.827080   -1.518720
  C     -8.058470    3.424240   -1.094410
  C     -8.158790    2.258680   -0.323750
  C     -9.409160    1.923840    0.255240
  C     -9.449160    0.910910    1.371240
  C     -8.600700    1.356210    2.564050
  C    -10.551500    2.612130   -0.136330
  C    -11.904090    2.280600    0.438550
  C    -12.181850    3.111510    1.693180
  C    -10.458300    3.706260   -1.031390
  C    -11.474500    4.597420   -1.539740
  C    -10.941580    5.646780   -2.228240
  S     -9.230030    5.614440   -2.361720
  C     -9.187460    4.146500   -1.437810
  C    -12.921380    4.494230   -1.467430
  C    -13.699230    5.550790   -1.180160
  C    -15.118820    5.545230   -1.298870
  O    -15.808690    4.412020   -1.590370
  C    -15.998720    6.607010   -1.285890
  C    -16.107060    8.057480   -1.129480
  O    -15.293290    8.895950   -0.837330
  N    -17.450660    8.313850   -1.405850
  C    -18.221370    7.193320   -1.723810
  O    -19.395060    7.220700   -1.996210
  C    -17.268830    6.090110   -1.640490
  C    -17.111700    4.728390   -1.828500
  C    -18.038380    3.791750   -2.335240
  C    -17.912830    2.435010   -2.363940
  C    -18.708980    1.612250   -3.194780
  C    -19.164330    2.024220   -4.423650
  C    -19.880970    1.273060   -5.392750
  C    -19.967010    1.868860   -6.616210
  C    -19.312820    3.119390   -6.682450
  S    -18.677880    3.562630   -5.118360
  C    -19.058220    3.955010   -7.754580
  C    -19.509220    3.914090   -9.090470
  C    -18.982860    4.897310   -9.873200
  C    -18.067610    5.753280   -9.202090
  S    -17.944560    5.284520   -7.521620
  C    -17.361510    6.778840   -9.777280
  C    -16.365050    7.581070   -9.184460
  S    -15.646620    8.872310  -10.141960
  C    -14.535310    9.348220   -8.923640
  C    -14.690920    8.560260   -7.808590
  C    -15.723990    7.578420   -7.954600
  O    -15.816410    6.828270   -6.833570
  C    -14.862600    7.303830   -5.991120
  N    -14.722020    6.686350   -4.731320
  O    -13.765380    7.032260   -4.057180
  O    -15.544890    5.859040   -4.393570
  C    -14.146180    8.348760   -6.513790
  H     -9.754710   -2.519210   -2.780110
  H     -6.962560   -5.034170    0.534040
  H    -10.580480   -5.060350   -3.629530
  H     -5.571760    0.316800    0.896850
  H     -4.811280    2.211360   -0.707740
  H     -9.100870   -0.062630    1.022480
  H    -10.467170    0.772680    1.724460
  H     -7.540420    1.366070    2.324890
  H     -8.749920    0.675960    3.399830
  H     -8.887300    2.357640    2.877430
  H    -11.979330    1.217780    0.668300
  H    -12.674430    2.495710   -0.294780
  H    -11.434980    2.919890    2.459620
  H    -13.162520    2.869210    2.096300
  H    -12.161420    4.171660    1.451460
  H    -11.495800    6.422510   -2.721540
  H    -13.386330    3.563430   -1.762310
  H    -13.272410    6.503690   -0.905000
  H    -17.839300    9.245480   -1.375890
  H    -18.930270    4.255170   -2.734330
  H    -17.162740    1.955400   -1.748550
  H    -18.863630    0.578140   -2.918480
  H    -20.287190    0.304000   -5.160580
  H    -20.436040    1.424820   -7.476500
  H    -20.206430    3.170500   -9.433790
  H    -19.204700    5.028910  -10.917590
  H    -17.568960    6.993870  -10.817020
  H    -13.851330   10.151590   -9.098570
  H    -13.352080    8.875970   -6.027270

 Total Charge           Charge          ....    0
 Multiplicity           Mult            ....    1
 Number of Electrons    NEL             ....  574
 Basis Dimension        Dim             .... 1209

ORBITAL ENERGIES
----------------

  NO   OCC          E(Eh)            E(eV)
   0   2.0000    -482.886719    -13140.0156
   1   2.0000     -88.978366     -2421.2244
   2   2.0000     -88.976454     -2421.1724
   3   2.0000     -88.961298     -2420.7600
   4   2.0000     -88.946761     -2420.3644
   5   2.0000     -88.939810     -2420.1753
   6   2.0000     -88.939023     -2420.1539
   7   2.0000     -62.564417     -1702.4643
   8   2.0000     -56.398370     -1534.6777
   9   2.0000     -56.395650     -1534.6036
  10   2.0000     -56.395622     -1534.6029
  11   2.0000     -19.312269      -525.5136
  12   2.0000     -19.291814      -524.9569
  13   2.0000     -19.255422      -523.9667
  14   2.0000     -19.252723      -523.8932
  15   2.0000     -19.213955      -522.8383
  16   2.0000     -19.192406      -522.2519
  17   2.0000     -19.191779      -522.2349
  18   2.0000     -14.664779      -399.0489
  19   2.0000     -14.436315      -392.8321
  20   2.0000     -14.415665      -392.2702
  21   2.0000     -14.415373      -392.2623
  22   2.0000     -10.393488      -282.8212
  23   2.0000     -10.381701      -282.5004
  24   2.0000     -10.380879      -282.4781
  25   2.0000     -10.365332      -282.0550
  26   2.0000     -10.359986      -281.9096
  27   2.0000     -10.352197      -281.6976
  28   2.0000     -10.342666      -281.4382
  29   2.0000     -10.341743      -281.4131
  30   2.0000     -10.341165      -281.3974
  31   2.0000     -10.340993      -281.3927
  32   2.0000     -10.326228      -280.9909
  33   2.0000     -10.323807      -280.9251
  34   2.0000     -10.318354      -280.7767
  35   2.0000     -10.318104      -280.7699
  36   2.0000     -10.317929      -280.7651
  37   2.0000     -10.317898      -280.7643
  38   2.0000     -10.315851      -280.7086
  39   2.0000     -10.311880      -280.6005
  40   2.0000     -10.311085      -280.5789
  41   2.0000     -10.308451      -280.5072
  42   2.0000     -10.308389      -280.5055
  43   2.0000     -10.307357      -280.4774
  44   2.0000     -10.306466      -280.4532
  45   2.0000     -10.306410      -280.4517
  46   2.0000     -10.306305      -280.4488
  47   2.0000     -10.303131      -280.3624
  48   2.0000     -10.300975      -280.3038
  49   2.0000     -10.297403      -280.2066
  50   2.0000     -10.297319      -280.2043
  51   2.0000     -10.296472      -280.1812
  52   2.0000     -10.294586      -280.1299
  53   2.0000     -10.292542      -280.0743
  54   2.0000     -10.292515      -280.0736
  55   2.0000     -10.292007      -280.0598
  56   2.0000     -10.289562      -279.9932
  57   2.0000     -10.289291      -279.9859
  58   2.0000     -10.286955      -279.9223
  59   2.0000     -10.286662      -279.9143
  60   2.0000     -10.285156      -279.8733
  61   2.0000     -10.279316      -279.7144
  62   2.0000     -10.278400      -279.6895
  63   2.0000     -10.278236      -279.6850
  64   2.0000     -10.277862      -279.6748
  65   2.0000     -10.276434      -279.6360
  66   2.0000     -10.275975      -279.6235
  67   2.0000     -10.274127      -279.5732
  68   2.0000     -10.273379      -279.5529
  69   2.0000     -10.271005      -279.4883
  70   2.0000     -10.270058      -279.4625
  71   2.0000     -10.268774      -279.4275
  72   2.0000     -10.267932      -279.4046
  73   2.0000     -10.258952      -279.1603
  74   2.0000     -10.257673      -279.1255
  75   2.0000     -10.248661      -278.8802
  76   2.0000     -10.248427      -278.8739
  77   2.0000      -8.793833      -239.2924
  78   2.0000      -8.073485      -219.6907
  79   2.0000      -8.072375      -219.6605
  80   2.0000      -8.057342      -219.2514
  81   2.0000      -8.043088      -218.8635
  82   2.0000      -8.036298      -218.6788
  83   2.0000      -8.034861      -218.6397
  84   2.0000      -6.630137      -180.4152
  85   2.0000      -6.615580      -180.0191
  86   2.0000      -6.615347      -180.0128
  87   2.0000      -6.042816      -164.4334
  88   2.0000      -6.042074      -164.4132
  89   2.0000      -6.038495      -164.3158
  90   2.0000      -6.037792      -164.2967
  91   2.0000      -6.035767      -164.2416
  92   2.0000      -6.033612      -164.1829
  93   2.0000      -6.026698      -163.9948
  94   2.0000      -6.022504      -163.8807
  95   2.0000      -6.019279      -163.7929
  96   2.0000      -6.012554      -163.6099
  97   2.0000      -6.008352      -163.4956
  98   2.0000      -6.006056      -163.4331
  99   2.0000      -6.004792      -163.3987
 100   2.0000      -6.004640      -163.3946
 101   2.0000      -6.001868      -163.3191
 102   2.0000      -6.000434      -163.2801
 103   2.0000      -5.997031      -163.1875
 104   2.0000      -5.995794      -163.1539
 105   2.0000      -2.746012       -74.7228
 106   2.0000      -2.741883       -74.6104
 107   2.0000      -2.741804       -74.6083
 108   2.0000      -2.730191       -74.2923
 109   2.0000      -2.730171       -74.2917
 110   2.0000      -1.334919       -36.3250
 111   2.0000      -1.233830       -33.5742
 112   2.0000      -1.206556       -32.8321
 113   2.0000      -1.150302       -31.3013
 114   2.0000      -1.136263       -30.9193
 115   2.0000      -1.129419       -30.7331
 116   2.0000      -1.115579       -30.3564
 117   2.0000      -1.023355       -27.8469
 118   2.0000      -1.023284       -27.8450
 119   2.0000      -1.013715       -27.5846
 120   2.0000      -1.002878       -27.2897
 121   2.0000      -1.000900       -27.2359
 122   2.0000      -0.994202       -27.0536
 123   2.0000      -0.993927       -27.0461
 124   2.0000      -0.989594       -26.9282
 125   2.0000      -0.973051       -26.4781
 126   2.0000      -0.972631       -26.4666
 127   2.0000      -0.943299       -25.6685
 128   2.0000      -0.942079       -25.6353
 129   2.0000      -0.922325       -25.0977
 130   2.0000      -0.919375       -25.0175
 131   2.0000      -0.908928       -24.7332
 132   2.0000      -0.907988       -24.7076
 133   2.0000      -0.904291       -24.6070
 134   2.0000      -0.903342       -24.5812
 135   2.0000      -0.896886       -24.4055
 136   2.0000      -0.886490       -24.1226
 137   2.0000      -0.882641       -24.0179
 138   2.0000      -0.873110       -23.7585
 139   2.0000      -0.868034       -23.6204
 140   2.0000      -0.857652       -23.3379
 141   2.0000      -0.851480       -23.1699
 142   2.0000      -0.847616       -23.0648
 143   2.0000      -0.832516       -22.6539
 144   2.0000      -0.829968       -22.5846
 145   2.0000      -0.825404       -22.4604
 146   2.0000      -0.819318       -22.2948
 147   2.0000      -0.816846       -22.2275
 148   2.0000      -0.806535       -21.9469
 149   2.0000      -0.796825       -21.6827
 150   2.0000      -0.788309       -21.4510
 151   2.0000      -0.781861       -21.2755
 152   2.0000      -0.767813       -20.8933
 153   2.0000      -0.762528       -20.7494
 154   2.0000      -0.754588       -20.5334
 155   2.0000      -0.751389       -20.4463
 156   2.0000      -0.744595       -20.2615
 157   2.0000      -0.732540       -19.9334
 158   2.0000      -0.713780       -19.4229
 159   2.0000      -0.713414       -19.4130
 160   2.0000      -0.709397       -19.3037
 161   2.0000      -0.703187       -19.1347
 162   2.0000      -0.697379       -18.9766
 163   2.0000      -0.692367       -18.8403
 164   2.0000      -0.689163       -18.7531
 165   2.0000      -0.684962       -18.6388
 166   2.0000      -0.681318       -18.5396
 167   2.0000      -0.673784       -18.3346
 168   2.0000      -0.669970       -18.2308
 169   2.0000      -0.665429       -18.1072
 170   2.0000      -0.657924       -17.9030
 171   2.0000      -0.655655       -17.8413
 172   2.0000      -0.648137       -17.6367
 173   2.0000      -0.644542       -17.5389
 174   2.0000      -0.633963       -17.2510
 175   2.0000      -0.631683       -17.1890
 176   2.0000      -0.630856       -17.1665
 177   2.0000      -0.622308       -16.9339
 178   2.0000      -0.621779       -16.9195
 179   2.0000      -0.617909       -16.8141
 180   2.0000      -0.613732       -16.7005
 181   2.0000      -0.609884       -16.5958
 182   2.0000      -0.602366       -16.3912
 183   2.0000      -0.600020       -16.3274
 184   2.0000      -0.598147       -16.2764
 185   2.0000      -0.591424       -16.0935
 186   2.0000      -0.583511       -15.8781
 187   2.0000      -0.578209       -15.7339
 188   2.0000      -0.574760       -15.6400
 189   2.0000      -0.570854       -15.5337
 190   2.0000      -0.568430       -15.4678
 191   2.0000      -0.564659       -15.3651
 192   2.0000      -0.563904       -15.3446
 193   2.0000      -0.555827       -15.1248
 194   2.0000      -0.554844       -15.0981
 195   2.0000      -0.550015       -14.9667
 196   2.0000      -0.546987       -14.8843
 197   2.0000      -0.545739       -14.8503
 198   2.0000      -0.540905       -14.7188
 199   2.0000      -0.537053       -14.6140
 200   2.0000      -0.532504       -14.4902
 201   2.0000      -0.531308       -14.4576
 202   2.0000      -0.527367       -14.3504
 203   2.0000      -0.525779       -14.3072
 204   2.0000      -0.525151       -14.2901
 205   2.0000      -0.523649       -14.2492
 206   2.0000      -0.519997       -14.1498
 207   2.0000      -0.519151       -14.1268
 208   2.0000      -0.511865       -13.9286
 209   2.0000      -0.510492       -13.8912
 210   2.0000      -0.509326       -13.8595
 211   2.0000      -0.505761       -13.7625
 212   2.0000      -0.502330       -13.6691
 213   2.0000      -0.498484       -13.5644
 214   2.0000      -0.497242       -13.5307
 215   2.0000      -0.496208       -13.5025
 216   2.0000      -0.494105       -13.4453
 217   2.0000      -0.492703       -13.4071
 218   2.0000      -0.491296       -13.3688
 219   2.0000      -0.490700       -13.3526
 220   2.0000      -0.485575       -13.2132
 221   2.0000      -0.483237       -13.1495
 222   2.0000      -0.482624       -13.1329
 223   2.0000      -0.481352       -13.0983
 224   2.0000      -0.476172       -12.9573
 225   2.0000      -0.475345       -12.9348
 226   2.0000      -0.473925       -12.8962
 227   2.0000      -0.468019       -12.7354
 228   2.0000      -0.465013       -12.6537
 229   2.0000      -0.463966       -12.6252
 230   2.0000      -0.460024       -12.5179
 231   2.0000      -0.459247       -12.4967
 232   2.0000      -0.455241       -12.3877
 233   2.0000      -0.452735       -12.3195
 234   2.0000      -0.450601       -12.2615
 235   2.0000      -0.449352       -12.2275
 236   2.0000      -0.448402       -12.2017
 237   2.0000      -0.447860       -12.1869
 238   2.0000      -0.444907       -12.1065
 239   2.0000      -0.443466       -12.0673
 240   2.0000      -0.441726       -12.0200
 241   2.0000      -0.439510       -11.9597
 242   2.0000      -0.438228       -11.9248
 243   2.0000      -0.433786       -11.8039
 244   2.0000      -0.430824       -11.7233
 245   2.0000      -0.427955       -11.6452
 246   2.0000      -0.427634       -11.6365
 247   2.0000      -0.426191       -11.5972
 248   2.0000      -0.424772       -11.5586
 249   2.0000      -0.422167       -11.4878
 250   2.0000      -0.419928       -11.4268
 251   2.0000      -0.415574       -11.3083
 252   2.0000      -0.414161       -11.2699
 253   2.0000      -0.409842       -11.1524
 254   2.0000      -0.408679       -11.1207
 255   2.0000      -0.404921       -11.0185
 256   2.0000      -0.403809       -10.9882
 257   2.0000      -0.399690       -10.8761
 258   2.0000      -0.391128       -10.6431
 259   2.0000      -0.388379       -10.5683
 260   2.0000      -0.386560       -10.5188
 261   2.0000      -0.383460       -10.4345
 262   2.0000      -0.381152       -10.3717
 263   2.0000      -0.379559       -10.3283
 264   2.0000      -0.376603       -10.2479
 265   2.0000      -0.375683       -10.2229
 266   2.0000      -0.372462       -10.1352
 267   2.0000      -0.364014        -9.9053
 268   2.0000      -0.355122        -9.6634
 269   2.0000      -0.351810        -9.5732
 270   2.0000      -0.351205        -9.5568
 271   2.0000      -0.344157        -9.3650
 272   2.0000      -0.339949        -9.2505
 273   2.0000      -0.337798        -9.1919
 274   2.0000      -0.333915        -9.0863
 275   2.0000      -0.327055        -8.8996
 276   2.0000      -0.326202        -8.8764
 277   2.0000      -0.319543        -8.6952
 278   2.0000      -0.317896        -8.6504
 279   2.0000      -0.316221        -8.6048
 280   2.0000      -0.302772        -8.2389
 281   2.0000      -0.293550        -7.9879
 282   2.0000      -0.292073        -7.9477
 283   2.0000      -0.269574        -7.3355
 284   2.0000      -0.268059        -7.2942
 285   2.0000      -0.249992        -6.8026
 286   2.0000      -0.209659        -5.7051
 287   0.0000      -0.085779        -2.3342
 288   0.0000      -0.085633        -2.3302
 289   0.0000      -0.069172        -1.8823
 290   0.0000      -0.055782        -1.5179
 291   0.0000      -0.029779        -0.8103

MULLIKEN ATOMIC CHARGES
-----------------------
   0 C :    0.307764
   1 C :   -0.344780
   2 C :   -0.182930
   3 N :    0.149703
   4 C :   -0.200255
   5 N :    0.163610
   6 C :    0.017079
   7 C :   -0.016715
   8 C :   -0.069878
   9 C :    0.116557
  10 C :   -0.088082
  11 C :   -0.023362
  12 S :    0.185917
  13 C :   -0.123361
  14 C :    0.038277
  15 Br:    0.023173
  16 C :    0.137299
  17 O :   -0.126072
  18 C :   -0.100342
  19 C :   -0.074320
  20 C :    0.034615
  21 C :   -0.084282
  22 S :    0.154491
  23 C :   -0.166231
  24 C :    0.177412
  25 C :   -0.108364
  26 C :    0.062981
  27 C :    0.010538
  28 C :   -0.134090
  29 C :    0.049974
  30 C :    0.040434
  31 C :    0.122213
  32 C :    0.039853
  33 C :   -0.104069
  34 S :    0.120188
  35 C :   -0.136450
  36 C :   -0.031666
  37 C :   -0.006913
  38 C :    0.090381
  39 O :   -0.211816
  40 C :   -0.035005
  41 C :    0.154753
  42 O :   -0.152124
  43 N :   -0.172777
  44 C :    0.157273
  45 O :   -0.151684
  46 C :   -0.036548
  47 C :    0.105621
  48 C :   -0.046513
  49 C :    0.009608
  50 C :    0.011471
  51 C :   -0.041924
  52 C :    0.039348
  53 C :    0.037218
  54 C :   -0.048375
  55 S :    0.073112
  56 C :   -0.038513
  57 C :    0.038465
  58 C :    0.030807
  59 C :   -0.033312
  60 S :    0.091717
  61 C :    0.051795
  62 C :   -0.237346
  63 S :    0.149126
  64 C :   -0.135352
  65 C :    0.120410
  66 C :    0.203544
  67 O :   -0.193422
  68 C :    0.247863
  69 N :    0.287967
  70 O :   -0.250684
  71 O :   -0.220358
  72 C :   -0.075443
  73 H :   -0.009600
  74 H :   -0.005183
  75 H :   -0.002788
  76 H :    0.036734
  77 H :    0.029129
  78 H :    0.005889
  79 H :   -0.009093
  80 H :    0.022690
  81 H :    0.016914
  82 H :    0.017071
  83 H :    0.005616
  84 H :   -0.020419
  85 H :    0.004994
  86 H :    0.012250
  87 H :    0.017450
  88 H :    0.031551
  89 H :    0.039810
  90 H :    0.014459
  91 H :    0.131566
  92 H :    0.038603
  93 H :    0.006417
  94 H :   -0.008700
  95 H :   -0.011560
  96 H :   -0.014150
  97 H :   -0.012755
  98 H :   -0.013006
  99 H :   -0.021869
 100 H :    0.033840
 101 H :    0.014944
Sum of atomic charges:   -0.0000000

LOEWDIN ATOMIC CHARGES
----------------------
   0 C :    0.075808
   1 C :   -0.139817
   2 C :   -0.018638
   3 N :   -0.052789
   4 C :   -0.023326
   5 N :   -0.050393
   6 C :   -0.022249
   7 C :   -0.049107
   8 C :    0.021297
   9 C :   -0.031964
  10 C :   -0.144258
  11 C :   -0.009472
  12 S :    0.432169
  13 C :   -0.271152
  14 C :   -0.070744
  15 Br:    0.136782
  16 C :    0.075831
  17 O :   -0.123749
  18 C :   -0.100482
  19 C :    0.075690
  20 C :   -0.069636
  21 C :   -0.140485
  22 S :    0.441572
  23 C :   -0.177156
  24 C :   -0.026774
  25 C :   -0.015447
  26 C :   -0.030364
  27 C :   -0.047951
  28 C :   -0.010423
  29 C :   -0.029909
  30 C :   -0.048038
  31 C :   -0.039257
  32 C :   -0.064790
  33 C :   -0.158587
  34 S :    0.409854
  35 C :   -0.176831
  36 C :    0.004619
  37 C :   -0.034407
  38 C :    0.074301
  39 O :    0.016563
  40 C :   -0.104713
  41 C :    0.082606
  42 O :   -0.169675
  43 N :   -0.011522
  44 C :    0.083298
  45 O :   -0.168098
  46 C :   -0.096799
  47 C :    0.067112
  48 C :   -0.056303
  49 C :   -0.016931
  50 C :   -0.060551
  51 C :   -0.134721
  52 C :   -0.033556
  53 C :   -0.029078
  54 C :   -0.180639
  55 S :    0.409660
  56 C :   -0.180154
  57 C :   -0.029841
  58 C :   -0.035084
  59 C :   -0.142903
  60 S :    0.401278
  61 C :   -0.090293
  62 C :   -0.196097
  63 S :    0.476521
  64 C :   -0.189974
  65 C :   -0.081363
  66 C :    0.010996
  67 O :   -0.001639
  68 C :    0.025312
  69 N :    0.279626
  70 O :   -0.211335
  71 O :   -0.181769
  72 C :   -0.003896
  73 H :    0.041240
  74 H :    0.041031
  75 H :    0.038952
  76 H :    0.047424
  77 H :    0.028711
  78 H :    0.025533
  79 H :    0.026005
  80 H :    0.023052
  81 H :    0.026863
  82 H :    0.025446
  83 H :    0.024717
  84 H :    0.025942
  85 H :    0.021524
  86 H :    0.024276
  87 H :    0.026426
  88 H :    0.027033
  89 H :    0.033292
  90 H :    0.044512
  91 H :    0.090190
  92 H :    0.038253
  93 H :    0.032512
  94 H :    0.031881
  95 H :    0.032957
  96 H :    0.031543
  97 H :    0.032561
  98 H :    0.032168
  99 H :    0.032922
 100 H :    0.029459
 101 H :    0.047810

  Mayer bond orders larger than 0.100000
B(  0-C ,  1-C ) :   1.6510 B(  0-C ,  6-C ) :   1.0111 B(  0-C , 18-C ) :   1.0451
B(  1-C ,  2-C ) :   1.1351 B(  1-C ,  4-C ) :   1.1521 B(  2-C ,  3-N ) :   2.9746
B(  4-C ,  5-N ) :   2.9702 B(  6-C ,  7-C ) :   1.2744 B(  6-C , 11-C ) :   1.4056
B(  7-C ,  8-C ) :   1.4282 B(  7-C , 16-C ) :   0.9328 B(  8-C ,  9-C ) :   1.2469
B(  8-C , 73-H ) :   1.0169 B(  9-C , 10-C ) :   1.3051 B(  9-C , 14-C ) :   1.1610
B( 10-C , 11-C ) :   1.3339 B( 10-C , 12-S ) :   1.0829 B( 11-C , 74-H ) :   0.9804
B( 12-S , 13-C ) :   1.0872 B( 13-C , 14-C ) :   1.6173 B( 13-C , 15-Br) :   1.0189
B( 14-C , 75-H ) :   1.0009 B( 16-C , 17-O ) :   2.2406 B( 16-C , 18-C ) :   0.9357
B( 18-C , 19-C ) :   1.6397 B( 19-C , 20-C ) :   1.0836 B( 19-C , 76-H ) :   0.9461
B( 20-C , 21-C ) :   1.5272 B( 20-C , 24-C ) :   1.1277 B( 21-C , 22-S ) :   1.1681
B( 21-C , 77-H ) :   0.9695 B( 22-S , 23-C ) :   1.0582 B( 23-C , 24-C ) :   1.3961
B( 23-C , 35-C ) :   1.3747 B( 24-C , 25-C ) :   1.2533 B( 25-C , 26-C ) :   1.0897
B( 25-C , 28-C ) :   1.5091 B( 26-C , 27-C ) :   1.1039 B( 26-C , 78-H ) :   0.9097
B( 26-C , 79-H ) :   0.9069 B( 27-C , 80-H ) :   0.9595 B( 27-C , 81-H ) :   0.9646
B( 27-C , 82-H ) :   0.9597 B( 28-C , 29-C ) :   1.0749 B( 28-C , 31-C ) :   1.2712
B( 29-C , 30-C ) :   1.1025 B( 29-C , 83-H ) :   0.9160 B( 29-C , 84-H ) :   0.9107
B( 30-C , 85-H ) :   0.9659 B( 30-C , 86-H ) :   0.9652 B( 30-C , 87-H ) :   0.9647
B( 31-C , 32-C ) :   1.1423 B( 31-C , 35-C ) :   1.3717 B( 32-C , 33-C ) :   1.6373
B( 32-C , 36-C ) :   0.9903 B( 33-C , 34-S ) :   1.1111 B( 33-C , 88-H ) :   0.9585
B( 34-S , 35-C ) :   1.0781 B( 36-C , 37-C ) :   1.7287 B( 36-C , 89-H ) :   0.9555
B( 37-C , 38-C ) :   1.1561 B( 37-C , 90-H ) :   0.9593 B( 38-C , 39-O ) :   1.1517
B( 38-C , 40-C ) :   1.4232 B( 39-O , 47-C ) :   1.1508 B( 40-C , 41-C ) :   0.8826
B( 40-C , 46-C ) :   1.2601 B( 41-C , 42-O ) :   2.2595 B( 41-C , 43-N ) :   1.0782
B( 43-N , 44-C ) :   1.0716 B( 43-N , 91-H ) :   0.9158 B( 44-C , 45-O ) :   2.2549
B( 44-C , 46-C ) :   0.8903 B( 46-C , 47-C ) :   1.3992 B( 47-C , 48-C ) :   1.2180
B( 48-C , 49-C ) :   1.6026 B( 48-C , 92-H ) :   0.9271 B( 49-C , 50-C ) :   1.1517
B( 49-C , 93-H ) :   0.9724 B( 50-C , 51-C ) :   1.5884 B( 50-C , 94-H ) :   0.9653
B( 51-C , 52-C ) :   1.1446 B( 51-C , 55-S ) :   1.0478 B( 52-C , 53-C ) :   1.5943
B( 52-C , 95-H ) :   0.9959 B( 53-C , 54-C ) :   1.1889 B( 53-C , 96-H ) :   0.9944
B( 54-C , 55-S ) :   1.0498 B( 54-C , 56-C ) :   1.4945 B( 56-C , 57-C ) :   1.1861
B( 56-C , 60-S ) :   1.0428 B( 57-C , 58-C ) :   1.5916 B( 57-C , 97-H ) :   0.9952
B( 58-C , 59-C ) :   1.1401 B( 58-C , 98-H ) :   0.9991 B( 59-C , 60-S ) :   1.0523
B( 59-C , 61-C ) :   1.6005 B( 61-C , 62-C ) :   1.1544 B( 61-C , 99-H ) :   0.9424
B( 62-C , 63-S ) :   1.1360 B( 62-C , 64-C ) :   0.1078 B( 62-C , 66-C ) :   1.4228
B( 63-S , 64-C ) :   1.1822 B( 64-C , 65-C ) :   1.4305 B( 64-C ,100-H ) :   0.9769
B( 65-C , 66-C ) :   1.2310 B( 65-C , 72-C ) :   1.0691 B( 66-C , 67-O ) :   1.0867
B( 67-O , 68-C ) :   1.1196 B( 68-C , 69-N ) :   0.9215 B( 68-C , 72-C ) :   1.5659
B( 69-N , 70-O ) :   1.4992 B( 69-N , 71-O ) :   1.5003 B( 70-O , 71-O ) :   0.2718
B( 72-C ,101-H ) :   1.0261

-----------------------------------------------------------------------------
         ABSORPTION SPECTRUM VIA TRANSITION ELECTRIC DIPOLE MOMENTS
-----------------------------------------------------------------------------
State   Energy  Wavelength   fosc         T2         TX        TY        TZ
        (cm-1)    (nm)                  (au**2)     (au)      (au)      (au)
-----------------------------------------------------------------------------
   0   11560.5    865.0   0.216428276   6.16330  -0.52887  -1.33164   2.02739
   1   13963.9    716.1   0.348173524   8.20853   0.15823  -0.88769   2.71947
   2   19307.2    517.9   0.000385246   0.00657   0.08058  -0.00778  -0.00384
   3   20166.6    495.9   0.068105762   1.11180  -0.76054  -0.73000  -0.02188
   4   21441.8    466.4   0.002502009   0.03842  -0.06090   0.10631  -0.15299
   5   22650.7    441.5   0.260112239   3.78055   0.80276  -1.71560   0.43916
   6   23311.5    429.0   0.087056096   1.22943   0.15633  -1.03753   0.35850
   7   24458.0    408.9   1.011672008  13.61738   2.67591   2.51375   0.37140
   8   25043.6    399.3   0.014770663   0.19417  -0.01294   0.44037   0.00845
   9   25630.7    390.2   0.110730375   1.42227   0.90625  -0.77207  -0.06995
  10   26600.0    375.9   0.166712903   2.06331   0.56345   1.28848   0.29266
  11   26845.6    372.5   0.070669443   0.86663   0.18890  -0.72337   0.55469
  12   27717.5    360.8   0.080066294   0.95098   0.26596  -0.85494   0.38642
  13   28032.6    356.7   0.094780212   1.11309  -0.51942  -0.73993  -0.54386
  14   28428.6    351.8   0.042897075   0.49676  -0.08503  -0.36120  -0.59922
  15   28933.1    345.6   0.285587233   3.24953  -0.78842  -1.36732  -0.87083
  16   29058.4    344.1   0.216294226   2.45046   0.39443   1.45980   0.40483
  17   29266.9    341.7   0.031929190   0.35916   0.05232  -0.25751  -0.53862
  18   29549.6    338.4   0.006278094   0.06994   0.04926  -0.07629  -0.24839
  19   29961.6    333.8   0.072631456   0.79806  -0.60591   0.12309  -0.64481
  20   30555.8    327.3   0.058978211   0.63544   0.29273   0.71372  -0.20087
  21   30793.2    324.7   0.080561806   0.86129   0.58080   0.18242   0.70049
  22   31052.4    322.0   0.049244256   0.52208  -0.21624   0.68479  -0.07989
  23   31670.4    315.8   0.010914624   0.11346   0.32415  -0.00047   0.09155
  24   32178.4    310.8   0.398568578   4.07769   1.94377  -0.52552   0.15252
  25   32607.0    306.7   0.024473958   0.24710  -0.27480   0.39371   0.12873
  26   33187.5    301.3   0.072017622   0.71440  -0.03478   0.81417  -0.22432
  27   33820.4    295.7   0.302547916   2.94504   0.19948  -0.15664   1.69726
  28   34005.5    294.1   0.036220695   0.35066  -0.38181  -0.41291  -0.18543
  29   34191.8    292.5   0.470762583   4.53268  -1.29313  -0.55641  -1.59716
  30   34337.4    291.2   0.064051419   0.61410  -0.28873  -0.65122  -0.32657
  31   34551.7    289.4   0.051339379   0.48917   0.05352  -0.44270   0.53881
  32   34764.4    287.7   0.032006241   0.30309  -0.36178   0.14754   0.38786
  33   34905.5    286.5   0.211213330   1.99207  -0.16623  -1.39851   0.09276
  34   34983.6    285.8   0.007213483   0.06788  -0.05843  -0.06358  -0.24582
  35   35333.3    283.0   0.010177809   0.09483   0.28652  -0.08802   0.07063
  36   35959.2    278.1   0.003615465   0.03310   0.03177   0.14237   0.10873
  37   36030.5    277.5   0.093084699   0.85052   0.13022  -0.67507   0.61469
  38   36290.3    275.6   0.161084565   1.46130   0.07900   0.51060  -1.09286
  39   36410.4    274.6   0.005928273   0.05360   0.16698   0.02892   0.15774
  40   36777.0    271.9   0.002387392   0.02137  -0.04419   0.01211   0.13882
  41   36961.4    270.6   0.027872411   0.24826   0.24174   0.42428  -0.09901
  42   37005.0    270.2   0.020183034   0.17956  -0.08782  -0.35375   0.21612
  43   37363.7    267.6   0.059025830   0.52008   0.00763  -0.63097   0.34914
  44   37414.8    267.3   0.087404011   0.76907   0.16636   0.73747   0.44444
  45   37558.1    266.3   0.274607459   2.40704  -0.22507   0.88147  -1.25674
  46   37663.4    265.5   0.105058660   0.91831   0.24303  -0.37003   0.84990
  47   38171.2    262.0   0.122771600   1.05886  -0.08905   0.82393  -0.60997
  48   38261.8    261.4   0.052065473   0.44798  -0.37650   0.37918  -0.40305
  49   38741.7    258.1   0.009572238   0.08134   0.11133  -0.14623   0.21809
  50   38923.8    256.9   0.065920530   0.55755  -0.14864   0.69348  -0.23352
  51   39171.4    255.3   0.003301084   0.02774  -0.11894   0.10767   0.04477
  52   39517.0    253.1   0.116771913   0.97281  -0.21608   0.87256  -0.40591
  53   39929.6    250.4   0.246131776   2.02931   0.84304  -1.14811   0.02062
  54   40146.9    249.1   0.001828909   0.01500   0.00633  -0.09947   0.07115
  55   40202.1    248.7   0.008264306   0.06768  -0.05643   0.24576   0.06397

FINAL SINGLE POINT ENERGY     -7817.499270323260

DIPOLE MOMENT
-------------
                                X             Y             Z
Electronic contribution:     32.63090    -109.90297     -30.42196
Nuclear contribution   :    -33.84325     109.58477      26.21653
                        -----------------------------------------
Total Dipole Moment    :     -1.21234      -0.31820      -4.20543
                        -----------------------------------------
Magnitude (a.u.)       :      4.38824
Magnitude (Debye)      :     11.15403

Rotational constants in cm-1:     0.000927     0.000331     0.000285
Rotational constants in MHz :    27.802416     9.914934     8.545448

                             ****ORCA TERMINATED NORMALLY****
TOTAL RUN TIME: 0 days 0 hours 11 minutes 14 seconds 170 msec
