                         Program Version 4.2.0 -  RELEASE  -
|  1> # ORCA input file
|  2> # SCF done       -186.487044020085          0.000849598510
|  3> ! CAM-B3LYP def2-SVP def2/J RIJCOSX Grid4 TightSCF
|  4> %maxcore 5000
|  5> %tddft
|  6>     Mode sTDDFT
|  7>     Ethresh 5.0
|  8>     maxcore 5000
|  9> end
| 10>
| 11> %pal
| 12>   nprocs 6
| 13>   end
| 14> * xyz 0 1
| 15>    C       -3.48450         3.18278         4.09102
| 16>    C       -3.96649         3.16541         5.37350
| 17>    C       -3.25297         2.64506         6.47452
| 18>    N       -2.73388         2.23039         7.41047
| 19>    C       -5.24610         3.59276         5.78932
| 20>    N       -6.27312         3.86606         6.22402
| 21>    C       -2.19768         2.64057         3.66676
| 22>    C       -2.08966         2.79130         2.26173
| 23>    C       -0.99263         2.37714         1.54685
| 24>    C        0.03684         1.74459         2.24874
| 25>    C       -0.09314         1.56112         3.64677
| 26>    C       -1.18838         2.01616         4.37329
| 27>    S        1.25186         0.68893         4.30214
| 28>    C        1.96198         0.57898         2.71654
| 29>    C        1.23484         1.17652         1.74113
| 30>   Br        3.58403        -0.32768         2.47375
| 31>    C       -3.32598         3.38295         1.74150
| 32>    O       -3.58380         3.57642         0.56344
| 33>    C       -4.17112         3.66735         2.90640
| 34>    C       -5.37915         4.32193         2.89696
| 35>    C       -6.16132         4.72328         1.80412
| 36>    C       -7.41855         5.36883         1.89874
| 37>    N       -7.93267         5.83752         3.15036
| 38>    O       -7.13333         6.26577         3.95694
| 39>    O       -9.13106         5.78871         3.32049
| 40>    C       -8.08636         5.54500         0.68993
| 41>    C       -9.40532         6.20762         0.49912
| 42>    C       -7.32730         5.04405        -0.38556
| 43>    S       -5.82018         4.35648         0.14397
| 44>    C       -7.67100         5.10674        -1.74323
| 45>    C       -6.89008         4.66180        -2.78765
| 46>    C       -7.17429         4.78712        -4.17333
| 47>    C       -6.19224         4.31479        -4.99256
| 48>    C       -5.09261         3.77333        -4.29139
| 49>    S       -5.34530         3.88283        -2.56916
| 50>    C       -3.91287         3.20998        -4.75039
| 51>    C       -3.40771         3.02426        -6.05276
| 52>    C       -2.18188         2.42197        -6.08023
| 53>    C       -1.67863         2.06321        -4.80494
| 54>    S       -2.78368         2.59424        -3.56667
| 55>    C       -0.54022         1.31960        -4.55383
| 56>    C       -0.20623         0.75571        -3.32342
| 57>    C        0.76113        -0.23629        -3.02545
| 58>    N        1.73632        -0.64542        -3.96765
| 59>    O        1.89164         0.03707        -4.96724
| 60>    O        2.38134        -1.64863        -3.73259
| 61>    C        0.62945        -0.81202        -1.74475
| 62>    C        1.47429        -1.90666        -1.20818
| 63>    C       -0.44136        -0.26649        -1.03828
| 64>    S       -1.16887         1.05991        -1.91321
| 65>    C       -0.96979        -0.64101         0.21373
| 66>    C       -2.22957        -0.39435         0.68943
| 67>    C       -3.45713         0.00828         0.03559
| 68>    C       -3.82304        -0.24592        -1.26403
| 69>    C       -5.01154         0.21360        -1.86051
| 70>    N       -5.93237         0.60301        -2.42663
| 71>    C       -3.06895        -1.05367        -2.14032
| 72>    N       -2.51871        -1.76063        -2.85873
| 73>    C       -4.37814         0.45371         1.07233
| 74>    C       -3.83629         0.11518         2.33806
| 75>    C       -2.48006        -0.43649         2.14985
| 76>    O       -1.69172        -0.77524         3.00765
| 77>    C       -4.53359         0.29942         3.50801
| 78>    C       -5.81229         0.86404         3.42695
| 79>    C       -6.32378         1.23500         2.15984
| 80>    C       -5.62990         1.03071         0.97512
| 81>    S       -7.90680         1.93987         2.29542
| 82>    C       -7.86667         1.72584         4.02766
| 83>    C       -6.72507         1.15044         4.47798
| 84>   Br       -9.32350         2.28434         5.05570
| 85>    H       -0.94250         2.52277         0.47871
| 86>    H       -1.23280         1.85680         5.43738
| 87>    H        1.52718         1.20792         0.70740
| 88>    H       -5.79411         4.57554         3.86552
| 89>    H       -9.78729         6.60811         1.43314
| 90>    H      -10.12907         5.48212         0.12930
| 91>    H       -9.32320         7.01108        -0.23151
| 92>    H       -8.61945         5.55931        -1.99823
| 93>    H       -8.09037         5.23265        -4.51928
| 94>    H       -6.23236         4.33600        -6.06674
| 95>    H       -3.95345         3.32931        -6.92746
| 96>    H       -1.63648         2.19309        -6.97837
| 97>    H        0.09262         1.07520        -5.39596
| 98>    H        2.52841        -1.69367        -1.37773
| 99>    H        1.25740        -2.83445        -1.73662
|100>    H        1.29822        -2.05668        -0.14741
|101>    H       -0.30276        -1.12577         0.91885
|102>    H       -4.11269         0.00525         4.45741
|103>    H       -6.05956         1.31951         0.03083
|104>    H       -6.53869         0.93697         5.51468
|105> *
|106>
|107>                          ****END OF INPUT****

CARTESIAN COORDINATES (ANGSTROEM)
---------------------------------
  C     -3.484500    3.182780    4.091020
  C     -3.966490    3.165410    5.373500
  C     -3.252970    2.645060    6.474520
  N     -2.733880    2.230390    7.410470
  C     -5.246100    3.592760    5.789320
  N     -6.273120    3.866060    6.224020
  C     -2.197680    2.640570    3.666760
  C     -2.089660    2.791300    2.261730
  C     -0.992630    2.377140    1.546850
  C      0.036840    1.744590    2.248740
  C     -0.093140    1.561120    3.646770
  C     -1.188380    2.016160    4.373290
  S      1.251860    0.688930    4.302140
  C      1.961980    0.578980    2.716540
  C      1.234840    1.176520    1.741130
  Br     3.584030   -0.327680    2.473750
  C     -3.325980    3.382950    1.741500
  O     -3.583800    3.576420    0.563440
  C     -4.171120    3.667350    2.906400
  C     -5.379150    4.321930    2.896960
  C     -6.161320    4.723280    1.804120
  C     -7.418550    5.368830    1.898740
  N     -7.932670    5.837520    3.150360
  O     -7.133330    6.265770    3.956940
  O     -9.131060    5.788710    3.320490
  C     -8.086360    5.545000    0.689930
  C     -9.405320    6.207620    0.499120
  C     -7.327300    5.044050   -0.385560
  S     -5.820180    4.356480    0.143970
  C     -7.671000    5.106740   -1.743230
  C     -6.890080    4.661800   -2.787650
  C     -7.174290    4.787120   -4.173330
  C     -6.192240    4.314790   -4.992560
  C     -5.092610    3.773330   -4.291390
  S     -5.345300    3.882830   -2.569160
  C     -3.912870    3.209980   -4.750390
  C     -3.407710    3.024260   -6.052760
  C     -2.181880    2.421970   -6.080230
  C     -1.678630    2.063210   -4.804940
  S     -2.783680    2.594240   -3.566670
  C     -0.540220    1.319600   -4.553830
  C     -0.206230    0.755710   -3.323420
  C      0.761130   -0.236290   -3.025450
  N      1.736320   -0.645420   -3.967650
  O      1.891640    0.037070   -4.967240
  O      2.381340   -1.648630   -3.732590
  C      0.629450   -0.812020   -1.744750
  C      1.474290   -1.906660   -1.208180
  C     -0.441360   -0.266490   -1.038280
  S     -1.168870    1.059910   -1.913210
  C     -0.969790   -0.641010    0.213730
  C     -2.229570   -0.394350    0.689430
  C     -3.457130    0.008280    0.035590
  C     -3.823040   -0.245920   -1.264030
  C     -5.011540    0.213600   -1.860510
  N     -5.932370    0.603010   -2.426630
  C     -3.068950   -1.053670   -2.140320
  N     -2.518710   -1.760630   -2.858730
  C     -4.378140    0.453710    1.072330
  C     -3.836290    0.115180    2.338060
  C     -2.480060   -0.436490    2.149850
  O     -1.691720   -0.775240    3.007650
  C     -4.533590    0.299420    3.508010
  C     -5.812290    0.864040    3.426950
  C     -6.323780    1.235000    2.159840
  C     -5.629900    1.030710    0.975120
  S     -7.906800    1.939870    2.295420
  C     -7.866670    1.725840    4.027660
  C     -6.725070    1.150440    4.477980
  Br    -9.323500    2.284340    5.055700
  H     -0.942500    2.522770    0.478710
  H     -1.232800    1.856800    5.437380
  H      1.527180    1.207920    0.707400
  H     -5.794110    4.575540    3.865520
  H     -9.787290    6.608110    1.433140
  H    -10.129070    5.482120    0.129300
  H     -9.323200    7.011080   -0.231510
  H     -8.619450    5.559310   -1.998230
  H     -8.090370    5.232650   -4.519280
  H     -6.232360    4.336000   -6.066740
  H     -3.953450    3.329310   -6.927460
  H     -1.636480    2.193090   -6.978370
  H      0.092620    1.075200   -5.395960
  H      2.528410   -1.693670   -1.377730
  H      1.257400   -2.834450   -1.736620
  H      1.298220   -2.056680   -0.147410
  H     -0.302760   -1.125770    0.918850
  H     -4.112690    0.005250    4.457410
  H     -6.059560    1.319510    0.030830
  H     -6.538690    0.936970    5.514680

 Total Charge           Charge          ....    0
 Multiplicity           Mult            ....    1
 Number of Electrons    NEL             ....  576
 Basis Dimension        Dim             .... 1140

ORBITAL ENERGIES
----------------

  NO   OCC          E(Eh)            E(eV)
   0   2.0000    -482.887130    -13140.0268
   1   2.0000    -482.877271    -13139.7586
   2   2.0000     -88.988673     -2421.5049
   3   2.0000     -88.982397     -2421.3341
   4   2.0000     -88.977103     -2421.1901
   5   2.0000     -88.975425     -2421.1444
   6   2.0000     -88.975265     -2421.1400
   7   2.0000     -88.974847     -2421.1287
   8   2.0000     -62.564749     -1702.4734
   9   2.0000     -62.554913     -1702.2057
  10   2.0000     -56.398698     -1534.6866
  11   2.0000     -56.395990     -1534.6129
  12   2.0000     -56.395954     -1534.6119
  13   2.0000     -56.388894     -1534.4198
  14   2.0000     -56.386139     -1534.3448
  15   2.0000     -56.386089     -1534.3435
  16   2.0000     -19.254886      -523.9521
  17   2.0000     -19.253546      -523.9156
  18   2.0000     -19.238411      -523.5038
  19   2.0000     -19.236769      -523.4591
  20   2.0000     -19.228951      -523.2464
  21   2.0000     -19.218090      -522.9508
  22   2.0000     -14.661286      -398.9539
  23   2.0000     -14.648483      -398.6055
  24   2.0000     -14.418499      -392.3473
  25   2.0000     -14.417554      -392.3216
  26   2.0000     -14.415866      -392.2756
  27   2.0000     -14.411820      -392.1656
  28   2.0000     -10.376518      -282.3594
  29   2.0000     -10.367241      -282.1070
  30   2.0000     -10.358886      -281.8796
  31   2.0000     -10.354758      -281.7673
  32   2.0000     -10.347257      -281.5632
  33   2.0000     -10.346101      -281.5317
  34   2.0000     -10.345696      -281.5207
  35   2.0000     -10.345014      -281.5021
  36   2.0000     -10.344169      -281.4791
  37   2.0000     -10.340858      -281.3891
  38   2.0000     -10.339859      -281.3619
  39   2.0000     -10.339740      -281.3586
  40   2.0000     -10.339663      -281.3565
  41   2.0000     -10.338822      -281.3336
  42   2.0000     -10.337446      -281.2962
  43   2.0000     -10.333126      -281.1787
  44   2.0000     -10.328045      -281.0404
  45   2.0000     -10.327244      -281.0186
  46   2.0000     -10.325338      -280.9667
  47   2.0000     -10.325183      -280.9625
  48   2.0000     -10.324850      -280.9535
  49   2.0000     -10.323393      -280.9138
  50   2.0000     -10.321795      -280.8703
  51   2.0000     -10.321173      -280.8534
  52   2.0000     -10.319847      -280.8173
  53   2.0000     -10.319778      -280.8154
  54   2.0000     -10.319680      -280.8128
  55   2.0000     -10.317803      -280.7617
  56   2.0000     -10.317026      -280.7406
  57   2.0000     -10.315614      -280.7021
  58   2.0000     -10.315091      -280.6879
  59   2.0000     -10.314651      -280.6759
  60   2.0000     -10.309518      -280.5362
  61   2.0000     -10.309413      -280.5334
  62   2.0000     -10.307994      -280.4948
  63   2.0000     -10.306970      -280.4669
  64   2.0000     -10.306846      -280.4635
  65   2.0000     -10.306510      -280.4544
  66   2.0000     -10.305480      -280.4264
  67   2.0000     -10.304437      -280.3980
  68   2.0000     -10.303457      -280.3713
  69   2.0000     -10.303180      -280.3638
  70   2.0000     -10.301122      -280.3078
  71   2.0000     -10.298237      -280.2293
  72   2.0000     -10.296776      -280.1895
  73   2.0000     -10.294850      -280.1371
  74   2.0000     -10.294121      -280.1173
  75   2.0000     -10.292470      -280.0724
  76   2.0000     -10.283802      -279.8365
  77   2.0000     -10.276746      -279.6445
  78   2.0000      -8.794151      -239.3010
  79   2.0000      -8.784360      -239.0346
  80   2.0000      -8.080848      -219.8911
  81   2.0000      -8.076696      -219.7781
  82   2.0000      -8.072974      -219.6768
  83   2.0000      -8.071176      -219.6279
  84   2.0000      -8.070901      -219.6204
  85   2.0000      -8.070561      -219.6111
  86   2.0000      -6.630403      -180.4224
  87   2.0000      -6.620814      -180.1615
  88   2.0000      -6.615935      -180.0287
  89   2.0000      -6.615685      -180.0219
  90   2.0000      -6.606074      -179.7604
  91   2.0000      -6.605731      -179.7511
  92   2.0000      -6.050085      -164.6312
  93   2.0000      -6.046043      -164.5212
  94   2.0000      -6.045782      -164.5141
  95   2.0000      -6.043292      -164.4463
  96   2.0000      -6.042589      -164.4272
  97   2.0000      -6.041850      -164.4071
  98   2.0000      -6.040882      -164.3807
  99   2.0000      -6.040558      -164.3720
 100   2.0000      -6.040299      -164.3649
 101   2.0000      -6.038677      -164.3207
 102   2.0000      -6.038241      -164.3089
 103   2.0000      -6.036516      -164.2619
 104   2.0000      -6.036253      -164.2548
 105   2.0000      -6.036022      -164.2485
 106   2.0000      -6.034321      -164.2022
 107   2.0000      -6.032293      -164.1470
 108   2.0000      -6.032174      -164.1438
 109   2.0000      -6.031866      -164.1354
 110   2.0000      -2.746267       -74.7297
 111   2.0000      -2.742233       -74.6200
 112   2.0000      -2.742070       -74.6155
 113   2.0000      -2.736644       -74.4679
 114   2.0000      -2.732570       -74.3570
 115   2.0000      -2.732304       -74.3498
 116   2.0000      -2.730555       -74.3022
 117   2.0000      -2.730541       -74.3018
 118   2.0000      -2.720583       -74.0308
 119   2.0000      -2.720577       -74.0307
 120   2.0000      -1.335968       -36.3535
 121   2.0000      -1.319391       -35.9024
 122   2.0000      -1.154808       -31.4239
 123   2.0000      -1.144161       -31.1342
 124   2.0000      -1.136069       -30.9140
 125   2.0000      -1.131765       -30.7969
 126   2.0000      -1.031553       -28.0700
 127   2.0000      -1.026634       -27.9361
 128   2.0000      -1.026381       -27.9293
 129   2.0000      -1.022121       -27.8133
 130   2.0000      -1.017564       -27.6893
 131   2.0000      -1.015329       -27.6285
 132   2.0000      -1.010822       -27.5059
 133   2.0000      -1.001012       -27.2389
 134   2.0000      -0.996784       -27.1239
 135   2.0000      -0.993787       -27.0423
 136   2.0000      -0.992419       -27.0051
 137   2.0000      -0.988679       -26.9033
 138   2.0000      -0.947369       -25.7792
 139   2.0000      -0.943978       -25.6870
 140   2.0000      -0.935921       -25.4677
 141   2.0000      -0.924252       -25.1502
 142   2.0000      -0.917929       -24.9781
 143   2.0000      -0.916658       -24.9435
 144   2.0000      -0.911766       -24.8104
 145   2.0000      -0.905894       -24.6506
 146   2.0000      -0.898574       -24.4514
 147   2.0000      -0.889071       -24.1928
 148   2.0000      -0.886839       -24.1321
 149   2.0000      -0.884674       -24.0732
 150   2.0000      -0.883239       -24.0342
 151   2.0000      -0.874561       -23.7980
 152   2.0000      -0.866147       -23.5691
 153   2.0000      -0.855141       -23.2696
 154   2.0000      -0.850921       -23.1547
 155   2.0000      -0.847784       -23.0694
 156   2.0000      -0.831205       -22.6182
 157   2.0000      -0.829529       -22.5726
 158   2.0000      -0.827237       -22.5103
 159   2.0000      -0.801430       -21.8080
 160   2.0000      -0.793239       -21.5851
 161   2.0000      -0.781323       -21.2609
 162   2.0000      -0.774766       -21.0825
 163   2.0000      -0.769148       -20.9296
 164   2.0000      -0.765609       -20.8333
 165   2.0000      -0.761211       -20.7136
 166   2.0000      -0.749226       -20.3875
 167   2.0000      -0.736489       -20.0409
 168   2.0000      -0.721193       -19.6247
 169   2.0000      -0.706094       -19.2138
 170   2.0000      -0.702987       -19.1292
 171   2.0000      -0.696327       -18.9480
 172   2.0000      -0.695325       -18.9208
 173   2.0000      -0.690575       -18.7915
 174   2.0000      -0.685520       -18.6540
 175   2.0000      -0.669385       -18.2149
 176   2.0000      -0.663950       -18.0670
 177   2.0000      -0.662673       -18.0322
 178   2.0000      -0.658636       -17.9224
 179   2.0000      -0.655255       -17.8304
 180   2.0000      -0.651226       -17.7208
 181   2.0000      -0.646473       -17.5914
 182   2.0000      -0.642903       -17.4943
 183   2.0000      -0.641156       -17.4467
 184   2.0000      -0.632317       -17.2062
 185   2.0000      -0.629666       -17.1341
 186   2.0000      -0.624111       -16.9829
 187   2.0000      -0.623576       -16.9684
 188   2.0000      -0.617702       -16.8085
 189   2.0000      -0.613571       -16.6961
 190   2.0000      -0.610708       -16.6182
 191   2.0000      -0.605074       -16.4649
 192   2.0000      -0.599678       -16.3181
 193   2.0000      -0.597511       -16.2591
 194   2.0000      -0.590422       -16.0662
 195   2.0000      -0.586031       -15.9467
 196   2.0000      -0.585491       -15.9320
 197   2.0000      -0.576177       -15.6786
 198   2.0000      -0.574347       -15.6288
 199   2.0000      -0.568222       -15.4621
 200   2.0000      -0.566908       -15.4263
 201   2.0000      -0.559237       -15.2176
 202   2.0000      -0.554317       -15.0837
 203   2.0000      -0.549356       -14.9487
 204   2.0000      -0.548374       -14.9220
 205   2.0000      -0.545049       -14.8315
 206   2.0000      -0.541948       -14.7471
 207   2.0000      -0.537410       -14.6237
 208   2.0000      -0.533585       -14.5196
 209   2.0000      -0.532461       -14.4890
 210   2.0000      -0.531445       -14.4614
 211   2.0000      -0.528235       -14.3740
 212   2.0000      -0.524090       -14.2612
 213   2.0000      -0.522972       -14.2308
 214   2.0000      -0.521534       -14.1917
 215   2.0000      -0.520579       -14.1657
 216   2.0000      -0.518434       -14.1073
 217   2.0000      -0.515799       -14.0356
 218   2.0000      -0.513417       -13.9708
 219   2.0000      -0.510845       -13.9008
 220   2.0000      -0.506944       -13.7946
 221   2.0000      -0.503412       -13.6985
 222   2.0000      -0.502256       -13.6671
 223   2.0000      -0.500964       -13.6319
 224   2.0000      -0.498555       -13.5664
 225   2.0000      -0.496644       -13.5144
 226   2.0000      -0.496142       -13.5007
 227   2.0000      -0.492951       -13.4139
 228   2.0000      -0.490691       -13.3524
 229   2.0000      -0.484270       -13.1777
 230   2.0000      -0.480844       -13.0844
 231   2.0000      -0.479054       -13.0357
 232   2.0000      -0.475541       -12.9401
 233   2.0000      -0.473812       -12.8931
 234   2.0000      -0.472905       -12.8684
 235   2.0000      -0.468954       -12.7609
 236   2.0000      -0.465281       -12.6610
 237   2.0000      -0.460087       -12.5196
 238   2.0000      -0.457150       -12.4397
 239   2.0000      -0.455632       -12.3984
 240   2.0000      -0.452092       -12.3021
 241   2.0000      -0.451494       -12.2858
 242   2.0000      -0.449650       -12.2356
 243   2.0000      -0.447602       -12.1799
 244   2.0000      -0.445403       -12.1200
 245   2.0000      -0.443202       -12.0601
 246   2.0000      -0.442802       -12.0493
 247   2.0000      -0.439313       -11.9543
 248   2.0000      -0.437931       -11.9167
 249   2.0000      -0.435584       -11.8528
 250   2.0000      -0.431064       -11.7299
 251   2.0000      -0.428757       -11.6671
 252   2.0000      -0.427474       -11.6322
 253   2.0000      -0.423652       -11.5282
 254   2.0000      -0.420405       -11.4398
 255   2.0000      -0.416894       -11.3443
 256   2.0000      -0.415313       -11.3012
 257   2.0000      -0.411029       -11.1847
 258   2.0000      -0.407519       -11.0891
 259   2.0000      -0.403156       -10.9704
 260   2.0000      -0.397967       -10.8292
 261   2.0000      -0.392129       -10.6704
 262   2.0000      -0.389480       -10.5983
 263   2.0000      -0.387854       -10.5541
 264   2.0000      -0.385587       -10.4924
 265   2.0000      -0.383116       -10.4251
 266   2.0000      -0.379763       -10.3339
 267   2.0000      -0.377427       -10.2703
 268   2.0000      -0.376235       -10.2379
 269   2.0000      -0.374695       -10.1960
 270   2.0000      -0.369243       -10.0476
 271   2.0000      -0.367589       -10.0026
 272   2.0000      -0.365395        -9.9429
 273   2.0000      -0.363555        -9.8928
 274   2.0000      -0.357688        -9.7332
 275   2.0000      -0.350045        -9.5252
 276   2.0000      -0.344693        -9.3796
 277   2.0000      -0.343654        -9.3513
 278   2.0000      -0.337542        -9.1850
 279   2.0000      -0.334287        -9.0964
 280   2.0000      -0.329254        -8.9595
 281   2.0000      -0.321796        -8.7565
 282   2.0000      -0.313456        -8.5296
 283   2.0000      -0.306294        -8.3347
 284   2.0000      -0.294756        -8.0207
 285   2.0000      -0.288112        -7.8399
 286   2.0000      -0.280750        -7.6396
 287   2.0000      -0.240240        -6.5373
 288   0.0000      -0.130274        -3.5449
 289   0.0000      -0.102994        -2.8026
 290   0.0000      -0.079201        -2.1552
 291   0.0000      -0.069396        -1.8884
 292   0.0000      -0.058236        -1.5847

MULLIKEN ATOMIC CHARGES
-----------------------
   0 C :    0.343284
   1 C :   -0.373940
   2 C :   -0.195977
   3 N :    0.162711
   4 C :   -0.216621
   5 N :    0.177443
   6 C :    0.017098
   7 C :   -0.022739
   8 C :   -0.068867
   9 C :    0.115788
  10 C :   -0.057959
  11 C :   -0.027527
  12 S :    0.200343
  13 C :   -0.121043
  14 C :    0.023675
  15 Br:    0.023136
  16 C :    0.172277
  17 O :   -0.195403
  18 C :   -0.087194
  19 C :   -0.048006
  20 C :   -0.068620
  21 C :    0.158489
  22 N :    0.252342
  23 O :   -0.218769
  24 O :   -0.222812
  25 C :   -0.090344
  26 C :    0.124998
  27 C :   -0.085615
  28 S :    0.150591
  29 C :   -0.000940
  30 C :   -0.020386
  31 C :    0.045754
  32 C :    0.039993
  33 C :   -0.001728
  34 S :    0.103469
  35 C :   -0.032175
  36 C :    0.048580
  37 C :    0.039334
  38 C :   -0.016033
  39 S :    0.087363
  40 C :   -0.011069
  41 C :   -0.089945
  42 C :    0.148466
  43 N :    0.262467
  44 O :   -0.258767
  45 O :   -0.249344
  46 C :   -0.044569
  47 C :    0.167256
  48 C :   -0.176386
  49 S :    0.101396
  50 C :    0.039813
  51 C :   -0.140372
  52 C :    0.282813
  53 C :   -0.356894
  54 C :   -0.167282
  55 N :    0.137512
  56 C :   -0.200028
  57 N :    0.165233
  58 C :    0.022379
  59 C :   -0.018505
  60 C :    0.149668
  61 O :   -0.155613
  62 C :   -0.072668
  63 C :    0.111795
  64 C :   -0.100474
  65 C :   -0.031432
  66 S :    0.167446
  67 C :   -0.141731
  68 C :    0.056302
  69 Br:    0.051711
  70 H :   -0.025042
  71 H :   -0.009259
  72 H :   -0.004877
  73 H :    0.030903
  74 H :    0.039415
  75 H :    0.037079
  76 H :    0.030041
  77 H :   -0.007262
  78 H :    0.001350
  79 H :   -0.000601
  80 H :   -0.002410
  81 H :    0.006043
  82 H :    0.028025
  83 H :    0.036654
  84 H :    0.052579
  85 H :    0.008171
  86 H :    0.031377
  87 H :   -0.009462
  88 H :   -0.011681
  89 H :    0.005811
Sum of atomic charges:   -0.0000000

LOEWDIN ATOMIC CHARGES
----------------------
   0 C :    0.076665
   1 C :   -0.139187
   2 C :   -0.020222
   3 N :   -0.050118
   4 C :   -0.028648
   5 N :   -0.040056
   6 C :   -0.020938
   7 C :   -0.057147
   8 C :    0.017246
   9 C :   -0.035264
  10 C :   -0.132807
  11 C :   -0.005054
  12 S :    0.451105
  13 C :   -0.273102
  14 C :   -0.073922
  15 Br:    0.137667
  16 C :    0.082976
  17 O :   -0.177526
  18 C :   -0.091571
  19 C :    0.043630
  20 C :   -0.180195
  21 C :   -0.045391
  22 N :    0.285164
  23 O :   -0.184792
  24 O :   -0.185234
  25 C :   -0.031615
  26 C :   -0.050559
  27 C :   -0.174217
  28 S :    0.545198
  29 C :   -0.055216
  30 C :   -0.142029
  31 C :   -0.009408
  32 C :   -0.028176
  33 C :   -0.147905
  34 S :    0.428076
  35 C :   -0.173822
  36 C :   -0.019560
  37 C :   -0.021819
  38 C :   -0.128520
  39 S :    0.415903
  40 C :   -0.070558
  41 C :   -0.119317
  42 C :   -0.082470
  43 N :    0.288000
  44 O :   -0.219170
  45 O :   -0.202113
  46 C :    0.015315
  47 C :   -0.043375
  48 C :   -0.201490
  49 S :    0.493262
  50 C :    0.046353
  51 C :   -0.103045
  52 C :    0.059993
  53 C :   -0.154207
  54 C :   -0.021364
  55 N :   -0.071374
  56 C :   -0.038321
  57 N :   -0.061338
  58 C :   -0.017730
  59 C :   -0.057090
  60 C :    0.084445
  61 O :   -0.147707
  62 C :    0.015913
  63 C :   -0.036818
  64 C :   -0.148898
  65 C :   -0.018640
  66 S :    0.431812
  67 C :   -0.273246
  68 C :   -0.067642
  69 Br:    0.159336
  70 H :    0.026620
  71 H :    0.040903
  72 H :    0.035989
  73 H :    0.046539
  74 H :    0.037070
  75 H :    0.045654
  76 H :    0.036914
  77 H :    0.041754
  78 H :    0.039215
  79 H :    0.037895
  80 H :    0.037716
  81 H :    0.041349
  82 H :    0.046100
  83 H :    0.043976
  84 H :    0.055501
  85 H :    0.028459
  86 H :    0.046496
  87 H :    0.040681
  88 H :    0.032340
  89 H :    0.040703

  Mayer bond orders larger than 0.100000
B(  0-C ,  1-C ) :   1.6256 B(  0-C ,  6-C ) :   0.9924 B(  0-C , 18-C ) :   1.0698
B(  1-C ,  2-C ) :   1.1497 B(  1-C ,  4-C ) :   1.1473 B(  2-C ,  3-N ) :   2.9712
B(  4-C ,  5-N ) :   2.9588 B(  6-C ,  7-C ) :   1.2588 B(  6-C , 11-C ) :   1.4190
B(  7-C ,  8-C ) :   1.4198 B(  7-C , 16-C ) :   0.9759 B(  8-C ,  9-C ) :   1.2330
B(  8-C , 70-H ) :   1.0127 B(  9-C , 10-C ) :   1.3163 B(  9-C , 14-C ) :   1.1680
B( 10-C , 11-C ) :   1.3052 B( 10-C , 12-S ) :   1.0942 B( 11-C , 71-H ) :   0.9814
B( 12-S , 13-C ) :   1.0970 B( 13-C , 14-C ) :   1.5978 B( 13-C , 15-Br) :   1.0192
B( 14-C , 72-H ) :   1.0015 B( 16-C , 17-O ) :   2.0837 B( 16-C , 18-C ) :   0.9809
B( 18-C , 19-C ) :   1.5079 B( 19-C , 20-C ) :   1.2544 B( 19-C , 73-H ) :   0.9232
B( 20-C , 21-C ) :   1.3128 B( 20-C , 28-S ) :   1.1383 B( 21-C , 22-N ) :   0.8968
B( 21-C , 25-C ) :   1.4352 B( 22-N , 23-O ) :   1.5113 B( 22-N , 24-O ) :   1.5218
B( 23-O , 24-O ) :   0.2689 B( 25-C , 26-C ) :   1.1210 B( 25-C , 27-C ) :   1.3354
B( 26-C , 74-H ) :   0.9283 B( 26-C , 75-H ) :   0.9320 B( 26-C , 76-H ) :   0.9328
B( 27-C , 28-S ) :   1.0787 B( 27-C , 29-C ) :   1.2414 B( 29-C , 30-C ) :   1.5163
B( 29-C , 77-H ) :   0.9658 B( 30-C , 31-C ) :   1.1533 B( 30-C , 34-S ) :   1.0686
B( 31-C , 32-C ) :   1.5784 B( 31-C , 78-H ) :   0.9981 B( 32-C , 33-C ) :   1.1963
B( 32-C , 79-H ) :   0.9945 B( 33-C , 34-S ) :   1.0671 B( 33-C , 35-C ) :   1.4749
B( 35-C , 36-C ) :   1.2087 B( 35-C , 39-S ) :   1.0430 B( 36-C , 37-C ) :   1.5598
B( 36-C , 80-H ) :   0.9935 B( 37-C , 38-C ) :   1.1782 B( 37-C , 81-H ) :   0.9990
B( 38-C , 39-S ) :   1.0790 B( 38-C , 40-C ) :   1.4277 B( 40-C , 41-C ) :   1.2990
B( 40-C , 82-H ) :   0.9634 B( 41-C , 42-C ) :   1.3087 B( 41-C , 49-S ) :   1.1275
B( 42-C , 43-N ) :   0.9579 B( 42-C , 46-C ) :   1.3222 B( 43-N , 44-O ) :   1.4942
B( 43-N , 45-O ) :   1.5117 B( 44-O , 45-O ) :   0.2484 B( 46-C , 47-C ) :   1.1505
B( 46-C , 48-C ) :   1.3947 B( 47-C , 83-H ) :   0.9207 B( 47-C , 84-H ) :   0.9209
B( 47-C , 85-H ) :   0.9277 B( 48-C , 49-S ) :   1.0723 B( 48-C , 50-C ) :   1.1788
B( 50-C , 51-C ) :   1.6069 B( 50-C , 86-H ) :   0.9284 B( 51-C , 52-C ) :   1.0430
B( 51-C , 60-C ) :   0.9591 B( 52-C , 53-C ) :   1.6151 B( 52-C , 58-C ) :   1.0284
B( 53-C , 54-C ) :   1.1508 B( 53-C , 56-C ) :   1.1632 B( 54-C , 55-N ) :   2.9443
B( 56-C , 57-N ) :   3.0031 B( 58-C , 59-C ) :   1.2799 B( 58-C , 65-C ) :   1.3977
B( 59-C , 60-C ) :   0.9220 B( 59-C , 62-C ) :   1.4175 B( 60-C , 61-O ) :   2.2048
B( 62-C , 63-C ) :   1.2382 B( 62-C , 87-H ) :   1.0240 B( 63-C , 64-C ) :   1.2979
B( 63-C , 68-C ) :   1.1733 B( 64-C , 65-C ) :   1.3224 B( 64-C , 66-S ) :   1.0838
B( 65-C , 88-H ) :   0.9765 B( 66-S , 67-C ) :   1.0818 B( 67-C , 68-C ) :   1.6095
B( 67-C , 69-Br) :   1.0406 B( 68-C , 89-H ) :   0.9934

-----------------------------------------------------------------------------
         ABSORPTION SPECTRUM VIA TRANSITION ELECTRIC DIPOLE MOMENTS
-----------------------------------------------------------------------------
State   Energy  Wavelength   fosc         T2         TX        TY        TZ
        (cm-1)    (nm)                  (au**2)     (au)      (au)      (au)
-----------------------------------------------------------------------------
   0    8844.9   1130.6   0.210770430   7.84502   1.40941  -1.87129  -1.53520
   1   14270.6    700.7   0.182676496   4.21420   0.12313  -0.73287   1.91362
   2   17588.1    568.6   0.289435828   5.41763  -0.34295   0.82078  -2.15089
   3   18322.0    545.8   0.260577576   4.68209  -0.18405  -0.47310   2.10343
   4   19746.3    506.4   0.327382008   5.45813   2.09754  -0.88031   0.53245
   5   20978.4    476.7   0.037483804   0.58823  -0.55098   0.37381   0.38068
   6   21522.6    464.6   0.018771092   0.28712  -0.37135   0.24932   0.29507
   7   22385.1    446.7   0.088397462   1.30004   0.82367  -0.23023  -0.75405
   8   22930.5    436.1   0.164977793   2.36858  -1.35684   0.38485   0.61600
   9   23112.7    432.7   0.096708209   1.37749   0.83302  -0.43611   0.70241
  10   23823.3    419.8   0.097349061   1.34526   0.16045  -0.31980   1.10329
  11   24318.6    411.2   0.047898699   0.64843  -0.54388   0.34055   0.48646
  12   24921.4    401.3   0.472590155   6.24292  -2.27417   1.01889   0.18147
  13   25437.8    393.1   0.120315752   1.55711  -1.11909   0.36402   0.41501
  14   25998.4    384.6   0.050550403   0.64011  -0.11595  -0.11786   0.78280
  15   26412.3    378.6   0.072518117   0.90389   0.52859  -0.27838   0.73959
  16   26592.5    376.0   0.009269877   0.11476  -0.19954   0.19425   0.19289
  17   27224.7    367.3   0.168909440   2.04252  -1.37868   0.33534   0.17123
  18   27367.0    365.4   0.183155043   2.20327   1.35664  -0.33083   0.50333
  19   27733.6    360.6   0.005712636   0.06781  -0.05824   0.23930  -0.08459
  20   28192.0    354.7   0.028772229   0.33599   0.27654   0.16917   0.48051
  21   28641.3    349.1   0.039040748   0.44875  -0.60638   0.16415  -0.23260
  22   28849.7    346.6   0.088235941   1.00688   0.94995  -0.19296   0.25931
  23   29064.0    344.1   0.200497201   2.27106  -0.84269   0.53027   1.13126
  24   29436.4    339.7   0.002104392   0.02354  -0.09945   0.10677   0.04739
  25   29539.5    338.5   0.123617020   1.37769  -0.88905   0.44934   0.62078
  26   29978.2    333.6   0.090632413   0.99530  -0.78259   0.21876   0.57879
  27   30585.0    327.0   0.080869046   0.87046  -0.56280   0.36778   0.64688
  28   30858.0    324.1   0.005421303   0.05784  -0.07801   0.09832  -0.20515
  29   31060.4    322.0   0.198060553   2.09926  -1.01689   0.36704   0.96461
  30   31089.6    321.7   0.040925535   0.43337   0.46116  -0.10677  -0.45750
  31   31289.3    319.6   0.023261174   0.24474  -0.36628   0.32422   0.07394
  32   31434.5    318.1   0.002324721   0.02435  -0.04010   0.12397  -0.08585
  33   31628.9    316.2   0.043591208   0.45372  -0.59161   0.29102   0.13795
  34   31707.6    315.4   0.082116584   0.85260   0.15592  -0.03576  -0.90940
  35   31833.8    314.1   0.029971939   0.30996  -0.23673   0.03701   0.50254
  36   32161.8    310.9   0.482406593   4.93797  -1.05342   0.67819   1.83530
  37   32417.7    308.5   0.023497840   0.23863   0.36037  -0.18464  -0.27326
  38   32569.7    307.0   0.028994163   0.29307  -0.00215   0.02967  -0.54054
  39   32672.0    306.1   0.064960676   0.65456   0.35055  -0.17183  -0.70862
  40   32755.1    305.3   0.045041672   0.45270  -0.42401   0.17482  -0.49229
  41   33018.8    302.9   0.026241233   0.26164   0.41959  -0.23883  -0.16895
  42   33298.0    300.3   0.022708009   0.22451  -0.26109   0.15041  -0.36567
  43   33597.7    297.6   0.065189892   0.63877   0.00558   0.12821   0.78886
  44   33797.3    295.9   0.100869632   0.98255   0.85488  -0.27449   0.41998
  45   33967.9    294.4   0.010842930   0.10509   0.26321  -0.18097  -0.05529
  46   34146.8    292.9   0.007691512   0.07415  -0.21247   0.04564   0.16409
  47   34304.5    291.5   0.032914996   0.31588   0.42520  -0.20537   0.30481
  48   34656.8    288.5   0.036539097   0.34709   0.06062   0.05500   0.58343
  49   35123.7    284.7   0.052897160   0.49580   0.40627   0.09587  -0.56705
  50   35284.1    283.4   0.048460260   0.45215   0.52591  -0.12748   0.39915
  51   35709.2    280.0   0.072311987   0.66666   0.55553  -0.11627  -0.58697
  52   36001.6    277.8   0.087271803   0.79805  -0.52127   0.32798   0.64711
  53   36216.7    276.1   0.072244443   0.65671   0.54173  -0.22868  -0.55761
  54   36279.0    275.6   0.056300984   0.51090  -0.60006  -0.04134   0.38616
  55   36379.1    274.9   0.011495712   0.10403   0.24725   0.18792   0.08708
  56   36533.6    273.7   0.137939666   1.24300   0.92291  -0.31625  -0.53965
  57   36787.4    271.8   0.105907270   0.94777   0.88484  -0.30302  -0.27021
  58   36876.7    271.2   0.038556561   0.34421   0.48230  -0.16285   0.29167
  59   37017.4    270.1   0.137786394   1.22539   0.84284  -0.45509  -0.55489
  60   37172.6    269.0   0.002464148   0.02182  -0.06529   0.08147   0.10451
  61   37385.3    267.5   0.004433588   0.03904  -0.17893  -0.04987   0.06737
  62   37505.2    266.6   0.028876391   0.25347  -0.44818   0.19219   0.12517
  63   37710.1    265.2   0.127092540   1.10953  -0.91348   0.47491  -0.22258
  64   37777.5    264.7   0.199345846   1.73720  -0.40641   0.38644  -1.19277
  65   38112.0    262.4   0.052614893   0.45449  -0.65178   0.08188   0.15153
  66   38159.5    262.1   0.012563830   0.10839   0.13709   0.05268  -0.29465
  67   38386.2    260.5   0.060262038   0.51683  -0.10469  -0.21975  -0.67644
  68   38568.0    259.3   0.003569056   0.03047   0.09237  -0.04257   0.14185
  69   38655.8    258.7   0.033096205   0.28186   0.02031   0.03006  -0.52967
  70   38666.0    258.6   0.059365023   0.50545   0.04559   0.18150   0.68588
  71   38956.9    256.7   0.026767389   0.22620   0.33237   0.26997  -0.20700
  72   39339.8    254.2   0.006970076   0.05833  -0.08666   0.01454  -0.22496
  73   39355.0    254.1   0.016326502   0.13657  -0.23510   0.10224   0.26618
  74   39540.9    252.9   0.068942092   0.57400  -0.71048   0.25396  -0.06870
  75   39719.6    251.8   0.006238906   0.05171  -0.20109   0.01546   0.10504
  76   39882.7    250.7   0.015338018   0.12661   0.21957  -0.25605   0.11329
  77   39993.0    250.0   0.001592136   0.01311   0.10248   0.04662  -0.02075

FINAL SINGLE POINT ENERGY    -10229.868576873359

DIPOLE MOMENT
-------------
                                X             Y             Z
Electronic contribution:     16.32134     -22.28861      78.41176
Nuclear contribution   :    -17.32303      24.11285     -81.55466
                        -----------------------------------------
Total Dipole Moment    :     -1.00169       1.82424      -3.14290
                        -----------------------------------------
Magnitude (a.u.)       :      3.76949
Magnitude (Debye)      :      9.58129

Rotational constants in cm-1:     0.001191     0.000747     0.000525
Rotational constants in MHz :    35.715914    22.398152    15.733648

                             ****ORCA TERMINATED NORMALLY****
TOTAL RUN TIME: 0 days 0 hours 13 minutes 16 seconds 213 msec
