                         Program Version 4.2.0 -  RELEASE  -
|  1> # ORCA input file
|  2> # SCF done       -141.017590728435          0.000390829067
|  3> ! CAM-B3LYP def2-SVP def2/J RIJCOSX Grid4 TightSCF
|  4> %maxcore 5000
|  5> %tddft
|  6>     Mode sTDDFT
|  7>     Ethresh 5.0
|  8>     maxcore 5000
|  9> end
| 10>
| 11> %pal
| 12>   nprocs 6
| 13>   end
| 14> * xyz 0 1
| 15>    C       -1.29172        -0.61284        -3.86576
| 16>    S       -2.63477        -1.61781        -3.55804
| 17>    C       -1.63594        -2.97199        -3.12808
| 18>    C       -0.28528        -2.62368        -3.23786
| 19>    C       -0.09210        -1.26211        -3.66634
| 20>    C        1.23008        -0.73962        -3.79599
| 21>    C        1.52687         0.63040        -4.28310
| 22>    O        2.44625         1.28812        -3.87982
| 23>    O        0.72425         1.10172        -5.26264
| 24>    C        2.29013        -1.54449        -3.46315
| 25>    C        2.10971        -2.88584        -3.10507
| 26>    C        0.85592        -3.44252        -3.02604
| 27>    O        0.67546        -4.76009        -2.77556
| 28>    C       -2.24773        -4.15151        -2.61848
| 29>    S       -1.54943        -5.04603        -1.31839
| 30>    C       -2.88912        -6.13731        -1.19453
| 31>    C       -3.87875        -5.79771        -2.12860
| 32>    C       -3.50912        -4.67560        -2.94097
| 33>    C       -4.36887        -4.24242        -3.96991
| 34>    C       -5.57354        -4.85924        -4.13621
| 35>    F       -6.40027        -4.46146        -5.11858
| 36>    C       -5.97642        -5.90748        -3.28102
| 37>    F       -7.19479        -6.45473        -3.44418
| 38>    C       -5.15246        -6.37624        -2.30043
| 39>    C       -2.78883        -7.17356        -0.22722
| 40>    C       -3.52015        -8.30840        -0.14112
| 41>    C       -3.32753        -9.25555         0.91227
| 42>    C       -4.00291       -10.40214         1.11053
| 43>    C       -5.09976       -10.93452         0.24876
| 44>    C       -3.70037       -11.22194         2.33959
| 45>    N       -4.22300       -10.54465         3.51031
| 46>    C       -4.18171       -11.04117         4.76624
| 47>    C       -3.82073       -12.30681         5.11102
| 48>    C       -3.80410       -12.83503         6.42076
| 49>    C       -4.00650       -12.22094         7.63001
| 50>    C       -3.96519       -12.87516         8.88784
| 51>    C       -4.15807       -12.06488         9.96461
| 52>    C       -4.36224       -10.70781         9.63297
| 53>    S       -4.31512       -10.50503         7.89480
| 54>    C       -4.56555        -9.63819        10.48163
| 55>    C       -4.64122        -9.64578        11.89000
| 56>    C       -4.83681        -8.41473        12.44183
| 57>    C       -4.92580        -7.35924        11.50427
| 58>    S       -4.75761        -8.00237         9.87705
| 59>    C       -5.10669        -6.02318        11.77044
| 60>    C       -5.17707        -5.02148        10.79280
| 61>    C       -5.34591        -3.69576        11.07649
| 62>    C       -5.42266        -2.63238        10.13986
| 63>    C       -5.35979        -2.74298         8.78925
| 64>    C       -5.43831        -1.65725         7.85117
| 65>    C       -5.57550        -0.35856         8.13332
| 66>    H       -1.47046         0.41221        -4.12324
| 67>    H        0.09512         0.43576        -5.56941
| 68>    H        3.28743        -1.13789        -3.52666
| 69>    H        2.97644        -3.50326        -2.91437
| 70>    H        1.52863        -5.18902        -2.62991
| 71>    H       -4.09162        -3.44053        -4.63357
| 72>    H       -5.50526        -7.16183        -1.65593
| 73>    H       -1.99652        -7.02682         0.49849
| 74>    H       -4.26242        -8.53195        -0.88821
| 75>    H       -2.55471        -8.99609         1.62756
| 76>    H       -5.33478       -10.27727        -0.58095
| 77>    H       -5.99984       -11.07899         0.84651
| 78>    H       -4.81426       -11.90679        -0.15380
| 79>    H       -2.61514       -11.36801         2.44564
| 80>    H       -4.17014       -12.20701         2.26420
| 81>    H       -4.39398        -9.55808         3.39987
| 82>    H       -4.51636       -10.34685         5.52092
| 83>    H       -3.52764       -12.99503         4.33122
| 84>    H       -3.57856       -13.89271         6.48974
| 85>    H       -3.78977       -13.93513         8.95452
| 86>    H       -4.15096       -12.40332        10.98526
| 87>    H       -4.54995       -10.55512        12.45730
| 88>    H       -4.91817        -8.22910        13.49870
| 89>    H       -5.19590        -5.73578        12.81047
| 90>    H       -5.08605        -5.34550         9.76463
| 91>    H       -5.42807        -3.41809        12.12059
| 92>    H       -5.54507        -1.64618        10.56765
| 93>    H       -5.24198        -3.72439         8.35110
| 94>    H       -5.37670        -1.94964         6.80950
| 95>    H       -5.64242         0.01193         9.14137
| 96>    H       -5.62482         0.38095         7.35303
| 97> *
| 98>
| 99>                          ****END OF INPUT****

CARTESIAN COORDINATES (ANGSTROEM)
---------------------------------
  C     -1.291720   -0.612840   -3.865760
  S     -2.634770   -1.617810   -3.558040
  C     -1.635940   -2.971990   -3.128080
  C     -0.285280   -2.623680   -3.237860
  C     -0.092100   -1.262110   -3.666340
  C      1.230080   -0.739620   -3.795990
  C      1.526870    0.630400   -4.283100
  O      2.446250    1.288120   -3.879820
  O      0.724250    1.101720   -5.262640
  C      2.290130   -1.544490   -3.463150
  C      2.109710   -2.885840   -3.105070
  C      0.855920   -3.442520   -3.026040
  O      0.675460   -4.760090   -2.775560
  C     -2.247730   -4.151510   -2.618480
  S     -1.549430   -5.046030   -1.318390
  C     -2.889120   -6.137310   -1.194530
  C     -3.878750   -5.797710   -2.128600
  C     -3.509120   -4.675600   -2.940970
  C     -4.368870   -4.242420   -3.969910
  C     -5.573540   -4.859240   -4.136210
  F     -6.400270   -4.461460   -5.118580
  C     -5.976420   -5.907480   -3.281020
  F     -7.194790   -6.454730   -3.444180
  C     -5.152460   -6.376240   -2.300430
  C     -2.788830   -7.173560   -0.227220
  C     -3.520150   -8.308400   -0.141120
  C     -3.327530   -9.255550    0.912270
  C     -4.002910  -10.402140    1.110530
  C     -5.099760  -10.934520    0.248760
  C     -3.700370  -11.221940    2.339590
  N     -4.223000  -10.544650    3.510310
  C     -4.181710  -11.041170    4.766240
  C     -3.820730  -12.306810    5.111020
  C     -3.804100  -12.835030    6.420760
  C     -4.006500  -12.220940    7.630010
  C     -3.965190  -12.875160    8.887840
  C     -4.158070  -12.064880    9.964610
  C     -4.362240  -10.707810    9.632970
  S     -4.315120  -10.505030    7.894800
  C     -4.565550   -9.638190   10.481630
  C     -4.641220   -9.645780   11.890000
  C     -4.836810   -8.414730   12.441830
  C     -4.925800   -7.359240   11.504270
  S     -4.757610   -8.002370    9.877050
  C     -5.106690   -6.023180   11.770440
  C     -5.177070   -5.021480   10.792800
  C     -5.345910   -3.695760   11.076490
  C     -5.422660   -2.632380   10.139860
  C     -5.359790   -2.742980    8.789250
  C     -5.438310   -1.657250    7.851170
  C     -5.575500   -0.358560    8.133320
  H     -1.470460    0.412210   -4.123240
  H      0.095120    0.435760   -5.569410
  H      3.287430   -1.137890   -3.526660
  H      2.976440   -3.503260   -2.914370
  H      1.528630   -5.189020   -2.629910
  H     -4.091620   -3.440530   -4.633570
  H     -5.505260   -7.161830   -1.655930
  H     -1.996520   -7.026820    0.498490
  H     -4.262420   -8.531950   -0.888210
  H     -2.554710   -8.996090    1.627560
  H     -5.334780  -10.277270   -0.580950
  H     -5.999840  -11.078990    0.846510
  H     -4.814260  -11.906790   -0.153800
  H     -2.615140  -11.368010    2.445640
  H     -4.170140  -12.207010    2.264200
  H     -4.393980   -9.558080    3.399870
  H     -4.516360  -10.346850    5.520920
  H     -3.527640  -12.995030    4.331220
  H     -3.578560  -13.892710    6.489740
  H     -3.789770  -13.935130    8.954520
  H     -4.150960  -12.403320   10.985260
  H     -4.549950  -10.555120   12.457300
  H     -4.918170   -8.229100   13.498700
  H     -5.195900   -5.735780   12.810470
  H     -5.086050   -5.345500    9.764630
  H     -5.428070   -3.418090   12.120590
  H     -5.545070   -1.646180   10.567650
  H     -5.241980   -3.724390    8.351100
  H     -5.376700   -1.949640    6.809500
  H     -5.642420    0.011930    9.141370
  H     -5.624820    0.380950    7.353030

 Total Charge           Charge          ....    0
 Multiplicity           Mult            ....    1
 Number of Electrons    NEL             ....  390
 Basis Dimension        Dim             ....  885

ORBITAL ENERGIES
----------------

  NO   OCC          E(Eh)            E(eV)
   0   2.0000     -88.981612     -2421.3127
   1   2.0000     -88.973379     -2421.0887
   2   2.0000     -88.931194     -2419.9408
   3   2.0000     -88.925706     -2419.7915
   4   2.0000     -24.788098      -674.5184
   5   2.0000     -24.787870      -674.5122
   6   2.0000     -19.272264      -524.4250
   7   2.0000     -19.252832      -523.8962
   8   2.0000     -19.188234      -522.1384
   9   2.0000     -14.437171      -392.8554
  10   2.0000     -10.393403      -282.8189
  11   2.0000     -10.369583      -282.1707
  12   2.0000     -10.368987      -282.1545
  13   2.0000     -10.360596      -281.9261
  14   2.0000     -10.328848      -281.0622
  15   2.0000     -10.317287      -280.7476
  16   2.0000     -10.313028      -280.6318
  17   2.0000     -10.311614      -280.5933
  18   2.0000     -10.310912      -280.5742
  19   2.0000     -10.306180      -280.4454
  20   2.0000     -10.303279      -280.3665
  21   2.0000     -10.299399      -280.2609
  22   2.0000     -10.298621      -280.2397
  23   2.0000     -10.296158      -280.1727
  24   2.0000     -10.295688      -280.1599
  25   2.0000     -10.292927      -280.0848
  26   2.0000     -10.291767      -280.0532
  27   2.0000     -10.291735      -280.0523
  28   2.0000     -10.291102      -280.0351
  29   2.0000     -10.290751      -280.0256
  30   2.0000     -10.288958      -279.9768
  31   2.0000     -10.288554      -279.9658
  32   2.0000     -10.284893      -279.8662
  33   2.0000     -10.284598      -279.8581
  34   2.0000     -10.283510      -279.8285
  35   2.0000     -10.281376      -279.7705
  36   2.0000     -10.279875      -279.7296
  37   2.0000     -10.276894      -279.6485
  38   2.0000     -10.272465      -279.5280
  39   2.0000     -10.271658      -279.5060
  40   2.0000     -10.271040      -279.4892
  41   2.0000     -10.266010      -279.3523
  42   2.0000     -10.265178      -279.3297
  43   2.0000     -10.257746      -279.1275
  44   2.0000     -10.256565      -279.0953
  45   2.0000     -10.255665      -279.0708
  46   2.0000     -10.254870      -279.0492
  47   2.0000     -10.253381      -279.0087
  48   2.0000     -10.251473      -278.9568
  49   2.0000     -10.251179      -278.9488
  50   2.0000     -10.246180      -278.8127
  51   2.0000      -8.076735      -219.7791
  52   2.0000      -8.068102      -219.5442
  53   2.0000      -8.026958      -218.4246
  54   2.0000      -8.021953      -218.2884
  55   2.0000      -6.045762      -164.5135
  56   2.0000      -6.041291      -164.3919
  57   2.0000      -6.039765      -164.3504
  58   2.0000      -6.037016      -164.2755
  59   2.0000      -6.032822      -164.1614
  60   2.0000      -6.031057      -164.1134
  61   2.0000      -5.996691      -163.1783
  62   2.0000      -5.992734      -163.0706
  63   2.0000      -5.991701      -163.0425
  64   2.0000      -5.987953      -162.9405
  65   2.0000      -5.987790      -162.9360
  66   2.0000      -5.982776      -162.7996
  67   2.0000      -1.309187       -35.6248
  68   2.0000      -1.294515       -35.2256
  69   2.0000      -1.173057       -31.9205
  70   2.0000      -1.169882       -31.8341
  71   2.0000      -1.087283       -29.5865
  72   2.0000      -1.035101       -28.1665
  73   2.0000      -1.016699       -27.6658
  74   2.0000      -0.999446       -27.1963
  75   2.0000      -0.976675       -26.5767
  76   2.0000      -0.954697       -25.9786
  77   2.0000      -0.947577       -25.7849
  78   2.0000      -0.941939       -25.6315
  79   2.0000      -0.927850       -25.2481
  80   2.0000      -0.902803       -24.5665
  81   2.0000      -0.898446       -24.4480
  82   2.0000      -0.883902       -24.0522
  83   2.0000      -0.874894       -23.8071
  84   2.0000      -0.869404       -23.6577
  85   2.0000      -0.864089       -23.5131
  86   2.0000      -0.847638       -23.0654
  87   2.0000      -0.842974       -22.9385
  88   2.0000      -0.837207       -22.7816
  89   2.0000      -0.833659       -22.6850
  90   2.0000      -0.827598       -22.5201
  91   2.0000      -0.814674       -22.1684
  92   2.0000      -0.804867       -21.9016
  93   2.0000      -0.802190       -21.8287
  94   2.0000      -0.795693       -21.6519
  95   2.0000      -0.777437       -21.1551
  96   2.0000      -0.766057       -20.8455
  97   2.0000      -0.747435       -20.3387
  98   2.0000      -0.744551       -20.2603
  99   2.0000      -0.738738       -20.1021
 100   2.0000      -0.720376       -19.6024
 101   2.0000      -0.716386       -19.4939
 102   2.0000      -0.709656       -19.3107
 103   2.0000      -0.704693       -19.1757
 104   2.0000      -0.691973       -18.8296
 105   2.0000      -0.689938       -18.7742
 106   2.0000      -0.667787       -18.1714
 107   2.0000      -0.666302       -18.1310
 108   2.0000      -0.662235       -18.0203
 109   2.0000      -0.652803       -17.7637
 110   2.0000      -0.642279       -17.4773
 111   2.0000      -0.639415       -17.3994
 112   2.0000      -0.637472       -17.3465
 113   2.0000      -0.634837       -17.2748
 114   2.0000      -0.621291       -16.9062
 115   2.0000      -0.613799       -16.7023
 116   2.0000      -0.612333       -16.6624
 117   2.0000      -0.606443       -16.5022
 118   2.0000      -0.598210       -16.2781
 119   2.0000      -0.596551       -16.2330
 120   2.0000      -0.593878       -16.1603
 121   2.0000      -0.588195       -16.0056
 122   2.0000      -0.585947       -15.9444
 123   2.0000      -0.577043       -15.7021
 124   2.0000      -0.574940       -15.6449
 125   2.0000      -0.571334       -15.5468
 126   2.0000      -0.561005       -15.2657
 127   2.0000      -0.556339       -15.1387
 128   2.0000      -0.549876       -14.9629
 129   2.0000      -0.547046       -14.8859
 130   2.0000      -0.544392       -14.8137
 131   2.0000      -0.540037       -14.6952
 132   2.0000      -0.537897       -14.6369
 133   2.0000      -0.536906       -14.6100
 134   2.0000      -0.532506       -14.4902
 135   2.0000      -0.528850       -14.3907
 136   2.0000      -0.525246       -14.2927
 137   2.0000      -0.523639       -14.2489
 138   2.0000      -0.517513       -14.0822
 139   2.0000      -0.513432       -13.9712
 140   2.0000      -0.510649       -13.8955
 141   2.0000      -0.507370       -13.8062
 142   2.0000      -0.502132       -13.6637
 143   2.0000      -0.499611       -13.5951
 144   2.0000      -0.498119       -13.5545
 145   2.0000      -0.495024       -13.4703
 146   2.0000      -0.489460       -13.3189
 147   2.0000      -0.486932       -13.2501
 148   2.0000      -0.485269       -13.2049
 149   2.0000      -0.484024       -13.1710
 150   2.0000      -0.480778       -13.0826
 151   2.0000      -0.479555       -13.0493
 152   2.0000      -0.478767       -13.0279
 153   2.0000      -0.473790       -12.8925
 154   2.0000      -0.472929       -12.8690
 155   2.0000      -0.464487       -12.6393
 156   2.0000      -0.458016       -12.4632
 157   2.0000      -0.456903       -12.4330
 158   2.0000      -0.451306       -12.2807
 159   2.0000      -0.447812       -12.1856
 160   2.0000      -0.447327       -12.1724
 161   2.0000      -0.443807       -12.0766
 162   2.0000      -0.440579       -11.9888
 163   2.0000      -0.440008       -11.9732
 164   2.0000      -0.437226       -11.8975
 165   2.0000      -0.430978       -11.7275
 166   2.0000      -0.428574       -11.6621
 167   2.0000      -0.425043       -11.5660
 168   2.0000      -0.423850       -11.5336
 169   2.0000      -0.415503       -11.3064
 170   2.0000      -0.413979       -11.2649
 171   2.0000      -0.413771       -11.2593
 172   2.0000      -0.413245       -11.2450
 173   2.0000      -0.407492       -11.0884
 174   2.0000      -0.407117       -11.0782
 175   2.0000      -0.401326       -10.9206
 176   2.0000      -0.399698       -10.8763
 177   2.0000      -0.383925       -10.4471
 178   2.0000      -0.382397       -10.4055
 179   2.0000      -0.379429       -10.3248
 180   2.0000      -0.376872       -10.2552
 181   2.0000      -0.356483        -9.7004
 182   2.0000      -0.349320        -9.5055
 183   2.0000      -0.340781        -9.2731
 184   2.0000      -0.332035        -9.0351
 185   2.0000      -0.324835        -8.8392
 186   2.0000      -0.320118        -8.7108
 187   2.0000      -0.317063        -8.6277
 188   2.0000      -0.312657        -8.5078
 189   2.0000      -0.306990        -8.3536
 190   2.0000      -0.282291        -7.6815
 191   2.0000      -0.280698        -7.6382
 192   2.0000      -0.242358        -6.5949
 193   2.0000      -0.235223        -6.4008
 194   2.0000      -0.185434        -5.0459
 195   0.0000      -0.073700        -2.0055
 196   0.0000      -0.060603        -1.6491
 197   0.0000      -0.034204        -0.9307
 198   0.0000      -0.008505        -0.2314
 199   0.0000      -0.001743        -0.0474

MULLIKEN ATOMIC CHARGES
-----------------------
   0 C :   -0.206616
   1 S :    0.181211
   2 C :   -0.192934
   3 C :    0.114899
   4 C :    0.092416
   5 C :   -0.053082
   6 C :    0.141428
   7 O :   -0.179557
   8 O :   -0.168967
   9 C :    0.010103
  10 C :   -0.079067
  11 C :    0.124059
  12 O :   -0.176010
  13 C :   -0.123081
  14 S :    0.210470
  15 C :   -0.130537
  16 C :    0.119945
  17 C :    0.118843
  18 C :   -0.122951
  19 C :    0.225171
  20 F :   -0.180191
  21 C :    0.224397
  22 F :   -0.181791
  23 C :   -0.121135
  24 C :    0.035097
  25 C :   -0.008334
  26 C :    0.005076
  27 C :   -0.221528
  28 C :    0.106241
  29 C :    0.223811
  30 N :   -0.166208
  31 C :    0.061579
  32 C :   -0.074350
  33 C :    0.016014
  34 C :   -0.044515
  35 C :    0.041262
  36 C :    0.009808
  37 C :   -0.028465
  38 S :    0.026513
  39 C :   -0.052482
  40 C :    0.026105
  41 C :    0.025173
  42 C :   -0.014604
  43 S :    0.050033
  44 C :   -0.023493
  45 C :    0.022348
  46 C :   -0.002403
  47 C :    0.032000
  48 C :    0.005413
  49 C :    0.002465
  50 C :   -0.025804
  51 H :    0.034772
  52 H :    0.178552
  53 H :    0.004572
  54 H :   -0.034457
  55 H :    0.189172
  56 H :   -0.008471
  57 H :   -0.018404
  58 H :   -0.016824
  59 H :   -0.010731
  60 H :   -0.019292
  61 H :    0.006808
  62 H :    0.032205
  63 H :    0.031141
  64 H :    0.020520
  65 H :    0.009656
  66 H :    0.126994
  67 H :    0.019005
  68 H :   -0.024713
  69 H :   -0.018611
  70 H :   -0.019862
  71 H :   -0.023139
  72 H :   -0.019374
  73 H :   -0.020261
  74 H :   -0.025281
  75 H :   -0.004395
  76 H :   -0.025417
  77 H :   -0.025977
  78 H :   -0.023450
  79 H :   -0.014913
  80 H :    0.009252
  81 H :    0.017147
Sum of atomic charges:   -0.0000000

LOEWDIN ATOMIC CHARGES
----------------------
   0 C :   -0.231531
   1 S :    0.514006
   2 C :   -0.178309
   3 C :   -0.074411
   4 C :   -0.040017
   5 C :   -0.104488
   6 C :    0.080872
   7 O :   -0.158710
   8 O :   -0.036930
   9 C :    0.029789
  10 C :   -0.098634
  11 C :    0.070478
  12 O :   -0.042286
  13 C :   -0.211878
  14 S :    0.527063
  15 C :   -0.182219
  16 C :   -0.047600
  17 C :   -0.044445
  18 C :   -0.052473
  19 C :    0.060981
  20 F :   -0.058102
  21 C :    0.060073
  22 F :   -0.060379
  23 C :   -0.042179
  24 C :   -0.044850
  25 C :   -0.029811
  26 C :   -0.048472
  27 C :   -0.032783
  28 C :   -0.045740
  29 C :    0.047793
  30 N :   -0.001630
  31 C :    0.043480
  32 C :   -0.142292
  33 C :   -0.032720
  34 C :   -0.178309
  35 C :   -0.024152
  36 C :   -0.060360
  37 C :   -0.169581
  38 S :    0.359074
  39 C :   -0.195201
  40 C :   -0.030817
  41 C :   -0.048335
  42 C :   -0.141588
  43 S :    0.352235
  44 C :   -0.070929
  45 C :   -0.018648
  46 C :   -0.043311
  47 C :   -0.020119
  48 C :   -0.037732
  49 C :   -0.033354
  50 C :   -0.050164
  51 H :    0.023748
  52 H :    0.084692
  53 H :    0.041576
  54 H :    0.027688
  55 H :    0.100204
  56 H :    0.027403
  57 H :    0.037470
  58 H :    0.026870
  59 H :    0.023346
  60 H :    0.026369
  61 H :    0.026816
  62 H :    0.039097
  63 H :    0.038905
  64 H :    0.023851
  65 H :    0.024229
  66 H :    0.077266
  67 H :    0.012784
  68 H :    0.022148
  69 H :    0.033635
  70 H :    0.030354
  71 H :    0.027945
  72 H :    0.029553
  73 H :    0.030075
  74 H :    0.029113
  75 H :    0.018746
  76 H :    0.024168
  77 H :    0.024882
  78 H :    0.021904
  79 H :    0.026078
  80 H :    0.016876
  81 H :    0.021851

  Mayer bond orders larger than 0.100000
B(  0-C ,  1-S ) :   1.1788 B(  0-C ,  2-C ) :   0.1128 B(  0-C ,  4-C ) :   1.4400
B(  0-C , 51-H ) :   0.9549 B(  1-S ,  2-C ) :   1.2040 B(  2-C ,  3-C ) :   1.3612
B(  2-C , 13-C ) :   1.1251 B(  3-C ,  4-C ) :   1.2113 B(  3-C , 11-C ) :   1.1747
B(  4-C ,  5-C ) :   1.1387 B(  5-C ,  6-C ) :   0.9085 B(  5-C ,  9-C ) :   1.5737
B(  6-C ,  7-O ) :   2.1943 B(  6-C ,  8-O ) :   1.2057 B(  8-O , 52-H ) :   0.9493
B(  9-C , 10-C ) :   1.1867 B(  9-C , 53-H ) :   0.9900 B( 10-C , 11-C ) :   1.4533
B( 10-C , 54-H ) :   0.9868 B( 11-C , 12-O ) :   1.2324 B( 12-O , 55-H ) :   0.9499
B( 13-C , 14-S ) :   1.1839 B( 13-C , 15-C ) :   0.1157 B( 13-C , 17-C ) :   1.3540
B( 14-S , 15-C ) :   1.1775 B( 15-C , 16-C ) :   1.3495 B( 15-C , 24-C ) :   1.1135
B( 16-C , 17-C ) :   1.2146 B( 16-C , 23-C ) :   1.1551 B( 17-C , 18-C ) :   1.1522
B( 18-C , 19-C ) :   1.5183 B( 18-C , 23-C ) :   0.1105 B( 18-C , 56-H ) :   0.9822
B( 19-C , 20-F ) :   1.1254 B( 19-C , 21-C ) :   1.1568 B( 21-C , 22-F ) :   1.1270
B( 21-C , 23-C ) :   1.5036 B( 23-C , 57-H ) :   0.9961 B( 24-C , 25-C ) :   1.6987
B( 24-C , 58-H ) :   0.9559 B( 25-C , 26-C ) :   1.1128 B( 25-C , 59-H ) :   0.9698
B( 26-C , 27-C ) :   1.7624 B( 26-C , 60-H ) :   0.9734 B( 27-C , 28-C ) :   1.0958
B( 27-C , 29-C ) :   1.0103 B( 28-C , 61-H ) :   0.9564 B( 28-C , 62-H ) :   0.9452
B( 28-C , 63-H ) :   0.9439 B( 29-C , 30-N ) :   1.0018 B( 29-C , 64-H ) :   0.9329
B( 29-C , 65-H ) :   0.9318 B( 30-N , 31-C ) :   1.2587 B( 30-N , 66-H ) :   0.9336
B( 31-C , 32-C ) :   1.5858 B( 31-C , 67-H ) :   0.9445 B( 32-C , 33-C ) :   1.2088
B( 32-C , 68-H ) :   0.9594 B( 33-C , 34-C ) :   1.5916 B( 33-C , 69-H ) :   0.9582
B( 34-C , 35-C ) :   1.1558 B( 34-C , 38-S ) :   1.0086 B( 35-C , 36-C ) :   1.5824
B( 35-C , 70-H ) :   0.9970 B( 36-C , 37-C ) :   1.1917 B( 36-C , 71-H ) :   0.9931
B( 37-C , 38-S ) :   1.0440 B( 37-C , 39-C ) :   1.5033 B( 39-C , 40-C ) :   1.2008
B( 39-C , 43-S ) :   1.0288 B( 40-C , 41-C ) :   1.5743 B( 40-C , 72-H ) :   0.9939
B( 41-C , 42-C ) :   1.1511 B( 41-C , 73-H ) :   0.9994 B( 42-C , 43-S ) :   1.0345
B( 42-C , 44-C ) :   1.5402 B( 44-C , 45-C ) :   1.1819 B( 44-C , 74-H ) :   0.9832
B( 45-C , 46-C ) :   1.6349 B( 45-C , 75-H ) :   0.9619 B( 46-C , 47-C ) :   1.1561
B( 46-C , 76-H ) :   0.9776 B( 47-C , 48-C ) :   1.7106 B( 47-C , 77-H ) :   0.9668
B( 48-C , 49-C ) :   1.1263 B( 48-C , 78-H ) :   0.9660 B( 49-C , 50-C ) :   1.9236
B( 49-C , 79-H ) :   0.9627 B( 50-C , 80-H ) :   0.9511 B( 50-C , 81-H ) :   0.9531

-----------------------------------------------------------------------------
         ABSORPTION SPECTRUM VIA TRANSITION ELECTRIC DIPOLE MOMENTS
-----------------------------------------------------------------------------
State   Energy  Wavelength   fosc         T2         TX        TY        TZ
        (cm-1)    (nm)                  (au**2)     (au)      (au)      (au)
-----------------------------------------------------------------------------
   0   14313.2    698.7   0.970730982  22.32745   0.85345  -3.92922  -2.48199
   1   15210.0    657.5   0.020887206   0.45209  -0.07892   0.63959   0.19181
   2   19513.7    512.5   1.055735429  17.81110  -1.49966  -3.61206   1.58592
   3   22652.9    441.4   0.035599684   0.51737  -0.07294   0.53692   0.47303
   4   24473.3    408.6   0.006023520   0.08103   0.00307   0.21773  -0.18334
   5   25508.0    392.0   0.040260639   0.51961  -0.03099  -0.47412   0.54209
   6   27102.3    369.0   1.012765500  12.30208  -0.16306   1.90966  -2.93747
   7   27389.2    365.1   0.207614583   2.49548   0.12213  -0.83332   1.33647
   8   28737.3    348.0   0.043464894   0.49793  -0.59717  -0.08668  -0.36579
   9   29118.6    343.4   0.001698537   0.01920   0.01426  -0.08423   0.10911
  10   29841.7    335.1   0.000830176   0.00916  -0.04007  -0.07711   0.04009
  11   30713.3    325.6   0.088342672   0.94693  -0.02327   0.54822  -0.80365
  12   31976.5    312.7   0.029455142   0.30325   0.01586   0.21529  -0.50661
  13   32091.1    311.6   0.069170049   0.70959  -0.00509  -0.70695   0.45802
  14   33461.5    298.9   0.016362165   0.16098  -0.00006  -0.29249   0.27464
  15   34273.8    291.8   0.084674660   0.81333  -0.71681  -0.04269  -0.54562
  16   35052.3    285.3   0.018451868   0.17330   0.10577  -0.39834  -0.05867
  17   35292.5    283.3   0.016143950   0.15059   0.11503  -0.32314   0.18150
  18   35912.9    278.5   0.305494047   2.80045  -0.36541   1.37183  -0.88600
  19   36308.0    275.4   0.091018521   0.82528  -0.65947   0.39921  -0.48063
  20   37025.4    270.1   0.016099038   0.14314  -0.03627   0.30452  -0.22158
  21   37201.6    268.8   0.018062605   0.15984   0.04556  -0.28735   0.27422
  22   37516.2    266.6   0.003539481   0.03106  -0.01042  -0.07509  -0.15910
  23   37785.7    264.7   0.000007249   0.00006  -0.00014  -0.00111   0.00787
  24   38861.9    257.3   0.062525593   0.52967  -0.11622   0.60895   0.38125
  25   38998.6    256.4   0.080771663   0.68184   0.70995  -0.40726   0.10934
  26   39673.1    252.1   0.001125261   0.00934  -0.04626  -0.02912  -0.07968
  27   39876.8    250.8   0.022115010   0.18258   0.14692   0.36016  -0.17685
  28   40094.6    249.4   0.007677913   0.06304  -0.00601   0.21644  -0.12712

FINAL SINGLE POINT ENERGY     -3650.708222820565

DIPOLE MOMENT
-------------
                                X             Y             Z
Electronic contribution:      4.39378      25.18993     -64.82703
Nuclear contribution   :     -3.90758     -28.02412      63.94588
                        -----------------------------------------
Total Dipole Moment    :      0.48620      -2.83418      -0.88114
                        -----------------------------------------
Magnitude (a.u.)       :      3.00756
Magnitude (Debye)      :      7.64461

Rotational constants in cm-1:     0.001630     0.000468     0.000412
Rotational constants in MHz :    48.875542    14.021872    12.353566

                             ****ORCA TERMINATED NORMALLY****
TOTAL RUN TIME: 0 days 0 hours 5 minutes 5 seconds 975 msec
