                         Program Version 4.2.0 -  RELEASE  -
|  1> # ORCA input file
|  2> # SCF done       -199.072960557469          0.000821273284
|  3> ! CAM-B3LYP def2-SVP def2/J RIJCOSX Grid4 TightSCF
|  4> %maxcore 5000
|  5> %tddft
|  6>     Mode sTDDFT
|  7>     Ethresh 5.0
|  8>     maxcore 5000
|  9> end
| 10>
| 11> %pal
| 12>   nprocs 6
| 13>   end
| 14> * xyz 0 1
| 15>    C       -3.20951        -1.90759        -0.54635
| 16>    C       -2.21007        -2.02785        -1.47575
| 17>    C       -1.39000        -3.16687        -1.61160
| 18>    N       -0.69592        -4.06781        -1.76918
| 19>    C       -1.83206        -1.01385        -2.38144
| 20>    N       -1.44524        -0.22845        -3.12401
| 21>    C       -3.54728        -2.87979         0.48273
| 22>    C       -4.51057        -2.30653         1.35086
| 23>    C       -5.02699        -2.98552         2.42817
| 24>    C       -4.57132        -4.28660         2.66223
| 25>    C       -3.61374        -4.85127         1.78603
| 26>    C       -3.09179        -4.16726         0.69489
| 27>    S       -3.20748        -6.47123         2.25797
| 28>    C       -4.29762        -6.38008         3.59777
| 29>    C       -4.93952        -5.19544         3.69426
| 30>    C       -4.85683        -0.95051         0.88403
| 31>    O       -5.71378        -0.22831         1.34627
| 32>    C       -4.04135        -0.73639        -0.34190
| 33>    C       -4.21727         0.28367        -1.22301
| 34>    C       -4.89639         1.50891        -0.94650
| 35>    C       -5.65515         2.14441        -1.95085
| 36>    C       -6.36333         3.37563        -1.70632
| 37>    N       -7.19205         3.85532        -2.64774
| 38>    C       -7.28679         3.24129        -3.80070
| 39>    C       -6.50221         2.07265        -4.07686
| 40>    N       -5.74034         1.54522        -3.15263
| 41>    C       -6.57177         1.46772        -5.35675
| 42>    N       -6.66725         1.01320        -6.40394
| 43>    C       -8.18004         3.76147        -4.76943
| 44>    N       -8.88520         4.18336        -5.56802
| 45>    C       -6.27292         4.06176        -0.47167
| 46>    C       -5.48758         3.44135         0.51601
| 47>    C       -4.79825         2.19078         0.28070
| 48>    N       -4.03711         1.84184         1.31806
| 49>    S       -4.20898         2.93024         2.47881
| 50>    N       -5.21894         3.92470         1.73471
| 51>    C       -6.97525         5.31049        -0.25702
| 52>    C       -7.13218         6.22322        -1.31228
| 53>    C       -7.90228         7.34111        -1.12662
| 54>    C       -8.52412         7.59106         0.11060
| 55>    C       -8.32279         6.72419         1.17855
| 56>    C       -7.54884         5.59841         0.99030
| 57>    C       -9.31805         8.79177        -0.01226
| 58>    C       -9.18189         9.28650        -1.32356
| 59>    C       -8.24820         8.41470        -2.12885
| 60>    C       -6.99656         9.19602        -2.57185
| 61>    C       -6.23948         9.81622        -1.40360
| 62>    C       -8.94728         7.81742        -3.36497
| 63>    C      -10.16809         6.97753        -3.01146
| 64>    C       -9.85808        10.40998        -1.72531
| 65>    C      -10.70721        11.07030        -0.82251
| 66>    C      -10.83780        10.55942         0.47862
| 67>    C      -10.14885         9.43915         0.89337
| 68>    C      -11.47115        12.23590        -1.19247
| 69>    C      -11.28268        12.98203        -2.30135
| 70>    C      -12.07272        14.10283        -2.68250
| 71>    S      -11.58263        15.01528        -4.10386
| 72>    C      -12.93769        16.06435        -3.93456
| 73>    C      -13.71749        15.70537        -2.82677
| 74>    C      -13.22843        14.60730        -2.12135
| 75>    S      -15.11768        16.72689        -2.63410
| 76>    C      -14.64812        17.63387        -4.04814
| 77>    C      -15.20220        18.71549        -4.71881
| 78>    C      -14.44092        19.09998        -5.81644
| 79>    S      -13.01534        18.08607        -6.00920
| 80>    C      -13.45888        17.16016        -4.62305
| 81>    C      -14.74671        20.15957        -6.68670
| 82>    C      -14.00716        20.62563        -7.74148
| 83>    C      -14.37329        21.70618        -8.58921
| 84>    C      -13.46024        22.00169        -9.54962
| 85>    C      -12.30989        21.17435        -9.52123
| 86>    S      -12.44700        19.99153        -8.23117
| 87>    C      -11.20341        21.23417       -10.33497
| 88>    C      -10.96853        22.13794       -11.40984
| 89>    C       -9.77809        21.97178       -12.02644
| 90>    C       -8.97129        20.91649       -11.48296
| 91>    S       -9.84074        20.15222       -10.14220
| 92>    C       -7.75142        20.52900       -11.87916
| 93>    H       -5.76063        -2.52522         3.07185
| 94>    H       -2.37137        -4.64177         0.04953
| 95>    H       -4.39178        -7.23408         4.24007
| 96>    H       -5.65353        -4.95872         4.46224
| 97>    H       -3.86959         0.17487        -2.24293
| 98>    H       -6.64168         6.04637        -2.25559
| 99>    H       -8.78084         6.91570         2.13734
|100>    H       -7.40806         4.89959         1.79937
|101>    H       -7.30370         9.98275        -3.26402
|102>    H       -6.33551         8.51578        -3.11256
|103>    H       -6.87227        10.51641        -0.86247
|104>    H       -5.36606        10.35260        -1.76723
|105>    H       -5.90684         9.04768        -0.70929
|106>    H       -8.23271         7.19450        -3.90606
|107>    H       -9.24621         8.63321        -4.02624
|108>    H       -9.88568         6.13987        -2.37802
|109>    H      -10.61765         6.58085        -3.91819
|110>    H      -10.91058         7.57499        -2.48610
|111>    H       -9.75962        10.76962        -2.73765
|112>    H      -11.49431        11.06723         1.17091
|113>    H      -10.26290         9.06695         1.90053
|114>    H      -12.24877        12.52235        -0.49692
|115>    H      -10.47285        12.74940        -2.97879
|116>    H      -13.70295        14.19305        -1.25190
|117>    H      -16.11094        19.21174        -4.43258
|118>    H      -15.68042        20.66996        -6.48618
|119>    H      -15.30446        22.22753        -8.45245
|120>    H      -13.57526        22.79025       -10.27137
|121>    H      -11.69615        22.88049       -11.68530
|122>    H       -9.42611        22.55926       -12.85564
|123>    H       -7.25713        21.02191       -12.69759
|124>    H       -7.23080        19.72179       -11.39769
|125> *
|126>
|127>                          ****END OF INPUT****

CARTESIAN COORDINATES (ANGSTROEM)
---------------------------------
  C     -3.209510   -1.907590   -0.546350
  C     -2.210070   -2.027850   -1.475750
  C     -1.390000   -3.166870   -1.611600
  N     -0.695920   -4.067810   -1.769180
  C     -1.832060   -1.013850   -2.381440
  N     -1.445240   -0.228450   -3.124010
  C     -3.547280   -2.879790    0.482730
  C     -4.510570   -2.306530    1.350860
  C     -5.026990   -2.985520    2.428170
  C     -4.571320   -4.286600    2.662230
  C     -3.613740   -4.851270    1.786030
  C     -3.091790   -4.167260    0.694890
  S     -3.207480   -6.471230    2.257970
  C     -4.297620   -6.380080    3.597770
  C     -4.939520   -5.195440    3.694260
  C     -4.856830   -0.950510    0.884030
  O     -5.713780   -0.228310    1.346270
  C     -4.041350   -0.736390   -0.341900
  C     -4.217270    0.283670   -1.223010
  C     -4.896390    1.508910   -0.946500
  C     -5.655150    2.144410   -1.950850
  C     -6.363330    3.375630   -1.706320
  N     -7.192050    3.855320   -2.647740
  C     -7.286790    3.241290   -3.800700
  C     -6.502210    2.072650   -4.076860
  N     -5.740340    1.545220   -3.152630
  C     -6.571770    1.467720   -5.356750
  N     -6.667250    1.013200   -6.403940
  C     -8.180040    3.761470   -4.769430
  N     -8.885200    4.183360   -5.568020
  C     -6.272920    4.061760   -0.471670
  C     -5.487580    3.441350    0.516010
  C     -4.798250    2.190780    0.280700
  N     -4.037110    1.841840    1.318060
  S     -4.208980    2.930240    2.478810
  N     -5.218940    3.924700    1.734710
  C     -6.975250    5.310490   -0.257020
  C     -7.132180    6.223220   -1.312280
  C     -7.902280    7.341110   -1.126620
  C     -8.524120    7.591060    0.110600
  C     -8.322790    6.724190    1.178550
  C     -7.548840    5.598410    0.990300
  C     -9.318050    8.791770   -0.012260
  C     -9.181890    9.286500   -1.323560
  C     -8.248200    8.414700   -2.128850
  C     -6.996560    9.196020   -2.571850
  C     -6.239480    9.816220   -1.403600
  C     -8.947280    7.817420   -3.364970
  C    -10.168090    6.977530   -3.011460
  C     -9.858080   10.409980   -1.725310
  C    -10.707210   11.070300   -0.822510
  C    -10.837800   10.559420    0.478620
  C    -10.148850    9.439150    0.893370
  C    -11.471150   12.235900   -1.192470
  C    -11.282680   12.982030   -2.301350
  C    -12.072720   14.102830   -2.682500
  S    -11.582630   15.015280   -4.103860
  C    -12.937690   16.064350   -3.934560
  C    -13.717490   15.705370   -2.826770
  C    -13.228430   14.607300   -2.121350
  S    -15.117680   16.726890   -2.634100
  C    -14.648120   17.633870   -4.048140
  C    -15.202200   18.715490   -4.718810
  C    -14.440920   19.099980   -5.816440
  S    -13.015340   18.086070   -6.009200
  C    -13.458880   17.160160   -4.623050
  C    -14.746710   20.159570   -6.686700
  C    -14.007160   20.625630   -7.741480
  C    -14.373290   21.706180   -8.589210
  C    -13.460240   22.001690   -9.549620
  C    -12.309890   21.174350   -9.521230
  S    -12.447000   19.991530   -8.231170
  C    -11.203410   21.234170  -10.334970
  C    -10.968530   22.137940  -11.409840
  C     -9.778090   21.971780  -12.026440
  C     -8.971290   20.916490  -11.482960
  S     -9.840740   20.152220  -10.142200
  C     -7.751420   20.529000  -11.879160
  H     -5.760630   -2.525220    3.071850
  H     -2.371370   -4.641770    0.049530
  H     -4.391780   -7.234080    4.240070
  H     -5.653530   -4.958720    4.462240
  H     -3.869590    0.174870   -2.242930
  H     -6.641680    6.046370   -2.255590
  H     -8.780840    6.915700    2.137340
  H     -7.408060    4.899590    1.799370
  H     -7.303700    9.982750   -3.264020
  H     -6.335510    8.515780   -3.112560
  H     -6.872270   10.516410   -0.862470
  H     -5.366060   10.352600   -1.767230
  H     -5.906840    9.047680   -0.709290
  H     -8.232710    7.194500   -3.906060
  H     -9.246210    8.633210   -4.026240
  H     -9.885680    6.139870   -2.378020
  H    -10.617650    6.580850   -3.918190
  H    -10.910580    7.574990   -2.486100
  H     -9.759620   10.769620   -2.737650
  H    -11.494310   11.067230    1.170910
  H    -10.262900    9.066950    1.900530
  H    -12.248770   12.522350   -0.496920
  H    -10.472850   12.749400   -2.978790
  H    -13.702950   14.193050   -1.251900
  H    -16.110940   19.211740   -4.432580
  H    -15.680420   20.669960   -6.486180
  H    -15.304460   22.227530   -8.452450
  H    -13.575260   22.790250  -10.271370
  H    -11.696150   22.880490  -11.685300
  H     -9.426110   22.559260  -12.855640
  H     -7.257130   21.021910  -12.697590
  H     -7.230800   19.721790  -11.397690

 Total Charge           Charge          ....    0
 Multiplicity           Mult            ....    1
 Number of Electrons    NEL             ....  580
 Basis Dimension        Dim             .... 1280

ORBITAL ENERGIES
----------------

  NO   OCC          E(Eh)            E(eV)
   0   2.0000     -89.049553     -2423.1615
   1   2.0000     -88.967771     -2420.9361
   2   2.0000     -88.954753     -2420.5819
   3   2.0000     -88.954380     -2420.5717
   4   2.0000     -88.950816     -2420.4747
   5   2.0000     -88.940432     -2420.1922
   6   2.0000     -88.934512     -2420.0311
   7   2.0000     -19.216204      -522.8995
   8   2.0000     -14.466746      -393.6602
   9   2.0000     -14.466008      -393.6401
  10   2.0000     -14.456998      -393.3949
  11   2.0000     -14.451230      -393.2380
  12   2.0000     -14.432999      -392.7419
  13   2.0000     -14.431698      -392.7065
  14   2.0000     -14.415525      -392.2664
  15   2.0000     -14.413733      -392.2176
  16   2.0000     -10.388319      -282.6805
  17   2.0000     -10.382759      -282.5292
  18   2.0000     -10.367480      -282.1135
  19   2.0000     -10.355439      -281.7858
  20   2.0000     -10.352035      -281.6932
  21   2.0000     -10.345374      -281.5119
  22   2.0000     -10.345123      -281.5051
  23   2.0000     -10.343374      -281.4575
  24   2.0000     -10.340022      -281.3663
  25   2.0000     -10.330674      -281.1119
  26   2.0000     -10.325418      -280.9689
  27   2.0000     -10.325341      -280.9668
  28   2.0000     -10.321677      -280.8671
  29   2.0000     -10.317859      -280.7632
  30   2.0000     -10.317354      -280.7495
  31   2.0000     -10.316172      -280.7173
  32   2.0000     -10.315623      -280.7024
  33   2.0000     -10.314641      -280.6757
  34   2.0000     -10.306908      -280.4652
  35   2.0000     -10.306284      -280.4482
  36   2.0000     -10.304129      -280.3896
  37   2.0000     -10.304059      -280.3877
  38   2.0000     -10.303225      -280.3650
  39   2.0000     -10.303040      -280.3600
  40   2.0000     -10.302936      -280.3571
  41   2.0000     -10.302487      -280.3449
  42   2.0000     -10.301807      -280.3264
  43   2.0000     -10.300908      -280.3019
  44   2.0000     -10.300294      -280.2852
  45   2.0000     -10.299914      -280.2749
  46   2.0000     -10.298265      -280.2300
  47   2.0000     -10.296602      -280.1848
  48   2.0000     -10.295906      -280.1658
  49   2.0000     -10.292621      -280.0765
  50   2.0000     -10.291419      -280.0437
  51   2.0000     -10.290430      -280.0168
  52   2.0000     -10.286346      -279.9057
  53   2.0000     -10.282829      -279.8100
  54   2.0000     -10.281578      -279.7760
  55   2.0000     -10.281220      -279.7662
  56   2.0000     -10.281196      -279.7656
  57   2.0000     -10.281169      -279.7648
  58   2.0000     -10.280939      -279.7586
  59   2.0000     -10.280585      -279.7490
  60   2.0000     -10.279990      -279.7328
  61   2.0000     -10.278609      -279.6952
  62   2.0000     -10.278143      -279.6825
  63   2.0000     -10.277530      -279.6658
  64   2.0000     -10.276312      -279.6327
  65   2.0000     -10.276033      -279.6251
  66   2.0000     -10.274642      -279.5872
  67   2.0000     -10.273831      -279.5651
  68   2.0000     -10.272344      -279.5247
  69   2.0000     -10.270836      -279.4837
  70   2.0000     -10.270697      -279.4799
  71   2.0000     -10.270620      -279.4778
  72   2.0000     -10.269335      -279.4428
  73   2.0000     -10.266631      -279.3692
  74   2.0000     -10.263340      -279.2797
  75   2.0000     -10.258865      -279.1579
  76   2.0000     -10.246771      -278.8288
  77   2.0000     -10.239665      -278.6355
  78   2.0000      -8.140616      -221.5174
  79   2.0000      -8.063955      -219.4314
  80   2.0000      -8.050011      -219.0519
  81   2.0000      -8.049150      -219.0285
  82   2.0000      -8.045998      -218.9427
  83   2.0000      -8.036462      -218.6832
  84   2.0000      -8.031306      -218.5429
  85   2.0000      -6.111487      -166.3020
  86   2.0000      -6.103895      -166.0954
  87   2.0000      -6.103704      -166.0902
  88   2.0000      -6.033476      -164.1792
  89   2.0000      -6.029162      -164.0618
  90   2.0000      -6.025652      -163.9663
  91   2.0000      -6.019497      -163.7989
  92   2.0000      -6.018773      -163.7791
  93   2.0000      -6.015761      -163.6972
  94   2.0000      -6.015476      -163.6894
  95   2.0000      -6.014597      -163.6655
  96   2.0000      -6.011959      -163.5937
  97   2.0000      -6.011681      -163.5862
  98   2.0000      -6.010690      -163.5592
  99   2.0000      -6.006894      -163.4559
 100   2.0000      -6.006281      -163.4392
 101   2.0000      -6.002203      -163.3283
 102   2.0000      -6.001138      -163.2993
 103   2.0000      -5.997259      -163.1937
 104   2.0000      -5.997218      -163.1926
 105   2.0000      -5.991792      -163.0450
 106   2.0000      -1.144996       -31.1569
 107   2.0000      -1.130266       -30.7561
 108   2.0000      -1.125017       -30.6133
 109   2.0000      -1.051853       -28.6224
 110   2.0000      -1.020260       -27.7627
 111   2.0000      -1.016633       -27.6640
 112   2.0000      -1.010707       -27.5027
 113   2.0000      -1.008463       -27.4417
 114   2.0000      -1.006618       -27.3915
 115   2.0000      -0.999007       -27.1844
 116   2.0000      -0.993111       -27.0239
 117   2.0000      -0.991951       -26.9924
 118   2.0000      -0.989114       -26.9152
 119   2.0000      -0.986455       -26.8428
 120   2.0000      -0.981441       -26.7064
 121   2.0000      -0.973323       -26.4855
 122   2.0000      -0.963713       -26.2240
 123   2.0000      -0.949036       -25.8246
 124   2.0000      -0.932663       -25.3791
 125   2.0000      -0.926354       -25.2074
 126   2.0000      -0.919956       -25.0333
 127   2.0000      -0.912214       -24.8226
 128   2.0000      -0.906231       -24.6598
 129   2.0000      -0.892631       -24.2897
 130   2.0000      -0.887134       -24.1401
 131   2.0000      -0.882727       -24.0202
 132   2.0000      -0.881926       -23.9984
 133   2.0000      -0.868408       -23.6306
 134   2.0000      -0.859609       -23.3912
 135   2.0000      -0.850655       -23.1475
 136   2.0000      -0.841499       -22.8984
 137   2.0000      -0.839421       -22.8418
 138   2.0000      -0.837483       -22.7891
 139   2.0000      -0.835061       -22.7232
 140   2.0000      -0.834552       -22.7093
 141   2.0000      -0.829624       -22.5752
 142   2.0000      -0.827055       -22.5053
 143   2.0000      -0.823845       -22.4180
 144   2.0000      -0.818719       -22.2785
 145   2.0000      -0.813124       -22.1262
 146   2.0000      -0.801293       -21.8043
 147   2.0000      -0.791847       -21.5472
 148   2.0000      -0.783531       -21.3210
 149   2.0000      -0.775452       -21.1011
 150   2.0000      -0.761087       -20.7102
 151   2.0000      -0.758481       -20.6393
 152   2.0000      -0.756284       -20.5795
 153   2.0000      -0.745702       -20.2916
 154   2.0000      -0.737660       -20.0727
 155   2.0000      -0.723973       -19.7003
 156   2.0000      -0.721728       -19.6392
 157   2.0000      -0.711816       -19.3695
 158   2.0000      -0.700658       -19.0659
 159   2.0000      -0.696836       -18.9619
 160   2.0000      -0.691437       -18.8150
 161   2.0000      -0.688281       -18.7291
 162   2.0000      -0.679793       -18.4981
 163   2.0000      -0.676697       -18.4139
 164   2.0000      -0.674140       -18.3443
 165   2.0000      -0.671647       -18.2764
 166   2.0000      -0.666260       -18.1299
 167   2.0000      -0.662389       -18.0245
 168   2.0000      -0.659894       -17.9566
 169   2.0000      -0.654530       -17.8107
 170   2.0000      -0.652345       -17.7512
 171   2.0000      -0.640380       -17.4256
 172   2.0000      -0.634703       -17.2712
 173   2.0000      -0.629932       -17.1413
 174   2.0000      -0.626351       -17.0439
 175   2.0000      -0.623602       -16.9691
 176   2.0000      -0.620350       -16.8806
 177   2.0000      -0.618862       -16.8401
 178   2.0000      -0.616149       -16.7663
 179   2.0000      -0.601380       -16.3644
 180   2.0000      -0.597393       -16.2559
 181   2.0000      -0.595687       -16.2095
 182   2.0000      -0.594923       -16.1887
 183   2.0000      -0.593037       -16.1374
 184   2.0000      -0.591920       -16.1070
 185   2.0000      -0.582320       -15.8457
 186   2.0000      -0.581729       -15.8297
 187   2.0000      -0.571383       -15.5481
 188   2.0000      -0.566268       -15.4089
 189   2.0000      -0.560930       -15.2637
 190   2.0000      -0.556456       -15.1420
 191   2.0000      -0.551516       -15.0075
 192   2.0000      -0.547237       -14.8911
 193   2.0000      -0.542572       -14.7641
 194   2.0000      -0.541698       -14.7403
 195   2.0000      -0.539767       -14.6878
 196   2.0000      -0.539232       -14.6732
 197   2.0000      -0.536613       -14.6020
 198   2.0000      -0.533124       -14.5070
 199   2.0000      -0.530193       -14.4273
 200   2.0000      -0.524996       -14.2859
 201   2.0000      -0.523029       -14.2323
 202   2.0000      -0.520462       -14.1625
 203   2.0000      -0.518648       -14.1131
 204   2.0000      -0.516673       -14.0594
 205   2.0000      -0.514864       -14.0102
 206   2.0000      -0.511004       -13.9051
 207   2.0000      -0.509860       -13.8740
 208   2.0000      -0.508765       -13.8442
 209   2.0000      -0.506593       -13.7851
 210   2.0000      -0.501000       -13.6329
 211   2.0000      -0.498182       -13.5562
 212   2.0000      -0.492484       -13.4012
 213   2.0000      -0.491580       -13.3766
 214   2.0000      -0.490603       -13.3500
 215   2.0000      -0.489645       -13.3239
 216   2.0000      -0.487912       -13.2768
 217   2.0000      -0.485615       -13.2143
 218   2.0000      -0.484928       -13.1956
 219   2.0000      -0.483067       -13.1449
 220   2.0000      -0.481028       -13.0894
 221   2.0000      -0.479652       -13.0520
 222   2.0000      -0.474334       -12.9073
 223   2.0000      -0.473852       -12.8942
 224   2.0000      -0.470244       -12.7960
 225   2.0000      -0.469471       -12.7750
 226   2.0000      -0.467813       -12.7298
 227   2.0000      -0.466040       -12.6816
 228   2.0000      -0.458918       -12.4878
 229   2.0000      -0.457689       -12.4543
 230   2.0000      -0.457062       -12.4373
 231   2.0000      -0.455697       -12.4001
 232   2.0000      -0.454935       -12.3794
 233   2.0000      -0.454381       -12.3643
 234   2.0000      -0.451557       -12.2875
 235   2.0000      -0.450095       -12.2477
 236   2.0000      -0.447614       -12.1802
 237   2.0000      -0.447176       -12.1683
 238   2.0000      -0.445194       -12.1143
 239   2.0000      -0.442833       -12.0501
 240   2.0000      -0.441805       -12.0221
 241   2.0000      -0.439854       -11.9690
 242   2.0000      -0.438180       -11.9235
 243   2.0000      -0.435382       -11.8474
 244   2.0000      -0.433264       -11.7897
 245   2.0000      -0.433195       -11.7878
 246   2.0000      -0.428832       -11.6691
 247   2.0000      -0.427062       -11.6209
 248   2.0000      -0.425835       -11.5876
 249   2.0000      -0.423961       -11.5366
 250   2.0000      -0.422734       -11.5032
 251   2.0000      -0.421599       -11.4723
 252   2.0000      -0.421099       -11.4587
 253   2.0000      -0.419140       -11.4054
 254   2.0000      -0.416662       -11.3380
 255   2.0000      -0.414825       -11.2880
 256   2.0000      -0.413763       -11.2591
 257   2.0000      -0.410906       -11.1813
 258   2.0000      -0.409127       -11.1329
 259   2.0000      -0.408170       -11.1069
 260   2.0000      -0.404251       -11.0002
 261   2.0000      -0.403413       -10.9774
 262   2.0000      -0.399191       -10.8625
 263   2.0000      -0.393457       -10.7065
 264   2.0000      -0.387968       -10.5571
 265   2.0000      -0.385546       -10.4912
 266   2.0000      -0.384278       -10.4567
 267   2.0000      -0.382549       -10.4097
 268   2.0000      -0.382069       -10.3966
 269   2.0000      -0.380307       -10.3487
 270   2.0000      -0.376329       -10.2404
 271   2.0000      -0.366514        -9.9734
 272   2.0000      -0.361556        -9.8384
 273   2.0000      -0.353023        -9.6062
 274   2.0000      -0.348050        -9.4709
 275   2.0000      -0.340424        -9.2634
 276   2.0000      -0.335548        -9.1307
 277   2.0000      -0.334256        -9.0956
 278   2.0000      -0.328096        -8.9279
 279   2.0000      -0.323216        -8.7952
 280   2.0000      -0.320162        -8.7121
 281   2.0000      -0.315837        -8.5944
 282   2.0000      -0.313831        -8.5398
 283   2.0000      -0.311027        -8.4635
 284   2.0000      -0.296927        -8.0798
 285   2.0000      -0.290512        -7.9052
 286   2.0000      -0.277667        -7.5557
 287   2.0000      -0.270472        -7.3599
 288   2.0000      -0.245061        -6.6684
 289   2.0000      -0.206364        -5.6155
 290   0.0000      -0.127984        -3.4826
 291   0.0000      -0.081645        -2.2217
 292   0.0000      -0.068535        -1.8649
 293   0.0000      -0.057972        -1.5775
 294   0.0000      -0.050542        -1.3753

MULLIKEN ATOMIC CHARGES
-----------------------
   0 C :    0.290739
   1 C :   -0.330462
   2 C :   -0.185356
   3 N :    0.153306
   4 C :   -0.201110
   5 N :    0.165121
   6 C :    0.019929
   7 C :   -0.021937
   8 C :   -0.069591
   9 C :    0.115823
  10 C :   -0.093830
  11 C :   -0.024100
  12 S :    0.142728
  13 C :   -0.047969
  14 C :    0.022431
  15 C :    0.159708
  16 O :   -0.156278
  17 C :   -0.054040
  18 C :   -0.077578
  19 C :    0.067959
  20 C :   -0.033306
  21 C :   -0.072214
  22 N :    0.046436
  23 C :   -0.150249
  24 C :   -0.120804
  25 N :    0.058286
  26 C :   -0.204935
  27 N :    0.241521
  28 C :   -0.193197
  29 N :    0.231722
  30 C :    0.117481
  31 C :    0.007231
  32 C :    0.029318
  33 N :   -0.270357
  34 S :    0.558167
  35 N :   -0.275778
  36 C :   -0.012464
  37 C :   -0.019518
  38 C :   -0.018949
  39 C :    0.127100
  40 C :   -0.059996
  41 C :    0.028325
  42 C :    0.097785
  43 C :    0.019708
  44 C :   -0.138189
  45 C :    0.069585
  46 C :    0.023775
  47 C :    0.065187
  48 C :    0.026915
  49 C :   -0.091184
  50 C :    0.130857
  51 C :   -0.024990
  52 C :   -0.039478
  53 C :   -0.024692
  54 C :    0.072607
  55 C :   -0.077411
  56 S :    0.142492
  57 C :   -0.073393
  58 C :   -0.036844
  59 C :   -0.034318
  60 S :    0.141318
  61 C :   -0.004604
  62 C :   -0.053488
  63 C :   -0.050639
  64 S :    0.127402
  65 C :   -0.072280
  66 C :   -0.009841
  67 C :   -0.033521
  68 C :    0.034477
  69 C :    0.028464
  70 C :   -0.037275
  71 S :    0.059488
  72 C :   -0.066826
  73 C :    0.029522
  74 C :    0.051917
  75 C :   -0.062593
  76 S :    0.081433
  77 C :   -0.031733
  78 H :   -0.014601
  79 H :   -0.004913
  80 H :    0.039899
  81 H :   -0.006639
  82 H :    0.047778
  83 H :   -0.033387
  84 H :   -0.033471
  85 H :   -0.014284
  86 H :   -0.000525
  87 H :   -0.001712
  88 H :    0.022800
  89 H :    0.010060
  90 H :    0.019092
  91 H :    0.001177
  92 H :   -0.000456
  93 H :    0.018281
  94 H :    0.020092
  95 H :    0.016519
  96 H :   -0.039607
  97 H :   -0.028649
  98 H :   -0.035357
  99 H :   -0.023560
 100 H :   -0.018058
 101 H :   -0.019086
 102 H :   -0.020636
 103 H :   -0.015949
 104 H :   -0.015340
 105 H :   -0.015566
 106 H :   -0.012470
 107 H :   -0.012357
 108 H :    0.019471
 109 H :    0.022506
Sum of atomic charges:   -0.0000000

LOEWDIN ATOMIC CHARGES
----------------------
   0 C :    0.074066
   1 C :   -0.131519
   2 C :   -0.017724
   3 N :   -0.049462
   4 C :   -0.023692
   5 N :   -0.045631
   6 C :   -0.022114
   7 C :   -0.051398
   8 C :    0.021909
   9 C :   -0.034481
  10 C :   -0.145042
  11 C :   -0.008277
  12 S :    0.430684
  13 C :   -0.148706
  14 C :   -0.058424
  15 C :    0.085100
  16 O :   -0.146921
  17 C :   -0.070708
  18 C :    0.077405
  19 C :   -0.042491
  20 C :    0.011691
  21 C :   -0.015736
  22 N :    0.017244
  23 C :   -0.037952
  24 C :   -0.016220
  25 N :   -0.001927
  26 C :   -0.034869
  27 N :    0.003854
  28 C :   -0.035262
  29 N :   -0.008047
  30 C :    0.028702
  31 C :   -0.045532
  32 C :   -0.024331
  33 N :   -0.273440
  34 S :    0.697636
  35 N :   -0.275452
  36 C :   -0.030214
  37 C :    0.008709
  38 C :   -0.002606
  39 C :    0.006065
  40 C :   -0.025424
  41 C :    0.008616
  42 C :   -0.025570
  43 C :    0.011711
  44 C :   -0.036168
  45 C :   -0.010708
  46 C :   -0.058254
  47 C :   -0.010429
  48 C :   -0.057502
  49 C :   -0.019195
  50 C :   -0.014814
  51 C :   -0.021144
  52 C :   -0.013186
  53 C :   -0.019831
  54 C :   -0.037732
  55 C :   -0.162742
  56 S :    0.423776
  57 C :   -0.218005
  58 C :   -0.190936
  59 C :   -0.065010
  60 S :    0.393691
  61 C :   -0.189702
  62 C :   -0.071282
  63 C :   -0.159906
  64 S :    0.420881
  65 C :   -0.221262
  66 C :   -0.075944
  67 C :   -0.154029
  68 C :   -0.033486
  69 C :   -0.036121
  70 C :   -0.181203
  71 S :    0.362005
  72 C :   -0.176952
  73 C :   -0.026809
  74 C :   -0.031141
  75 C :   -0.139257
  76 S :    0.352463
  77 C :   -0.076915
  78 H :    0.039265
  79 H :    0.041059
  80 H :    0.029772
  81 H :    0.035185
  82 H :    0.049368
  83 H :    0.023811
  84 H :    0.028178
  85 H :    0.028910
  86 H :    0.020871
  87 H :    0.020017
  88 H :    0.025726
  89 H :    0.024584
  90 H :    0.024217
  91 H :    0.021184
  92 H :    0.020903
  93 H :    0.023788
  94 H :    0.028591
  95 H :    0.023558
  96 H :    0.023688
  97 H :    0.026137
  98 H :    0.027237
  99 H :    0.026123
 100 H :    0.025548
 101 H :    0.031129
 102 H :    0.031445
 103 H :    0.039191
 104 H :    0.032360
 105 H :    0.030818
 106 H :    0.032040
 107 H :    0.033105
 108 H :    0.028388
 109 H :    0.026430

  Mayer bond orders larger than 0.100000
B(  0-C ,  1-C ) :   1.6546 B(  0-C ,  6-C ) :   1.0110 B(  0-C , 17-C ) :   1.0494
B(  1-C ,  2-C ) :   1.1376 B(  1-C ,  4-C ) :   1.1426 B(  2-C ,  3-N ) :   2.9751
B(  4-C ,  5-N ) :   2.9928 B(  6-C ,  7-C ) :   1.2660 B(  6-C , 11-C ) :   1.4065
B(  7-C ,  8-C ) :   1.4252 B(  7-C , 15-C ) :   0.9510 B(  8-C ,  9-C ) :   1.2454
B(  8-C , 78-H ) :   1.0175 B(  9-C , 10-C ) :   1.3011 B(  9-C , 14-C ) :   1.1704
B( 10-C , 11-C ) :   1.3233 B( 10-C , 12-S ) :   1.0989 B( 11-C , 79-H ) :   0.9844
B( 12-S , 13-C ) :   1.1263 B( 13-C , 14-C ) :   1.6304 B( 13-C , 80-H ) :   0.9681
B( 14-C , 81-H ) :   0.9997 B( 15-C , 16-O ) :   2.2157 B( 15-C , 17-C ) :   0.9356
B( 17-C , 18-C ) :   1.6351 B( 18-C , 19-C ) :   1.1423 B( 18-C , 82-H ) :   0.9296
B( 19-C , 20-C ) :   1.2746 B( 19-C , 30-C ) :   0.1279 B( 19-C , 32-C ) :   1.2177
B( 20-C , 21-C ) :   1.1089 B( 20-C , 25-N ) :   1.4441 B( 21-C , 22-N ) :   1.4308
B( 21-C , 30-C ) :   1.2711 B( 22-N , 23-C ) :   1.7346 B( 23-C , 24-C ) :   1.1938
B( 23-C , 28-C ) :   1.1576 B( 24-C , 25-N ) :   1.7528 B( 24-C , 26-C ) :   1.1524
B( 26-C , 27-N ) :   3.0438 B( 28-C , 29-N ) :   3.0185 B( 30-C , 31-C ) :   1.2382
B( 30-C , 36-C ) :   1.0470 B( 31-C , 32-C ) :   1.1033 B( 31-C , 35-N ) :   1.4869
B( 32-C , 33-N ) :   1.4957 B( 33-N , 34-S ) :   1.2947 B( 33-N , 35-N ) :   0.1561
B( 34-S , 35-N ) :   1.3110 B( 36-C , 37-C ) :   1.2811 B( 36-C , 41-C ) :   1.3510
B( 37-C , 38-C ) :   1.4331 B( 37-C , 83-H ) :   0.9876 B( 38-C , 39-C ) :   1.3537
B( 38-C , 44-C ) :   0.9087 B( 39-C , 40-C ) :   1.3264 B( 39-C , 42-C ) :   0.9999
B( 40-C , 41-C ) :   1.3961 B( 40-C , 84-H ) :   0.9923 B( 41-C , 85-H ) :   0.9795
B( 42-C , 43-C ) :   1.3494 B( 42-C , 52-C ) :   1.3373 B( 43-C , 44-C ) :   0.9166
B( 43-C , 49-C ) :   1.4131 B( 44-C , 45-C ) :   1.0325 B( 44-C , 47-C ) :   1.0421
B( 45-C , 46-C ) :   1.1008 B( 45-C , 86-H ) :   0.9403 B( 45-C , 87-H ) :   0.9401
B( 46-C , 88-H ) :   0.9645 B( 46-C , 89-H ) :   0.9636 B( 46-C , 90-H ) :   0.9643
B( 47-C , 48-C ) :   1.1051 B( 47-C , 91-H ) :   0.9368 B( 47-C , 92-H ) :   0.9386
B( 48-C , 93-H ) :   0.9614 B( 48-C , 94-H ) :   0.9625 B( 48-C , 95-H ) :   0.9645
B( 49-C , 50-C ) :   1.2970 B( 49-C , 96-H ) :   0.9990 B( 50-C , 51-C ) :   1.3286
B( 50-C , 53-C ) :   1.0729 B( 51-C , 52-C ) :   1.3822 B( 51-C , 97-H ) :   0.9935
B( 52-C , 98-H ) :   0.9908 B( 53-C , 54-C ) :   1.7093 B( 53-C , 99-H ) :   0.9808
B( 54-C , 55-C ) :   1.1123 B( 54-C ,100-H ) :   0.9532 B( 55-C , 56-S ) :   1.0895
B( 55-C , 59-C ) :   1.5147 B( 56-S , 57-C ) :   1.0739 B( 57-C , 58-C ) :   1.4495
B( 57-C , 65-C ) :   1.3141 B( 58-C , 59-C ) :   1.2813 B( 58-C , 60-S ) :   1.0450
B( 59-C ,101-H ) :   0.9967 B( 60-S , 61-C ) :   1.0402 B( 61-C , 62-C ) :   1.2868
B( 61-C , 65-C ) :   1.4352 B( 62-C , 63-C ) :   1.4474 B( 62-C ,102-H ) :   1.0082
B( 63-C , 64-S ) :   1.0773 B( 63-C , 66-C ) :   1.1911 B( 64-S , 65-C ) :   1.0740
B( 66-C , 67-C ) :   1.5732 B( 66-C ,103-H ) :   0.9694 B( 67-C , 68-C ) :   1.1332
B( 67-C , 71-S ) :   1.0318 B( 68-C , 69-C ) :   1.6115 B( 68-C ,104-H ) :   0.9995
B( 69-C , 70-C ) :   1.1676 B( 69-C ,105-H ) :   0.9921 B( 70-C , 71-S ) :   1.0315
B( 70-C , 72-C ) :   1.5598 B( 72-C , 73-C ) :   1.1512 B( 72-C , 76-S ) :   1.0451
B( 73-C , 74-C ) :   1.6600 B( 73-C ,106-H ) :   0.9922 B( 74-C , 75-C ) :   1.0802
B( 74-C ,107-H ) :   0.9936 B( 75-C , 76-S ) :   1.0076 B( 75-C , 77-C ) :   1.8627
B( 77-C ,108-H ) :   0.9512 B( 77-C ,109-H ) :   0.9421

-----------------------------------------------------------------------------
         ABSORPTION SPECTRUM VIA TRANSITION ELECTRIC DIPOLE MOMENTS
-----------------------------------------------------------------------------
State   Energy  Wavelength   fosc         T2         TX        TY        TZ
        (cm-1)    (nm)                  (au**2)     (au)      (au)      (au)
-----------------------------------------------------------------------------
   0   10087.5    991.3   0.404967732  13.21642   1.36675  -3.27160   0.80316
   1   13841.6    722.5   0.440371417  10.47390   1.43649  -2.90000   0.01955
   2   16893.6    591.9   1.463908496  28.52775  -1.66047  -2.93897   4.13921
   3   18824.4    531.2   0.023235398   0.40635  -0.06757  -0.57870   0.25864
   4   21552.0    464.0   0.087596885   1.33806   0.61395  -0.95781   0.20910
   5   22236.0    449.7   0.015063440   0.22302  -0.09015  -0.44045   0.14457
   6   22605.7    442.4   0.014356930   0.20908  -0.11345  -0.35415   0.26606
   7   23392.8    427.5   0.007637077   0.10748   0.03605  -0.32582  -0.00412
   8   24109.6    414.8   0.506788669   6.92011  -1.83142   1.88768  -0.05178
   9   24277.3    411.9   0.056439560   0.76535   0.19916  -0.77440   0.35494
  10   24577.5    406.9   0.087302208   1.16940  -0.42970   0.77775  -0.61633
  11   25642.8    390.0   0.014928229   0.19165  -0.31429   0.18333   0.24345
  12   25657.8    389.7   0.844730938  10.83862   2.42045  -2.23125   0.03926
  13   25788.1    387.8   0.006501410   0.08300   0.02020  -0.26457   0.11220
  14   26345.0    379.6   0.271209932   3.38909   1.25751  -1.29796   0.35079
  15   27291.6    366.4   0.003051403   0.03681   0.13976  -0.10992   0.07206
  16   27689.7    361.1   0.081297870   0.96658   0.83255  -0.50687  -0.12853
  17   28282.9    353.6   0.073703737   0.85791   0.67639  -0.30667   0.55349
  18   28755.4    347.8   0.007672999   0.08785   0.18937  -0.00347  -0.22797
  19   29234.3    342.1   0.038057473   0.42857   0.16903   0.13942  -0.61690
  20   29457.5    339.5   0.158645298   1.77299  -0.52268   1.07051  -0.59482
  21   29799.6    335.6   0.012396792   0.13695  -0.22006   0.22274   0.19726
  22   30012.1    333.2   0.068148824   0.74755  -0.24315   0.18103  -0.80972
  23   30321.4    329.8   0.068216934   0.74066  -0.75939   0.30510   0.26627
  24   30341.4    329.6   0.336048147   3.64621   0.51637   1.38781  -1.20563
  25   30497.2    327.9   0.046732395   0.50447   0.18055  -0.61377  -0.30847
  26   30795.2    324.7   0.048319872   0.51656   0.47345  -0.00876  -0.54067
  27   31491.6    317.5   0.125633722   1.31337   0.64304   0.79105   0.52356
  28   31703.7    315.4   0.271968606   2.82413  -0.41190   0.27679  -1.60557
  29   32073.3    311.8   0.006867723   0.07049  -0.08917  -0.00180  -0.25008
  30   32554.5    307.2   0.132339370   1.33830   0.00951  -0.72767   0.89928
  31   32594.8    306.8   0.050352187   0.50856  -0.54962   0.33520   0.30678
  32   33003.0    303.0   0.067321727   0.67155  -0.63707  -0.37597  -0.35261
  33   33330.7    300.0   0.026414672   0.26090  -0.16903   0.25074  -0.41166
  34   33970.9    294.4   0.134993391   1.30822  -0.70009   0.62503  -0.65379
  35   34213.2    292.3   0.065578116   0.63102  -0.22995  -0.09218  -0.75475
  36   34892.7    286.6   0.039916556   0.37661   0.26762  -0.35443  -0.42352
  37   35085.6    285.0   0.454396362   4.26365   0.89286   0.84942  -1.65678
  38   35168.9    284.3   0.047153835   0.44140   0.57154  -0.32254   0.10348
  39   35299.9    283.3   0.340429060   3.17489   0.44123   0.16186   1.71872
  40   35550.0    281.3   0.047082136   0.43601   0.39998  -0.19668  -0.48717
  41   35853.1    278.9   0.013708848   0.12588   0.21480  -0.27810   0.04901
  42   35940.5    278.2   0.012310175   0.11276   0.18512  -0.27276  -0.06399
  43   36309.8    275.4   0.181158141   1.64252  -0.54726  -0.38956  -1.09145
  44   36842.7    271.4   0.006762198   0.06042  -0.12355   0.10532  -0.18457
  45   37155.6    269.1   0.115776238   1.02582   0.14718  -0.45336   0.89366
  46   37267.9    268.3   0.026213941   0.23156   0.13115  -0.18784   0.42318
  47   37756.2    264.9   0.012312397   0.10736  -0.10953  -0.11714   0.28573
  48   37882.5    264.0   0.007309310   0.06352  -0.15190   0.04068   0.19696
  49   38210.9    261.7   0.087939333   0.75766   0.70466  -0.51082   0.01324
  50   38339.6    260.8   0.050667908   0.43507   0.46806  -0.40384   0.23003
  51   38622.7    258.9   0.006129790   0.05225   0.03557   0.19883   0.10702
  52   38844.0    257.4   0.059764975   0.50652   0.19178  -0.59728   0.33616
  53   38995.5    256.4   0.029683644   0.25060  -0.30734   0.37755  -0.11661
  54   39393.1    253.9   0.032196329   0.26907  -0.41701   0.30332   0.05625
  55   39496.3    253.2   0.086439882   0.72050   0.63920  -0.44166   0.34186
  56   39668.4    252.1   0.073342610   0.60868  -0.35861   0.03731   0.69187
  57   39857.5    250.9   0.005385057   0.04448   0.11792   0.10855   0.13709
  58   40117.5    249.3   0.031172117   0.25580  -0.31412   0.39582   0.02150
  59   40175.0    248.9   0.021639359   0.17732  -0.22222   0.13160   0.33260
  60   40248.1    248.5   0.081972153   0.67050  -0.55013   0.14449   0.58905

FINAL SINGLE POINT ENERGY     -5677.778212481554

DIPOLE MOMENT
-------------
                                X             Y             Z
Electronic contribution:     21.37572     -56.41066      11.52498
Nuclear contribution   :    -22.89124      58.21051      -8.22005
                        -----------------------------------------
Total Dipole Moment    :     -1.51552       1.79984       3.30493
                        -----------------------------------------
Magnitude (a.u.)       :      4.05695
Magnitude (Debye)      :     10.31194

Rotational constants in cm-1:     0.001697     0.000147     0.000139
Rotational constants in MHz :    50.886717     4.394683     4.174108

                             ****ORCA TERMINATED NORMALLY****
TOTAL RUN TIME: 0 days 0 hours 28 minutes 2 seconds 275 msec
