                         Program Version 4.2.0 -  RELEASE  -
|  1> # ORCA input file
|  2> # SCF done       -205.466369023739          0.000545544623
|  3> ! CAM-B3LYP def2-SVP def2/J RIJCOSX Grid4 TightSCF
|  4> %maxcore 5000
|  5> %tddft
|  6>     Mode sTDDFT
|  7>     Ethresh 5.0
|  8>     maxcore 5000
|  9> end
| 10>
| 11> %pal
| 12>   nprocs 6
| 13>   end
| 14> * xyz 0 1
| 15>    C       -7.35805        -0.02212         1.89545
| 16>    C       -8.43749        -0.25873         2.70736
| 17>    C       -9.26168        -1.39314         2.58973
| 18>    N       -9.98167        -2.28399         2.49608
| 19>    C       -8.91063         0.64925         3.67715
| 20>    N       -9.35381         1.34316         4.47709
| 21>    C       -6.89660        -0.89092         0.82144
| 22>    C       -5.98053        -0.16786         0.01838
| 23>    C       -5.40358        -0.70485        -1.10686
| 24>    C       -5.74606        -2.01659        -1.45372
| 25>    C       -6.64697        -2.73546        -0.63423
| 26>    C       -7.22323        -2.19609         0.50979
| 27>    S       -6.92667        -4.33330        -1.25780
| 28>    C       -5.85344        -4.03129        -2.58301
| 29>    C       -5.30629        -2.79702        -2.56213
| 30>    C       -5.76872         1.17446         0.59757
| 31>    O       -4.98070         2.00681         0.21019
| 32>    C       -6.61463         1.21458         1.82316
| 33>    C       -6.53407         2.19054         2.77274
| 34>    C       -6.01087         3.49208         2.53243
| 35>    C       -5.31672         4.21367         3.53359
| 36>    C       -4.71167         5.49173         3.26911
| 37>    N       -4.01652         6.11080         4.22509
| 38>    C       -3.90296         5.54510         5.40896
| 39>    C       -4.51041         4.27922         5.67354
| 40>    N       -5.18512         3.64668         4.74455
| 41>    C       -4.38453         3.69500         6.96033
| 42>    N       -4.25301         3.26008         8.01146
| 43>    C       -3.17141         6.21523         6.41893
| 44>    N       -2.58278         6.73975         7.25054
| 45>    C       -4.80175         6.12589         1.98383
| 46>    C       -5.65183         5.47240         1.05963
| 47>    C       -6.22959         4.17930         1.32097
| 48>    N       -7.04267         3.79387         0.33552
| 49>    S       -7.04960         4.90885        -0.80442
| 50>    N       -6.05990         5.96130        -0.10893
| 51>    C       -4.05016         7.28334         1.74568
| 52>    C       -3.78621         7.95596         0.56669
| 53>    C       -2.85998         9.02971         0.48471
| 54>    C       -2.60047         9.46206        -0.78272
| 55>    C       -3.32115         8.74707        -1.76044
| 56>    S       -4.38252         7.56849        -1.02335
| 57>    C       -3.23521         8.80208        -3.14411
| 58>    C       -2.39735         9.56629        -3.98477
| 59>    C       -2.47239         9.21813        -5.30210
| 60>    C       -3.35997         8.14392        -5.56911
| 61>    S       -4.18069         7.68400        -4.08693
| 62>    C       -3.60331         7.53817        -6.78002
| 63>    C       -4.36170         6.35617        -6.92455
| 64>    C       -4.54180         5.34025        -5.98495
| 65>    C       -3.65335         5.07826        -4.92937
| 66>    N       -2.86260         4.77155        -4.15656
| 67>    C       -5.50553         4.38895        -6.40023
| 68>    C       -5.94980         4.61233        -7.69569
| 69>    S       -5.26998         6.03316        -8.40245
| 70>    S       -7.09496         3.43168        -8.26987
| 71>    C       -7.02866         2.66459        -6.71402
| 72>    C       -6.16884         3.28090        -5.81042
| 73>    C       -6.29401         2.74056        -4.51083
| 74>    C       -5.69708         3.30024        -3.37401
| 75>    N       -5.29941         3.83180        -2.43781
| 76>    C       -7.18495         1.67589        -4.45514
| 77>    S       -7.91576         1.36007        -6.02047
| 78>    C       -7.57867         1.03907        -3.24872
| 79>    C       -8.10071        -0.18981        -3.01952
| 80>    C       -8.17282        -1.40454        -3.80534
| 81>    C       -7.30541        -1.76008        -4.80587
| 82>    C       -7.33284        -3.00265        -5.47052
| 83>    N       -7.30830        -3.99325        -6.04939
| 84>    C       -6.19250        -0.98289        -5.18279
| 85>    N       -5.23948        -0.41241        -5.47425
| 86>    C       -9.10341        -2.30240        -3.13760
| 87>    C       -9.44507        -1.74939        -1.87321
| 88>    C       -8.79816        -0.44223        -1.72333
| 89>    O       -8.82813         0.30826        -0.77387
| 90>    C      -10.22454        -2.42064        -0.96091
| 91>    C      -10.68333        -3.69301        -1.30917
| 92>    C      -10.35958        -4.22627        -2.58212
| 93>    C       -9.57660        -3.54688        -3.50751
| 94>    S      -11.03422        -5.80926        -2.78596
| 95>    C      -11.71754        -5.75101        -1.19706
| 96>    C      -11.46287        -4.59914        -0.53886
| 97>    H       -4.71339        -0.13059        -1.70623
| 98>    H       -7.89190        -2.78907         1.11128
| 99>    H       -5.69843        -4.80964        -3.30461
|100>    H       -4.60775        -2.43529        -3.29566
|101>    H       -6.83819         1.98414         3.79164
|102>    H       -3.53018         7.65729         2.62047
|103>    H       -2.39080         9.42767         1.36746
|104>    H       -1.90885        10.24825        -1.02795
|105>    H       -1.75240        10.33499        -3.59806
|106>    H       -1.88825         9.66916        -6.08456
|107>    H       -3.22989         8.01327        -7.67647
|108>    H       -7.50135         1.66819        -2.36296
|109>    H      -10.45408        -1.99313         0.00264
|110>    H       -9.35489        -3.98993        -4.46448
|111>    H      -12.27652        -6.59836        -0.85049
|112>    H      -11.79681        -4.38099         0.45896
|113> *
|114>
|115>                          ****END OF INPUT****

CARTESIAN COORDINATES (ANGSTROEM)
---------------------------------
  C     -7.358050   -0.022120    1.895450
  C     -8.437490   -0.258730    2.707360
  C     -9.261680   -1.393140    2.589730
  N     -9.981670   -2.283990    2.496080
  C     -8.910630    0.649250    3.677150
  N     -9.353810    1.343160    4.477090
  C     -6.896600   -0.890920    0.821440
  C     -5.980530   -0.167860    0.018380
  C     -5.403580   -0.704850   -1.106860
  C     -5.746060   -2.016590   -1.453720
  C     -6.646970   -2.735460   -0.634230
  C     -7.223230   -2.196090    0.509790
  S     -6.926670   -4.333300   -1.257800
  C     -5.853440   -4.031290   -2.583010
  C     -5.306290   -2.797020   -2.562130
  C     -5.768720    1.174460    0.597570
  O     -4.980700    2.006810    0.210190
  C     -6.614630    1.214580    1.823160
  C     -6.534070    2.190540    2.772740
  C     -6.010870    3.492080    2.532430
  C     -5.316720    4.213670    3.533590
  C     -4.711670    5.491730    3.269110
  N     -4.016520    6.110800    4.225090
  C     -3.902960    5.545100    5.408960
  C     -4.510410    4.279220    5.673540
  N     -5.185120    3.646680    4.744550
  C     -4.384530    3.695000    6.960330
  N     -4.253010    3.260080    8.011460
  C     -3.171410    6.215230    6.418930
  N     -2.582780    6.739750    7.250540
  C     -4.801750    6.125890    1.983830
  C     -5.651830    5.472400    1.059630
  C     -6.229590    4.179300    1.320970
  N     -7.042670    3.793870    0.335520
  S     -7.049600    4.908850   -0.804420
  N     -6.059900    5.961300   -0.108930
  C     -4.050160    7.283340    1.745680
  C     -3.786210    7.955960    0.566690
  C     -2.859980    9.029710    0.484710
  C     -2.600470    9.462060   -0.782720
  C     -3.321150    8.747070   -1.760440
  S     -4.382520    7.568490   -1.023350
  C     -3.235210    8.802080   -3.144110
  C     -2.397350    9.566290   -3.984770
  C     -2.472390    9.218130   -5.302100
  C     -3.359970    8.143920   -5.569110
  S     -4.180690    7.684000   -4.086930
  C     -3.603310    7.538170   -6.780020
  C     -4.361700    6.356170   -6.924550
  C     -4.541800    5.340250   -5.984950
  C     -3.653350    5.078260   -4.929370
  N     -2.862600    4.771550   -4.156560
  C     -5.505530    4.388950   -6.400230
  C     -5.949800    4.612330   -7.695690
  S     -5.269980    6.033160   -8.402450
  S     -7.094960    3.431680   -8.269870
  C     -7.028660    2.664590   -6.714020
  C     -6.168840    3.280900   -5.810420
  C     -6.294010    2.740560   -4.510830
  C     -5.697080    3.300240   -3.374010
  N     -5.299410    3.831800   -2.437810
  C     -7.184950    1.675890   -4.455140
  S     -7.915760    1.360070   -6.020470
  C     -7.578670    1.039070   -3.248720
  C     -8.100710   -0.189810   -3.019520
  C     -8.172820   -1.404540   -3.805340
  C     -7.305410   -1.760080   -4.805870
  C     -7.332840   -3.002650   -5.470520
  N     -7.308300   -3.993250   -6.049390
  C     -6.192500   -0.982890   -5.182790
  N     -5.239480   -0.412410   -5.474250
  C     -9.103410   -2.302400   -3.137600
  C     -9.445070   -1.749390   -1.873210
  C     -8.798160   -0.442230   -1.723330
  O     -8.828130    0.308260   -0.773870
  C    -10.224540   -2.420640   -0.960910
  C    -10.683330   -3.693010   -1.309170
  C    -10.359580   -4.226270   -2.582120
  C     -9.576600   -3.546880   -3.507510
  S    -11.034220   -5.809260   -2.785960
  C    -11.717540   -5.751010   -1.197060
  C    -11.462870   -4.599140   -0.538860
  H     -4.713390   -0.130590   -1.706230
  H     -7.891900   -2.789070    1.111280
  H     -5.698430   -4.809640   -3.304610
  H     -4.607750   -2.435290   -3.295660
  H     -6.838190    1.984140    3.791640
  H     -3.530180    7.657290    2.620470
  H     -2.390800    9.427670    1.367460
  H     -1.908850   10.248250   -1.027950
  H     -1.752400   10.334990   -3.598060
  H     -1.888250    9.669160   -6.084560
  H     -3.229890    8.013270   -7.676470
  H     -7.501350    1.668190   -2.362960
  H    -10.454080   -1.993130    0.002640
  H     -9.354890   -3.989930   -4.464480
  H    -12.276520   -6.598360   -0.850490
  H    -11.796810   -4.380990    0.458960

 Total Charge           Charge          ....    0
 Multiplicity           Mult            ....    1
 Number of Electrons    NEL             ....  604
 Basis Dimension        Dim             .... 1260

ORBITAL ENERGIES
----------------

  NO   OCC          E(Eh)            E(eV)
   0   2.0000     -89.034889     -2422.7625
   1   2.0000     -89.005063     -2421.9509
   2   2.0000     -89.004335     -2421.9311
   3   2.0000     -88.997168     -2421.7361
   4   2.0000     -88.968971     -2420.9688
   5   2.0000     -88.966100     -2420.8907
   6   2.0000     -88.962907     -2420.8038
   7   2.0000     -88.962305     -2420.7874
   8   2.0000     -19.226865      -523.1896
   9   2.0000     -19.202513      -522.5269
  10   2.0000     -14.455148      -393.3446
  11   2.0000     -14.450008      -393.2047
  12   2.0000     -14.442614      -393.0035
  13   2.0000     -14.433750      -392.7623
  14   2.0000     -14.430968      -392.6866
  15   2.0000     -14.428474      -392.6187
  16   2.0000     -14.428224      -392.6119
  17   2.0000     -14.420438      -392.4001
  18   2.0000     -14.417957      -392.3326
  19   2.0000     -14.412484      -392.1836
  20   2.0000     -14.409046      -392.0901
  21   2.0000     -14.402522      -391.9126
  22   2.0000     -10.374691      -282.3097
  23   2.0000     -10.373415      -282.2750
  24   2.0000     -10.367489      -282.1137
  25   2.0000     -10.358489      -281.8688
  26   2.0000     -10.355472      -281.7867
  27   2.0000     -10.353784      -281.7408
  28   2.0000     -10.353500      -281.7330
  29   2.0000     -10.353348      -281.7289
  30   2.0000     -10.352384      -281.7027
  31   2.0000     -10.348925      -281.6086
  32   2.0000     -10.346121      -281.5323
  33   2.0000     -10.342709      -281.4394
  34   2.0000     -10.341792      -281.4145
  35   2.0000     -10.338529      -281.3257
  36   2.0000     -10.336289      -281.2647
  37   2.0000     -10.334638      -281.2198
  38   2.0000     -10.333083      -281.1775
  39   2.0000     -10.332830      -281.1706
  40   2.0000     -10.332090      -281.1505
  41   2.0000     -10.330660      -281.1116
  42   2.0000     -10.330347      -281.1030
  43   2.0000     -10.330175      -281.0983
  44   2.0000     -10.329670      -281.0846
  45   2.0000     -10.329525      -281.0807
  46   2.0000     -10.328618      -281.0560
  47   2.0000     -10.325530      -280.9719
  48   2.0000     -10.324072      -280.9323
  49   2.0000     -10.322603      -280.8923
  50   2.0000     -10.321654      -280.8665
  51   2.0000     -10.320078      -280.8236
  52   2.0000     -10.317012      -280.7402
  53   2.0000     -10.315568      -280.7009
  54   2.0000     -10.315263      -280.6926
  55   2.0000     -10.315041      -280.6865
  56   2.0000     -10.314526      -280.6725
  57   2.0000     -10.313546      -280.6459
  58   2.0000     -10.313313      -280.6395
  59   2.0000     -10.312936      -280.6293
  60   2.0000     -10.312589      -280.6198
  61   2.0000     -10.310644      -280.5669
  62   2.0000     -10.310547      -280.5642
  63   2.0000     -10.308884      -280.5190
  64   2.0000     -10.308385      -280.5054
  65   2.0000     -10.306035      -280.4415
  66   2.0000     -10.305428      -280.4249
  67   2.0000     -10.303764      -280.3797
  68   2.0000     -10.302818      -280.3539
  69   2.0000     -10.301177      -280.3093
  70   2.0000     -10.299160      -280.2544
  71   2.0000     -10.297903      -280.2202
  72   2.0000     -10.297040      -280.1967
  73   2.0000     -10.296313      -280.1769
  74   2.0000     -10.296267      -280.1757
  75   2.0000     -10.295723      -280.1609
  76   2.0000     -10.294580      -280.1298
  77   2.0000     -10.291437      -280.0442
  78   2.0000     -10.287714      -279.9429
  79   2.0000     -10.285116      -279.8722
  80   2.0000     -10.283859      -279.8380
  81   2.0000     -10.281606      -279.7767
  82   2.0000      -8.124845      -221.0883
  83   2.0000      -8.099488      -220.3983
  84   2.0000      -8.099112      -220.3881
  85   2.0000      -8.092390      -220.2051
  86   2.0000      -8.065331      -219.4688
  87   2.0000      -8.062095      -219.3808
  88   2.0000      -8.058413      -219.2806
  89   2.0000      -8.056670      -219.2331
  90   2.0000      -6.095670      -165.8716
  91   2.0000      -6.088330      -165.6719
  92   2.0000      -6.087894      -165.6600
  93   2.0000      -6.069201      -165.1514
  94   2.0000      -6.069163      -165.1503
  95   2.0000      -6.064819      -165.0321
  96   2.0000      -6.064806      -165.0318
  97   2.0000      -6.062085      -164.9577
  98   2.0000      -6.061051      -164.9296
  99   2.0000      -6.059878      -164.8977
 100   2.0000      -6.057842      -164.8423
 101   2.0000      -6.053748      -164.7309
 102   2.0000      -6.034805      -164.2154
 103   2.0000      -6.031876      -164.1357
 104   2.0000      -6.030536      -164.0992
 105   2.0000      -6.027984      -164.0298
 106   2.0000      -6.027602      -164.0194
 107   2.0000      -6.027018      -164.0035
 108   2.0000      -6.026449      -163.9880
 109   2.0000      -6.023674      -163.9125
 110   2.0000      -6.023014      -163.8945
 111   2.0000      -6.021929      -163.8650
 112   2.0000      -6.020124      -163.8159
 113   2.0000      -6.017923      -163.7560
 114   2.0000      -1.141508       -31.0620
 115   2.0000      -1.131640       -30.7935
 116   2.0000      -1.117756       -30.4157
 117   2.0000      -1.111128       -30.2353
 118   2.0000      -1.057967       -28.7888
 119   2.0000      -1.037662       -28.2362
 120   2.0000      -1.032878       -28.1060
 121   2.0000      -1.025607       -27.9082
 122   2.0000      -1.017551       -27.6890
 123   2.0000      -1.014814       -27.6145
 124   2.0000      -1.011929       -27.5360
 125   2.0000      -1.011568       -27.5262
 126   2.0000      -1.006712       -27.3940
 127   2.0000      -1.004086       -27.3226
 128   2.0000      -1.002118       -27.2690
 129   2.0000      -0.996706       -27.1217
 130   2.0000      -0.993775       -27.0420
 131   2.0000      -0.992765       -27.0145
 132   2.0000      -0.990507       -26.9531
 133   2.0000      -0.986156       -26.8347
 134   2.0000      -0.982764       -26.7424
 135   2.0000      -0.975562       -26.5464
 136   2.0000      -0.968290       -26.3485
 137   2.0000      -0.965493       -26.2724
 138   2.0000      -0.937343       -25.5064
 139   2.0000      -0.923452       -25.1284
 140   2.0000      -0.919140       -25.0111
 141   2.0000      -0.915504       -24.9121
 142   2.0000      -0.909461       -24.7477
 143   2.0000      -0.902292       -24.5526
 144   2.0000      -0.898648       -24.4534
 145   2.0000      -0.888996       -24.1908
 146   2.0000      -0.885249       -24.0888
 147   2.0000      -0.883397       -24.0385
 148   2.0000      -0.876020       -23.8377
 149   2.0000      -0.874566       -23.7981
 150   2.0000      -0.872849       -23.7514
 151   2.0000      -0.863443       -23.4955
 152   2.0000      -0.844294       -22.9744
 153   2.0000      -0.840700       -22.8766
 154   2.0000      -0.833791       -22.6886
 155   2.0000      -0.827078       -22.5059
 156   2.0000      -0.824845       -22.4452
 157   2.0000      -0.821138       -22.3443
 158   2.0000      -0.816120       -22.2078
 159   2.0000      -0.802202       -21.8290
 160   2.0000      -0.790224       -21.5031
 161   2.0000      -0.785428       -21.3726
 162   2.0000      -0.773743       -21.0546
 163   2.0000      -0.763607       -20.7788
 164   2.0000      -0.750646       -20.4261
 165   2.0000      -0.745159       -20.2768
 166   2.0000      -0.737267       -20.0620
 167   2.0000      -0.728493       -19.8233
 168   2.0000      -0.720462       -19.6048
 169   2.0000      -0.716100       -19.4861
 170   2.0000      -0.708454       -19.2780
 171   2.0000      -0.701337       -19.0843
 172   2.0000      -0.699421       -19.0322
 173   2.0000      -0.694222       -18.8907
 174   2.0000      -0.689755       -18.7692
 175   2.0000      -0.686277       -18.6745
 176   2.0000      -0.681791       -18.5525
 177   2.0000      -0.680800       -18.5255
 178   2.0000      -0.668377       -18.1875
 179   2.0000      -0.667798       -18.1717
 180   2.0000      -0.663647       -18.0587
 181   2.0000      -0.660624       -17.9765
 182   2.0000      -0.656580       -17.8665
 183   2.0000      -0.653909       -17.7938
 184   2.0000      -0.647004       -17.6059
 185   2.0000      -0.642409       -17.4808
 186   2.0000      -0.635354       -17.2889
 187   2.0000      -0.630638       -17.1605
 188   2.0000      -0.625958       -17.0332
 189   2.0000      -0.621738       -16.9183
 190   2.0000      -0.614968       -16.7341
 191   2.0000      -0.611214       -16.6320
 192   2.0000      -0.608382       -16.5549
 193   2.0000      -0.603860       -16.4319
 194   2.0000      -0.601534       -16.3686
 195   2.0000      -0.592443       -16.1212
 196   2.0000      -0.585930       -15.9440
 197   2.0000      -0.581484       -15.8230
 198   2.0000      -0.573575       -15.6078
 199   2.0000      -0.570493       -15.5239
 200   2.0000      -0.565392       -15.3851
 201   2.0000      -0.561837       -15.2884
 202   2.0000      -0.559811       -15.2332
 203   2.0000      -0.556968       -15.1559
 204   2.0000      -0.555077       -15.1044
 205   2.0000      -0.552721       -15.0403
 206   2.0000      -0.551049       -14.9948
 207   2.0000      -0.544102       -14.8058
 208   2.0000      -0.541393       -14.7321
 209   2.0000      -0.540269       -14.7015
 210   2.0000      -0.538114       -14.6428
 211   2.0000      -0.536970       -14.6117
 212   2.0000      -0.533527       -14.5180
 213   2.0000      -0.528965       -14.3939
 214   2.0000      -0.524899       -14.2832
 215   2.0000      -0.522519       -14.2185
 216   2.0000      -0.520137       -14.1537
 217   2.0000      -0.517329       -14.0772
 218   2.0000      -0.515822       -14.0362
 219   2.0000      -0.514222       -13.9927
 220   2.0000      -0.512806       -13.9542
 221   2.0000      -0.509334       -13.8597
 222   2.0000      -0.508029       -13.8242
 223   2.0000      -0.506377       -13.7792
 224   2.0000      -0.499889       -13.6027
 225   2.0000      -0.497384       -13.5345
 226   2.0000      -0.495416       -13.4810
 227   2.0000      -0.494384       -13.4529
 228   2.0000      -0.492287       -13.3958
 229   2.0000      -0.490929       -13.3589
 230   2.0000      -0.488989       -13.3061
 231   2.0000      -0.486537       -13.2393
 232   2.0000      -0.484180       -13.1752
 233   2.0000      -0.482430       -13.1276
 234   2.0000      -0.480290       -13.0694
 235   2.0000      -0.478684       -13.0257
 236   2.0000      -0.478235       -13.0134
 237   2.0000      -0.474278       -12.9058
 238   2.0000      -0.471695       -12.8355
 239   2.0000      -0.470849       -12.8125
 240   2.0000      -0.466480       -12.6936
 241   2.0000      -0.465383       -12.6637
 242   2.0000      -0.463842       -12.6218
 243   2.0000      -0.462325       -12.5805
 244   2.0000      -0.458883       -12.4869
 245   2.0000      -0.457770       -12.4566
 246   2.0000      -0.457527       -12.4499
 247   2.0000      -0.454772       -12.3750
 248   2.0000      -0.450346       -12.2545
 249   2.0000      -0.448595       -12.2069
 250   2.0000      -0.447703       -12.1826
 251   2.0000      -0.446251       -12.1431
 252   2.0000      -0.444954       -12.1078
 253   2.0000      -0.443972       -12.0811
 254   2.0000      -0.443774       -12.0757
 255   2.0000      -0.441832       -12.0229
 256   2.0000      -0.440319       -11.9817
 257   2.0000      -0.437866       -11.9149
 258   2.0000      -0.436500       -11.8778
 259   2.0000      -0.435490       -11.8503
 260   2.0000      -0.434461       -11.8223
 261   2.0000      -0.433482       -11.7957
 262   2.0000      -0.432804       -11.7772
 263   2.0000      -0.428165       -11.6510
 264   2.0000      -0.427304       -11.6275
 265   2.0000      -0.426542       -11.6068
 266   2.0000      -0.422024       -11.4839
 267   2.0000      -0.419829       -11.4241
 268   2.0000      -0.417910       -11.3719
 269   2.0000      -0.417083       -11.3494
 270   2.0000      -0.413925       -11.2635
 271   2.0000      -0.413453       -11.2506
 272   2.0000      -0.406732       -11.0677
 273   2.0000      -0.405951       -11.0465
 274   2.0000      -0.405201       -11.0261
 275   2.0000      -0.401371       -10.9219
 276   2.0000      -0.400646       -10.9021
 277   2.0000      -0.396011       -10.7760
 278   2.0000      -0.391132       -10.6432
 279   2.0000      -0.385948       -10.5022
 280   2.0000      -0.385852       -10.4996
 281   2.0000      -0.379578       -10.3289
 282   2.0000      -0.371242       -10.1020
 283   2.0000      -0.364910        -9.9297
 284   2.0000      -0.358018        -9.7422
 285   2.0000      -0.354141        -9.6367
 286   2.0000      -0.352967        -9.6047
 287   2.0000      -0.348742        -9.4898
 288   2.0000      -0.347159        -9.4467
 289   2.0000      -0.340300        -9.2600
 290   2.0000      -0.337229        -9.1765
 291   2.0000      -0.331104        -9.0098
 292   2.0000      -0.330213        -8.9856
 293   2.0000      -0.320411        -8.7188
 294   2.0000      -0.318126        -8.6567
 295   2.0000      -0.309177        -8.4131
 296   2.0000      -0.305992        -8.3265
 297   2.0000      -0.300200        -8.1688
 298   2.0000      -0.296702        -8.0737
 299   2.0000      -0.284164        -7.7325
 300   2.0000      -0.276824        -7.5328
 301   2.0000      -0.228848        -6.2273
 302   0.0000      -0.131344        -3.5741
 303   0.0000      -0.108488        -2.9521
 304   0.0000      -0.080975        -2.2034
 305   0.0000      -0.074335        -2.0228
 306   0.0000      -0.066153        -1.8001

MULLIKEN ATOMIC CHARGES
-----------------------
   0 C :    0.302271
   1 C :   -0.333765
   2 C :   -0.159129
   3 N :    0.114541
   4 C :   -0.201766
   5 N :    0.159944
   6 C :    0.038111
   7 C :   -0.014117
   8 C :   -0.089150
   9 C :    0.092519
  10 C :   -0.111151
  11 C :   -0.040280
  12 S :    0.132330
  13 C :   -0.066828
  14 C :    0.041857
  15 C :    0.165031
  16 O :   -0.144839
  17 C :   -0.066118
  18 C :   -0.057536
  19 C :    0.050249
  20 C :   -0.037488
  21 C :   -0.061364
  22 N :    0.050533
  23 C :   -0.145786
  24 C :   -0.128483
  25 N :    0.054953
  26 C :   -0.205648
  27 N :    0.236666
  28 C :   -0.215531
  29 N :    0.231170
  30 C :    0.116556
  31 C :    0.046292
  32 C :    0.043775
  33 N :   -0.277169
  34 S :    0.567560
  35 N :   -0.331257
  36 C :   -0.112887
  37 C :    0.021990
  38 C :    0.027471
  39 C :    0.045106
  40 C :   -0.022070
  41 S :    0.159701
  42 C :   -0.048703
  43 C :    0.042137
  44 C :    0.047760
  45 C :   -0.036342
  46 S :    0.109908
  47 C :    0.017754
  48 C :   -0.108994
  49 C :   -0.022051
  50 C :   -0.284326
  51 N :    0.179220
  52 C :    0.109049
  53 C :   -0.227050
  54 S :    0.171858
  55 S :    0.200161
  56 C :   -0.218902
  57 C :    0.144010
  58 C :    0.025461
  59 C :   -0.226724
  60 N :    0.172542
  61 C :   -0.109831
  62 S :    0.211987
  63 C :   -0.042089
  64 C :   -0.079089
  65 C :    0.261132
  66 C :   -0.310047
  67 C :   -0.185931
  68 N :    0.164301
  69 C :   -0.220896
  70 N :    0.169202
  71 C :    0.002750
  72 C :    0.035224
  73 C :    0.130650
  74 O :   -0.143705
  75 C :   -0.069999
  76 C :    0.098802
  77 C :   -0.080404
  78 C :   -0.034947
  79 S :    0.136405
  80 C :   -0.048203
  81 C :    0.034075
  82 H :   -0.006776
  83 H :   -0.010460
  84 H :    0.044640
  85 H :    0.006515
  86 H :    0.043509
  87 H :    0.007682
  88 H :    0.003229
  89 H :   -0.006240
  90 H :   -0.001992
  91 H :   -0.000561
  92 H :    0.001165
  93 H :    0.041909
  94 H :   -0.010217
  95 H :   -0.007747
  96 H :    0.041461
  97 H :    0.011470
Sum of atomic charges:   -0.0000000

LOEWDIN ATOMIC CHARGES
----------------------
   0 C :    0.084916
   1 C :   -0.140376
   2 C :   -0.001109
   3 N :   -0.080273
   4 C :   -0.022622
   5 N :   -0.051615
   6 C :   -0.014498
   7 C :   -0.049095
   8 C :    0.017737
   9 C :   -0.046394
  10 C :   -0.151589
  11 C :   -0.016273
  12 S :    0.429546
  13 C :   -0.153378
  14 C :   -0.058426
  15 C :    0.084233
  16 O :   -0.135997
  17 C :   -0.075527
  18 C :    0.079705
  19 C :   -0.059555
  20 C :    0.014653
  21 C :   -0.008352
  22 N :    0.000815
  23 C :   -0.043416
  24 C :   -0.019547
  25 N :   -0.008908
  26 C :   -0.033113
  27 N :   -0.004336
  28 C :   -0.038165
  29 N :   -0.016292
  30 C :   -0.003127
  31 C :   -0.042893
  32 C :   -0.018049
  33 N :   -0.280931
  34 S :    0.731653
  35 N :   -0.299064
  36 C :   -0.038056
  37 C :   -0.118135
  38 C :   -0.023218
  39 C :   -0.019886
  40 C :   -0.182110
  41 S :    0.470496
  42 C :   -0.157839
  43 C :   -0.019615
  44 C :   -0.022096
  45 C :   -0.123513
  46 S :    0.440743
  47 C :   -0.079182
  48 C :   -0.131330
  49 C :   -0.118388
  50 C :   -0.064692
  51 N :   -0.035419
  52 C :   -0.059761
  53 C :   -0.331101
  54 S :    0.444448
  55 S :    0.437153
  56 C :   -0.315057
  57 C :   -0.058845
  58 C :   -0.067600
  59 C :   -0.018947
  60 N :   -0.045490
  61 C :   -0.142722
  62 S :    0.483701
  63 C :    0.037384
  64 C :   -0.071564
  65 C :    0.067276
  66 C :   -0.139007
  67 C :   -0.017535
  68 N :   -0.049428
  69 C :   -0.034732
  70 N :   -0.051250
  71 C :   -0.024280
  72 C :   -0.056326
  73 C :    0.088501
  74 O :   -0.130183
  75 C :    0.031485
  76 C :   -0.032035
  77 C :   -0.145875
  78 C :   -0.012358
  79 S :    0.428255
  80 C :   -0.146235
  81 C :   -0.048160
  82 H :    0.041425
  83 H :    0.036820
  84 H :    0.030692
  85 H :    0.037550
  86 H :    0.047235
  87 H :    0.042305
  88 H :    0.038684
  89 H :    0.034091
  90 H :    0.037224
  91 H :    0.037944
  92 H :    0.038284
  93 H :    0.055275
  94 H :    0.041943
  95 H :    0.038850
  96 H :    0.030569
  97 H :    0.043302

  Mayer bond orders larger than 0.100000
B(  0-C ,  1-C ) :   1.6345 B(  0-C ,  6-C ) :   0.9928 B(  0-C , 17-C ) :   1.0807
B(  1-C ,  2-C ) :   1.1614 B(  1-C ,  4-C ) :   1.1400 B(  2-C ,  3-N ) :   2.9112
B(  4-C ,  5-N ) :   2.9988 B(  6-C ,  7-C ) :   1.2762 B(  6-C , 11-C ) :   1.4086
B(  7-C ,  8-C ) :   1.4225 B(  7-C , 15-C ) :   0.9417 B(  8-C ,  9-C ) :   1.2250
B(  8-C , 82-H ) :   1.0256 B(  9-C , 10-C ) :   1.3126 B(  9-C , 14-C ) :   1.1788
B( 10-C , 11-C ) :   1.3076 B( 10-C , 12-S ) :   1.0986 B( 11-C , 83-H ) :   0.9870
B( 12-S , 13-C ) :   1.1217 B( 13-C , 14-C ) :   1.6172 B( 13-C , 84-H ) :   0.9652
B( 14-C , 85-H ) :   0.9900 B( 15-C , 16-O ) :   2.2141 B( 15-C , 17-C ) :   0.9443
B( 17-C , 18-C ) :   1.5768 B( 18-C , 19-C ) :   1.1800 B( 18-C , 86-H ) :   0.9355
B( 19-C , 20-C ) :   1.2344 B( 19-C , 30-C ) :   0.1046 B( 19-C , 32-C ) :   1.2074
B( 20-C , 21-C ) :   1.1314 B( 20-C , 25-N ) :   1.4709 B( 21-C , 22-N ) :   1.5079
B( 21-C , 30-C ) :   1.1586 B( 22-N , 23-C ) :   1.6828 B( 23-C , 24-C ) :   1.2403
B( 23-C , 28-C ) :   1.1566 B( 24-C , 25-N ) :   1.7228 B( 24-C , 26-C ) :   1.1512
B( 26-C , 27-N ) :   3.0492 B( 28-C , 29-N ) :   3.0493 B( 30-C , 31-C ) :   1.1603
B( 30-C , 36-C ) :   1.3162 B( 31-C , 32-C ) :   1.1278 B( 31-C , 35-N ) :   1.4411
B( 32-C , 33-N ) :   1.4993 B( 33-N , 34-S ) :   1.3112 B( 33-N , 35-N ) :   0.1327
B( 34-S , 35-N ) :   1.3008 B( 36-C , 37-C ) :   1.4209 B( 36-C , 87-H ) :   0.9458
B( 37-C , 38-C ) :   1.1677 B( 37-C , 41-S ) :   1.1011 B( 38-C , 39-C ) :   1.5597
B( 38-C , 88-H ) :   1.0022 B( 39-C , 40-C ) :   1.1965 B( 39-C , 89-H ) :   0.9953
B( 40-C , 41-S ) :   1.0350 B( 40-C , 42-C ) :   1.4636 B( 42-C , 43-C ) :   1.1943
B( 42-C , 46-S ) :   1.0781 B( 43-C , 44-C ) :   1.5859 B( 43-C , 90-H ) :   0.9940
B( 44-C , 45-C ) :   1.1457 B( 44-C , 91-H ) :   0.9973 B( 45-C , 46-S ) :   1.0612
B( 45-C , 47-C ) :   1.5814 B( 47-C , 48-C ) :   1.1694 B( 47-C , 92-H ) :   0.9503
B( 48-C , 49-C ) :   1.4427 B( 48-C , 54-S ) :   1.1158 B( 49-C , 50-C ) :   1.1110
B( 49-C , 52-C ) :   1.2642 B( 50-C , 51-N ) :   3.0215 B( 52-C , 53-C ) :   1.4226
B( 52-C , 57-C ) :   1.1036 B( 53-C , 54-S ) :   1.0851 B( 53-C , 55-S ) :   1.0788
B( 55-S , 56-C ) :   1.0994 B( 56-C , 57-C ) :   1.3825 B( 56-C , 62-S ) :   1.1139
B( 57-C , 58-C ) :   1.2772 B( 58-C , 59-C ) :   1.1688 B( 58-C , 61-C ) :   1.4501
B( 59-C , 60-N ) :   2.8787 B( 61-C , 62-S ) :   1.1301 B( 61-C , 63-C ) :   1.1193
B( 63-C , 64-C ) :   1.7053 B( 63-C , 93-H ) :   0.9260 B( 64-C , 65-C ) :   1.0148
B( 64-C , 73-C ) :   0.9318 B( 65-C , 66-C ) :   1.6537 B( 65-C , 71-C ) :   1.0299
B( 66-C , 67-C ) :   1.1438 B( 66-C , 69-C ) :   1.1618 B( 67-C , 68-N ) :   2.9774
B( 69-C , 70-N ) :   2.9800 B( 71-C , 72-C ) :   1.2572 B( 71-C , 78-C ) :   1.3975
B( 72-C , 73-C ) :   0.9424 B( 72-C , 75-C ) :   1.3959 B( 73-C , 74-O ) :   2.2050
B( 75-C , 76-C ) :   1.2606 B( 75-C , 94-H ) :   1.0164 B( 76-C , 77-C ) :   1.2912
B( 76-C , 81-C ) :   1.1802 B( 77-C , 78-C ) :   1.3171 B( 77-C , 79-S ) :   1.0994
B( 78-C , 95-H ) :   0.9883 B( 79-S , 80-C ) :   1.1226 B( 80-C , 81-C ) :   1.6207
B( 80-C , 96-H ) :   0.9679 B( 81-C , 97-H ) :   1.0000

-----------------------------------------------------------------------------
         ABSORPTION SPECTRUM VIA TRANSITION ELECTRIC DIPOLE MOMENTS
-----------------------------------------------------------------------------
State   Energy  Wavelength   fosc         T2         TX        TY        TZ
        (cm-1)    (nm)                  (au**2)     (au)      (au)      (au)
-----------------------------------------------------------------------------
   0    6946.5   1439.6   0.375605911  17.80084  -1.01812  -2.17742   3.46743
   1   13295.7    752.1   0.045063517   1.11581  -0.29049  -0.38094  -0.94144
   2   16579.3    603.2   0.027306216   0.54222  -0.29381  -0.63433   0.23134
   3   17609.2    567.9   0.446495777   8.34742   0.82624   2.08784   1.81815
   4   19264.1    519.1   0.299666773   5.12112   0.82418   1.81362   1.07360
   5   19863.5    503.4   0.112964156   1.87224   0.45058   1.28287  -0.15315
   6   20956.5    477.2   0.026648906   0.41863   0.30701  -0.36998   0.43301
   7   21730.3    460.2   0.152329086   2.30777   0.70757   1.16225   0.67548
   8   22541.4    443.6   0.319569284   4.66724   0.89804   1.91994  -0.41783
   9   22640.8    441.7   0.059690047   0.86793  -0.36639  -0.57640  -0.63361
  10   23175.9    431.5   0.051664705   0.73389   0.26996   0.64709  -0.49223
  11   23419.9    427.0   0.057088059   0.80248   0.18639   0.81420   0.32377
  12   23738.2    421.3   0.019410079   0.26919  -0.05799  -0.13455  -0.49772
  13   24291.6    411.7   0.345183766   4.67811  -0.68975  -1.77832   1.01977
  14   24440.3    409.2   0.038215872   0.51477   0.01656   0.69731   0.16810
  15   24515.8    407.9   0.062138834   0.83443  -0.09490  -0.65511  -0.62949
  16   25175.5    397.2   0.046489145   0.60792   0.18742   0.32148  -0.68516
  17   25446.6    393.0   0.060045342   0.77683  -0.78103  -0.12200   0.38978
  18   25788.6    387.8   0.086169659   1.10003   0.49521   0.85259   0.35760
  19   26606.5    375.8   0.041216573   0.50999   0.08449   0.46274  -0.53733
  20   26818.3    372.9   0.119791060   1.47051   0.44001   1.02880  -0.46741
  21   27176.8    368.0   0.046817270   0.56713   0.08721   0.49107   0.56424
  22   27520.7    363.4   0.032187018   0.38503   0.42225   0.44641   0.08634
  23   27552.2    362.9   0.102134041   1.22036  -0.78085  -0.40509  -0.66824
  24   27669.1    361.4   0.027346263   0.32537  -0.30086  -0.40628   0.26419
  25   27834.1    359.3   0.542738112   6.41932   0.12563  -0.11186   2.52805
  26   28044.6    356.6   0.104328070   1.22470  -0.47880  -0.86624   0.49506
  27   28307.0    353.3   0.002117808   0.02463   0.09877  -0.01128   0.12144
  28   28495.3    350.9   0.004583350   0.05295  -0.13556   0.07383  -0.17066
  29   28655.1    349.0   0.014890374   0.17107   0.21460   0.35071  -0.04500
  30   28967.3    345.2   0.030453060   0.34610  -0.13731  -0.36303  -0.44210
  31   29509.3    338.9   0.007489371   0.08355  -0.19465   0.19040   0.09702
  32   29708.3    336.6   0.030891104   0.34232  -0.09956  -0.09372  -0.56888
  33   29999.3    333.3   0.317189386   3.48084   1.01871   1.13103   1.07881
  34   30110.7    332.1   0.096669088   1.05692  -0.74914   0.49920   0.49651
  35   30667.6    326.1   0.072424667   0.77747  -0.12475   0.17409  -0.85533
  36   30731.9    325.4   0.198979077   2.13154  -1.26216  -0.04836   0.73222
  37   31151.8    321.0   0.057560559   0.60830  -0.44827  -0.24855  -0.58786
  38   31385.9    318.6   0.164967611   1.73037  -0.02229   0.76701  -1.06845
  39   31622.6    316.2   0.038275996   0.39848  -0.45660   0.03822   0.43421
  40   31982.7    312.7   0.022354221   0.23010  -0.25392  -0.32220   0.24862
  41   32067.9    311.8   0.015164177   0.15568   0.19218   0.14167   0.31412
  42   32386.7    308.8   0.059170139   0.60147   0.34518  -0.34944  -0.60017
  43   32424.6    308.4   0.033998854   0.34520  -0.14815  -0.45199  -0.34490
  44   32613.9    306.6   0.224256187   2.26369  -0.78069  -0.82938   0.98303
  45   32759.6    305.3   0.117497487   1.18077  -0.71459  -0.23406   0.78444
  46   32895.3    304.0   0.148324949   1.48442  -0.66503  -0.90108   0.47980
  47   33192.0    301.3   0.040419850   0.40090  -0.10605   0.43076   0.45178
  48   33447.8    299.0   0.021563847   0.21224  -0.03536  -0.17769  -0.42358
  49   33681.8    296.9   0.024447081   0.23895  -0.00174  -0.47201  -0.12710
  50   33832.9    295.6   0.001255564   0.01222  -0.09434   0.04275   0.03860
  51   34307.0    291.5   0.100467682   0.96409  -0.58924   0.31933   0.71758
  52   34369.9    291.0   0.049595976   0.47505  -0.49420  -0.19503   0.43907
  53   34571.9    289.3   0.047279945   0.45023   0.11782  -0.09167  -0.65417
  54   35259.8    283.6   0.038940057   0.36357  -0.23812  -0.41032   0.37217
  55   35338.6    283.0   0.167281309   1.55838  -0.54452   0.46902   1.02073
  56   35550.4    281.3   0.096395855   0.89267  -0.11643  -0.12003  -0.92989
  57   35635.8    280.6   0.182594944   1.68686  -0.52123  -0.22147   1.16881
  58   35772.7    279.5   0.045589440   0.41955  -0.48770  -0.42442   0.03955
  59   36040.5    277.5   0.021818915   0.19930   0.41432  -0.15401  -0.06264
  60   36124.1    276.8   0.091419112   0.83314  -0.25957  -0.57592  -0.65884
  61   36374.3    274.9   0.011880566   0.10753  -0.15142  -0.26594   0.11779
  62   36492.1    274.0   0.035978400   0.32458  -0.41849  -0.04860  -0.38352
  63   36833.9    271.5   0.084687689   0.75692   0.29081   0.19685   0.79599
  64   36886.8    271.1   0.029131072   0.25999   0.25880   0.29411  -0.32636
  65   37027.5    270.1   0.082331702   0.73201   0.18253  -0.17428   0.81751
  66   37101.8    269.5   0.000048118   0.00043  -0.02015   0.00357  -0.00286
  67   37203.3    268.8   0.012814298   0.11339   0.05396  -0.28530  -0.17055
  68   37449.3    267.0   0.029521837   0.25952  -0.44377  -0.21419   0.12929
  69   37723.6    265.1   0.044750868   0.39054   0.16132  -0.43070  -0.42310
  70   37826.4    264.4   0.013210133   0.11497   0.16702  -0.28921  -0.05857
  71   37872.6    264.0   0.019779578   0.17194   0.10518   0.37964  -0.12941
  72   38210.9    261.7   0.086135659   0.74212  -0.18930   0.00043   0.84041
  73   38301.7    261.1   0.006355529   0.05463   0.16355  -0.09044  -0.14035
  74   38331.2    260.9   0.012871121   0.11055  -0.20852   0.06257   0.25130
  75   38432.7    260.2   0.037861635   0.32432   0.22964   0.40711  -0.32534
  76   38574.8    259.2   0.036943958   0.31529   0.32098   0.35887   0.28893
  77   38636.2    258.8   0.034812160   0.29663  -0.10116   0.49032   0.21443
  78   38817.2    257.6   0.037317451   0.31649  -0.17797  -0.06272   0.52999
  79   38960.1    256.7   0.023272397   0.19665  -0.30056  -0.29537   0.13809
  80   39025.0    256.2   0.074025887   0.62448  -0.17208  -0.06508  -0.76852
  81   39213.8    255.0   0.087474421   0.73438  -0.18750   0.47065   0.69116
  82   39381.1    253.9   0.017860906   0.14931   0.38326  -0.04463  -0.02069
  83   39546.5    252.9   0.168373401   1.40165   0.33210   0.93669   0.64341
  84   39587.3    252.6   0.079262412   0.65915  -0.13508  -0.80041  -0.01611
  85   39721.2    251.8   0.017427504   0.14444  -0.09195   0.31780   0.18705
  86   39875.8    250.8   0.225540725   1.86205   0.16578  -0.04352   1.35376
  87   39891.4    250.7   0.074564621   0.61536   0.58233   0.18075  -0.49354
  88   40044.4    249.7   0.070789982   0.58198  -0.44629  -0.53325   0.31376
  89   40203.1    248.7   0.073606024   0.60274   0.61608   0.45661   0.12120
  90   40279.2    248.3   0.126153951   1.03109  -0.07247   0.18337  -0.99610

FINAL SINGLE POINT ENERGY     -6283.886628930247

DIPOLE MOMENT
-------------
                                X             Y             Z
Electronic contribution:     -5.46565       6.28404      -6.48088
Nuclear contribution   :      4.73076      -4.39202       0.13470
                        -----------------------------------------
Total Dipole Moment    :     -0.73490       1.89203      -6.34618
                        -----------------------------------------
Magnitude (a.u.)       :      6.66287
Magnitude (Debye)      :     16.93567

Rotational constants in cm-1:     0.000843     0.000607     0.000380
Rotational constants in MHz :    25.277360    18.205919    11.399217

                             ****ORCA TERMINATED NORMALLY****
TOTAL RUN TIME: 0 days 0 hours 15 minutes 7 seconds 729 msec
