                         Program Version 4.2.0 -  RELEASE  -
|  1> # ORCA input file
|  2> # SCF done       -200.119567796280          0.000692754735
|  3> ! CAM-B3LYP def2-SVP def2/J RIJCOSX Grid4 TightSCF
|  4> %maxcore 5000
|  5> %tddft
|  6>     Mode sTDDFT
|  7>     Ethresh 5.0
|  8>     maxcore 5000
|  9> end
| 10>
| 11> %pal
| 12>   nprocs 6
| 13>   end
| 14> * xyz 0 1
| 15>    C       -4.42250       -18.17947        -2.33778
| 16>    C       -4.99086       -17.29962        -3.23072
| 17>    C       -4.89362       -17.42232        -4.63081
| 18>    N       -4.85256       -17.46426        -5.77825
| 19>    C       -5.74477       -16.15735        -2.89702
| 20>    N       -6.36839       -15.20872        -2.71628
| 21>    C       -3.63827       -19.35769        -2.70413
| 22>    C       -3.22688       -20.01527        -1.51939
| 23>    C       -2.46520       -21.15714        -1.53132
| 24>    C       -2.08778       -21.67737        -2.77449
| 25>    C       -2.50321       -21.01449        -3.95219
| 26>    C       -3.27594       -19.85895        -3.93946
| 27>    S       -1.92492       -21.82225        -5.37854
| 28>    C       -1.14284       -23.02269        -4.38496
| 29>    C       -1.30539       -22.83138        -3.05462
| 30>   Br       -0.18378       -24.41508        -5.19834
| 31>    C       -3.73879       -19.27271        -0.34779
| 32>    O       -3.56937       -19.56717         0.81984
| 33>    C       -4.47781       -18.12135        -0.89957
| 34>    C       -5.09436       -17.14847        -0.13972
| 35>    C       -5.11332       -17.10254         1.25074
| 36>    C       -5.71042       -16.07165         1.95004
| 37>    C       -5.74966       -15.90506         3.35363
| 38>    C       -6.37108       -14.76220         3.76409
| 39>    C       -6.86099       -13.97285         2.70172
| 40>    S       -6.51730       -14.73477         1.16343
| 41>    C       -7.50195       -12.74953         2.76462
| 42>    C       -7.78848       -11.96356         3.90545
| 43>    C       -8.38341       -10.77277         3.62667
| 44>    C       -8.61217       -10.55423         2.24351
| 45>    S       -8.03606       -11.93947         1.31360
| 46>    C       -9.16351        -9.45289         1.65999
| 47>    N       -9.37631        -9.34713         0.32243
| 48>    C       -9.74199        -8.21543        -0.34525
| 49>    S      -10.77505        -8.38606        -1.73673
| 50>    C      -10.85594        -6.65940        -1.87564
| 51>    N      -11.60312        -6.12134        -2.93104
| 52>    O      -11.66160        -4.90977        -3.02196
| 53>    O      -12.14573        -6.91754        -3.67777
| 54>    C      -10.13688        -6.00687        -0.91266
| 55>    C       -9.46200        -6.88007        -0.03494
| 56>    C       -8.52186        -6.35051         0.92416
| 57>    C       -7.46156        -6.98909         1.44718
| 58>    C       -6.51049        -6.39484         2.34885
| 59>    C       -6.10323        -5.08549         2.37663
| 60>    C       -5.09788        -4.54998         3.33386
| 61>    C       -4.51467        -5.34308         4.34290
| 62>    C       -4.76956        -6.66218         4.46765
| 63>    S       -5.83100        -7.56464         3.45221
| 64>    N       -4.80317        -3.29062         3.10875
| 65>    C       -5.54038        -2.91516         2.02277
| 66>    C       -6.35910        -3.96719         1.55698
| 67>    S       -7.25407        -3.48846         0.16541
| 68>    C       -6.51197        -1.89487         0.19944
| 69>    C       -5.63454        -1.75111         1.25314
| 70>    C       -6.86714        -0.97607        -0.83128
| 71>    C       -6.26703         0.21487        -1.02954
| 72>    C       -6.56692         1.16487        -2.07277
| 73>    C       -5.68312         2.24008        -2.26408
| 74>    C       -5.92084         3.15229        -3.26094
| 75>    C       -7.05273         3.03052        -4.08512
| 76>    C       -7.94173         1.98156        -3.89867
| 77>    C       -7.69210         1.06017        -2.90191
| 78>    C       -7.04956         4.12373        -5.03491
| 79>    C       -5.91572         4.91777        -4.79804
| 80>    C       -5.10236         4.36000        -3.65342
| 81>    C       -4.99116         5.36691        -2.49425
| 82>    C       -6.34987         5.82128        -1.97494
| 83>    C       -3.69209         3.95058        -4.11859
| 84>    C       -3.71556         2.94862        -5.26667
| 85>    C       -5.67094         6.03057        -5.56593
| 86>    C       -6.55447         6.37591        -6.59711
| 87>    C       -7.67959         5.57571        -6.81871
| 88>    C       -7.93446         4.45713        -6.04948
| 89>    C       -6.25961         7.55910        -7.39342
| 90>    C       -6.91726         7.98559        -8.46595
| 91>    H       -2.16726       -21.63437        -0.61086
| 92>    H       -3.56512       -19.39207        -4.86589
| 93>    H       -0.89120       -23.47535        -2.30044
| 94>    H       -5.59754       -16.34038        -0.65670
| 95>    H       -4.63022       -17.88934         1.81148
| 96>    H       -5.30997       -16.63153         4.01349
| 97>    H       -6.48769       -14.47179         4.79280
| 98>    H       -7.53535       -12.29620         4.89555
| 99>    H       -8.66136       -10.03940         4.36179
|100>    H       -9.45146        -8.60479         2.26242
|101>    H       -9.32968       -10.20643        -0.21473
|102>    H      -10.06258        -4.93523        -0.86806
|103>    H       -8.68370        -5.31255         1.17263
|104>    H       -7.28651        -8.03598         1.23965
|105>    H       -3.82080        -4.86252         5.01581
|106>    H       -4.31178        -7.27638         5.22519
|107>    H       -5.08888        -0.85023         1.45973
|108>    H       -7.65265        -1.31014        -1.49485
|109>    H       -5.45407         0.49669        -0.37301
|110>    H       -4.81409         2.33043        -1.62728
|111>    H       -8.81723         1.88449        -4.52325
|112>    H       -8.38819         0.24930        -2.75328
|113>    H       -4.42534         6.23552        -2.83805
|114>    H       -4.42848         4.90348        -1.68081
|115>    H       -6.92051         6.30391        -2.76531
|116>    H       -6.22190         6.53004        -1.15983
|117>    H       -6.92358         4.97314        -1.60764
|118>    H       -3.15564         3.51819        -3.27105
|119>    H       -3.15359         4.84762        -4.43194
|120>    H       -4.23247         2.03805        -4.97170
|121>    H       -2.70024         2.68926        -5.55811
|122>    H       -4.22594         3.36723        -6.13130
|123>    H       -4.79900         6.64430        -5.38579
|124>    H       -8.36973         5.83812        -7.60539
|125>    H       -8.81015         3.85344        -6.23694
|126>    H       -5.39903         8.12362        -7.05335
|127>    H       -7.77149         7.47133        -8.87150
|128>    H       -6.61273         8.87520        -8.99021
|129> *
|130>
|131>                          ****END OF INPUT****

CARTESIAN COORDINATES (ANGSTROEM)
---------------------------------
  C     -4.422500  -18.179470   -2.337780
  C     -4.990860  -17.299620   -3.230720
  C     -4.893620  -17.422320   -4.630810
  N     -4.852560  -17.464260   -5.778250
  C     -5.744770  -16.157350   -2.897020
  N     -6.368390  -15.208720   -2.716280
  C     -3.638270  -19.357690   -2.704130
  C     -3.226880  -20.015270   -1.519390
  C     -2.465200  -21.157140   -1.531320
  C     -2.087780  -21.677370   -2.774490
  C     -2.503210  -21.014490   -3.952190
  C     -3.275940  -19.858950   -3.939460
  S     -1.924920  -21.822250   -5.378540
  C     -1.142840  -23.022690   -4.384960
  C     -1.305390  -22.831380   -3.054620
  Br    -0.183780  -24.415080   -5.198340
  C     -3.738790  -19.272710   -0.347790
  O     -3.569370  -19.567170    0.819840
  C     -4.477810  -18.121350   -0.899570
  C     -5.094360  -17.148470   -0.139720
  C     -5.113320  -17.102540    1.250740
  C     -5.710420  -16.071650    1.950040
  C     -5.749660  -15.905060    3.353630
  C     -6.371080  -14.762200    3.764090
  C     -6.860990  -13.972850    2.701720
  S     -6.517300  -14.734770    1.163430
  C     -7.501950  -12.749530    2.764620
  C     -7.788480  -11.963560    3.905450
  C     -8.383410  -10.772770    3.626670
  C     -8.612170  -10.554230    2.243510
  S     -8.036060  -11.939470    1.313600
  C     -9.163510   -9.452890    1.659990
  N     -9.376310   -9.347130    0.322430
  C     -9.741990   -8.215430   -0.345250
  S    -10.775050   -8.386060   -1.736730
  C    -10.855940   -6.659400   -1.875640
  N    -11.603120   -6.121340   -2.931040
  O    -11.661600   -4.909770   -3.021960
  O    -12.145730   -6.917540   -3.677770
  C    -10.136880   -6.006870   -0.912660
  C     -9.462000   -6.880070   -0.034940
  C     -8.521860   -6.350510    0.924160
  C     -7.461560   -6.989090    1.447180
  C     -6.510490   -6.394840    2.348850
  C     -6.103230   -5.085490    2.376630
  C     -5.097880   -4.549980    3.333860
  C     -4.514670   -5.343080    4.342900
  C     -4.769560   -6.662180    4.467650
  S     -5.831000   -7.564640    3.452210
  N     -4.803170   -3.290620    3.108750
  C     -5.540380   -2.915160    2.022770
  C     -6.359100   -3.967190    1.556980
  S     -7.254070   -3.488460    0.165410
  C     -6.511970   -1.894870    0.199440
  C     -5.634540   -1.751110    1.253140
  C     -6.867140   -0.976070   -0.831280
  C     -6.267030    0.214870   -1.029540
  C     -6.566920    1.164870   -2.072770
  C     -5.683120    2.240080   -2.264080
  C     -5.920840    3.152290   -3.260940
  C     -7.052730    3.030520   -4.085120
  C     -7.941730    1.981560   -3.898670
  C     -7.692100    1.060170   -2.901910
  C     -7.049560    4.123730   -5.034910
  C     -5.915720    4.917770   -4.798040
  C     -5.102360    4.360000   -3.653420
  C     -4.991160    5.366910   -2.494250
  C     -6.349870    5.821280   -1.974940
  C     -3.692090    3.950580   -4.118590
  C     -3.715560    2.948620   -5.266670
  C     -5.670940    6.030570   -5.565930
  C     -6.554470    6.375910   -6.597110
  C     -7.679590    5.575710   -6.818710
  C     -7.934460    4.457130   -6.049480
  C     -6.259610    7.559100   -7.393420
  C     -6.917260    7.985590   -8.465950
  H     -2.167260  -21.634370   -0.610860
  H     -3.565120  -19.392070   -4.865890
  H     -0.891200  -23.475350   -2.300440
  H     -5.597540  -16.340380   -0.656700
  H     -4.630220  -17.889340    1.811480
  H     -5.309970  -16.631530    4.013490
  H     -6.487690  -14.471790    4.792800
  H     -7.535350  -12.296200    4.895550
  H     -8.661360  -10.039400    4.361790
  H     -9.451460   -8.604790    2.262420
  H     -9.329680  -10.206430   -0.214730
  H    -10.062580   -4.935230   -0.868060
  H     -8.683700   -5.312550    1.172630
  H     -7.286510   -8.035980    1.239650
  H     -3.820800   -4.862520    5.015810
  H     -4.311780   -7.276380    5.225190
  H     -5.088880   -0.850230    1.459730
  H     -7.652650   -1.310140   -1.494850
  H     -5.454070    0.496690   -0.373010
  H     -4.814090    2.330430   -1.627280
  H     -8.817230    1.884490   -4.523250
  H     -8.388190    0.249300   -2.753280
  H     -4.425340    6.235520   -2.838050
  H     -4.428480    4.903480   -1.680810
  H     -6.920510    6.303910   -2.765310
  H     -6.221900    6.530040   -1.159830
  H     -6.923580    4.973140   -1.607640
  H     -3.155640    3.518190   -3.271050
  H     -3.153590    4.847620   -4.431940
  H     -4.232470    2.038050   -4.971700
  H     -2.700240    2.689260   -5.558110
  H     -4.225940    3.367230   -6.131300
  H     -4.799000    6.644300   -5.385790
  H     -8.369730    5.838120   -7.605390
  H     -8.810150    3.853440   -6.236940
  H     -5.399030    8.123620   -7.053350
  H     -7.771490    7.471330   -8.871500
  H     -6.612730    8.875200   -8.990210

 Total Charge           Charge          ....    0
 Multiplicity           Mult            ....    1
 Number of Electrons    NEL             ....  594
 Basis Dimension        Dim             .... 1296

ORBITAL ENERGIES
----------------

  NO   OCC          E(Eh)            E(eV)
   0   2.0000    -482.878331    -13139.7874
   1   2.0000     -88.995953     -2421.7030
   2   2.0000     -88.980923     -2421.2940
   3   2.0000     -88.975247     -2421.1396
   4   2.0000     -88.966320     -2420.8966
   5   2.0000     -88.961921     -2420.7769
   6   2.0000     -88.956367     -2420.6258
   7   2.0000     -62.556046     -1702.2366
   8   2.0000     -56.389986     -1534.4495
   9   2.0000     -56.387290     -1534.3762
  10   2.0000     -56.387252     -1534.3751
  11   2.0000     -19.244671      -523.6741
  12   2.0000     -19.244021      -523.6564
  13   2.0000     -19.202414      -522.5243
  14   2.0000     -14.656214      -398.8159
  15   2.0000     -14.505821      -394.7235
  16   2.0000     -14.404029      -391.9535
  17   2.0000     -14.400447      -391.8561
  18   2.0000     -14.382480      -391.3672
  19   2.0000     -10.383070      -282.5377
  20   2.0000     -10.362344      -281.9737
  21   2.0000     -10.353170      -281.7241
  22   2.0000     -10.352578      -281.7080
  23   2.0000     -10.349911      -281.6354
  24   2.0000     -10.344757      -281.4951
  25   2.0000     -10.340976      -281.3923
  26   2.0000     -10.332817      -281.1702
  27   2.0000     -10.330013      -281.0939
  28   2.0000     -10.326412      -280.9960
  29   2.0000     -10.325321      -280.9663
  30   2.0000     -10.324570      -280.9458
  31   2.0000     -10.320292      -280.8294
  32   2.0000     -10.318777      -280.7882
  33   2.0000     -10.318302      -280.7753
  34   2.0000     -10.315891      -280.7097
  35   2.0000     -10.314768      -280.6791
  36   2.0000     -10.311523      -280.5908
  37   2.0000     -10.310075      -280.5514
  38   2.0000     -10.309961      -280.5483
  39   2.0000     -10.309405      -280.5332
  40   2.0000     -10.308059      -280.4965
  41   2.0000     -10.306188      -280.4456
  42   2.0000     -10.304732      -280.4060
  43   2.0000     -10.302395      -280.3424
  44   2.0000     -10.300381      -280.2876
  45   2.0000     -10.298840      -280.2457
  46   2.0000     -10.296784      -280.1897
  47   2.0000     -10.296193      -280.1736
  48   2.0000     -10.295733      -280.1611
  49   2.0000     -10.293564      -280.1021
  50   2.0000     -10.292513      -280.0735
  51   2.0000     -10.289712      -279.9973
  52   2.0000     -10.289674      -279.9963
  53   2.0000     -10.288109      -279.9537
  54   2.0000     -10.282208      -279.7931
  55   2.0000     -10.279685      -279.7244
  56   2.0000     -10.278926      -279.7038
  57   2.0000     -10.276714      -279.6436
  58   2.0000     -10.276137      -279.6279
  59   2.0000     -10.273969      -279.5689
  60   2.0000     -10.273709      -279.5618
  61   2.0000     -10.271878      -279.5120
  62   2.0000     -10.269355      -279.4433
  63   2.0000     -10.266962      -279.3782
  64   2.0000     -10.266658      -279.3700
  65   2.0000     -10.265295      -279.3329
  66   2.0000     -10.265160      -279.3292
  67   2.0000     -10.265019      -279.3254
  68   2.0000     -10.265009      -279.3251
  69   2.0000     -10.264884      -279.3217
  70   2.0000     -10.263242      -279.2770
  71   2.0000     -10.262259      -279.2503
  72   2.0000     -10.261967      -279.2423
  73   2.0000     -10.261712      -279.2354
  74   2.0000     -10.260687      -279.2075
  75   2.0000     -10.258219      -279.1403
  76   2.0000     -10.257954      -279.1331
  77   2.0000     -10.256021      -279.0805
  78   2.0000     -10.241340      -278.6810
  79   2.0000     -10.240739      -278.6647
  80   2.0000      -8.785472      -239.0648
  81   2.0000      -8.091755      -220.1879
  82   2.0000      -8.076308      -219.7675
  83   2.0000      -8.071756      -219.6436
  84   2.0000      -8.062292      -219.3861
  85   2.0000      -8.058001      -219.2693
  86   2.0000      -8.050682      -219.0702
  87   2.0000      -6.621733      -180.1865
  88   2.0000      -6.607213      -179.7914
  89   2.0000      -6.607043      -179.7868
  90   2.0000      -6.061397      -164.9390
  91   2.0000      -6.056949      -164.8180
  92   2.0000      -6.053240      -164.7170
  93   2.0000      -6.045786      -164.5142
  94   2.0000      -6.041529      -164.3984
  95   2.0000      -6.041218      -164.3899
  96   2.0000      -6.038459      -164.3148
  97   2.0000      -6.037488      -164.2884
  98   2.0000      -6.032538      -164.1537
  99   2.0000      -6.031967      -164.1382
 100   2.0000      -6.027734      -164.0230
 101   2.0000      -6.027603      -164.0194
 102   2.0000      -6.023619      -163.9110
 103   2.0000      -6.023519      -163.9083
 104   2.0000      -6.020157      -163.8168
 105   2.0000      -6.019099      -163.7880
 106   2.0000      -6.016184      -163.7087
 107   2.0000      -6.012561      -163.6101
 108   2.0000      -2.737617       -74.4944
 109   2.0000      -2.733537       -74.3833
 110   2.0000      -2.733396       -74.3795
 111   2.0000      -2.721869       -74.0658
 112   2.0000      -2.721857       -74.0655
 113   2.0000      -1.325649       -36.0727
 114   2.0000      -1.144917       -31.1548
 115   2.0000      -1.115697       -30.3596
 116   2.0000      -1.110203       -30.2102
 117   2.0000      -1.049569       -28.5602
 118   2.0000      -1.022648       -27.8277
 119   2.0000      -1.013678       -27.5836
 120   2.0000      -1.011291       -27.5186
 121   2.0000      -1.001530       -27.2530
 122   2.0000      -0.993143       -27.0248
 123   2.0000      -0.981466       -26.7071
 124   2.0000      -0.981457       -26.7068
 125   2.0000      -0.979298       -26.6480
 126   2.0000      -0.976567       -26.5737
 127   2.0000      -0.962251       -26.1842
 128   2.0000      -0.939920       -25.5765
 129   2.0000      -0.932921       -25.3861
 130   2.0000      -0.931474       -25.3467
 131   2.0000      -0.919455       -25.0197
 132   2.0000      -0.914451       -24.8835
 133   2.0000      -0.906384       -24.6640
 134   2.0000      -0.897406       -24.4197
 135   2.0000      -0.896177       -24.3862
 136   2.0000      -0.885798       -24.1038
 137   2.0000      -0.882005       -24.0006
 138   2.0000      -0.874873       -23.8065
 139   2.0000      -0.871177       -23.7059
 140   2.0000      -0.868427       -23.6311
 141   2.0000      -0.865938       -23.5634
 142   2.0000      -0.858693       -23.3662
 143   2.0000      -0.848894       -23.0996
 144   2.0000      -0.842887       -22.9361
 145   2.0000      -0.838178       -22.8080
 146   2.0000      -0.836321       -22.7575
 147   2.0000      -0.831932       -22.6380
 148   2.0000      -0.827452       -22.5161
 149   2.0000      -0.824081       -22.4244
 150   2.0000      -0.818608       -22.2755
 151   2.0000      -0.808764       -22.0076
 152   2.0000      -0.805368       -21.9152
 153   2.0000      -0.802020       -21.8241
 154   2.0000      -0.786241       -21.3947
 155   2.0000      -0.776178       -21.1209
 156   2.0000      -0.768187       -20.9034
 157   2.0000      -0.755862       -20.5680
 158   2.0000      -0.748674       -20.3725
 159   2.0000      -0.747118       -20.3301
 160   2.0000      -0.736706       -20.0468
 161   2.0000      -0.729197       -19.8425
 162   2.0000      -0.715339       -19.4654
 163   2.0000      -0.710405       -19.3311
 164   2.0000      -0.702886       -19.1265
 165   2.0000      -0.698033       -18.9944
 166   2.0000      -0.692911       -18.8551
 167   2.0000      -0.685161       -18.6442
 168   2.0000      -0.683990       -18.6123
 169   2.0000      -0.679680       -18.4950
 170   2.0000      -0.677518       -18.4362
 171   2.0000      -0.668984       -18.2040
 172   2.0000      -0.661787       -18.0081
 173   2.0000      -0.659322       -17.9411
 174   2.0000      -0.656817       -17.8729
 175   2.0000      -0.650580       -17.7032
 176   2.0000      -0.646870       -17.6022
 177   2.0000      -0.645385       -17.5618
 178   2.0000      -0.643398       -17.5078
 179   2.0000      -0.638471       -17.3737
 180   2.0000      -0.637371       -17.3437
 181   2.0000      -0.634777       -17.2732
 182   2.0000      -0.627355       -17.0712
 183   2.0000      -0.623348       -16.9622
 184   2.0000      -0.612070       -16.6553
 185   2.0000      -0.611737       -16.6462
 186   2.0000      -0.604695       -16.4546
 187   2.0000      -0.602424       -16.3928
 188   2.0000      -0.599886       -16.3237
 189   2.0000      -0.597769       -16.2661
 190   2.0000      -0.589318       -16.0362
 191   2.0000      -0.588602       -16.0167
 192   2.0000      -0.586384       -15.9563
 193   2.0000      -0.583445       -15.8763
 194   2.0000      -0.576854       -15.6970
 195   2.0000      -0.574353       -15.6289
 196   2.0000      -0.567855       -15.4521
 197   2.0000      -0.564531       -15.3617
 198   2.0000      -0.555102       -15.1051
 199   2.0000      -0.552271       -15.0281
 200   2.0000      -0.549506       -14.9528
 201   2.0000      -0.545060       -14.8318
 202   2.0000      -0.537465       -14.6252
 203   2.0000      -0.535458       -14.5706
 204   2.0000      -0.534439       -14.5428
 205   2.0000      -0.534199       -14.5363
 206   2.0000      -0.532779       -14.4977
 207   2.0000      -0.527606       -14.3569
 208   2.0000      -0.527107       -14.3433
 209   2.0000      -0.525638       -14.3033
 210   2.0000      -0.521978       -14.2037
 211   2.0000      -0.519879       -14.1466
 212   2.0000      -0.518006       -14.0957
 213   2.0000      -0.516476       -14.0540
 214   2.0000      -0.515000       -14.0139
 215   2.0000      -0.513012       -13.9598
 216   2.0000      -0.512095       -13.9348
 217   2.0000      -0.509978       -13.8772
 218   2.0000      -0.509388       -13.8612
 219   2.0000      -0.507246       -13.8029
 220   2.0000      -0.500948       -13.6315
 221   2.0000      -0.498410       -13.5624
 222   2.0000      -0.498013       -13.5516
 223   2.0000      -0.494694       -13.4613
 224   2.0000      -0.494623       -13.4594
 225   2.0000      -0.487191       -13.2572
 226   2.0000      -0.486014       -13.2251
 227   2.0000      -0.482989       -13.1428
 228   2.0000      -0.480757       -13.0821
 229   2.0000      -0.480562       -13.0768
 230   2.0000      -0.480263       -13.0686
 231   2.0000      -0.479074       -13.0363
 232   2.0000      -0.473225       -12.8771
 233   2.0000      -0.469813       -12.7843
 234   2.0000      -0.469027       -12.7629
 235   2.0000      -0.466297       -12.6886
 236   2.0000      -0.465084       -12.6556
 237   2.0000      -0.461077       -12.5465
 238   2.0000      -0.460295       -12.5253
 239   2.0000      -0.457012       -12.4359
 240   2.0000      -0.452227       -12.3057
 241   2.0000      -0.449612       -12.2346
 242   2.0000      -0.448790       -12.2122
 243   2.0000      -0.447222       -12.1695
 244   2.0000      -0.445070       -12.1110
 245   2.0000      -0.444875       -12.1057
 246   2.0000      -0.438676       -11.9370
 247   2.0000      -0.438198       -11.9240
 248   2.0000      -0.437043       -11.8925
 249   2.0000      -0.432312       -11.7638
 250   2.0000      -0.431559       -11.7433
 251   2.0000      -0.429600       -11.6900
 252   2.0000      -0.428848       -11.6695
 253   2.0000      -0.428759       -11.6671
 254   2.0000      -0.423859       -11.5338
 255   2.0000      -0.421757       -11.4766
 256   2.0000      -0.419513       -11.4155
 257   2.0000      -0.418688       -11.3931
 258   2.0000      -0.417444       -11.3592
 259   2.0000      -0.414407       -11.2766
 260   2.0000      -0.414354       -11.2751
 261   2.0000      -0.411350       -11.1934
 262   2.0000      -0.410962       -11.1829
 263   2.0000      -0.407279       -11.0826
 264   2.0000      -0.401735       -10.9318
 265   2.0000      -0.398415       -10.8414
 266   2.0000      -0.396376       -10.7859
 267   2.0000      -0.395156       -10.7527
 268   2.0000      -0.391916       -10.6646
 269   2.0000      -0.388002       -10.5581
 270   2.0000      -0.383350       -10.4315
 271   2.0000      -0.381464       -10.3802
 272   2.0000      -0.379867       -10.3367
 273   2.0000      -0.378964       -10.3121
 274   2.0000      -0.376711       -10.2508
 275   2.0000      -0.372858       -10.1460
 276   2.0000      -0.371599       -10.1117
 277   2.0000      -0.367900       -10.0111
 278   2.0000      -0.362521        -9.8647
 279   2.0000      -0.358716        -9.7612
 280   2.0000      -0.351938        -9.5767
 281   2.0000      -0.343311        -9.3420
 282   2.0000      -0.339312        -9.2331
 283   2.0000      -0.334577        -9.1043
 284   2.0000      -0.331615        -9.0237
 285   2.0000      -0.322690        -8.7808
 286   2.0000      -0.320798        -8.7294
 287   2.0000      -0.314436        -8.5562
 288   2.0000      -0.309795        -8.4300
 289   2.0000      -0.307860        -8.3773
 290   2.0000      -0.305147        -8.3035
 291   2.0000      -0.291742        -7.9387
 292   2.0000      -0.282774        -7.6947
 293   2.0000      -0.275637        -7.5005
 294   2.0000      -0.267484        -7.2786
 295   2.0000      -0.236910        -6.4466
 296   2.0000      -0.231262        -6.2930
 297   0.0000      -0.109580        -2.9818
 298   0.0000      -0.072840        -1.9821
 299   0.0000      -0.064398        -1.7524
 300   0.0000      -0.054648        -1.4870
 301   0.0000      -0.035960        -0.9785

MULLIKEN ATOMIC CHARGES
-----------------------
   0 C :    0.330492
   1 C :   -0.363405
   2 C :   -0.187721
   3 N :    0.135478
   4 C :   -0.186205
   5 N :    0.125787
   6 C :    0.011627
   7 C :   -0.009746
   8 C :   -0.076294
   9 C :    0.117501
  10 C :   -0.092353
  11 C :   -0.023988
  12 S :    0.180627
  13 C :   -0.123635
  14 C :    0.038121
  15 Br:    0.015698
  16 C :    0.137957
  17 O :   -0.165586
  18 C :   -0.086034
  19 C :   -0.043630
  20 C :   -0.024436
  21 C :    0.005509
  22 C :    0.027877
  23 C :    0.040425
  24 C :   -0.050367
  25 S :    0.100172
  26 C :   -0.029943
  27 C :    0.013486
  28 C :    0.063050
  29 C :   -0.066676
  30 S :    0.085001
  31 C :    0.036603
  32 N :   -0.042146
  33 C :   -0.123946
  34 S :    0.193501
  35 C :   -0.006200
  36 N :    0.278470
  37 O :   -0.245852
  38 O :   -0.259021
  39 C :    0.006015
  40 C :    0.096838
  41 C :   -0.027342
  42 C :    0.000409
  43 C :   -0.161390
  44 C :    0.077676
  45 C :   -0.027453
  46 C :    0.063298
  47 C :   -0.093089
  48 S :    0.127945
  49 N :   -0.065356
  50 C :    0.093733
  51 C :   -0.138978
  52 S :    0.093534
  53 C :   -0.055089
  54 C :   -0.071817
  55 C :    0.066448
  56 C :   -0.011368
  57 C :    0.129476
  58 C :   -0.113167
  59 C :    0.017954
  60 C :    0.110567
  61 C :   -0.043716
  62 C :   -0.016975
  63 C :    0.110349
  64 C :    0.017188
  65 C :   -0.141484
  66 C :    0.069766
  67 C :    0.023344
  68 C :    0.069162
  69 C :    0.026285
  70 C :   -0.109701
  71 C :    0.113854
  72 C :   -0.014900
  73 C :   -0.047833
  74 C :   -0.003510
  75 C :   -0.015859
  76 H :   -0.016162
  77 H :   -0.009372
  78 H :   -0.006854
  79 H :    0.014559
  80 H :    0.016455
  81 H :   -0.000054
  82 H :   -0.005794
  83 H :   -0.005654
  84 H :   -0.000868
  85 H :    0.046187
  86 H :    0.154308
  87 H :    0.016779
  88 H :    0.019228
  89 H :    0.032881
  90 H :   -0.000540
  91 H :    0.050386
  92 H :   -0.022688
  93 H :   -0.020877
  94 H :   -0.020252
  95 H :   -0.043301
  96 H :   -0.036006
  97 H :   -0.028270
  98 H :   -0.004077
  99 H :   -0.004696
 100 H :    0.022684
 101 H :    0.008519
 102 H :    0.020896
 103 H :   -0.003610
 104 H :   -0.004056
 105 H :    0.021487
 106 H :    0.007070
 107 H :    0.022640
 108 H :   -0.044213
 109 H :   -0.035622
 110 H :   -0.038216
 111 H :   -0.019385
 112 H :    0.011916
 113 H :    0.019557
Sum of atomic charges:   -0.0000000

LOEWDIN ATOMIC CHARGES
----------------------
   0 C :    0.073913
   1 C :   -0.156409
   2 C :   -0.019005
   3 N :   -0.067551
   4 C :   -0.019488
   5 N :   -0.070439
   6 C :   -0.018593
   7 C :   -0.048942
   8 C :    0.017637
   9 C :   -0.035658
  10 C :   -0.145625
  11 C :   -0.012930
  12 S :    0.428189
  13 C :   -0.274359
  14 C :   -0.070941
  15 Br:    0.130628
  16 C :    0.082106
  17 O :   -0.158416
  18 C :   -0.107962
  19 C :    0.049527
  20 C :   -0.074507
  21 C :   -0.102331
  22 C :   -0.042469
  23 C :   -0.007775
  24 C :   -0.198529
  25 S :    0.406963
  26 C :   -0.144013
  27 C :   -0.045281
  28 C :   -0.007357
  29 C :   -0.197577
  30 S :    0.372675
  31 C :    0.025403
  32 N :    0.037266
  33 C :   -0.109109
  34 S :    0.466333
  35 C :   -0.205847
  36 N :    0.274009
  37 O :   -0.211260
  38 O :   -0.225029
  39 C :    0.007693
  40 C :   -0.098781
  41 C :   -0.009029
  42 C :   -0.056217
  43 C :   -0.137985
  44 C :   -0.068045
  45 C :    0.006794
  46 C :   -0.033107
  47 C :   -0.179487
  48 S :    0.448764
  49 N :   -0.119383
  50 C :   -0.022886
  51 C :   -0.236035
  52 S :    0.413343
  53 C :   -0.145695
  54 C :   -0.060056
  55 C :   -0.049282
  56 C :   -0.003823
  57 C :   -0.026896
  58 C :   -0.020690
  59 C :    0.002355
  60 C :   -0.015433
  61 C :   -0.017124
  62 C :   -0.013922
  63 C :   -0.019863
  64 C :    0.002445
  65 C :   -0.035427
  66 C :   -0.011922
  67 C :   -0.058236
  68 C :   -0.011504
  69 C :   -0.057566
  70 C :   -0.022872
  71 C :   -0.024879
  72 C :   -0.013752
  73 C :   -0.017375
  74 C :   -0.020325
  75 C :   -0.046107
  76 H :    0.038720
  77 H :    0.040160
  78 H :    0.037488
  79 H :    0.030659
  80 H :    0.038684
  81 H :    0.038922
  82 H :    0.034945
  83 H :    0.035555
  84 H :    0.038214
  85 H :    0.044619
  86 H :    0.090098
  87 H :    0.046148
  88 H :    0.028646
  89 H :    0.029964
  90 H :    0.047228
  91 H :    0.033313
  92 H :    0.032703
  93 H :    0.024416
  94 H :    0.027769
  95 H :    0.023028
  96 H :    0.027157
  97 H :    0.025462
  98 H :    0.019345
  99 H :    0.018940
 100 H :    0.026029
 101 H :    0.023366
 102 H :    0.025380
 103 H :    0.019137
 104 H :    0.019290
 105 H :    0.025625
 106 H :    0.023334
 107 H :    0.026044
 108 H :    0.022592
 109 H :    0.025112
 110 H :    0.026054
 111 H :    0.026860
 112 H :    0.019138
 113 H :    0.024922

  Mayer bond orders larger than 0.100000
B(  0-C ,  1-C ) :   1.5820 B(  0-C ,  6-C ) :   0.9896 B(  0-C , 18-C ) :   1.1136
B(  1-C ,  2-C ) :   1.1475 B(  1-C ,  4-C ) :   1.1548 B(  2-C ,  3-N ) :   2.9613
B(  4-C ,  5-N ) :   2.9525 B(  6-C ,  7-C ) :   1.2791 B(  6-C , 11-C ) :   1.4183
B(  7-C ,  8-C ) :   1.4300 B(  7-C , 16-C ) :   0.9345 B(  8-C ,  9-C ) :   1.2385
B(  8-C , 76-H ) :   1.0167 B(  9-C , 10-C ) :   1.3157 B(  9-C , 14-C ) :   1.1610
B( 10-C , 11-C ) :   1.3211 B( 10-C , 12-S ) :   1.0838 B( 11-C , 77-H ) :   0.9792
B( 12-S , 13-C ) :   1.0857 B( 13-C , 14-C ) :   1.6200 B( 13-C , 15-Br) :   1.0137
B( 14-C , 78-H ) :   1.0002 B( 16-C , 17-O ) :   2.1880 B( 16-C , 18-C ) :   0.9648
B( 18-C , 19-C ) :   1.4848 B( 19-C , 20-C ) :   1.2563 B( 19-C , 79-H ) :   0.9408
B( 20-C , 21-C ) :   1.4199 B( 20-C , 80-H ) :   0.9796 B( 21-C , 22-C ) :   1.1759
B( 21-C , 25-S ) :   1.0875 B( 22-C , 23-C ) :   1.5470 B( 22-C , 81-H ) :   1.0019
B( 23-C , 24-C ) :   1.2099 B( 23-C , 82-H ) :   0.9958 B( 24-C , 25-S ) :   1.0404
B( 24-C , 26-C ) :   1.4817 B( 26-C , 27-C ) :   1.1912 B( 26-C , 30-S ) :   1.0770
B( 27-C , 28-C ) :   1.5994 B( 27-C , 83-H ) :   0.9948 B( 28-C , 29-C ) :   1.1526
B( 28-C , 84-H ) :   0.9983 B( 29-C , 30-S ) :   1.0099 B( 29-C , 31-C ) :   1.5932
B( 31-C , 32-N ) :   1.1742 B( 31-C , 85-H ) :   0.9571 B( 32-N , 33-C ) :   1.1553
B( 32-N , 86-H ) :   0.9000 B( 33-C , 34-S ) :   1.1484 B( 33-C , 40-C ) :   1.3953
B( 34-S , 35-C ) :   1.0887 B( 35-C , 36-N ) :   0.9644 B( 35-C , 39-C ) :   1.4930
B( 36-N , 37-O ) :   1.5393 B( 36-N , 38-O ) :   1.5138 B( 37-O , 38-O ) :   0.2630
B( 39-C , 40-C ) :   1.2210 B( 39-C , 87-H ) :   1.0045 B( 40-C , 41-C ) :   1.0857
B( 41-C , 42-C ) :   1.7554 B( 41-C , 88-H ) :   0.9487 B( 42-C , 43-C ) :   1.0826
B( 42-C , 89-H ) :   0.9338 B( 43-C , 44-C ) :   1.5066 B( 43-C , 48-S ) :   1.1063
B( 44-C , 45-C ) :   1.0149 B( 44-C , 51-C ) :   1.2417 B( 45-C , 46-C ) :   1.1944
B( 45-C , 49-N ) :   1.6673 B( 46-C , 47-C ) :   1.6263 B( 46-C , 90-H ) :   0.9762
B( 47-C , 48-S ) :   1.1074 B( 47-C , 91-H ) :   0.9423 B( 49-N , 50-C ) :   1.3049
B( 50-C , 51-C ) :   1.3718 B( 50-C , 54-C ) :   1.2182 B( 51-C , 52-S ) :   1.0342
B( 52-S , 53-C ) :   1.0936 B( 53-C , 54-C ) :   1.4846 B( 53-C , 55-C ) :   1.1006
B( 54-C , 92-H ) :   1.0151 B( 55-C , 56-C ) :   1.7082 B( 55-C , 93-H ) :   0.9559
B( 56-C , 57-C ) :   1.0716 B( 56-C , 94-H ) :   0.9845 B( 57-C , 58-C ) :   1.2810
B( 57-C , 62-C ) :   1.3429 B( 58-C , 59-C ) :   1.3790 B( 58-C , 95-H ) :   1.0145
B( 59-C , 60-C ) :   1.3685 B( 59-C , 65-C ) :   0.9164 B( 60-C , 61-C ) :   1.3321
B( 60-C , 63-C ) :   0.9956 B( 61-C , 62-C ) :   1.3989 B( 61-C , 96-H ) :   0.9901
B( 62-C , 97-H ) :   0.9849 B( 63-C , 64-C ) :   1.3734 B( 63-C , 73-C ) :   1.3353
B( 64-C , 65-C ) :   0.9167 B( 64-C , 70-C ) :   1.3746 B( 65-C , 66-C ) :   1.0391
B( 65-C , 68-C ) :   1.0377 B( 66-C , 67-C ) :   1.1015 B( 66-C , 98-H ) :   0.9386
B( 66-C , 99-H ) :   0.9387 B( 67-C ,100-H ) :   0.9645 B( 67-C ,101-H ) :   0.9639
B( 67-C ,102-H ) :   0.9644 B( 68-C , 69-C ) :   1.1018 B( 68-C ,103-H ) :   0.9390
B( 68-C ,104-H ) :   0.9387 B( 69-C ,105-H ) :   0.9644 B( 69-C ,106-H ) :   0.9634
B( 69-C ,107-H ) :   0.9645 B( 70-C , 71-C ) :   1.3032 B( 70-C ,108-H ) :   1.0113
B( 71-C , 72-C ) :   1.3545 B( 71-C , 74-C ) :   1.0610 B( 72-C , 73-C ) :   1.3964
B( 72-C ,109-H ) :   0.9862 B( 73-C ,110-H ) :   0.9907 B( 74-C , 75-C ) :   1.9496
B( 74-C ,111-H ) :   0.9691 B( 75-C ,112-H ) :   0.9491 B( 75-C ,113-H ) :   0.9483

-----------------------------------------------------------------------------
         ABSORPTION SPECTRUM VIA TRANSITION ELECTRIC DIPOLE MOMENTS
-----------------------------------------------------------------------------
State   Energy  Wavelength   fosc         T2         TX        TY        TZ
        (cm-1)    (nm)                  (au**2)     (au)      (au)      (au)
-----------------------------------------------------------------------------
   0   12490.2    800.6   1.446400774  38.12380  -2.35601   5.50663   1.49999
   1   17390.1    575.0   0.115820477   2.19259  -0.97974  -0.67916   0.87832
   2   20574.7    486.0   0.318081908   5.08956   0.64465   1.70407  -1.33046
   3   21602.0    462.9   0.090967201   1.38633   0.65350   0.73459   0.64780
   4   22717.4    440.2   0.150876060   2.18644  -0.24815  -1.34589   0.55985
   5   23286.5    429.4   0.100881883   1.42621   0.53780  -0.89755   0.57566
   6   24048.3    415.8   0.031959355   0.43751  -0.13294  -0.52871   0.37457
   7   24360.4    410.5   0.428333239   5.78858  -0.68363   1.38328  -1.84602
   8   25233.1    396.3   0.027787718   0.36254   0.32867  -0.28523   0.41612
   9   25720.6    388.8   0.197540906   2.52843  -0.91449   0.85739   0.97827
  10   26068.5    383.6   0.203329000   2.56779   0.27515  -1.28779   0.91307
  11   27090.8    369.1   0.003636994   0.04420  -0.04874   0.01892  -0.20363
  12   27201.9    367.6   0.131540801   1.59198  -0.23878   0.20127  -1.22248
  13   28340.3    352.9   1.113368706  12.93331   0.34183  -2.59653   2.46465
  14   28622.2    349.4   0.479219141   5.51197   0.27243  -1.88383   1.37438
  15   28852.3    346.6   0.011758167   0.13416   0.00477   0.36300  -0.04873
  16   30930.7    323.3   0.163043955   1.73536  -0.58448   0.62520  -1.00144
  17   31152.2    321.0   0.201873456   2.13337  -1.07672  -0.29149  -0.94291
  18   31605.7    316.4   0.028455494   0.29640   0.18352  -0.04963   0.51015
  19   31763.9    314.8   0.192759977   1.99783   0.01276  -0.29962  -1.38127
  20   31857.1    313.9   0.031736707   0.32797   0.38935  -0.37487   0.18935
  21   32226.9    310.3   0.001089825   0.01113   0.06186  -0.07544  -0.04019
  22   32350.3    309.1   0.209614077   2.13313   0.76048  -1.17202  -0.42564
  23   32473.9    307.9   0.326484459   3.30981   0.99160  -1.48518  -0.34751
  24   32524.0    307.5   0.000852998   0.00863   0.01608   0.06183   0.06747
  25   33301.7    300.3   0.164484197   1.62605   0.54740  -0.69488   0.91845
  26   33499.3    298.5   0.029461928   0.28953   0.10851   0.30418   0.43039
  27   34072.6    293.5   0.019476335   0.18818  -0.09785  -0.40086  -0.13387
  28   34339.2    291.2   0.046289966   0.44378  -0.16930   0.17323  -0.62057
  29   34735.1    287.9   0.008421977   0.07982   0.25336  -0.08906   0.08774
  30   35530.5    281.4   0.030841122   0.28576  -0.14275   0.50382   0.10748
  31   35672.3    280.3   0.337052874   3.11059  -1.01475   0.81333  -1.19137
  32   36132.7    276.8   0.017650739   0.16082  -0.04024   0.30886  -0.25259
  33   36348.0    275.1   0.092136446   0.83450  -0.36284   0.39232  -0.74090
  34   36405.3    274.7   0.059192495   0.53528  -0.22415   0.45179  -0.53002
  35   36571.3    273.4   0.017531083   0.15781  -0.17070   0.35472   0.05337
  36   36752.7    272.1   0.026784288   0.23992   0.10620   0.12448   0.46168
  37   36917.7    270.9   0.065954275   0.58814   0.31691   0.41627   0.56074
  38   37105.8    269.5   0.058223755   0.51658  -0.14491  -0.37462  -0.59601
  39   37314.9    268.0   0.030268800   0.26705   0.26898   0.16304  -0.41002
  40   38051.4    262.8   0.108483291   0.93857   0.18714  -0.72343   0.61660
  41   38220.0    261.6   0.135386344   1.16617  -0.85068   0.24609  -0.61802
  42   38288.7    261.2   0.019271641   0.16570  -0.06385   0.16222  -0.36784
  43   38361.9    260.7   0.003332435   0.02860  -0.00900  -0.08000   0.14872
  44   38403.3    260.4   0.006921402   0.05933   0.03913  -0.08287  -0.22569
  45   38511.0    259.7   0.020143833   0.17220   0.14119   0.38978  -0.01833
  46   38940.1    256.8   0.044486052   0.37610   0.60507   0.08776   0.04783
  47   39054.0    256.1   0.110427121   0.93086  -0.37352  -0.86439  -0.21016
  48   39525.2    253.0   0.108155415   0.90085   0.84259   0.36511   0.23996
  49   39738.4    251.6   0.004388640   0.03636   0.12874   0.06546  -0.12449
  50   40253.3    248.4   0.005897836   0.04824  -0.20282  -0.03064  -0.07849

FINAL SINGLE POINT ENERGY     -7805.363020013856

DIPOLE MOMENT
-------------
                                X             Y             Z
Electronic contribution:     54.95960    -360.90406     -22.86847
Nuclear contribution   :    -54.85225     361.28896      27.00932
                        -----------------------------------------
Total Dipole Moment    :      0.10734       0.38489       4.14085
                        -----------------------------------------
Magnitude (a.u.)       :      4.16009
Magnitude (Debye)      :     10.57410

Rotational constants in cm-1:     0.000900     0.000149     0.000138
Rotational constants in MHz :    26.982556     4.460241     4.147496

                             ****ORCA TERMINATED NORMALLY****
TOTAL RUN TIME: 0 days 0 hours 13 minutes 14 seconds 458 msec
