                         Program Version 4.2.0 -  RELEASE  -
|  1> # ORCA input file
|  2> # SCF done       -205.668896824041          0.000659172415
|  3> ! CAM-B3LYP def2-SVP def2/J RIJCOSX Grid4 TightSCF
|  4> %maxcore 5000
|  5> %tddft
|  6>     Mode sTDDFT
|  7>     Ethresh 5.0
|  8>     maxcore 5000
|  9> end
| 10>
| 11> %pal
| 12>   nprocs 6
| 13>   end
| 14> * xyz 0 1
| 15>    C        1.83329         4.78298        -4.38186
| 16>    C        3.11887         5.25556        -4.48943
| 17>    C        3.95028         5.54179        -3.38774
| 18>    N        4.67618         5.79784        -2.53522
| 19>    C        3.80447         5.52153        -5.69173
| 20>    N        4.43757         5.76155        -6.62048
| 21>    C        1.14609         4.50700        -3.12202
| 22>    C       -0.15035         4.01593        -3.41094
| 23>    C       -1.05039         3.66978        -2.43400
| 24>    C       -0.65251         3.81757        -1.10063
| 25>    C        0.64398         4.30721        -0.81977
| 26>    C        1.55507         4.65523        -1.81046
| 27>    S        0.92966         4.41477         0.89125
| 28>    C       -0.67594         3.80982         1.20048
| 29>    C       -1.39035         3.53947         0.08271
| 30>   Br       -1.25893         3.59356         2.97041
| 31>    C       -0.32882         3.96347        -4.87406
| 32>    O       -1.32472         3.57591        -5.46102
| 33>    C        0.91659         4.46651        -5.45558
| 34>    C        1.15828         4.64065        -6.79878
| 35>    C        0.33988         4.40445        -7.90745
| 36>    S       -1.29441         3.74272        -7.89551
| 37>    C       -1.38113         3.90014        -9.60902
| 38>    C       -0.19587         4.44097       -10.15328
| 39>    C        0.76472         4.71366        -9.20617
| 40>    S       -0.27182         4.65183       -11.88581
| 41>    C       -1.90101         4.03198       -11.87793
| 42>    C       -2.85369         3.85501       -12.86688
| 43>    C       -4.04628         3.34072       -12.36298
| 44>    S       -3.95646         3.06000       -10.63011
| 45>    C       -2.33793         3.66458       -10.59215
| 46>    C       -5.20969         3.12737       -13.11658
| 47>    C       -6.41223         2.61697       -12.69837
| 48>    C       -7.58584         2.54881       -13.49503
| 49>    C       -8.66862         2.03658       -12.85511
| 50>    C       -8.40963         1.63334       -11.52282
| 51>    S       -6.73489         1.96331       -11.10569
| 52>    C       -9.29373         1.05055       -10.64364
| 53>    C      -10.68934         0.86102       -10.84471
| 54>    C      -11.32406         0.27128        -9.80720
| 55>    C      -10.46635        -0.09049        -8.72027
| 56>    S       -8.81343         0.43145        -9.07984
| 57>    C      -10.82090        -0.74797        -7.59889
| 58>    C       -9.86893        -1.21252        -6.55094
| 59>    C       -9.38939        -0.08612        -5.61102
| 60>    C       -8.41714        -0.66393        -4.56294
| 61>    C       -7.53473        -1.74873        -5.10013
| 62>    C       -6.23358        -1.58450        -5.30800
| 63>    O       -8.08059        -2.96297        -5.43214
| 64>    C       -9.41971        -3.31294        -5.13781
| 65>    C      -10.50084        -2.33806        -5.72055
| 66>    C      -11.45507        -1.75750        -4.71500
| 67>    C      -11.50640        -0.47890        -4.37478
| 68>    C      -10.55733         0.57191        -4.86727
| 69>    C      -11.29598         1.63514        -5.68429
| 70>    C       -9.61411        -3.66176        -3.64948
| 71>    C      -10.61365        -4.80231        -3.45750
| 72>    C      -10.04406        -6.18776        -3.83779
| 73>    C       -9.61321        -6.91368        -2.62184
| 74>    C      -10.09115        -8.04825        -2.08514
| 75>    C      -11.17671        -8.95324        -2.45056
| 76>    C      -12.37894        -8.63735        -3.01727
| 77>    C      -13.40347        -9.58131        -3.25730
| 78>    N      -14.26835       -10.29962        -3.48562
| 79>    C      -12.82316        -7.33982        -3.35083
| 80>    N      -13.28703        -6.32394        -3.61554
| 81>    C      -10.84468       -10.25966        -1.89240
| 82>    C       -9.75817       -10.11608        -0.99253
| 83>    C       -9.29842        -8.71638        -1.00447
| 84>    O       -8.43405        -8.20926        -0.33157
| 85>    C       -9.24829       -11.17160        -0.27450
| 86>    C       -9.82842       -12.42977        -0.46159
| 87>    C      -10.90041       -12.56736        -1.37740
| 88>    C      -11.42104       -11.50029        -2.09728
| 89>    S      -11.45699       -14.21024        -1.46766
| 90>    C      -10.26405       -14.68364        -0.28697
| 91>    C       -9.48581       -13.66561         0.15185
| 92>   Br      -10.15729       -16.47637         0.25104
| 93>    H       -2.03066         3.29902        -2.68920
| 94>    H        2.53028         5.02470        -1.54182
| 95>    H       -2.39601         3.16057         0.08967
| 96>    H        2.12685         5.04352        -7.06842
| 97>    H        1.73462         5.12807        -9.41411
| 98>    H       -2.70937         4.08912       -13.90524
| 99>    H       -5.15246         3.43437       -14.15337
|100>    H       -7.58708         2.89669       -14.51291
|101>    H       -9.63657         1.91815       -13.30753
|102>    H      -11.17522         1.18269       -11.74817
|103>    H      -12.37708         0.05408        -9.77434
|104>    H      -11.86359        -1.00838        -7.47497
|105>    H       -8.98050        -1.58954        -7.07342
|106>    H       -8.86198         0.65868        -6.21391
|107>    H       -8.99689        -1.05449        -3.72561
|108>    H       -7.78450         0.13894        -4.18411
|109>    H       -5.75005        -0.64988        -5.10177
|110>    H       -5.63013        -2.38264        -5.69916
|111>    H       -9.50807        -4.25188        -5.70008
|112>    H      -11.10739        -2.94970        -6.40003
|113>    H      -12.17997        -2.44725        -4.30548
|114>    H      -12.27040        -0.13430        -3.69089
|115>    H      -10.14158         1.08621        -3.99020
|116>    H      -11.79043         1.19430        -6.54501
|117>    H      -10.59746         2.39090        -6.03611
|118>    H      -12.04869         2.12088        -5.06692
|119>    H       -8.64211        -3.94880        -3.24166
|120>    H       -9.96671        -2.79286        -3.09233
|121>    H      -11.50290        -4.61664        -4.05792
|122>    H      -10.93377        -4.82433        -2.41424
|123>    H       -9.16867        -6.04773        -4.47718
|124>    H      -10.78132        -6.76225        -4.39688
|125>    H       -8.76313        -6.48441        -2.10063
|126>    H       -8.42591       -11.03008         0.40896
|127>    H      -12.23115       -11.65737        -2.78978
|128>    H       -8.70162       -13.77986         0.87767
|129> *
|130>
|131>                          ****END OF INPUT****

CARTESIAN COORDINATES (ANGSTROEM)
---------------------------------
  C      1.833290    4.782980   -4.381860
  C      3.118870    5.255560   -4.489430
  C      3.950280    5.541790   -3.387740
  N      4.676180    5.797840   -2.535220
  C      3.804470    5.521530   -5.691730
  N      4.437570    5.761550   -6.620480
  C      1.146090    4.507000   -3.122020
  C     -0.150350    4.015930   -3.410940
  C     -1.050390    3.669780   -2.434000
  C     -0.652510    3.817570   -1.100630
  C      0.643980    4.307210   -0.819770
  C      1.555070    4.655230   -1.810460
  S      0.929660    4.414770    0.891250
  C     -0.675940    3.809820    1.200480
  C     -1.390350    3.539470    0.082710
  Br    -1.258930    3.593560    2.970410
  C     -0.328820    3.963470   -4.874060
  O     -1.324720    3.575910   -5.461020
  C      0.916590    4.466510   -5.455580
  C      1.158280    4.640650   -6.798780
  C      0.339880    4.404450   -7.907450
  S     -1.294410    3.742720   -7.895510
  C     -1.381130    3.900140   -9.609020
  C     -0.195870    4.440970  -10.153280
  C      0.764720    4.713660   -9.206170
  S     -0.271820    4.651830  -11.885810
  C     -1.901010    4.031980  -11.877930
  C     -2.853690    3.855010  -12.866880
  C     -4.046280    3.340720  -12.362980
  S     -3.956460    3.060000  -10.630110
  C     -2.337930    3.664580  -10.592150
  C     -5.209690    3.127370  -13.116580
  C     -6.412230    2.616970  -12.698370
  C     -7.585840    2.548810  -13.495030
  C     -8.668620    2.036580  -12.855110
  C     -8.409630    1.633340  -11.522820
  S     -6.734890    1.963310  -11.105690
  C     -9.293730    1.050550  -10.643640
  C    -10.689340    0.861020  -10.844710
  C    -11.324060    0.271280   -9.807200
  C    -10.466350   -0.090490   -8.720270
  S     -8.813430    0.431450   -9.079840
  C    -10.820900   -0.747970   -7.598890
  C     -9.868930   -1.212520   -6.550940
  C     -9.389390   -0.086120   -5.611020
  C     -8.417140   -0.663930   -4.562940
  C     -7.534730   -1.748730   -5.100130
  C     -6.233580   -1.584500   -5.308000
  O     -8.080590   -2.962970   -5.432140
  C     -9.419710   -3.312940   -5.137810
  C    -10.500840   -2.338060   -5.720550
  C    -11.455070   -1.757500   -4.715000
  C    -11.506400   -0.478900   -4.374780
  C    -10.557330    0.571910   -4.867270
  C    -11.295980    1.635140   -5.684290
  C     -9.614110   -3.661760   -3.649480
  C    -10.613650   -4.802310   -3.457500
  C    -10.044060   -6.187760   -3.837790
  C     -9.613210   -6.913680   -2.621840
  C    -10.091150   -8.048250   -2.085140
  C    -11.176710   -8.953240   -2.450560
  C    -12.378940   -8.637350   -3.017270
  C    -13.403470   -9.581310   -3.257300
  N    -14.268350  -10.299620   -3.485620
  C    -12.823160   -7.339820   -3.350830
  N    -13.287030   -6.323940   -3.615540
  C    -10.844680  -10.259660   -1.892400
  C     -9.758170  -10.116080   -0.992530
  C     -9.298420   -8.716380   -1.004470
  O     -8.434050   -8.209260   -0.331570
  C     -9.248290  -11.171600   -0.274500
  C     -9.828420  -12.429770   -0.461590
  C    -10.900410  -12.567360   -1.377400
  C    -11.421040  -11.500290   -2.097280
  S    -11.456990  -14.210240   -1.467660
  C    -10.264050  -14.683640   -0.286970
  C     -9.485810  -13.665610    0.151850
  Br   -10.157290  -16.476370    0.251040
  H     -2.030660    3.299020   -2.689200
  H      2.530280    5.024700   -1.541820
  H     -2.396010    3.160570    0.089670
  H      2.126850    5.043520   -7.068420
  H      1.734620    5.128070   -9.414110
  H     -2.709370    4.089120  -13.905240
  H     -5.152460    3.434370  -14.153370
  H     -7.587080    2.896690  -14.512910
  H     -9.636570    1.918150  -13.307530
  H    -11.175220    1.182690  -11.748170
  H    -12.377080    0.054080   -9.774340
  H    -11.863590   -1.008380   -7.474970
  H     -8.980500   -1.589540   -7.073420
  H     -8.861980    0.658680   -6.213910
  H     -8.996890   -1.054490   -3.725610
  H     -7.784500    0.138940   -4.184110
  H     -5.750050   -0.649880   -5.101770
  H     -5.630130   -2.382640   -5.699160
  H     -9.508070   -4.251880   -5.700080
  H    -11.107390   -2.949700   -6.400030
  H    -12.179970   -2.447250   -4.305480
  H    -12.270400   -0.134300   -3.690890
  H    -10.141580    1.086210   -3.990200
  H    -11.790430    1.194300   -6.545010
  H    -10.597460    2.390900   -6.036110
  H    -12.048690    2.120880   -5.066920
  H     -8.642110   -3.948800   -3.241660
  H     -9.966710   -2.792860   -3.092330
  H    -11.502900   -4.616640   -4.057920
  H    -10.933770   -4.824330   -2.414240
  H     -9.168670   -6.047730   -4.477180
  H    -10.781320   -6.762250   -4.396880
  H     -8.763130   -6.484410   -2.100630
  H     -8.425910  -11.030080    0.408960
  H    -12.231150  -11.657370   -2.789780
  H     -8.701620  -13.779860    0.877670

 Total Charge           Charge          ....    0
 Multiplicity           Mult            ....    1
 Number of Electrons    NEL             ....  642
 Basis Dimension        Dim             .... 1336

ORBITAL ENERGIES
----------------

  NO   OCC          E(Eh)            E(eV)
   0   2.0000    -482.890539    -13140.1196
   1   2.0000    -482.880803    -13139.8547
   2   2.0000     -88.981499     -2421.3097
   3   2.0000     -88.969399     -2420.9804
   4   2.0000     -88.962161     -2420.7835
   5   2.0000     -88.958250     -2420.6771
   6   2.0000     -88.957444     -2420.6551
   7   2.0000     -88.949626     -2420.4424
   8   2.0000     -88.947466     -2420.3836
   9   2.0000     -62.568261     -1702.5689
  10   2.0000     -62.558524     -1702.3040
  11   2.0000     -56.402220     -1534.7824
  12   2.0000     -56.399486     -1534.7080
  13   2.0000     -56.399460     -1534.7073
  14   2.0000     -56.392466     -1534.5170
  15   2.0000     -56.389766     -1534.4435
  16   2.0000     -56.389729     -1534.4425
  17   2.0000     -19.228090      -523.2229
  18   2.0000     -19.221577      -523.0457
  19   2.0000     -19.211208      -522.7635
  20   2.0000     -14.425183      -392.5292
  21   2.0000     -14.424474      -392.5099
  22   2.0000     -14.407681      -392.0529
  23   2.0000     -14.404488      -391.9660
  24   2.0000     -10.372135      -282.2401
  25   2.0000     -10.364922      -282.0439
  26   2.0000     -10.359393      -281.8934
  27   2.0000     -10.354386      -281.7572
  28   2.0000     -10.352968      -281.7186
  29   2.0000     -10.352408      -281.7033
  30   2.0000     -10.332735      -281.1680
  31   2.0000     -10.332019      -281.1485
  32   2.0000     -10.329820      -281.0887
  33   2.0000     -10.328056      -281.0407
  34   2.0000     -10.326904      -281.0093
  35   2.0000     -10.326622      -281.0017
  36   2.0000     -10.318398      -280.7779
  37   2.0000     -10.318367      -280.7770
  38   2.0000     -10.317786      -280.7612
  39   2.0000     -10.316684      -280.7312
  40   2.0000     -10.314721      -280.6778
  41   2.0000     -10.314616      -280.6750
  42   2.0000     -10.314331      -280.6672
  43   2.0000     -10.313610      -280.6476
  44   2.0000     -10.313295      -280.6390
  45   2.0000     -10.313008      -280.6312
  46   2.0000     -10.311272      -280.5840
  47   2.0000     -10.310568      -280.5648
  48   2.0000     -10.308953      -280.5209
  49   2.0000     -10.308920      -280.5200
  50   2.0000     -10.308800      -280.5167
  51   2.0000     -10.308405      -280.5060
  52   2.0000     -10.308286      -280.5027
  53   2.0000     -10.305177      -280.4181
  54   2.0000     -10.304313      -280.3946
  55   2.0000     -10.303263      -280.3660
  56   2.0000     -10.302388      -280.3422
  57   2.0000     -10.301929      -280.3298
  58   2.0000     -10.300462      -280.2898
  59   2.0000     -10.300179      -280.2821
  60   2.0000     -10.299742      -280.2702
  61   2.0000     -10.297639      -280.2130
  62   2.0000     -10.296413      -280.1796
  63   2.0000     -10.293992      -280.1137
  64   2.0000     -10.291398      -280.0432
  65   2.0000     -10.291082      -280.0346
  66   2.0000     -10.291081      -280.0345
  67   2.0000     -10.290585      -280.0210
  68   2.0000     -10.285995      -279.8961
  69   2.0000     -10.285910      -279.8938
  70   2.0000     -10.285474      -279.8820
  71   2.0000     -10.284355      -279.8515
  72   2.0000     -10.284222      -279.8479
  73   2.0000     -10.282269      -279.7948
  74   2.0000     -10.282262      -279.7946
  75   2.0000     -10.280185      -279.7381
  76   2.0000     -10.277025      -279.6521
  77   2.0000     -10.274871      -279.5935
  78   2.0000     -10.273014      -279.5429
  79   2.0000     -10.271910      -279.5129
  80   2.0000     -10.267164      -279.3837
  81   2.0000     -10.266928      -279.3773
  82   2.0000     -10.266107      -279.3550
  83   2.0000     -10.265921      -279.3499
  84   2.0000     -10.253701      -279.0174
  85   2.0000     -10.231722      -278.4193
  86   2.0000      -8.797698      -239.3975
  87   2.0000      -8.787953      -239.1324
  88   2.0000      -8.077575      -219.8020
  89   2.0000      -8.065381      -219.4702
  90   2.0000      -8.056967      -219.2412
  91   2.0000      -8.052791      -219.1276
  92   2.0000      -8.051278      -219.0864
  93   2.0000      -8.045620      -218.9324
  94   2.0000      -8.043268      -218.8685
  95   2.0000      -6.634047      -180.5216
  96   2.0000      -6.624228      -180.2544
  97   2.0000      -6.619422      -180.1236
  98   2.0000      -6.619185      -180.1172
  99   2.0000      -6.609689      -179.8588
 100   2.0000      -6.609520      -179.8542
 101   2.0000      -6.047253      -164.5541
 102   2.0000      -6.042993      -164.4382
 103   2.0000      -6.038771      -164.3233
 104   2.0000      -6.035090      -164.2231
 105   2.0000      -6.030776      -164.1058
 106   2.0000      -6.026613      -163.9925
 107   2.0000      -6.026555      -163.9909
 108   2.0000      -6.022606      -163.8834
 109   2.0000      -6.022400      -163.8778
 110   2.0000      -6.021060      -163.8414
 111   2.0000      -6.018776      -163.7792
 112   2.0000      -6.018519      -163.7722
 113   2.0000      -6.016456      -163.7161
 114   2.0000      -6.015419      -163.6879
 115   2.0000      -6.013530      -163.6365
 116   2.0000      -6.013063      -163.6238
 117   2.0000      -6.012847      -163.6179
 118   2.0000      -6.011308      -163.5760
 119   2.0000      -6.009070      -163.5151
 120   2.0000      -6.006485      -163.4448
 121   2.0000      -6.004098      -163.3798
 122   2.0000      -2.749888       -74.8283
 123   2.0000      -2.745808       -74.7172
 124   2.0000      -2.745663       -74.7133
 125   2.0000      -2.740097       -74.5618
 126   2.0000      -2.736021       -74.4509
 127   2.0000      -2.735897       -74.4475
 128   2.0000      -2.734023       -74.3966
 129   2.0000      -2.734004       -74.3960
 130   2.0000      -2.724338       -74.1330
 131   2.0000      -2.724325       -74.1327
 132   2.0000      -1.137608       -30.9559
 133   2.0000      -1.134300       -30.8659
 134   2.0000      -1.126467       -30.6527
 135   2.0000      -1.030682       -28.0463
 136   2.0000      -1.021476       -27.7958
 137   2.0000      -1.018523       -27.7154
 138   2.0000      -1.015279       -27.6271
 139   2.0000      -1.005348       -27.3569
 140   2.0000      -1.003463       -27.3056
 141   2.0000      -0.997905       -27.1544
 142   2.0000      -0.996915       -27.1274
 143   2.0000      -0.985204       -26.8088
 144   2.0000      -0.983034       -26.7497
 145   2.0000      -0.980322       -26.6759
 146   2.0000      -0.973320       -26.4854
 147   2.0000      -0.954198       -25.9650
 148   2.0000      -0.949874       -25.8474
 149   2.0000      -0.937518       -25.5112
 150   2.0000      -0.927696       -25.2439
 151   2.0000      -0.923773       -25.1371
 152   2.0000      -0.915731       -24.9183
 153   2.0000      -0.901596       -24.5337
 154   2.0000      -0.901092       -24.5200
 155   2.0000      -0.894660       -24.3449
 156   2.0000      -0.893088       -24.3021
 157   2.0000      -0.889393       -24.2016
 158   2.0000      -0.882298       -24.0086
 159   2.0000      -0.878583       -23.9075
 160   2.0000      -0.876084       -23.8395
 161   2.0000      -0.865850       -23.5610
 162   2.0000      -0.858095       -23.3499
 163   2.0000      -0.853057       -23.2129
 164   2.0000      -0.848175       -23.0800
 165   2.0000      -0.842380       -22.9223
 166   2.0000      -0.836252       -22.7556
 167   2.0000      -0.835907       -22.7462
 168   2.0000      -0.831816       -22.6349
 169   2.0000      -0.825082       -22.4516
 170   2.0000      -0.822305       -22.3760
 171   2.0000      -0.814402       -22.1610
 172   2.0000      -0.801201       -21.8018
 173   2.0000      -0.789360       -21.4796
 174   2.0000      -0.786353       -21.3977
 175   2.0000      -0.778388       -21.1810
 176   2.0000      -0.774711       -21.0810
 177   2.0000      -0.765469       -20.8295
 178   2.0000      -0.753712       -20.5095
 179   2.0000      -0.749518       -20.3954
 180   2.0000      -0.741813       -20.1857
 181   2.0000      -0.724479       -19.7141
 182   2.0000      -0.723980       -19.7005
 183   2.0000      -0.711353       -19.3569
 184   2.0000      -0.702917       -19.1273
 185   2.0000      -0.694745       -18.9050
 186   2.0000      -0.691391       -18.8137
 187   2.0000      -0.684355       -18.6223
 188   2.0000      -0.683646       -18.6030
 189   2.0000      -0.679069       -18.4784
 190   2.0000      -0.676521       -18.4091
 191   2.0000      -0.673201       -18.3187
 192   2.0000      -0.671257       -18.2658
 193   2.0000      -0.656888       -17.8748
 194   2.0000      -0.652751       -17.7623
 195   2.0000      -0.649653       -17.6780
 196   2.0000      -0.648959       -17.6591
 197   2.0000      -0.636164       -17.3109
 198   2.0000      -0.633918       -17.2498
 199   2.0000      -0.630803       -17.1650
 200   2.0000      -0.627455       -17.0739
 201   2.0000      -0.624152       -16.9840
 202   2.0000      -0.615789       -16.7565
 203   2.0000      -0.612835       -16.6761
 204   2.0000      -0.609647       -16.5893
 205   2.0000      -0.606472       -16.5029
 206   2.0000      -0.604806       -16.4576
 207   2.0000      -0.600568       -16.3423
 208   2.0000      -0.592841       -16.1320
 209   2.0000      -0.591621       -16.0988
 210   2.0000      -0.585370       -15.9287
 211   2.0000      -0.582808       -15.8590
 212   2.0000      -0.572978       -15.5915
 213   2.0000      -0.571771       -15.5587
 214   2.0000      -0.568175       -15.4608
 215   2.0000      -0.561278       -15.2731
 216   2.0000      -0.559948       -15.2370
 217   2.0000      -0.557557       -15.1719
 218   2.0000      -0.551655       -15.0113
 219   2.0000      -0.548883       -14.9359
 220   2.0000      -0.543649       -14.7934
 221   2.0000      -0.541481       -14.7344
 222   2.0000      -0.537591       -14.6286
 223   2.0000      -0.534763       -14.5516
 224   2.0000      -0.533814       -14.5258
 225   2.0000      -0.530527       -14.4364
 226   2.0000      -0.528644       -14.3851
 227   2.0000      -0.525919       -14.3110
 228   2.0000      -0.523541       -14.2463
 229   2.0000      -0.521589       -14.1932
 230   2.0000      -0.520121       -14.1532
 231   2.0000      -0.517891       -14.0925
 232   2.0000      -0.517008       -14.0685
 233   2.0000      -0.514542       -14.0014
 234   2.0000      -0.512952       -13.9581
 235   2.0000      -0.510988       -13.9047
 236   2.0000      -0.510323       -13.8866
 237   2.0000      -0.508912       -13.8482
 238   2.0000      -0.503715       -13.7068
 239   2.0000      -0.502412       -13.6713
 240   2.0000      -0.501211       -13.6386
 241   2.0000      -0.499777       -13.5996
 242   2.0000      -0.498053       -13.5527
 243   2.0000      -0.495638       -13.4870
 244   2.0000      -0.489667       -13.3245
 245   2.0000      -0.488051       -13.2805
 246   2.0000      -0.487869       -13.2756
 247   2.0000      -0.487276       -13.2595
 248   2.0000      -0.484454       -13.1827
 249   2.0000      -0.481424       -13.1002
 250   2.0000      -0.478534       -13.0216
 251   2.0000      -0.476481       -12.9657
 252   2.0000      -0.474604       -12.9146
 253   2.0000      -0.470051       -12.7907
 254   2.0000      -0.467328       -12.7167
 255   2.0000      -0.464743       -12.6463
 256   2.0000      -0.464220       -12.6321
 257   2.0000      -0.462751       -12.5921
 258   2.0000      -0.460236       -12.5237
 259   2.0000      -0.459168       -12.4946
 260   2.0000      -0.458107       -12.4657
 261   2.0000      -0.456397       -12.4192
 262   2.0000      -0.454364       -12.3639
 263   2.0000      -0.452932       -12.3249
 264   2.0000      -0.452454       -12.3119
 265   2.0000      -0.451644       -12.2899
 266   2.0000      -0.450537       -12.2597
 267   2.0000      -0.446300       -12.1444
 268   2.0000      -0.441882       -12.0242
 269   2.0000      -0.441547       -12.0151
 270   2.0000      -0.441087       -12.0026
 271   2.0000      -0.440561       -11.9883
 272   2.0000      -0.436549       -11.8791
 273   2.0000      -0.435868       -11.8606
 274   2.0000      -0.434904       -11.8343
 275   2.0000      -0.432440       -11.7673
 276   2.0000      -0.431978       -11.7547
 277   2.0000      -0.427493       -11.6327
 278   2.0000      -0.424500       -11.5512
 279   2.0000      -0.423373       -11.5206
 280   2.0000      -0.419742       -11.4218
 281   2.0000      -0.419314       -11.4101
 282   2.0000      -0.418097       -11.3770
 283   2.0000      -0.417650       -11.3648
 284   2.0000      -0.416933       -11.3453
 285   2.0000      -0.412179       -11.2160
 286   2.0000      -0.410945       -11.1824
 287   2.0000      -0.409448       -11.1417
 288   2.0000      -0.404298       -11.0015
 289   2.0000      -0.401887       -10.9359
 290   2.0000      -0.395505       -10.7622
 291   2.0000      -0.395081       -10.7507
 292   2.0000      -0.393859       -10.7175
 293   2.0000      -0.393701       -10.7131
 294   2.0000      -0.385465       -10.4890
 295   2.0000      -0.382776       -10.4159
 296   2.0000      -0.382064       -10.3965
 297   2.0000      -0.379850       -10.3362
 298   2.0000      -0.378355       -10.2955
 299   2.0000      -0.375270       -10.2116
 300   2.0000      -0.373001       -10.1499
 301   2.0000      -0.370292       -10.0762
 302   2.0000      -0.368557       -10.0290
 303   2.0000      -0.356367        -9.6972
 304   2.0000      -0.346736        -9.4352
 305   2.0000      -0.342649        -9.3240
 306   2.0000      -0.336108        -9.1460
 307   2.0000      -0.333408        -9.0725
 308   2.0000      -0.328471        -8.9382
 309   2.0000      -0.327366        -8.9081
 310   2.0000      -0.326439        -8.8829
 311   2.0000      -0.323621        -8.8062
 312   2.0000      -0.321883        -8.7589
 313   2.0000      -0.309290        -8.4162
 314   2.0000      -0.303026        -8.2458
 315   2.0000      -0.300829        -8.1860
 316   2.0000      -0.287056        -7.8112
 317   2.0000      -0.283581        -7.7166
 318   2.0000      -0.278794        -7.5864
 319   2.0000      -0.262194        -7.1347
 320   2.0000      -0.214492        -5.8366
 321   0.0000      -0.092012        -2.5038
 322   0.0000      -0.087576        -2.3831
 323   0.0000      -0.065877        -1.7926
 324   0.0000      -0.054051        -1.4708
 325   0.0000      -0.049633        -1.3506

MULLIKEN ATOMIC CHARGES
-----------------------
   0 C :    0.333857
   1 C :   -0.362913
   2 C :   -0.185857
   3 N :    0.140721
   4 C :   -0.185499
   5 N :    0.134293
   6 C :    0.007864
   7 C :   -0.011477
   8 C :   -0.073398
   9 C :    0.115719
  10 C :   -0.093167
  11 C :   -0.019241
  12 S :    0.183226
  13 C :   -0.125035
  14 C :    0.042389
  15 Br:    0.018030
  16 C :    0.163317
  17 O :   -0.185363
  18 C :   -0.103954
  19 C :   -0.021547
  20 C :   -0.056772
  21 S :    0.204888
  22 C :   -0.046968
  23 C :    0.001911
  24 C :   -0.050007
  25 S :    0.153541
  26 C :    0.012477
  27 C :   -0.063661
  28 C :   -0.038169
  29 S :    0.141776
  30 C :   -0.085013
  31 C :   -0.022732
  32 C :   -0.025960
  33 C :    0.030654
  34 C :    0.035066
  35 C :   -0.052553
  36 S :    0.076947
  37 C :   -0.042640
  38 C :    0.016992
  39 C :    0.059612
  40 C :   -0.003221
  41 S :    0.085816
  42 C :   -0.071545
  43 C :    0.004510
  44 C :   -0.081766
  45 C :    0.216058
  46 C :    0.047288
  47 C :   -0.079926
  48 O :   -0.317987
  49 C :    0.160233
  50 C :   -0.009809
  51 C :   -0.048629
  52 C :   -0.042703
  53 C :    0.002363
  54 C :    0.091627
  55 C :    0.060032
  56 C :   -0.020788
  57 C :    0.086931
  58 C :   -0.084925
  59 C :   -0.097537
  60 C :    0.287349
  61 C :   -0.333306
  62 C :   -0.187666
  63 N :    0.158888
  64 C :   -0.186340
  65 N :    0.159661
  66 C :   -0.002081
  67 C :   -0.002198
  68 C :    0.137310
  69 O :   -0.137291
  70 C :   -0.069122
  71 C :    0.115827
  72 C :   -0.087401
  73 C :   -0.018146
  74 S :    0.189077
  75 C :   -0.123882
  76 C :    0.039106
  77 Br:    0.028958
  78 H :   -0.014498
  79 H :   -0.008108
  80 H :   -0.007074
  81 H :    0.005479
  82 H :    0.007731
  83 H :   -0.015634
  84 H :   -0.012867
  85 H :   -0.013317
  86 H :   -0.013064
  87 H :   -0.013259
  88 H :   -0.010353
  89 H :    0.001361
  90 H :    0.042257
  91 H :   -0.006766
  92 H :   -0.015299
  93 H :    0.004634
  94 H :    0.001113
  95 H :    0.009416
  96 H :   -0.008033
  97 H :   -0.001486
  98 H :   -0.001095
  99 H :   -0.010909
 100 H :    0.000918
 101 H :    0.008477
 102 H :    0.011031
 103 H :    0.003565
 104 H :    0.005828
 105 H :    0.028827
 106 H :    0.033196
 107 H :    0.021708
 108 H :    0.035003
 109 H :    0.020012
 110 H :    0.031043
 111 H :   -0.005569
 112 H :   -0.000203
 113 H :   -0.000185
Sum of atomic charges:   -0.0000000

LOEWDIN ATOMIC CHARGES
----------------------
   0 C :    0.078568
   1 C :   -0.152070
   2 C :   -0.018160
   3 N :   -0.062720
   4 C :   -0.020638
   5 N :   -0.062070
   6 C :   -0.019352
   7 C :   -0.048857
   8 C :    0.019599
   9 C :   -0.034804
  10 C :   -0.145122
  11 C :   -0.010630
  12 S :    0.430420
  13 C :   -0.273491
  14 C :   -0.070520
  15 Br:    0.132525
  16 C :    0.083332
  17 O :   -0.171497
  18 C :   -0.122016
  19 C :    0.054628
  20 C :   -0.182265
  21 S :    0.489597
  22 C :   -0.195049
  23 C :   -0.199255
  24 C :   -0.020485
  25 S :    0.396823
  26 C :   -0.169880
  27 C :   -0.079621
  28 C :   -0.143335
  29 S :    0.427565
  30 C :   -0.230942
  31 C :   -0.087925
  32 C :   -0.142609
  33 C :   -0.038718
  34 C :   -0.027550
  35 C :   -0.188927
  36 S :    0.370063
  37 C :   -0.165203
  38 C :   -0.037957
  39 C :   -0.018838
  40 C :   -0.153284
  41 S :    0.370146
  42 C :   -0.023838
  43 C :   -0.032465
  44 C :   -0.008820
  45 C :   -0.031867
  46 C :    0.047161
  47 C :   -0.121444
  48 O :   -0.106606
  49 C :    0.074333
  50 C :   -0.035611
  51 C :   -0.041018
  52 C :   -0.022551
  53 C :   -0.033371
  54 C :   -0.043887
  55 C :   -0.046045
  56 C :   -0.019369
  57 C :   -0.036646
  58 C :    0.089103
  59 C :   -0.096413
  60 C :    0.077048
  61 C :   -0.133904
  62 C :   -0.019002
  63 N :   -0.045777
  64 C :   -0.016174
  65 N :   -0.046044
  66 C :   -0.019994
  67 C :   -0.053255
  68 C :    0.085925
  69 O :   -0.136050
  70 C :    0.024527
  71 C :   -0.030998
  72 C :   -0.142271
  73 C :   -0.010109
  74 S :    0.434831
  75 C :   -0.269730
  76 C :   -0.069790
  77 Br:    0.140983
  78 H :    0.039506
  79 H :    0.040641
  80 H :    0.037631
  81 H :    0.050191
  82 H :    0.041844
  83 H :    0.033031
  84 H :    0.040006
  85 H :    0.033233
  86 H :    0.032167
  87 H :    0.031829
  88 H :    0.034785
  89 H :    0.029742
  90 H :    0.034965
  91 H :    0.016392
  92 H :    0.029530
  93 H :    0.038126
  94 H :    0.021445
  95 H :    0.022662
  96 H :    0.022280
  97 H :    0.034397
  98 H :    0.025632
  99 H :    0.024337
 100 H :    0.030104
 101 H :    0.022376
 102 H :    0.025054
 103 H :    0.022491
 104 H :    0.025624
 105 H :    0.024488
 106 H :    0.027013
 107 H :    0.029167
 108 H :    0.042088
 109 H :    0.030783
 110 H :    0.041988
 111 H :    0.042720
 112 H :    0.041459
 113 H :    0.039934

  Mayer bond orders larger than 0.100000
B(  0-C ,  1-C ) :   1.5997 B(  0-C ,  6-C ) :   0.9928 B(  0-C , 18-C ) :   1.1017
B(  1-C ,  2-C ) :   1.1488 B(  1-C ,  4-C ) :   1.1478 B(  2-C ,  3-N ) :   2.9629
B(  4-C ,  5-N ) :   2.9529 B(  6-C ,  7-C ) :   1.2750 B(  6-C , 11-C ) :   1.4191
B(  7-C ,  8-C ) :   1.4289 B(  7-C , 16-C ) :   0.9537 B(  8-C ,  9-C ) :   1.2391
B(  8-C , 78-H ) :   1.0163 B(  9-C , 10-C ) :   1.3121 B(  9-C , 14-C ) :   1.1629
B( 10-C , 11-C ) :   1.3241 B( 10-C , 12-S ) :   1.0843 B( 11-C , 79-H ) :   0.9780
B( 12-S , 13-C ) :   1.0871 B( 13-C , 14-C ) :   1.6201 B( 13-C , 15-Br) :   1.0153
B( 14-C , 80-H ) :   0.9992 B( 16-C , 17-O ) :   2.1263 B( 16-C , 18-C ) :   0.9854
B( 18-C , 19-C ) :   1.4481 B( 19-C , 20-C ) :   1.3126 B( 19-C , 81-H ) :   0.9371
B( 20-C , 21-S ) :   1.0581 B( 20-C , 24-C ) :   1.3386 B( 21-S , 22-C ) :   1.0620
B( 22-C , 23-C ) :   1.3525 B( 22-C , 30-C ) :   1.3484 B( 23-C , 24-C ) :   1.3591
B( 23-C , 25-S ) :   1.0251 B( 24-C , 82-H ) :   1.0117 B( 25-S , 26-C ) :   1.0463
B( 26-C , 27-C ) :   1.3053 B( 26-C , 30-C ) :   1.4040 B( 27-C , 28-C ) :   1.4212
B( 27-C , 83-H ) :   1.0096 B( 28-C , 29-S ) :   1.0916 B( 28-C , 31-C ) :   1.2064
B( 29-S , 30-C ) :   1.0614 B( 31-C , 32-C ) :   1.5499 B( 31-C , 84-H ) :   0.9688
B( 32-C , 33-C ) :   1.1418 B( 32-C , 36-S ) :   1.0473 B( 33-C , 34-C ) :   1.5998
B( 33-C , 85-H ) :   0.9999 B( 34-C , 35-C ) :   1.1766 B( 34-C , 86-H ) :   0.9919
B( 35-C , 36-S ) :   1.0277 B( 35-C , 37-C ) :   1.5425 B( 37-C , 38-C ) :   1.1558
B( 37-C , 41-S ) :   1.0482 B( 38-C , 39-C ) :   1.6384 B( 38-C , 87-H ) :   0.9925
B( 39-C , 40-C ) :   1.0966 B( 39-C , 88-H ) :   1.0000 B( 40-C , 41-S ) :   1.0049
B( 40-C , 42-C ) :   1.7270 B( 42-C , 43-C ) :   0.9972 B( 42-C , 89-H ) :   0.9729
B( 43-C , 44-C ) :   1.0208 B( 43-C , 50-C ) :   1.0296 B( 43-C , 90-H ) :   0.8866
B( 44-C , 45-C ) :   1.0339 B( 44-C , 53-C ) :   1.0061 B( 44-C , 91-H ) :   0.9159
B( 45-C , 46-C ) :   1.0159 B( 45-C , 92-H ) :   0.8783 B( 45-C , 93-H ) :   0.9153
B( 46-C , 47-C ) :   1.9681 B( 46-C , 48-O ) :   1.0471 B( 47-C , 94-H ) :   0.9433
B( 47-C , 95-H ) :   0.9403 B( 48-O , 49-C ) :   1.0009 B( 49-C , 50-C ) :   0.9723
B( 49-C , 55-C ) :   1.0780 B( 49-C , 96-H ) :   0.9190 B( 50-C , 51-C ) :   0.9870
B( 50-C , 97-H ) :   0.8926 B( 51-C , 52-C ) :   1.9360 B( 51-C , 98-H ) :   0.9527
B( 52-C , 53-C ) :   0.9787 B( 52-C , 99-H ) :   0.9674 B( 53-C , 54-C ) :   1.0736
B( 53-C ,100-H ) :   0.9057 B( 54-C ,101-H ) :   0.9492 B( 54-C ,102-H ) :   0.9620
B( 54-C ,103-H ) :   0.9595 B( 55-C , 56-C ) :   1.0706 B( 55-C ,104-H ) :   0.9275
B( 55-C ,105-H ) :   0.8993 B( 56-C , 57-C ) :   1.0248 B( 56-C ,106-H ) :   0.9340
B( 56-C ,107-H ) :   0.9468 B( 57-C , 58-C ) :   1.0523 B( 57-C ,108-H ) :   0.9102
B( 57-C ,109-H ) :   0.9342 B( 58-C , 59-C ) :   1.8354 B( 58-C ,110-H ) :   0.9244
B( 59-C , 60-C ) :   0.9853 B( 59-C , 68-C ) :   0.9276 B( 60-C , 61-C ) :   1.6729
B( 60-C , 66-C ) :   1.0210 B( 61-C , 62-C ) :   1.1205 B( 61-C , 64-C ) :   1.1662
B( 62-C , 63-N ) :   2.9949 B( 64-C , 65-N ) :   2.9571 B( 66-C , 67-C ) :   1.2731
B( 66-C , 73-C ) :   1.4054 B( 67-C , 68-C ) :   0.9211 B( 67-C , 70-C ) :   1.4192
B( 68-C , 69-O ) :   2.2718 B( 70-C , 71-C ) :   1.2570 B( 70-C ,111-H ) :   1.0174
B( 71-C , 72-C ) :   1.2995 B( 71-C , 76-C ) :   1.1634 B( 72-C , 73-C ) :   1.3365
B( 72-C , 74-S ) :   1.0856 B( 73-C ,112-H ) :   0.9825 B( 74-S , 75-C ) :   1.0868
B( 75-C , 76-C ) :   1.6176 B( 75-C , 77-Br) :   1.0221 B( 76-C ,113-H ) :   1.0010

-----------------------------------------------------------------------------
         ABSORPTION SPECTRUM VIA TRANSITION ELECTRIC DIPOLE MOMENTS
-----------------------------------------------------------------------------
State   Energy  Wavelength   fosc         T2         TX        TY        TZ
        (cm-1)    (nm)                  (au**2)     (au)      (au)      (au)
-----------------------------------------------------------------------------
   0   13624.8    734.0   1.310787975  31.67226  -4.88942  -1.96678  -1.97423
   1   20100.1    497.5   0.000010648   0.00017  -0.00539  -0.01093   0.00508
   2   20499.8    487.8   0.475364612   7.63401  -1.35858  -0.98883   2.19328
   3   22668.2    441.1   0.138211884   2.00726   1.01413   0.31199   0.93886
   4   23650.3    422.8   1.027409959  14.30157  -0.22103  -0.70118   3.70959
   5   25660.3    389.7   0.061858174   0.79362  -0.58155  -0.36487   0.56771
   6   27709.0    360.9   0.000008366   0.00010   0.00058   0.00910  -0.00402
   7   28091.9    356.0   0.334515433   3.92023   0.77671   0.38359  -1.78040
   8   28440.8    351.6   0.029757138   0.34445  -0.24789  -0.30007   0.43927
   9   28687.6    348.6   0.031565110   0.36223  -0.41285  -0.20580   0.38657
  10   29131.8    343.3   0.165100394   1.86576   0.36211  -1.24812   0.42053
  11   29139.5    343.2   0.266892003   3.01529   0.56288  -1.54309   0.56333
  12   29305.5    341.2   0.002302447   0.02587   0.05443   0.10556  -0.10844
  13   30177.4    331.4   0.175583703   1.91548  -0.06161  -0.17308   1.37176
  14   31008.8    322.5   0.207445627   2.20239   0.12505   0.39751  -1.42434
  15   31284.9    319.6   0.129907964   1.36703   0.62036  -0.84323   0.52072
  16   31336.0    319.1   0.000151544   0.00159  -0.01817   0.03132  -0.01675
  17   31762.3    314.8   0.047541884   0.49276  -0.58733  -0.37138  -0.09941
  18   31911.2    313.4   0.038033936   0.39238  -0.62507   0.00513   0.04052
  19   32049.0    312.0   0.057041272   0.58594  -0.73432  -0.04892   0.21052
  20   32417.7    308.5   0.068040493   0.69097   0.60162  -0.41968   0.39102
  21   32491.9    307.8   0.000793893   0.00804   0.06588  -0.02865  -0.05369
  22   32710.0    305.7   0.007012109   0.07057  -0.01253   0.10757  -0.24258
  23   32847.4    304.4   0.116132537   1.16393  -0.12365  -0.30975   1.02601
  24   33393.2    299.5   0.387390538   3.81915  -1.69026  -0.45844   0.86718
  25   34269.4    291.8   0.082602793   0.79353  -0.80406  -0.35119   0.15389
  26   34700.8    288.2   0.000651222   0.00618  -0.06714  -0.01629  -0.03748
  27   34949.2    286.1   0.053244558   0.50155   0.02445  -0.12092   0.69737
  28   35000.9    285.7   0.084274925   0.79267   0.44075   0.74418  -0.21123
  29   35294.7    283.3   0.415312203   3.87384  -1.46175   0.88240  -0.97902
  30   35569.6    281.1   0.015468085   0.14316  -0.12374   0.00568   0.35752
  31   36494.8    274.0   0.038408528   0.34647   0.54809   0.13366  -0.16796
  32   36584.8    273.3   0.000794784   0.00715  -0.04281  -0.07171   0.01326
  33   36851.4    271.4   0.000000609   0.00001  -0.00201   0.00114  -0.00029
  34   37455.9    267.0   0.000021668   0.00019   0.00824  -0.00981   0.00513
  35   37827.7    264.4   0.072047582   0.62702  -0.47591  -0.33312   0.53811
  36   38227.8    261.6   0.057692210   0.49684  -0.31380   0.03648  -0.63011
  37   38388.4    260.5   0.021352212   0.18311  -0.27622  -0.00817   0.32672
  38   38481.4    259.9   0.000113102   0.00097  -0.00523   0.02862  -0.01100
  39   38659.3    258.7   0.000568898   0.00484  -0.02509   0.06369  -0.01259
  40   38742.3    258.1   0.000267256   0.00227  -0.03452  -0.01593  -0.02873
  41   38780.4    257.9   0.000007038   0.00006  -0.00751  -0.00107   0.00147
  42   39188.8    255.2   0.063314834   0.53189   0.34746   0.12907   0.62809
  43   39358.1    254.1   0.076993969   0.64402  -0.43777  -0.29176  -0.60601
  44   39796.7    251.3   0.062682778   0.51853   0.51609   0.08242   0.49537
  45   39863.4    250.9   0.000048994   0.00040  -0.01448   0.00174  -0.01386
  46   40039.2    249.8   0.000003695   0.00003   0.00012  -0.00305   0.00459

FINAL SINGLE POINT ENERGY    -10759.607152560789

DIPOLE MOMENT
-------------
                                X             Y             Z
Electronic contribution:     77.46069    -101.73387     148.03926
Nuclear contribution   :    -81.09954      99.79912    -148.94682
                        -----------------------------------------
Total Dipole Moment    :     -3.63885      -1.93475      -0.90755
                        -----------------------------------------
Magnitude (a.u.)       :      4.21997
Magnitude (Debye)      :     10.72631

Rotational constants in cm-1:     0.000506     0.000180     0.000147
Rotational constants in MHz :    15.167637     5.402787     4.417798

                             ****ORCA TERMINATED NORMALLY****
TOTAL RUN TIME: 0 days 0 hours 27 minutes 51 seconds 664 msec
