                         Program Version 4.2.0 -  RELEASE  -
|  1> # ORCA input file
|  2> # SCF done       -150.279961505135          0.000349936571
|  3> ! CAM-B3LYP def2-SVP def2/J RIJCOSX Grid4 TightSCF
|  4> %maxcore 5000
|  5> %tddft
|  6>     Mode sTDDFT
|  7>     Ethresh 5.0
|  8>     maxcore 5000
|  9> end
| 10>
| 11> %pal
| 12>   nprocs 6
| 13>   end
| 14> * xyz 0 1
| 15>    C       -3.31827         0.99312         3.70301
| 16>    S       -4.20395        -0.34959         4.22297
| 17>    C       -3.42085        -1.42412         3.09698
| 18>    C       -2.47086        -0.71103         2.33639
| 19>    C       -2.42119         0.67942         2.69636
| 20>    C       -1.49878         1.56240         2.05635
| 21>    C       -1.45379         2.99525         2.43700
| 22>    O       -2.33538         3.52255         3.08081
| 23>    C       -0.24523         3.78056         1.98776
| 24>    C       -0.67512         1.03459         1.08713
| 25>    C       -0.72949        -0.32124         0.73413
| 26>    C       -1.60083        -1.18691         1.34112
| 27>    C       -3.81142        -2.77428         3.15305
| 28>    C       -3.44073        -3.82616         2.36442
| 29>    C       -3.87001        -5.13594         2.64459
| 30>    C       -3.56289        -6.32828         2.01673
| 31>    C       -4.17163        -7.38013         2.76681
| 32>    C       -4.88939        -6.76312         3.86870
| 33>    O       -5.54794        -7.20432         4.76392
| 34>    O       -4.66498        -5.39409         3.72858
| 35>    C       -3.79952        -8.56552         2.18272
| 36>    O       -3.00866        -8.31954         1.10038
| 37>    C       -2.82849        -6.93813         0.93505
| 38>    O       -2.17338        -6.49308         0.03374
| 39>    C       -4.06560        -9.90018         2.58198
| 40>    O       -4.84178       -10.11369         3.66156
| 41>    C       -4.89071       -11.42984         3.87688
| 42>    C       -4.15594       -12.10960         2.94925
| 43>    C       -3.62139       -11.12352         2.09160
| 44>    S       -2.57356       -11.42837         0.71242
| 45>    C       -3.48120       -10.68364        -0.54736
| 46>    C       -3.22118       -10.62496        -1.88841
| 47>    C       -4.34862        -9.97373        -2.49455
| 48>    C       -5.26486        -9.61700        -1.45040
| 49>    O       -6.31469        -9.03656        -1.42766
| 50>    O       -4.67132       -10.10409        -0.26352
| 51>    C       -4.16425       -10.02161        -3.86016
| 52>    O       -2.95775       -10.59707        -4.13028
| 53>    C       -2.32701       -11.01339        -2.95542
| 54>    O       -1.26297       -11.56309        -2.98494
| 55>    C       -4.98717        -9.58328        -4.91055
| 56>    S       -6.22074        -8.41585        -4.57866
| 57>    C       -6.59245        -8.22137        -6.24929
| 58>    C       -5.80517        -9.06685        -7.04950
| 59>    C       -4.91940        -9.88360        -6.28295
| 60>    C       -4.15453       -10.88766        -6.92330
| 61>    C       -3.52711       -12.02028        -6.17040
| 62>    O       -4.19979       -12.68222        -5.41554
| 63>    C       -2.09066       -12.33166        -6.48425
| 64>    C       -4.18636       -10.95242        -8.29739
| 65>    C       -4.99160       -10.08855        -9.05807
| 66>    C       -5.81698        -9.18203        -8.45376
| 67>    C       -7.59190        -7.30032        -6.69912
| 68>    C       -8.35361        -6.55736        -5.89406
| 69>    H       -3.48181         1.95746         4.14067
| 70>    H        0.67410         3.26004         2.24338
| 71>    H       -0.26170         4.75455         2.47034
| 72>    H       -0.27956         3.92741         0.90996
| 73>    H        0.02853         1.66530         0.56792
| 74>    H       -0.06377        -0.68624        -0.03313
| 75>    H       -1.60877        -2.22407         1.05486
| 76>    H       -4.50600        -3.00836         3.95176
| 77>    H       -2.79828        -3.73261         1.50566
| 78>    H       -5.47886       -11.76819         4.70712
| 79>    H       -4.01017       -13.16616         2.86827
| 80>    H       -1.99238       -13.38508        -6.73971
| 81>    H       -1.50717       -12.16650        -5.57893
| 82>    H       -1.69978       -11.70648        -7.28034
| 83>    H       -3.62089       -11.71863        -8.80654
| 84>    H       -4.98324       -10.18020       -10.13360
| 85>    H       -6.47863        -8.56526        -9.04106
| 86>    H       -7.71614        -7.23297        -7.77129
| 87>    H       -8.25567        -6.61012        -4.82257
| 88>    H       -9.09528        -5.88406        -6.28480
| 89> *
| 90>
| 91>                          ****END OF INPUT****

CARTESIAN COORDINATES (ANGSTROEM)
---------------------------------
  C     -3.318270    0.993120    3.703010
  S     -4.203950   -0.349590    4.222970
  C     -3.420850   -1.424120    3.096980
  C     -2.470860   -0.711030    2.336390
  C     -2.421190    0.679420    2.696360
  C     -1.498780    1.562400    2.056350
  C     -1.453790    2.995250    2.437000
  O     -2.335380    3.522550    3.080810
  C     -0.245230    3.780560    1.987760
  C     -0.675120    1.034590    1.087130
  C     -0.729490   -0.321240    0.734130
  C     -1.600830   -1.186910    1.341120
  C     -3.811420   -2.774280    3.153050
  C     -3.440730   -3.826160    2.364420
  C     -3.870010   -5.135940    2.644590
  C     -3.562890   -6.328280    2.016730
  C     -4.171630   -7.380130    2.766810
  C     -4.889390   -6.763120    3.868700
  O     -5.547940   -7.204320    4.763920
  O     -4.664980   -5.394090    3.728580
  C     -3.799520   -8.565520    2.182720
  O     -3.008660   -8.319540    1.100380
  C     -2.828490   -6.938130    0.935050
  O     -2.173380   -6.493080    0.033740
  C     -4.065600   -9.900180    2.581980
  O     -4.841780  -10.113690    3.661560
  C     -4.890710  -11.429840    3.876880
  C     -4.155940  -12.109600    2.949250
  C     -3.621390  -11.123520    2.091600
  S     -2.573560  -11.428370    0.712420
  C     -3.481200  -10.683640   -0.547360
  C     -3.221180  -10.624960   -1.888410
  C     -4.348620   -9.973730   -2.494550
  C     -5.264860   -9.617000   -1.450400
  O     -6.314690   -9.036560   -1.427660
  O     -4.671320  -10.104090   -0.263520
  C     -4.164250  -10.021610   -3.860160
  O     -2.957750  -10.597070   -4.130280
  C     -2.327010  -11.013390   -2.955420
  O     -1.262970  -11.563090   -2.984940
  C     -4.987170   -9.583280   -4.910550
  S     -6.220740   -8.415850   -4.578660
  C     -6.592450   -8.221370   -6.249290
  C     -5.805170   -9.066850   -7.049500
  C     -4.919400   -9.883600   -6.282950
  C     -4.154530  -10.887660   -6.923300
  C     -3.527110  -12.020280   -6.170400
  O     -4.199790  -12.682220   -5.415540
  C     -2.090660  -12.331660   -6.484250
  C     -4.186360  -10.952420   -8.297390
  C     -4.991600  -10.088550   -9.058070
  C     -5.816980   -9.182030   -8.453760
  C     -7.591900   -7.300320   -6.699120
  C     -8.353610   -6.557360   -5.894060
  H     -3.481810    1.957460    4.140670
  H      0.674100    3.260040    2.243380
  H     -0.261700    4.754550    2.470340
  H     -0.279560    3.927410    0.909960
  H      0.028530    1.665300    0.567920
  H     -0.063770   -0.686240   -0.033130
  H     -1.608770   -2.224070    1.054860
  H     -4.506000   -3.008360    3.951760
  H     -2.798280   -3.732610    1.505660
  H     -5.478860  -11.768190    4.707120
  H     -4.010170  -13.166160    2.868270
  H     -1.992380  -13.385080   -6.739710
  H     -1.507170  -12.166500   -5.578930
  H     -1.699780  -11.706480   -7.280340
  H     -3.620890  -11.718630   -8.806540
  H     -4.983240  -10.180200  -10.133600
  H     -6.478630   -8.565260   -9.041060
  H     -7.716140   -7.232970   -7.771290
  H     -8.255670   -6.610120   -4.822570
  H     -9.095280   -5.884060   -6.284800

 Total Charge           Charge          ....    0
 Multiplicity           Mult            ....    1
 Number of Electrons    NEL             ....  396
 Basis Dimension        Dim             ....  868

ORBITAL ENERGIES
----------------

  NO   OCC          E(Eh)            E(eV)
   0   2.0000     -88.980669     -2421.2871
   1   2.0000     -88.975045     -2421.1340
   2   2.0000     -88.968733     -2420.9623
   3   2.0000     -19.310031      -525.4526
   4   2.0000     -19.284464      -524.7569
   5   2.0000     -19.283540      -524.7318
   6   2.0000     -19.280831      -524.6581
   7   2.0000     -19.280219      -524.6414
   8   2.0000     -19.212370      -522.7952
   9   2.0000     -19.207209      -522.6547
  10   2.0000     -19.207081      -522.6513
  11   2.0000     -19.205712      -522.6140
  12   2.0000     -19.205615      -522.6113
  13   2.0000     -19.190217      -522.1924
  14   2.0000     -10.408445      -283.2282
  15   2.0000     -10.407496      -283.2024
  16   2.0000     -10.406878      -283.1855
  17   2.0000     -10.406336      -283.1708
  18   2.0000     -10.384545      -282.5778
  19   2.0000     -10.370235      -282.1884
  20   2.0000     -10.369729      -282.1747
  21   2.0000     -10.367781      -282.1217
  22   2.0000     -10.366134      -282.0768
  23   2.0000     -10.353232      -281.7258
  24   2.0000     -10.349291      -281.6185
  25   2.0000     -10.342717      -281.4396
  26   2.0000     -10.319297      -280.8024
  27   2.0000     -10.317292      -280.7478
  28   2.0000     -10.314681      -280.6767
  29   2.0000     -10.312022      -280.6044
  30   2.0000     -10.309476      -280.5351
  31   2.0000     -10.308160      -280.4993
  32   2.0000     -10.300372      -280.2874
  33   2.0000     -10.296293      -280.1764
  34   2.0000     -10.296227      -280.1746
  35   2.0000     -10.296152      -280.1725
  36   2.0000     -10.295067      -280.1430
  37   2.0000     -10.294546      -280.1288
  38   2.0000     -10.291001      -280.0324
  39   2.0000     -10.290427      -280.0168
  40   2.0000     -10.290235      -280.0115
  41   2.0000     -10.290128      -280.0086
  42   2.0000     -10.288958      -279.9768
  43   2.0000     -10.285301      -279.8773
  44   2.0000     -10.284593      -279.8580
  45   2.0000     -10.284183      -279.8468
  46   2.0000     -10.282748      -279.8078
  47   2.0000     -10.280018      -279.7335
  48   2.0000     -10.279246      -279.7125
  49   2.0000     -10.279169      -279.7104
  50   2.0000     -10.278304      -279.6869
  51   2.0000     -10.277417      -279.6627
  52   2.0000     -10.273497      -279.5561
  53   2.0000     -10.250365      -278.9266
  54   2.0000      -8.076291      -219.7670
  55   2.0000      -8.069795      -219.5903
  56   2.0000      -8.064123      -219.4359
  57   2.0000      -6.044942      -164.4912
  58   2.0000      -6.040696      -164.3757
  59   2.0000      -6.039807      -164.3515
  60   2.0000      -6.038777      -164.3235
  61   2.0000      -6.034503      -164.2072
  62   2.0000      -6.034464      -164.2061
  63   2.0000      -6.032659      -164.1570
  64   2.0000      -6.030102      -164.0874
  65   2.0000      -6.024112      -163.9244
  66   2.0000      -1.233041       -33.5528
  67   2.0000      -1.215905       -33.0865
  68   2.0000      -1.213022       -33.0080
  69   2.0000      -1.207933       -32.8695
  70   2.0000      -1.205386       -32.8002
  71   2.0000      -1.130004       -30.7490
  72   2.0000      -1.117830       -30.4177
  73   2.0000      -1.116982       -30.3946
  74   2.0000      -1.116146       -30.3719
  75   2.0000      -1.114909       -30.3382
  76   2.0000      -1.109293       -30.1854
  77   2.0000      -1.008174       -27.4338
  78   2.0000      -1.005531       -27.3619
  79   2.0000      -0.951191       -25.8832
  80   2.0000      -0.949135       -25.8273
  81   2.0000      -0.941965       -25.6322
  82   2.0000      -0.929996       -25.3065
  83   2.0000      -0.927236       -25.2314
  84   2.0000      -0.917408       -24.9639
  85   2.0000      -0.906995       -24.6806
  86   2.0000      -0.895701       -24.3733
  87   2.0000      -0.884287       -24.0627
  88   2.0000      -0.881314       -23.9818
  89   2.0000      -0.865080       -23.5400
  90   2.0000      -0.853529       -23.2257
  91   2.0000      -0.847826       -23.0705
  92   2.0000      -0.840164       -22.8620
  93   2.0000      -0.835407       -22.7326
  94   2.0000      -0.822382       -22.3781
  95   2.0000      -0.811060       -22.0701
  96   2.0000      -0.803533       -21.8652
  97   2.0000      -0.784291       -21.3416
  98   2.0000      -0.773397       -21.0452
  99   2.0000      -0.765587       -20.8327
 100   2.0000      -0.749946       -20.4071
 101   2.0000      -0.747030       -20.3277
 102   2.0000      -0.735831       -20.0230
 103   2.0000      -0.723320       -19.6825
 104   2.0000      -0.721677       -19.6378
 105   2.0000      -0.715329       -19.4651
 106   2.0000      -0.712605       -19.3910
 107   2.0000      -0.696672       -18.9574
 108   2.0000      -0.694374       -18.8949
 109   2.0000      -0.683578       -18.6011
 110   2.0000      -0.683071       -18.5873
 111   2.0000      -0.675094       -18.3702
 112   2.0000      -0.669203       -18.2099
 113   2.0000      -0.656669       -17.8689
 114   2.0000      -0.647552       -17.6208
 115   2.0000      -0.624944       -17.0056
 116   2.0000      -0.618878       -16.8405
 117   2.0000      -0.602233       -16.3876
 118   2.0000      -0.597480       -16.2583
 119   2.0000      -0.595584       -16.2067
 120   2.0000      -0.593174       -16.1411
 121   2.0000      -0.591737       -16.1020
 122   2.0000      -0.589798       -16.0492
 123   2.0000      -0.583700       -15.8833
 124   2.0000      -0.578252       -15.7350
 125   2.0000      -0.573007       -15.5923
 126   2.0000      -0.572160       -15.5693
 127   2.0000      -0.568795       -15.4777
 128   2.0000      -0.566076       -15.4037
 129   2.0000      -0.564484       -15.3604
 130   2.0000      -0.557013       -15.1571
 131   2.0000      -0.553248       -15.0546
 132   2.0000      -0.543127       -14.7792
 133   2.0000      -0.542361       -14.7584
 134   2.0000      -0.540864       -14.7177
 135   2.0000      -0.537388       -14.6231
 136   2.0000      -0.535743       -14.5783
 137   2.0000      -0.530571       -14.4376
 138   2.0000      -0.525630       -14.3031
 139   2.0000      -0.523998       -14.2587
 140   2.0000      -0.521996       -14.2042
 141   2.0000      -0.520720       -14.1695
 142   2.0000      -0.516406       -14.0521
 143   2.0000      -0.513596       -13.9757
 144   2.0000      -0.510852       -13.9010
 145   2.0000      -0.509958       -13.8767
 146   2.0000      -0.508646       -13.8410
 147   2.0000      -0.506608       -13.7855
 148   2.0000      -0.504355       -13.7242
 149   2.0000      -0.499577       -13.5942
 150   2.0000      -0.494790       -13.4639
 151   2.0000      -0.492260       -13.3951
 152   2.0000      -0.489323       -13.3152
 153   2.0000      -0.486599       -13.2410
 154   2.0000      -0.481537       -13.1033
 155   2.0000      -0.477277       -12.9874
 156   2.0000      -0.473753       -12.8915
 157   2.0000      -0.472610       -12.8604
 158   2.0000      -0.465175       -12.6580
 159   2.0000      -0.464103       -12.6289
 160   2.0000      -0.461661       -12.5624
 161   2.0000      -0.458503       -12.4765
 162   2.0000      -0.456899       -12.4329
 163   2.0000      -0.455800       -12.4029
 164   2.0000      -0.451519       -12.2865
 165   2.0000      -0.450327       -12.2540
 166   2.0000      -0.448462       -12.2033
 167   2.0000      -0.447450       -12.1757
 168   2.0000      -0.441969       -12.0266
 169   2.0000      -0.438304       -11.9269
 170   2.0000      -0.437342       -11.9007
 171   2.0000      -0.436174       -11.8689
 172   2.0000      -0.433697       -11.8015
 173   2.0000      -0.430326       -11.7098
 174   2.0000      -0.424955       -11.5636
 175   2.0000      -0.419673       -11.4199
 176   2.0000      -0.410726       -11.1764
 177   2.0000      -0.399557       -10.8725
 178   2.0000      -0.392598       -10.6831
 179   2.0000      -0.388731       -10.5779
 180   2.0000      -0.382936       -10.4202
 181   2.0000      -0.375978       -10.2309
 182   2.0000      -0.367922       -10.0117
 183   2.0000      -0.366533        -9.9739
 184   2.0000      -0.354554        -9.6479
 185   2.0000      -0.349693        -9.5156
 186   2.0000      -0.348585        -9.4855
 187   2.0000      -0.345960        -9.4140
 188   2.0000      -0.338770        -9.2184
 189   2.0000      -0.333288        -9.0692
 190   2.0000      -0.332690        -9.0530
 191   2.0000      -0.329355        -8.9622
 192   2.0000      -0.323384        -8.7997
 193   2.0000      -0.311319        -8.4714
 194   2.0000      -0.294042        -8.0013
 195   2.0000      -0.287604        -7.8261
 196   2.0000      -0.244272        -6.6470
 197   2.0000      -0.235461        -6.4072
 198   0.0000      -0.091878        -2.5001
 199   0.0000      -0.078592        -2.1386
 200   0.0000      -0.053015        -1.4426
 201   0.0000      -0.026615        -0.7242
 202   0.0000      -0.018414        -0.5011

MULLIKEN ATOMIC CHARGES
-----------------------
   0 C :   -0.098764
   1 S :    0.194190
   2 C :   -0.158896
   3 C :    0.148612
   4 C :    0.019812
   5 C :    0.069058
   6 C :   -0.017000
   7 O :   -0.186293
   8 C :    0.046488
   9 C :   -0.036228
  10 C :    0.035699
  11 C :   -0.020797
  12 C :    0.085763
  13 C :   -0.070628
  14 C :    0.109964
  15 C :   -0.054232
  16 C :   -0.058488
  17 C :    0.222146
  18 O :   -0.116936
  19 O :   -0.261641
  20 C :    0.107216
  21 O :   -0.263861
  22 C :    0.221321
  23 O :   -0.139825
  24 C :    0.121910
  25 O :   -0.154024
  26 C :    0.162011
  27 C :   -0.018392
  28 C :   -0.089559
  29 S :    0.174234
  30 C :    0.059408
  31 C :   -0.048493
  32 C :   -0.100273
  33 C :    0.214230
  34 O :   -0.138462
  35 O :   -0.254383
  36 C :    0.163366
  37 O :   -0.275986
  38 C :    0.240030
  39 O :   -0.145144
  40 C :   -0.216382
  41 S :    0.228653
  42 C :   -0.103411
  43 C :    0.089016
  44 C :    0.162163
  45 C :   -0.020008
  46 C :    0.008056
  47 O :   -0.194930
  48 C :    0.056561
  49 C :   -0.005537
  50 C :    0.027271
  51 C :   -0.021238
  52 C :   -0.003397
  53 C :   -0.017184
  54 H :    0.052132
  55 H :    0.039087
  56 H :    0.034507
  57 H :    0.044551
  58 H :   -0.012721
  59 H :   -0.004429
  60 H :   -0.018130
  61 H :    0.018691
  62 H :    0.002429
  63 H :    0.027906
  64 H :    0.004140
  65 H :    0.034361
  66 H :    0.057864
  67 H :    0.014902
  68 H :   -0.010639
  69 H :   -0.008643
  70 H :   -0.022028
  71 H :   -0.002227
  72 H :    0.038734
  73 H :    0.032729
Sum of atomic charges:   -0.0000000

LOEWDIN ATOMIC CHARGES
----------------------
   0 C :   -0.163327
   1 S :    0.523776
   2 C :   -0.194138
   3 C :   -0.030795
   4 C :   -0.041267
   5 C :   -0.056128
   6 C :    0.089478
   7 O :   -0.142939
   8 C :   -0.076025
   9 C :   -0.001810
  10 C :   -0.017910
  11 C :    0.006070
  12 C :    0.010213
  13 C :   -0.070340
  14 C :    0.113699
  15 C :   -0.139053
  16 C :   -0.117024
  17 C :    0.103941
  18 O :   -0.126311
  19 O :   -0.056968
  20 C :    0.079738
  21 O :   -0.051697
  22 C :    0.102810
  23 O :   -0.147638
  24 C :    0.003481
  25 O :    0.054418
  26 C :    0.065125
  27 C :   -0.070661
  28 C :   -0.194180
  29 S :    0.425976
  30 C :   -0.050279
  31 C :   -0.154758
  32 C :   -0.140598
  33 C :    0.101718
  34 O :   -0.145118
  35 O :   -0.058696
  36 C :    0.091006
  37 O :   -0.040400
  38 C :    0.111584
  39 O :   -0.141009
  40 C :   -0.205533
  41 S :    0.544263
  42 C :   -0.156922
  43 C :   -0.045115
  44 C :   -0.011062
  45 C :   -0.045354
  46 C :    0.086157
  47 O :   -0.152177
  48 C :   -0.080379
  49 C :   -0.004493
  50 C :   -0.024684
  51 C :   -0.006407
  52 C :   -0.043135
  53 C :   -0.025939
  54 H :    0.031473
  55 H :    0.039667
  56 H :    0.041138
  57 H :    0.045585
  58 H :    0.031440
  59 H :    0.034962
  60 H :    0.034288
  61 H :    0.039194
  62 H :    0.038913
  63 H :    0.032393
  64 H :    0.038263
  65 H :    0.044464
  66 H :    0.054485
  67 H :    0.027638
  68 H :    0.031960
  69 H :    0.031978
  70 H :    0.029367
  71 H :    0.035390
  72 H :    0.023623
  73 H :    0.030597

  Mayer bond orders larger than 0.100000
B(  0-C ,  1-S ) :   1.2402 B(  0-C ,  4-C ) :   1.4299 B(  0-C , 54-H ) :   0.9402
B(  1-S ,  2-C ) :   1.1682 B(  2-C ,  3-C ) :   1.2964 B(  2-C , 12-C ) :   1.1731
B(  3-C ,  4-C ) :   1.2181 B(  3-C , 11-C ) :   1.2113 B(  4-C ,  5-C ) :   1.1845
B(  5-C ,  6-C ) :   0.9143 B(  5-C ,  9-C ) :   1.5063 B(  6-C ,  7-O ) :   2.1429
B(  6-C ,  8-C ) :   1.0724 B(  8-C , 55-H ) :   0.9529 B(  8-C , 56-H ) :   0.9478
B(  8-C , 57-H ) :   0.9331 B(  9-C , 10-C ) :   1.2271 B(  9-C , 58-H ) :   0.9810
B( 10-C , 11-C ) :   1.5248 B( 10-C , 59-H ) :   0.9831 B( 11-C , 60-H ) :   1.0027
B( 12-C , 13-C ) :   1.5499 B( 12-C , 61-H ) :   0.9548 B( 13-C , 14-C ) :   1.2596
B( 13-C , 62-H ) :   0.9606 B( 14-C , 15-C ) :   1.3316 B( 14-C , 19-O ) :   1.1344
B( 15-C , 16-C ) :   1.1347 B( 15-C , 22-C ) :   0.9785 B( 16-C , 17-C ) :   0.9320
B( 16-C , 20-C ) :   1.4411 B( 17-C , 18-O ) :   2.2837 B( 17-C , 19-O ) :   1.0030
B( 20-C , 21-O ) :   1.1547 B( 20-C , 24-C ) :   1.1146 B( 21-O , 22-C ) :   0.9838
B( 22-C , 23-O ) :   2.2498 B( 24-C , 25-O ) :   1.2254 B( 24-C , 26-C ) :   0.1017
B( 24-C , 28-C ) :   1.4462 B( 25-O , 26-C ) :   1.1564 B( 26-C , 27-C ) :   1.5153
B( 26-C , 63-H ) :   1.0071 B( 27-C , 28-C ) :   1.2706 B( 27-C , 64-H ) :   1.0076
B( 28-C , 29-S ) :   0.9890 B( 29-S , 30-C ) :   1.0655 B( 30-C , 31-C ) :   1.5219
B( 30-C , 35-O ) :   1.1102 B( 31-C , 32-C ) :   1.1532 B( 31-C , 38-C ) :   0.9836
B( 32-C , 33-C ) :   0.9838 B( 32-C , 36-C ) :   1.4068 B( 33-C , 34-O ) :   2.2367
B( 33-C , 35-O ) :   0.9682 B( 36-C , 37-O ) :   1.1394 B( 36-C , 40-C ) :   1.2222
B( 37-O , 38-C ) :   0.9708 B( 38-C , 39-O ) :   2.2070 B( 40-C , 41-S ) :   1.1607
B( 40-C , 42-C ) :   0.1190 B( 40-C , 44-C ) :   1.3012 B( 41-S , 42-C ) :   1.1820
B( 42-C , 43-C ) :   1.3111 B( 42-C , 52-C ) :   1.1387 B( 43-C , 44-C ) :   1.2200
B( 43-C , 51-C ) :   1.2078 B( 44-C , 45-C ) :   1.2510 B( 45-C , 46-C ) :   0.8849
B( 45-C , 49-C ) :   1.5438 B( 46-C , 47-O ) :   2.1865 B( 46-C , 48-C ) :   1.0357
B( 48-C , 65-H ) :   0.9431 B( 48-C , 66-H ) :   0.9276 B( 48-C , 67-H ) :   0.9571
B( 49-C , 50-C ) :   1.2281 B( 49-C , 68-H ) :   0.9820 B( 50-C , 51-C ) :   1.5444
B( 50-C , 69-H ) :   0.9838 B( 51-C , 70-H ) :   0.9918 B( 52-C , 53-C ) :   1.9014
B( 52-C , 71-H ) :   0.9614 B( 53-C , 72-H ) :   0.9586 B( 53-C , 73-H ) :   0.9493

-----------------------------------------------------------------------------
         ABSORPTION SPECTRUM VIA TRANSITION ELECTRIC DIPOLE MOMENTS
-----------------------------------------------------------------------------
State   Energy  Wavelength   fosc         T2         TX        TY        TZ
        (cm-1)    (nm)                  (au**2)     (au)      (au)      (au)
-----------------------------------------------------------------------------
   0   17130.6    583.7   0.890983455  17.12268  -0.71238  -3.31571  -2.37092
   1   19425.8    514.8   0.670128934  11.35679   0.84056  -2.45687   2.14804
   2   19521.3    512.3   0.426055086   7.18508   0.16496   2.66119  -0.27552
   3   22723.4    440.1   0.032863170   0.47611   0.37573  -0.21839   0.53595
   4   24903.0    401.6   0.084068854   1.11137  -0.07391   1.04155   0.14522
   5   27007.8    370.3   0.051297557   0.62529  -0.06143   0.08084  -0.78421
   6   27436.3    364.5   0.044644509   0.53570  -0.59270  -0.17953   0.39010
   7   28605.7    349.6   0.018347907   0.21116  -0.32499   0.01263   0.32462
   8   29604.1    337.8   0.005405645   0.06011   0.16978  -0.07514  -0.16013
   9   30271.0    330.3   0.167525153   1.82192  -0.71918   0.53685   1.00821
  10   31114.7    321.4   0.012922955   0.13673   0.16048   0.30342   0.13753
  11   31445.9    318.0   0.002212370   0.02316  -0.04885  -0.08966   0.11286
  12   31844.7    314.0   0.001437237   0.01486   0.04610  -0.07012  -0.08841
  13   33527.8    298.3   0.000556015   0.00546   0.06952   0.00672   0.02410
  14   33653.1    297.1   0.012740364   0.12463   0.02822   0.02775  -0.35081
  15   34124.6    293.0   0.004483958   0.04326   0.02140   0.20266   0.04159
  16   34280.6    291.7   0.125727338   1.20741  -0.47025   0.42504   0.89756
  17   35092.3    285.0   0.062349010   0.58492  -0.54070  -0.34305   0.41818
  18   35184.8    284.2   0.004346511   0.04067  -0.04236   0.16608   0.10626
  19   35422.0    282.3   0.109329090   1.01610   0.66599  -0.09465  -0.75073
  20   35731.0    279.9   0.009666150   0.08906  -0.06431   0.25756   0.13633
  21   35906.0    278.5   0.025320190   0.23215   0.12457  -0.45611   0.09275
  22   37137.9    269.3   0.041418825   0.36716  -0.07780  -0.12633  -0.58749
  23   37313.5    268.0   0.015043996   0.13273   0.21361  -0.05667  -0.28964
  24   37596.8    266.0   0.058260682   0.51015  -0.39755  -0.11274   0.58258
  25   37679.5    265.4   0.008019641   0.07007   0.13453  -0.21385  -0.07899
  26   38638.7    258.8   0.003774380   0.03216   0.13027  -0.11730  -0.03780
  27   38856.2    257.4   0.021581114   0.18285   0.02036   0.42027   0.07622
  28   39346.1    254.2   0.105048738   0.87895   0.51485  -0.15927  -0.76714
  29   40113.8    249.3   0.129313403   1.06127  -0.63900   0.79903   0.12038

FINAL SINGLE POINT ENERGY     -3555.040434009839

DIPOLE MOMENT
-------------
                                X             Y             Z
Electronic contribution:     -8.53804     -27.26483      25.93359
Nuclear contribution   :      9.09986      29.08936     -27.01082
                        -----------------------------------------
Total Dipole Moment    :      0.56182       1.82453      -1.07723
                        -----------------------------------------
Magnitude (a.u.)       :      2.19203
Magnitude (Debye)      :      5.57169

Rotational constants in cm-1:     0.001948     0.000671     0.000558
Rotational constants in MHz :    58.413570    20.106717    16.720770

                             ****ORCA TERMINATED NORMALLY****
TOTAL RUN TIME: 0 days 0 hours 5 minutes 2 seconds 630 msec
