                         Program Version 4.2.0 -  RELEASE  -
|  1> # ORCA input file
|  2> # SCF done       -166.010652937321          0.000366004952
|  3> ! CAM-B3LYP def2-SVP def2/J RIJCOSX Grid4 TightSCF
|  4> %maxcore 5000
|  5> %tddft
|  6>     Mode sTDDFT
|  7>     Ethresh 5.0
|  8>     maxcore 5000
|  9> end
| 10>
| 11> %pal
| 12>   nprocs 6
| 13>   end
| 14> * xyz 0 1
| 15>    C       -4.46110        -2.17699        -3.71031
| 16>    S       -3.92122        -1.80724        -2.14157
| 17>    C       -4.08880        -3.44896        -1.61606
| 18>    C       -4.56811        -4.26051        -2.65477
| 19>    C       -4.78191        -3.51244        -3.86207
| 20>    C       -5.28307        -4.15770        -5.01305
| 21>    C       -5.58157        -5.49505        -4.95778
| 22>    C       -6.10381        -6.15535        -6.09614
| 23>    N       -6.53123        -6.67066        -7.02506
| 24>    C       -5.38630        -6.23582        -3.74813
| 25>    C       -5.73846        -7.60501        -3.69510
| 26>    N       -6.02873        -8.70917        -3.60235
| 27>    C       -4.88246        -5.62946        -2.62208
| 28>    C       -3.77588        -3.82934        -0.28719
| 29>    O       -3.71711        -5.13062         0.05198
| 30>    C       -3.43834        -5.21437         1.38197
| 31>    C       -3.31517        -3.94375         1.91025
| 32>    C       -3.51873        -3.04546         0.84455
| 33>    C       -3.48769        -1.64595         0.90928
| 34>    N       -3.45973        -0.50144         0.97551
| 35>    C       -3.30391        -6.48300         2.00105
| 36>    C       -3.26404        -7.65064         1.30946
| 37>    C       -3.14231        -8.92944         1.89488
| 38>    S       -3.28838        -9.18803         3.59970
| 39>    C       -3.07796       -10.90520         3.46169
| 40>    C       -2.83706       -11.26631         2.12994
| 41>    C       -2.88937       -10.14488         1.23725
| 42>    C       -2.59368       -10.32734        -0.12313
| 43>    C       -2.23473       -11.56671        -0.58593
| 44>    N       -1.71591       -11.64942        -1.93835
| 45>    O       -2.17819       -10.88620        -2.75106
| 46>    O       -0.79806       -12.41468        -2.11620
| 47>    C       -2.18668       -12.67720         0.29544
| 48>    N       -1.94566       -14.02789        -0.18723
| 49>    O       -2.42032       -14.31350        -1.25697
| 50>    O       -1.35495       -14.76967         0.56108
| 51>    C       -2.46956       -12.52837         1.62666
| 52>    C       -3.12022       -11.70965         4.63041
| 53>    S       -2.46940       -11.08850         6.11710
| 54>    C       -2.84929       -12.52757         6.99228
| 55>    C       -3.49437       -13.45966         6.16637
| 56>    C       -3.66126       -12.98739         4.82182
| 57>    C       -4.38548       -13.77342         3.90608
| 58>    C       -4.88446       -14.98921         4.29196
| 59>    N       -5.48688       -15.82260         3.26504
| 60>    O       -6.10120       -15.25185         2.39631
| 61>    O       -5.26025       -17.00521         3.32862
| 62>    C       -4.70961       -15.45738         5.61978
| 63>    N       -5.39280       -16.63826         6.11188
| 64>    O       -4.84399       -17.25581         6.99366
| 65>    O       -6.49102       -16.85811         5.66193
| 66>    C       -4.02276       -14.70691         6.53708
| 67>    C       -2.51976       -12.65676         8.36411
| 68>    O       -2.77477       -13.80069         9.02870
| 69>    C       -2.36383       -13.65090        10.31022
| 70>    C       -1.83474       -12.39216        10.48820
| 71>    C       -1.92741       -11.74029         9.23912
| 72>    C       -1.51988       -10.43573         8.93392
| 73>    N       -1.18834        -9.36469         8.69013
| 74>    C       -2.51510       -14.72730        11.25212
| 75>    C       -3.03003       -15.91827        10.95315
| 76>    H       -4.52587        -1.40476        -4.45093
| 77>    H       -5.43753        -3.59613        -5.92167
| 78>    H       -4.74730        -6.20047        -1.71781
| 79>    H       -3.09883        -3.68803         2.92712
| 80>    H       -3.20542        -6.47737         3.07711
| 81>    H       -3.31291        -7.61952         0.23019
| 82>    H       -2.59368        -9.49713        -0.81234
| 83>    H       -2.38169       -13.38433         2.27722
| 84>    H       -4.57019       -13.43050         2.90000
| 85>    H       -3.92818       -15.06519         7.54925
| 86>    H       -1.42990       -11.98221        11.39041
| 87>    H       -2.17102       -14.49870        12.25051
| 88>    H       -3.37143       -16.16133         9.96121
| 89>    H       -3.12125       -16.68963        11.69637
| 90> *
| 91>
| 92>                          ****END OF INPUT****

CARTESIAN COORDINATES (ANGSTROEM)
---------------------------------
  C     -4.461100   -2.176990   -3.710310
  S     -3.921220   -1.807240   -2.141570
  C     -4.088800   -3.448960   -1.616060
  C     -4.568110   -4.260510   -2.654770
  C     -4.781910   -3.512440   -3.862070
  C     -5.283070   -4.157700   -5.013050
  C     -5.581570   -5.495050   -4.957780
  C     -6.103810   -6.155350   -6.096140
  N     -6.531230   -6.670660   -7.025060
  C     -5.386300   -6.235820   -3.748130
  C     -5.738460   -7.605010   -3.695100
  N     -6.028730   -8.709170   -3.602350
  C     -4.882460   -5.629460   -2.622080
  C     -3.775880   -3.829340   -0.287190
  O     -3.717110   -5.130620    0.051980
  C     -3.438340   -5.214370    1.381970
  C     -3.315170   -3.943750    1.910250
  C     -3.518730   -3.045460    0.844550
  C     -3.487690   -1.645950    0.909280
  N     -3.459730   -0.501440    0.975510
  C     -3.303910   -6.483000    2.001050
  C     -3.264040   -7.650640    1.309460
  C     -3.142310   -8.929440    1.894880
  S     -3.288380   -9.188030    3.599700
  C     -3.077960  -10.905200    3.461690
  C     -2.837060  -11.266310    2.129940
  C     -2.889370  -10.144880    1.237250
  C     -2.593680  -10.327340   -0.123130
  C     -2.234730  -11.566710   -0.585930
  N     -1.715910  -11.649420   -1.938350
  O     -2.178190  -10.886200   -2.751060
  O     -0.798060  -12.414680   -2.116200
  C     -2.186680  -12.677200    0.295440
  N     -1.945660  -14.027890   -0.187230
  O     -2.420320  -14.313500   -1.256970
  O     -1.354950  -14.769670    0.561080
  C     -2.469560  -12.528370    1.626660
  C     -3.120220  -11.709650    4.630410
  S     -2.469400  -11.088500    6.117100
  C     -2.849290  -12.527570    6.992280
  C     -3.494370  -13.459660    6.166370
  C     -3.661260  -12.987390    4.821820
  C     -4.385480  -13.773420    3.906080
  C     -4.884460  -14.989210    4.291960
  N     -5.486880  -15.822600    3.265040
  O     -6.101200  -15.251850    2.396310
  O     -5.260250  -17.005210    3.328620
  C     -4.709610  -15.457380    5.619780
  N     -5.392800  -16.638260    6.111880
  O     -4.843990  -17.255810    6.993660
  O     -6.491020  -16.858110    5.661930
  C     -4.022760  -14.706910    6.537080
  C     -2.519760  -12.656760    8.364110
  O     -2.774770  -13.800690    9.028700
  C     -2.363830  -13.650900   10.310220
  C     -1.834740  -12.392160   10.488200
  C     -1.927410  -11.740290    9.239120
  C     -1.519880  -10.435730    8.933920
  N     -1.188340   -9.364690    8.690130
  C     -2.515100  -14.727300   11.252120
  C     -3.030030  -15.918270   10.953150
  H     -4.525870   -1.404760   -4.450930
  H     -5.437530   -3.596130   -5.921670
  H     -4.747300   -6.200470   -1.717810
  H     -3.098830   -3.688030    2.927120
  H     -3.205420   -6.477370    3.077110
  H     -3.312910   -7.619520    0.230190
  H     -2.593680   -9.497130   -0.812340
  H     -2.381690  -13.384330    2.277220
  H     -4.570190  -13.430500    2.900000
  H     -3.928180  -15.065190    7.549250
  H     -1.429900  -11.982210   11.390410
  H     -2.171020  -14.498700   12.250510
  H     -3.371430  -16.161330    9.961210
  H     -3.121250  -16.689630   11.696370

 Total Charge           Charge          ....    0
 Multiplicity           Mult            ....    1
 Number of Electrons    NEL             ....  438
 Basis Dimension        Dim             ....  936

ORBITAL ENERGIES
----------------

  NO   OCC          E(Eh)            E(eV)
   0   2.0000     -89.016130     -2422.2520
   1   2.0000     -89.013181     -2422.1718
   2   2.0000     -89.011450     -2422.1247
   3   2.0000     -19.340671      -526.2864
   4   2.0000     -19.336923      -526.1844
   5   2.0000     -19.257819      -524.0319
   6   2.0000     -19.256678      -524.0008
   7   2.0000     -19.256070      -523.9843
   8   2.0000     -19.254637      -523.9453
   9   2.0000     -19.254424      -523.9395
  10   2.0000     -19.253789      -523.9222
  11   2.0000     -19.252951      -523.8994
  12   2.0000     -19.252839      -523.8964
  13   2.0000     -14.664175      -399.0325
  14   2.0000     -14.662459      -398.9858
  15   2.0000     -14.660794      -398.9405
  16   2.0000     -14.660725      -398.9386
  17   2.0000     -14.433015      -392.7423
  18   2.0000     -14.431020      -392.6880
  19   2.0000     -14.418212      -392.3395
  20   2.0000     -14.417284      -392.3142
  21   2.0000     -10.395908      -282.8871
  22   2.0000     -10.391378      -282.7638
  23   2.0000     -10.374204      -282.2964
  24   2.0000     -10.368796      -282.1493
  25   2.0000     -10.363925      -282.0167
  26   2.0000     -10.362668      -281.9825
  27   2.0000     -10.362588      -281.9804
  28   2.0000     -10.361284      -281.9449
  29   2.0000     -10.359065      -281.8845
  30   2.0000     -10.358178      -281.8603
  31   2.0000     -10.357234      -281.8347
  32   2.0000     -10.351771      -281.6860
  33   2.0000     -10.350291      -281.6457
  34   2.0000     -10.344886      -281.4987
  35   2.0000     -10.344066      -281.4764
  36   2.0000     -10.340443      -281.3778
  37   2.0000     -10.339528      -281.3529
  38   2.0000     -10.339445      -281.3506
  39   2.0000     -10.335452      -281.2420
  40   2.0000     -10.335107      -281.2326
  41   2.0000     -10.334317      -281.2110
  42   2.0000     -10.333720      -281.1948
  43   2.0000     -10.333242      -281.1818
  44   2.0000     -10.333064      -281.1770
  45   2.0000     -10.331916      -281.1457
  46   2.0000     -10.331618      -281.1376
  47   2.0000     -10.331119      -281.1241
  48   2.0000     -10.330521      -281.1078
  49   2.0000     -10.328888      -281.0633
  50   2.0000     -10.328536      -281.0538
  51   2.0000     -10.326790      -281.0062
  52   2.0000     -10.325692      -280.9764
  53   2.0000     -10.325500      -280.9711
  54   2.0000     -10.324793      -280.9519
  55   2.0000     -10.321776      -280.8698
  56   2.0000     -10.316033      -280.7135
  57   2.0000     -10.315298      -280.6935
  58   2.0000     -10.313847      -280.6540
  59   2.0000     -10.306499      -280.4541
  60   2.0000     -10.294088      -280.1164
  61   2.0000      -8.110398      -220.6952
  62   2.0000      -8.107595      -220.6189
  63   2.0000      -8.106545      -220.5903
  64   2.0000      -6.079560      -165.4332
  65   2.0000      -6.076598      -165.3526
  66   2.0000      -6.075482      -165.3223
  67   2.0000      -6.075123      -165.3125
  68   2.0000      -6.073125      -165.2581
  69   2.0000      -6.071975      -165.2268
  70   2.0000      -6.071371      -165.2104
  71   2.0000      -6.070882      -165.1971
  72   2.0000      -6.069357      -165.1556
  73   2.0000      -1.343013       -36.5452
  74   2.0000      -1.340448       -36.4754
  75   2.0000      -1.336156       -36.3587
  76   2.0000      -1.333696       -36.2917
  77   2.0000      -1.259232       -34.2655
  78   2.0000      -1.256377       -34.1878
  79   2.0000      -1.163617       -31.6636
  80   2.0000      -1.161112       -31.5955
  81   2.0000      -1.158014       -31.5112
  82   2.0000      -1.155437       -31.4410
  83   2.0000      -1.055747       -28.7283
  84   2.0000      -1.041975       -28.3536
  85   2.0000      -1.040622       -28.3168
  86   2.0000      -1.019003       -27.7285
  87   2.0000      -1.017723       -27.6937
  88   2.0000      -1.012255       -27.5449
  89   2.0000      -1.006466       -27.3873
  90   2.0000      -0.999165       -27.1887
  91   2.0000      -0.998305       -27.1653
  92   2.0000      -0.975596       -26.5473
  93   2.0000      -0.961055       -26.1516
  94   2.0000      -0.951949       -25.9039
  95   2.0000      -0.950363       -25.8607
  96   2.0000      -0.945605       -25.7312
  97   2.0000      -0.931556       -25.3489
  98   2.0000      -0.924379       -25.1536
  99   2.0000      -0.918276       -24.9876
 100   2.0000      -0.917190       -24.9580
 101   2.0000      -0.906395       -24.6643
 102   2.0000      -0.901989       -24.5444
 103   2.0000      -0.890364       -24.2280
 104   2.0000      -0.885783       -24.1034
 105   2.0000      -0.867063       -23.5940
 106   2.0000      -0.846619       -23.0377
 107   2.0000      -0.835143       -22.7254
 108   2.0000      -0.817130       -22.2352
 109   2.0000      -0.811342       -22.0777
 110   2.0000      -0.803603       -21.8672
 111   2.0000      -0.795114       -21.6362
 112   2.0000      -0.783912       -21.3313
 113   2.0000      -0.783233       -21.3129
 114   2.0000      -0.772140       -21.0110
 115   2.0000      -0.762096       -20.7377
 116   2.0000      -0.750516       -20.4226
 117   2.0000      -0.735380       -20.0107
 118   2.0000      -0.732090       -19.9212
 119   2.0000      -0.729689       -19.8558
 120   2.0000      -0.719023       -19.5656
 121   2.0000      -0.716031       -19.4842
 122   2.0000      -0.710606       -19.3366
 123   2.0000      -0.698395       -19.0043
 124   2.0000      -0.690819       -18.7981
 125   2.0000      -0.677940       -18.4477
 126   2.0000      -0.671396       -18.2696
 127   2.0000      -0.666018       -18.1233
 128   2.0000      -0.661409       -17.9979
 129   2.0000      -0.656573       -17.8663
 130   2.0000      -0.655616       -17.8402
 131   2.0000      -0.646998       -17.6057
 132   2.0000      -0.642970       -17.4961
 133   2.0000      -0.641408       -17.4536
 134   2.0000      -0.633998       -17.2520
 135   2.0000      -0.631226       -17.1765
 136   2.0000      -0.629208       -17.1216
 137   2.0000      -0.625800       -17.0289
 138   2.0000      -0.624588       -16.9959
 139   2.0000      -0.616641       -16.7797
 140   2.0000      -0.613289       -16.6885
 141   2.0000      -0.610488       -16.6122
 142   2.0000      -0.607575       -16.5330
 143   2.0000      -0.604470       -16.4485
 144   2.0000      -0.603138       -16.4122
 145   2.0000      -0.598431       -16.2841
 146   2.0000      -0.596579       -16.2337
 147   2.0000      -0.593019       -16.1369
 148   2.0000      -0.588948       -16.0261
 149   2.0000      -0.581598       -15.8261
 150   2.0000      -0.577354       -15.7106
 151   2.0000      -0.576238       -15.6802
 152   2.0000      -0.573095       -15.5947
 153   2.0000      -0.567769       -15.4498
 154   2.0000      -0.565483       -15.3876
 155   2.0000      -0.560782       -15.2597
 156   2.0000      -0.557578       -15.1725
 157   2.0000      -0.553339       -15.0571
 158   2.0000      -0.550832       -14.9889
 159   2.0000      -0.543120       -14.7790
 160   2.0000      -0.542191       -14.7538
 161   2.0000      -0.539607       -14.6835
 162   2.0000      -0.538997       -14.6669
 163   2.0000      -0.534024       -14.5315
 164   2.0000      -0.530676       -14.4404
 165   2.0000      -0.521596       -14.1934
 166   2.0000      -0.518556       -14.1106
 167   2.0000      -0.513173       -13.9641
 168   2.0000      -0.508852       -13.8466
 169   2.0000      -0.501877       -13.6568
 170   2.0000      -0.500082       -13.6079
 171   2.0000      -0.486954       -13.2507
 172   2.0000      -0.485733       -13.2175
 173   2.0000      -0.483021       -13.1437
 174   2.0000      -0.481730       -13.1085
 175   2.0000      -0.480550       -13.0764
 176   2.0000      -0.476004       -12.9527
 177   2.0000      -0.472845       -12.8668
 178   2.0000      -0.468807       -12.7569
 179   2.0000      -0.468733       -12.7549
 180   2.0000      -0.468235       -12.7413
 181   2.0000      -0.462016       -12.5721
 182   2.0000      -0.460250       -12.5240
 183   2.0000      -0.458750       -12.4832
 184   2.0000      -0.454561       -12.3692
 185   2.0000      -0.450055       -12.2466
 186   2.0000      -0.444701       -12.1009
 187   2.0000      -0.443369       -12.0647
 188   2.0000      -0.429737       -11.6937
 189   2.0000      -0.429019       -11.6742
 190   2.0000      -0.426631       -11.6092
 191   2.0000      -0.423314       -11.5190
 192   2.0000      -0.419798       -11.4233
 193   2.0000      -0.419068       -11.4034
 194   2.0000      -0.413986       -11.2651
 195   2.0000      -0.409806       -11.1514
 196   2.0000      -0.405925       -11.0458
 197   2.0000      -0.404299       -11.0015
 198   2.0000      -0.401253       -10.9186
 199   2.0000      -0.397810       -10.8250
 200   2.0000      -0.395583       -10.7644
 201   2.0000      -0.394198       -10.7267
 202   2.0000      -0.393564       -10.7094
 203   2.0000      -0.392924       -10.6920
 204   2.0000      -0.390870       -10.6361
 205   2.0000      -0.389063       -10.5869
 206   2.0000      -0.386452       -10.5159
 207   2.0000      -0.380687       -10.3590
 208   2.0000      -0.379235       -10.3195
 209   2.0000      -0.379066       -10.3149
 210   2.0000      -0.376323       -10.2403
 211   2.0000      -0.358037        -9.7427
 212   2.0000      -0.356134        -9.6909
 213   2.0000      -0.351813        -9.5733
 214   2.0000      -0.347083        -9.4446
 215   2.0000      -0.342541        -9.3210
 216   2.0000      -0.311806        -8.4847
 217   2.0000      -0.284438        -7.7399
 218   2.0000      -0.256333        -6.9752
 219   0.0000      -0.120659        -3.2833
 220   0.0000      -0.097559        -2.6547
 221   0.0000      -0.085235        -2.3194
 222   0.0000      -0.067109        -1.8261
 223   0.0000      -0.059476        -1.6184

MULLIKEN ATOMIC CHARGES
-----------------------
   0 C :   -0.095849
   1 S :    0.237964
   2 C :   -0.242517
   3 C :    0.170073
   4 C :    0.091587
   5 C :   -0.013361
   6 C :   -0.072332
   7 C :   -0.174536
   8 N :    0.180737
   9 C :   -0.051465
  10 C :   -0.175290
  11 N :    0.181184
  12 C :   -0.057198
  13 C :    0.203300
  14 O :   -0.211467
  15 C :    0.190513
  16 C :   -0.028672
  17 C :   -0.091375
  18 C :   -0.236799
  19 N :    0.176419
  20 C :   -0.018924
  21 C :   -0.006235
  22 C :   -0.073665
  23 S :    0.197902
  24 C :   -0.155230
  25 C :    0.167296
  26 C :    0.116502
  27 C :   -0.068662
  28 C :    0.129704
  29 N :    0.249471
  30 O :   -0.218152
  31 O :   -0.218091
  32 C :    0.112901
  33 N :    0.251647
  34 O :   -0.205104
  35 O :   -0.225808
  36 C :   -0.087614
  37 C :   -0.130215
  38 S :    0.227867
  39 C :   -0.183644
  40 C :    0.129768
  41 C :    0.143887
  42 C :   -0.083864
  43 C :    0.114567
  44 N :    0.252703
  45 O :   -0.221902
  46 O :   -0.210315
  47 C :    0.137657
  48 N :    0.251947
  49 O :   -0.230349
  50 O :   -0.213856
  51 C :   -0.076977
  52 C :    0.187055
  53 O :   -0.201224
  54 C :    0.183290
  55 C :   -0.039983
  56 C :   -0.084692
  57 C :   -0.235190
  58 N :    0.174258
  59 C :   -0.024547
  60 C :   -0.000029
  61 H :    0.041669
  62 H :    0.000370
  63 H :   -0.006615
  64 H :    0.005226
  65 H :    0.011752
  66 H :    0.012300
  67 H :    0.008528
  68 H :    0.012968
  69 H :    0.015232
  70 H :    0.007437
  71 H :    0.001035
  72 H :    0.006959
  73 H :    0.046901
  74 H :    0.041172
Sum of atomic charges:    0.0000000

LOEWDIN ATOMIC CHARGES
----------------------
   0 C :   -0.169075
   1 S :    0.560710
   2 C :   -0.204226
   3 C :   -0.033161
   4 C :   -0.050327
   5 C :    0.039023
   6 C :   -0.052220
   7 C :   -0.033453
   8 N :   -0.027346
   9 C :   -0.046127
  10 C :   -0.034182
  11 N :   -0.026460
  12 C :    0.026426
  13 C :    0.057470
  14 O :    0.023221
  15 C :    0.033727
  16 C :   -0.016550
  17 C :   -0.114146
  18 C :   -0.050146
  19 N :   -0.038697
  20 C :   -0.030589
  21 C :   -0.036341
  22 C :   -0.158458
  23 S :    0.503156
  24 C :   -0.193203
  25 C :   -0.040488
  26 C :   -0.041268
  27 C :    0.029297
  28 C :   -0.020957
  29 N :    0.281468
  30 O :   -0.186237
  31 O :   -0.185655
  32 C :   -0.015137
  33 N :    0.280203
  34 O :   -0.174295
  35 O :   -0.192180
  36 C :    0.015442
  37 C :   -0.188106
  38 S :    0.536730
  39 C :   -0.184912
  40 C :   -0.036231
  41 C :   -0.042385
  42 C :    0.017662
  43 C :   -0.017699
  44 N :    0.280324
  45 O :   -0.188832
  46 O :   -0.178530
  47 C :   -0.021669
  48 N :    0.282385
  49 O :   -0.195362
  50 O :   -0.181599
  51 C :    0.024811
  52 C :    0.043129
  53 O :    0.031185
  54 C :    0.046792
  55 C :   -0.030001
  56 C :   -0.108060
  57 C :   -0.049045
  58 N :   -0.042924
  59 C :   -0.044564
  60 C :   -0.008339
  61 H :    0.035083
  62 H :    0.047453
  63 H :    0.038393
  64 H :    0.044788
  65 H :    0.037451
  66 H :    0.039212
  67 H :    0.045893
  68 H :    0.045812
  69 H :    0.047055
  70 H :    0.042956
  71 H :    0.043276
  72 H :    0.042347
  73 H :    0.031381
  74 H :    0.034921

  Mayer bond orders larger than 0.100000
B(  0-C ,  1-S ) :   1.2264 B(  0-C ,  2-C ) :   0.1192 B(  0-C ,  4-C ) :   1.3972
B(  0-C , 61-H ) :   0.9699 B(  1-S ,  2-C ) :   1.2014 B(  2-C ,  3-C ) :   1.3104
B(  2-C , 13-C ) :   1.1875 B(  3-C ,  4-C ) :   1.1868 B(  3-C , 12-C ) :   1.2001
B(  4-C ,  5-C ) :   1.1573 B(  5-C ,  6-C ) :   1.5724 B(  5-C , 62-H ) :   1.0066
B(  6-C ,  7-C ) :   1.0792 B(  6-C ,  9-C ) :   1.2291 B(  7-C ,  8-N ) :   3.0486
B(  9-C , 10-C ) :   1.0759 B(  9-C , 12-C ) :   1.5603 B( 10-C , 11-N ) :   3.0467
B( 12-C , 63-H ) :   0.9986 B( 13-C , 14-O ) :   1.1779 B( 13-C , 17-C ) :   1.4222
B( 14-O , 15-C ) :   1.0945 B( 15-C , 16-C ) :   1.4315 B( 15-C , 20-C ) :   1.1684
B( 16-C , 17-C ) :   1.2403 B( 16-C , 64-H ) :   1.0233 B( 17-C , 18-C ) :   1.1143
B( 18-C , 19-N ) :   3.0242 B( 20-C , 21-C ) :   1.6126 B( 20-C , 65-H ) :   0.9613
B( 21-C , 22-C ) :   1.1821 B( 21-C , 66-H ) :   0.9717 B( 22-C , 23-S ) :   1.1488
B( 22-C , 24-C ) :   0.1134 B( 22-C , 26-C ) :   1.3313 B( 23-S , 24-C ) :   1.1698
B( 24-C , 25-C ) :   1.3706 B( 24-C , 37-C ) :   1.1282 B( 25-C , 26-C ) :   1.1979
B( 25-C , 36-C ) :   1.1362 B( 26-C , 27-C ) :   1.1565 B( 27-C , 28-C ) :   1.5594
B( 27-C , 67-H ) :   0.9889 B( 28-C , 29-N ) :   0.8681 B( 28-C , 32-C ) :   1.2210
B( 29-N , 30-O ) :   1.5501 B( 29-N , 31-O ) :   1.5628 B( 30-O , 31-O ) :   0.2767
B( 32-C , 33-N ) :   0.8633 B( 32-C , 36-C ) :   1.5704 B( 33-N , 34-O ) :   1.5721
B( 33-N , 35-O ) :   1.5441 B( 34-O , 35-O ) :   0.2784 B( 36-C , 68-H ) :   0.9917
B( 37-C , 38-S ) :   1.1640 B( 37-C , 39-C ) :   0.1297 B( 37-C , 41-C ) :   1.3678
B( 38-S , 39-C ) :   1.1762 B( 39-C , 40-C ) :   1.3433 B( 39-C , 52-C ) :   1.1749
B( 40-C , 41-C ) :   1.1878 B( 40-C , 51-C ) :   1.1603 B( 41-C , 42-C ) :   1.1378
B( 42-C , 43-C ) :   1.5654 B( 42-C , 69-H ) :   0.9919 B( 43-C , 44-N ) :   0.8648
B( 43-C , 47-C ) :   1.2234 B( 44-N , 45-O ) :   1.5473 B( 44-N , 46-O ) :   1.5669
B( 45-O , 46-O ) :   0.2784 B( 47-C , 48-N ) :   0.8684 B( 47-C , 51-C ) :   1.5344
B( 48-N , 49-O ) :   1.5450 B( 48-N , 50-O ) :   1.5683 B( 49-O , 50-O ) :   0.2759
B( 51-C , 70-H ) :   0.9980 B( 52-C , 53-O ) :   1.1798 B( 52-C , 56-C ) :   1.4315
B( 53-O , 54-C ) :   1.1072 B( 54-C , 55-C ) :   1.4633 B( 54-C , 59-C ) :   1.1132
B( 55-C , 56-C ) :   1.2332 B( 55-C , 71-H ) :   1.0225 B( 56-C , 57-C ) :   1.1176
B( 57-C , 58-N ) :   3.0167 B( 59-C , 60-C ) :   1.9092 B( 59-C , 72-H ) :   0.9578
B( 60-C , 73-H ) :   0.9644 B( 60-C , 74-H ) :   0.9466

-----------------------------------------------------------------------------
         ABSORPTION SPECTRUM VIA TRANSITION ELECTRIC DIPOLE MOMENTS
-----------------------------------------------------------------------------
State   Energy  Wavelength   fosc         T2         TX        TY        TZ
        (cm-1)    (nm)                  (au**2)     (au)      (au)      (au)
-----------------------------------------------------------------------------
   0   14557.3    686.9   1.149096568  25.98677  -0.54465   3.24074  -3.89714
   1   19651.2    508.9   0.126771064   2.12376  -0.25027   1.37509   0.41261
   2   21308.2    469.3   0.025355980   0.39175  -0.40889   0.45868  -0.11905
   3   22286.8    448.7   0.152224691   2.24861   0.45725   0.60519   1.29355
   4   25275.9    395.6   0.123038178   1.60254   1.09746   0.44860   0.44372
   5   26295.5    380.3   0.067405858   0.84390   0.19614   0.18203   0.87880
   6   26800.7    373.1   0.338444324   4.15735  -0.14031  -1.37476  -1.49923
   7   28372.7    352.5   0.020782387   0.24114  -0.07954   0.19048   0.44557
   8   29665.3    337.1   0.071678889   0.79546  -0.07540   0.38126   0.80275
   9   30465.5    328.2   0.216947155   2.34434   0.22887  -0.63510   1.37427
  10   32319.2    309.4   0.096651853   0.98452  -0.05570   0.76207  -0.63299
  11   32426.5    308.4   0.048424896   0.49164  -0.32879   0.45774  -0.41714
  12   33229.7    300.9   0.002921393   0.02894   0.11086  -0.10079   0.08060
  13   33353.4    299.8   0.041905790   0.41363  -0.12289  -0.59601  -0.20809
  14   34109.0    293.2   0.120160616   1.15976  -0.51253   0.57016   0.75630
  15   34172.2    292.6   0.095968377   0.92455  -0.08915   0.45091   0.84456
  16   34780.8    287.5   0.095709749   0.90592   0.37349   0.86301   0.14715
  17   35354.0    282.9   0.038984072   0.36301  -0.39521  -0.04500   0.45254
  18   35654.6    280.5   0.183202525   1.69158   0.42377   1.02731   0.67574
  19   36242.7    275.9   0.191287938   1.73757  -0.38116  -1.01797  -0.74567
  20   36395.8    274.8   0.091613152   0.82867   0.06379   0.89733   0.13931
  21   36750.6    272.1   0.139845033   1.25273   0.29188   0.97965   0.45588
  22   37333.8    267.9   0.040253609   0.35496   0.14185   0.11147  -0.56781
  23   37925.7    263.7   0.014669570   0.12734   0.18856  -0.28802  -0.09396
  24   38318.2    261.0   0.006687045   0.05745   0.11318  -0.13788   0.16009
  25   38392.3    260.5   0.016007781   0.13727   0.14741  -0.24253   0.23814
  26   38495.6    259.8   0.068524013   0.58601  -0.21946  -0.44833   0.58038
  27   38693.3    258.4   0.016394058   0.13948   0.02592  -0.23557  -0.28865
  28   38961.1    256.7   0.007955911   0.06723   0.04744   0.23469  -0.09947
  29   39132.7    255.5   0.042052683   0.35378  -0.15496  -0.41517   0.39673
  30   39258.0    254.7   0.003936538   0.03301   0.01176  -0.10591   0.14716
  31   39434.0    253.6   0.015270731   0.12749   0.03732   0.23494   0.26626
  32   39565.3    252.7   0.011501196   0.09570   0.06026   0.30305  -0.01499
  33   40243.8    248.5   0.247713128   2.02640  -0.34136  -1.09888  -0.83806

FINAL SINGLE POINT ENERGY     -3913.327896994469

DIPOLE MOMENT
-------------
                                X             Y             Z
Electronic contribution:     -0.97740       4.21151     -15.80047
Nuclear contribution   :      2.19262       0.02589      20.01581
                        -----------------------------------------
Total Dipole Moment    :      1.21522       4.23739       4.21534
                        -----------------------------------------
Magnitude (a.u.)       :      6.09929
Magnitude (Debye)      :     15.50316

Rotational constants in cm-1:     0.001861     0.000551     0.000459
Rotational constants in MHz :    55.777485    16.524648    13.768222

                             ****ORCA TERMINATED NORMALLY****
TOTAL RUN TIME: 0 days 0 hours 6 minutes 30 seconds 424 msec
