                         Program Version 4.2.0 -  RELEASE  -
|  1> # ORCA input file
|  2> # SCF done       -160.227137133220          0.000370679162
|  3> ! CAM-B3LYP def2-SVP def2/J RIJCOSX Grid4 TightSCF
|  4> %maxcore 5000
|  5> %tddft
|  6>     Mode sTDDFT
|  7>     Ethresh 5.0
|  8>     maxcore 5000
|  9> end
| 10>
| 11> %pal
| 12>   nprocs 6
| 13>   end
| 14> * xyz 0 1
| 15>    C       -3.53774        -2.63940         4.04848
| 16>    S       -3.39278        -3.64089         5.45371
| 17>    C       -4.99735        -4.26055         5.26191
| 18>    C       -5.59450        -3.72168         4.17397
| 19>    C       -4.75884        -2.78765         3.47270
| 20>    C       -5.49176        -2.28488         2.34203
| 21>    C       -6.72348        -2.86897         2.30627
| 22>    C       -6.89685        -3.79328         3.48207
| 23>    O       -7.89318        -4.38919         3.79934
| 24>    C       -7.74489        -2.62981         1.33968
| 25>    O       -7.65461        -1.54474         0.54995
| 26>    C       -8.72673        -1.52630        -0.27944
| 27>    C       -9.52209        -2.62658        -0.02919
| 28>    C       -8.89850        -3.34544         1.01282
| 29>    C       -9.36440        -4.57788         1.50352
| 30>    N       -9.80185        -5.59777         1.78894
| 31>    C       -8.83387        -0.44480        -1.20008
| 32>    C       -9.87477        -0.26922        -2.04021
| 33>    C      -10.04253         0.81707        -2.95681
| 34>    S      -11.66648         1.27198        -3.35965
| 35>    C      -11.13269         2.59539        -4.33598
| 36>    C       -9.76092         2.67131        -4.35439
| 37>    C       -9.13673         1.64609        -3.59579
| 38>    C       -7.65414         1.42044        -3.56514
| 39>    F       -7.34817         0.11132        -3.55009
| 40>    F       -7.02008         1.92842        -4.61896
| 41>    F       -7.07106         1.95100        -2.47117
| 42>    C       -9.01613         3.78989        -5.02971
| 43>    F       -9.82439         4.83738        -5.28071
| 44>    F       -8.04010         4.27072        -4.24767
| 45>    F       -8.46974         3.44463        -6.19396
| 46>    C      -12.10953         3.45705        -4.97117
| 47>    S      -13.15033         4.42980        -3.99276
| 48>    C      -13.94214         5.09070        -5.38545
| 49>    C      -13.40027         4.58883        -6.54996
| 50>    C      -12.37293         3.63905        -6.30697
| 51>    C      -11.66670         2.86823        -7.38826
| 52>    F      -11.11740         1.73830        -6.90173
| 53>    F      -12.50199         2.48071        -8.35553
| 54>    F      -10.67519         3.55284        -7.95991
| 55>    C      -13.77551         5.05850        -7.92686
| 56>    F      -14.26758         6.30796        -7.90315
| 57>    F      -12.72278         5.09914        -8.74775
| 58>    F      -14.69663         4.28286        -8.50767
| 59>    C      -14.99110         6.03054        -5.11872
| 60>    O      -14.88364         6.70225        -3.95211
| 61>    C      -15.97175         7.48723        -3.80922
| 62>    C      -16.81304         7.31322        -4.88230
| 63>    C      -16.19137         6.36671        -5.73268
| 64>    C      -16.78289         5.84390        -6.89515
| 65>    N      -17.33739         5.42716        -7.80616
| 66>    C      -16.11078         8.33514        -2.65303
| 67>    C      -15.21249         8.40267        -1.67450
| 68>    H       -2.71517        -2.01752         3.75659
| 69>    H       -5.37891        -4.97764         5.96127
| 70>    H       -5.11412        -1.57294         1.63002
| 71>    H      -10.43130        -2.90008        -0.52358
| 72>    H       -8.01555         0.25713        -1.15553
| 73>    H      -10.71122        -0.95224        -1.99331
| 74>    H      -17.75721         7.78783        -5.05356
| 75>    H      -17.01422         8.92683        -2.63414
| 76>    H      -14.31187         7.81278        -1.69871
| 77>    H      -15.35193         9.04906        -0.82682
| 78> *
| 79>
| 80>                          ****END OF INPUT****

CARTESIAN COORDINATES (ANGSTROEM)
---------------------------------
  C     -3.537740   -2.639400    4.048480
  S     -3.392780   -3.640890    5.453710
  C     -4.997350   -4.260550    5.261910
  C     -5.594500   -3.721680    4.173970
  C     -4.758840   -2.787650    3.472700
  C     -5.491760   -2.284880    2.342030
  C     -6.723480   -2.868970    2.306270
  C     -6.896850   -3.793280    3.482070
  O     -7.893180   -4.389190    3.799340
  C     -7.744890   -2.629810    1.339680
  O     -7.654610   -1.544740    0.549950
  C     -8.726730   -1.526300   -0.279440
  C     -9.522090   -2.626580   -0.029190
  C     -8.898500   -3.345440    1.012820
  C     -9.364400   -4.577880    1.503520
  N     -9.801850   -5.597770    1.788940
  C     -8.833870   -0.444800   -1.200080
  C     -9.874770   -0.269220   -2.040210
  C    -10.042530    0.817070   -2.956810
  S    -11.666480    1.271980   -3.359650
  C    -11.132690    2.595390   -4.335980
  C     -9.760920    2.671310   -4.354390
  C     -9.136730    1.646090   -3.595790
  C     -7.654140    1.420440   -3.565140
  F     -7.348170    0.111320   -3.550090
  F     -7.020080    1.928420   -4.618960
  F     -7.071060    1.951000   -2.471170
  C     -9.016130    3.789890   -5.029710
  F     -9.824390    4.837380   -5.280710
  F     -8.040100    4.270720   -4.247670
  F     -8.469740    3.444630   -6.193960
  C    -12.109530    3.457050   -4.971170
  S    -13.150330    4.429800   -3.992760
  C    -13.942140    5.090700   -5.385450
  C    -13.400270    4.588830   -6.549960
  C    -12.372930    3.639050   -6.306970
  C    -11.666700    2.868230   -7.388260
  F    -11.117400    1.738300   -6.901730
  F    -12.501990    2.480710   -8.355530
  F    -10.675190    3.552840   -7.959910
  C    -13.775510    5.058500   -7.926860
  F    -14.267580    6.307960   -7.903150
  F    -12.722780    5.099140   -8.747750
  F    -14.696630    4.282860   -8.507670
  C    -14.991100    6.030540   -5.118720
  O    -14.883640    6.702250   -3.952110
  C    -15.971750    7.487230   -3.809220
  C    -16.813040    7.313220   -4.882300
  C    -16.191370    6.366710   -5.732680
  C    -16.782890    5.843900   -6.895150
  N    -17.337390    5.427160   -7.806160
  C    -16.110780    8.335140   -2.653030
  C    -15.212490    8.402670   -1.674500
  H     -2.715170   -2.017520    3.756590
  H     -5.378910   -4.977640    5.961270
  H     -5.114120   -1.572940    1.630020
  H    -10.431300   -2.900080   -0.523580
  H     -8.015550    0.257130   -1.155530
  H    -10.711220   -0.952240   -1.993310
  H    -17.757210    7.787830   -5.053560
  H    -17.014220    8.926830   -2.634140
  H    -14.311870    7.812780   -1.698710
  H    -15.351930    9.049060   -0.826820

 Total Charge           Charge          ....    0
 Multiplicity           Mult            ....    1
 Number of Electrons    NEL             ....  402
 Basis Dimension        Dim             ....  804

ORBITAL ENERGIES
----------------

  NO   OCC          E(Eh)            E(eV)
   0   2.0000     -88.999765     -2421.8067
   1   2.0000     -88.995910     -2421.7018
   2   2.0000     -88.973973     -2421.1049
   3   2.0000     -24.810850      -675.1376
   4   2.0000     -24.808282      -675.0677
   5   2.0000     -24.807233      -675.0391
   6   2.0000     -24.806953      -675.0315
   7   2.0000     -24.805695      -674.9973
   8   2.0000     -24.805634      -674.9956
   9   2.0000     -24.805624      -674.9953
  10   2.0000     -24.805554      -674.9934
  11   2.0000     -24.803817      -674.9462
  12   2.0000     -24.803682      -674.9425
  13   2.0000     -24.802079      -674.8989
  14   2.0000     -24.797691      -674.7795
  15   2.0000     -19.325968      -525.8863
  16   2.0000     -19.317933      -525.6677
  17   2.0000     -19.224813      -523.1338
  18   2.0000     -14.410931      -392.1414
  19   2.0000     -14.395196      -391.7132
  20   2.0000     -10.533350      -286.6270
  21   2.0000     -10.531517      -286.5771
  22   2.0000     -10.530486      -286.5491
  23   2.0000     -10.529156      -286.5129
  24   2.0000     -10.378272      -282.4072
  25   2.0000     -10.376475      -282.3582
  26   2.0000     -10.366018      -282.0737
  27   2.0000     -10.358681      -281.8740
  28   2.0000     -10.354611      -281.7633
  29   2.0000     -10.354137      -281.7504
  30   2.0000     -10.352651      -281.7099
  31   2.0000     -10.349980      -281.6373
  32   2.0000     -10.347526      -281.5705
  33   2.0000     -10.330788      -281.1150
  34   2.0000     -10.330080      -281.0958
  35   2.0000     -10.329397      -281.0772
  36   2.0000     -10.329237      -281.0728
  37   2.0000     -10.324185      -280.9354
  38   2.0000     -10.321881      -280.8727
  39   2.0000     -10.319229      -280.8005
  40   2.0000     -10.317387      -280.7504
  41   2.0000     -10.317047      -280.7411
  42   2.0000     -10.312282      -280.6114
  43   2.0000     -10.311804      -280.5985
  44   2.0000     -10.310941      -280.5750
  45   2.0000     -10.305952      -280.4392
  46   2.0000     -10.302212      -280.3374
  47   2.0000     -10.301104      -280.3073
  48   2.0000     -10.300912      -280.3021
  49   2.0000     -10.299269      -280.2574
  50   2.0000     -10.296771      -280.1894
  51   2.0000     -10.288674      -279.9691
  52   2.0000     -10.285825      -279.8915
  53   2.0000      -8.095317      -220.2848
  54   2.0000      -8.091922      -220.1924
  55   2.0000      -8.069990      -219.5956
  56   2.0000      -6.064526      -165.0241
  57   2.0000      -6.061088      -164.9306
  58   2.0000      -6.060254      -164.9079
  59   2.0000      -6.057540      -164.8340
  60   2.0000      -6.056875      -164.8160
  61   2.0000      -6.054150      -164.7418
  62   2.0000      -6.039480      -164.3426
  63   2.0000      -6.034779      -164.2147
  64   2.0000      -6.032167      -164.1436
  65   2.0000      -1.402946       -38.1761
  66   2.0000      -1.399266       -38.0760
  67   2.0000      -1.397022       -38.0149
  68   2.0000      -1.394230       -37.9389
  69   2.0000      -1.305229       -35.5171
  70   2.0000      -1.300930       -35.4001
  71   2.0000      -1.300051       -35.3762
  72   2.0000      -1.298998       -35.3475
  73   2.0000      -1.298375       -35.3306
  74   2.0000      -1.297243       -35.2998
  75   2.0000      -1.295624       -35.2557
  76   2.0000      -1.294129       -35.2150
  77   2.0000      -1.246951       -33.9313
  78   2.0000      -1.237500       -33.6741
  79   2.0000      -1.140838       -31.0438
  80   2.0000      -1.042599       -28.3706
  81   2.0000      -1.023600       -27.8536
  82   2.0000      -1.011049       -27.5120
  83   2.0000      -0.997349       -27.1392
  84   2.0000      -0.982616       -26.7383
  85   2.0000      -0.954658       -25.9776
  86   2.0000      -0.943716       -25.6798
  87   2.0000      -0.936030       -25.4707
  88   2.0000      -0.933898       -25.4127
  89   2.0000      -0.924880       -25.1673
  90   2.0000      -0.912841       -24.8397
  91   2.0000      -0.903863       -24.5954
  92   2.0000      -0.901001       -24.5175
  93   2.0000      -0.881285       -23.9810
  94   2.0000      -0.858044       -23.3486
  95   2.0000      -0.844096       -22.9690
  96   2.0000      -0.842982       -22.9387
  97   2.0000      -0.818589       -22.2749
  98   2.0000      -0.807433       -21.9714
  99   2.0000      -0.785215       -21.3668
 100   2.0000      -0.784085       -21.3360
 101   2.0000      -0.780845       -21.2479
 102   2.0000      -0.768362       -20.9082
 103   2.0000      -0.759080       -20.6556
 104   2.0000      -0.753137       -20.4939
 105   2.0000      -0.748589       -20.3701
 106   2.0000      -0.735751       -20.0208
 107   2.0000      -0.725622       -19.7452
 108   2.0000      -0.715849       -19.4792
 109   2.0000      -0.715400       -19.4670
 110   2.0000      -0.705595       -19.2002
 111   2.0000      -0.700931       -19.0733
 112   2.0000      -0.692792       -18.8518
 113   2.0000      -0.691561       -18.8183
 114   2.0000      -0.686644       -18.6845
 115   2.0000      -0.683842       -18.6083
 116   2.0000      -0.681763       -18.5517
 117   2.0000      -0.680016       -18.5042
 118   2.0000      -0.678779       -18.4705
 119   2.0000      -0.677983       -18.4489
 120   2.0000      -0.675854       -18.3909
 121   2.0000      -0.674080       -18.3427
 122   2.0000      -0.660784       -17.9809
 123   2.0000      -0.657866       -17.9014
 124   2.0000      -0.637033       -17.3345
 125   2.0000      -0.631565       -17.1857
 126   2.0000      -0.619460       -16.8564
 127   2.0000      -0.612656       -16.6712
 128   2.0000      -0.602453       -16.3936
 129   2.0000      -0.596478       -16.2310
 130   2.0000      -0.588945       -16.0260
 131   2.0000      -0.584857       -15.9148
 132   2.0000      -0.584721       -15.9111
 133   2.0000      -0.582662       -15.8550
 134   2.0000      -0.569126       -15.4867
 135   2.0000      -0.567168       -15.4334
 136   2.0000      -0.564252       -15.3541
 137   2.0000      -0.563157       -15.3243
 138   2.0000      -0.560988       -15.2653
 139   2.0000      -0.559271       -15.2185
 140   2.0000      -0.557410       -15.1679
 141   2.0000      -0.556294       -15.1375
 142   2.0000      -0.553510       -15.0618
 143   2.0000      -0.551718       -15.0130
 144   2.0000      -0.547722       -14.9043
 145   2.0000      -0.545787       -14.8516
 146   2.0000      -0.544850       -14.8261
 147   2.0000      -0.538545       -14.6546
 148   2.0000      -0.533461       -14.5162
 149   2.0000      -0.529020       -14.3954
 150   2.0000      -0.526897       -14.3376
 151   2.0000      -0.525903       -14.3106
 152   2.0000      -0.524221       -14.2648
 153   2.0000      -0.519388       -14.1333
 154   2.0000      -0.516761       -14.0618
 155   2.0000      -0.515483       -14.0270
 156   2.0000      -0.512619       -13.9491
 157   2.0000      -0.511202       -13.9105
 158   2.0000      -0.507501       -13.8098
 159   2.0000      -0.505425       -13.7533
 160   2.0000      -0.503219       -13.6933
 161   2.0000      -0.501946       -13.6586
 162   2.0000      -0.497303       -13.5323
 163   2.0000      -0.496725       -13.5166
 164   2.0000      -0.495466       -13.4823
 165   2.0000      -0.494023       -13.4430
 166   2.0000      -0.492522       -13.4022
 167   2.0000      -0.492072       -13.3899
 168   2.0000      -0.489798       -13.3281
 169   2.0000      -0.489556       -13.3215
 170   2.0000      -0.488099       -13.2818
 171   2.0000      -0.486867       -13.2483
 172   2.0000      -0.477795       -13.0015
 173   2.0000      -0.473304       -12.8793
 174   2.0000      -0.471810       -12.8386
 175   2.0000      -0.469470       -12.7749
 176   2.0000      -0.465599       -12.6696
 177   2.0000      -0.463934       -12.6243
 178   2.0000      -0.459265       -12.4972
 179   2.0000      -0.452735       -12.3195
 180   2.0000      -0.451557       -12.2875
 181   2.0000      -0.450209       -12.2508
 182   2.0000      -0.439077       -11.9479
 183   2.0000      -0.438690       -11.9373
 184   2.0000      -0.428203       -11.6520
 185   2.0000      -0.425816       -11.5871
 186   2.0000      -0.413962       -11.2645
 187   2.0000      -0.411547       -11.1988
 188   2.0000      -0.406660       -11.0658
 189   2.0000      -0.398279       -10.8377
 190   2.0000      -0.376810       -10.2535
 191   2.0000      -0.368259       -10.0208
 192   2.0000      -0.365546        -9.9470
 193   2.0000      -0.360758        -9.8167
 194   2.0000      -0.357416        -9.7258
 195   2.0000      -0.348584        -9.4855
 196   2.0000      -0.339379        -9.2350
 197   2.0000      -0.333022        -9.0620
 198   2.0000      -0.316251        -8.6056
 199   2.0000      -0.289475        -7.8770
 200   2.0000      -0.266873        -7.2620
 201   0.0000      -0.080498        -2.1905
 202   0.0000      -0.065624        -1.7857
 203   0.0000      -0.054637        -1.4868
 204   0.0000      -0.023215        -0.6317
 205   0.0000      -0.015294        -0.4162

MULLIKEN ATOMIC CHARGES
-----------------------
   0 C :   -0.140687
   1 S :    0.120776
   2 C :   -0.118377
   3 C :    0.006004
   4 C :    0.115298
   5 C :    0.017775
   6 C :   -0.136386
   7 C :    0.166321
   8 O :   -0.096058
   9 C :    0.197626
  10 O :   -0.183520
  11 C :    0.172080
  12 C :   -0.059575
  13 C :   -0.082729
  14 C :   -0.204562
  15 N :    0.164348
  16 C :    0.040632
  17 C :    0.025110
  18 C :   -0.114630
  19 S :    0.204122
  20 C :   -0.184931
  21 C :   -0.012433
  22 C :   -0.095204
  23 C :    0.518758
  24 F :   -0.158955
  25 F :   -0.139645
  26 F :   -0.163869
  27 C :    0.523440
  28 F :   -0.158954
  29 F :   -0.157618
  30 F :   -0.140079
  31 C :   -0.157237
  32 S :    0.232898
  33 C :   -0.213245
  34 C :   -0.043283
  35 C :   -0.048283
  36 C :    0.522824
  37 F :   -0.159204
  38 F :   -0.147630
  39 F :   -0.141130
  40 C :    0.527335
  41 F :   -0.159255
  42 F :   -0.147404
  43 F :   -0.140577
  44 C :    0.190335
  45 O :   -0.198420
  46 C :    0.170923
  47 C :   -0.048389
  48 C :   -0.069121
  49 C :   -0.225440
  50 N :    0.185919
  51 C :   -0.022766
  52 C :    0.007390
  53 H :    0.027919
  54 H :    0.042049
  55 H :    0.002973
  56 H :   -0.000003
  57 H :    0.013030
  58 H :   -0.000716
  59 H :   -0.000160
  60 H :    0.006714
  61 H :    0.032772
  62 H :    0.035102
Sum of atomic charges:   -0.0000000

LOEWDIN ATOMIC CHARGES
----------------------
   0 C :   -0.167092
   1 S :    0.446304
   2 C :   -0.125832
   3 C :   -0.099479
   4 C :   -0.067462
   5 C :    0.051863
   6 C :   -0.083261
   7 C :    0.090112
   8 O :   -0.093004
   9 C :    0.064950
  10 O :    0.029857
  11 C :    0.026315
  12 C :   -0.019046
  13 C :   -0.092972
  14 C :   -0.038032
  15 N :   -0.045735
  16 C :   -0.001899
  17 C :   -0.053555
  18 C :   -0.135372
  19 S :    0.493477
  20 C :   -0.191620
  21 C :   -0.090875
  22 C :   -0.114415
  23 C :    0.163852
  24 F :   -0.055343
  25 F :   -0.035911
  26 F :   -0.063973
  27 C :    0.155760
  28 F :   -0.056193
  29 F :   -0.053779
  30 F :   -0.040241
  31 C :   -0.182698
  32 S :    0.508807
  33 C :   -0.161076
  34 C :   -0.096582
  35 C :   -0.093344
  36 C :    0.155550
  37 F :   -0.057457
  38 F :   -0.044910
  39 F :   -0.042718
  40 C :    0.159401
  41 F :   -0.047009
  42 F :   -0.043671
  43 F :   -0.041647
  44 C :    0.028305
  45 O :    0.023232
  46 C :    0.041360
  47 C :   -0.031419
  48 C :   -0.090340
  49 C :   -0.044779
  50 N :   -0.034067
  51 C :   -0.040377
  52 C :   -0.016663
  53 H :    0.028626
  54 H :    0.036388
  55 H :    0.037142
  56 H :    0.039548
  57 H :    0.036543
  58 H :    0.031991
  59 H :    0.042383
  60 H :    0.041742
  61 H :    0.028452
  62 H :    0.031887

  Mayer bond orders larger than 0.100000
B(  0-C ,  1-S ) :   1.1450 B(  0-C ,  4-C ) :   1.5349 B(  0-C , 53-H ) :   0.9690
B(  1-S ,  2-C ) :   1.1659 B(  2-C ,  3-C ) :   1.5917 B(  2-C , 54-H ) :   0.9697
B(  3-C ,  4-C ) :   1.2233 B(  3-C ,  7-C ) :   0.9267 B(  4-C ,  5-C ) :   0.9981
B(  5-C ,  6-C ) :   1.6242 B(  5-C , 55-H ) :   1.0274 B(  6-C ,  7-C ) :   0.9373
B(  6-C ,  9-C ) :   1.0671 B(  7-C ,  8-O ) :   2.2754 B(  9-C , 10-O ) :   1.2131
B(  9-C , 13-C ) :   1.4397 B( 10-O , 11-C ) :   1.1052 B( 11-C , 12-C ) :   1.4622
B( 11-C , 16-C ) :   1.1359 B( 12-C , 13-C ) :   1.2530 B( 12-C , 56-H ) :   1.0135
B( 13-C , 14-C ) :   1.1202 B( 14-C , 15-N ) :   3.0344 B( 16-C , 17-C ) :   1.7115
B( 16-C , 57-H ) :   0.9411 B( 17-C , 18-C ) :   1.1018 B( 17-C , 58-H ) :   0.9473
B( 18-C , 19-S ) :   1.1527 B( 18-C , 20-C ) :   0.1077 B( 18-C , 22-C ) :   1.5479
B( 19-S , 20-C ) :   1.1632 B( 20-C , 21-C ) :   1.6143 B( 20-C , 31-C ) :   0.9862
B( 21-C , 22-C ) :   1.2821 B( 21-C , 27-C ) :   0.9416 B( 22-C , 23-C ) :   0.9384
B( 23-C , 24-F ) :   1.1588 B( 23-C , 25-F ) :   1.1663 B( 23-C , 26-F ) :   1.1304
B( 27-C , 28-F ) :   1.1391 B( 27-C , 29-F ) :   1.1516 B( 27-C , 30-F ) :   1.1842
B( 31-C , 32-S ) :   1.1589 B( 31-C , 33-C ) :   0.1286 B( 31-C , 35-C ) :   1.6296
B( 32-S , 33-C ) :   1.1577 B( 33-C , 34-C ) :   1.6035 B( 33-C , 44-C ) :   1.0575
B( 34-C , 35-C ) :   1.2751 B( 34-C , 40-C ) :   0.9328 B( 35-C , 36-C ) :   0.9349
B( 36-C , 37-F ) :   1.1409 B( 36-C , 38-F ) :   1.1624 B( 36-C , 39-F ) :   1.1854
B( 40-C , 41-F ) :   1.1364 B( 40-C , 42-F ) :   1.1597 B( 40-C , 43-F ) :   1.1875
B( 44-C , 45-O ) :   1.1789 B( 44-C , 48-C ) :   1.4844 B( 45-O , 46-C ) :   1.1243
B( 46-C , 47-C ) :   1.4644 B( 46-C , 51-C ) :   1.1122 B( 47-C , 48-C ) :   1.2320
B( 47-C , 59-H ) :   1.0225 B( 48-C , 49-C ) :   1.1327 B( 49-C , 50-N ) :   3.0333
B( 51-C , 52-C ) :   1.9236 B( 51-C , 60-H ) :   0.9599 B( 52-C , 61-H ) :   0.9592
B( 52-C , 62-H ) :   0.9463

-----------------------------------------------------------------------------
         ABSORPTION SPECTRUM VIA TRANSITION ELECTRIC DIPOLE MOMENTS
-----------------------------------------------------------------------------
State   Energy  Wavelength   fosc         T2         TX        TY        TZ
        (cm-1)    (nm)                  (au**2)     (au)      (au)      (au)
-----------------------------------------------------------------------------
   0   23467.5    426.1   0.760880213  10.67395   2.10544  -1.26019   2.15708
   1   28156.3    355.2   0.846716425   9.90007   1.42803  -2.19801   1.74056
   2   28958.8    345.3   0.007568703   0.08604   0.09076  -0.23722   0.14675
   3   31210.3    320.4   0.406707262   4.29003   1.25349  -1.18186  -1.14977
   4   32280.0    309.8   0.082262815   0.83897  -0.56057   0.68147  -0.24562
   5   33307.3    300.2   0.065454671   0.64696   0.14956  -0.00980   0.79025
   6   34632.8    288.7   0.092801417   0.88215  -0.74577   0.52974   0.21294
   7   35204.2    284.1   0.004238872   0.03964  -0.04102  -0.11008  -0.16075
   8   37667.7    265.5   0.338319492   2.95688  -1.49929  -0.40219  -0.73976
   9   39840.3    251.0   0.169161173   1.39783  -0.28661  -1.04018   0.48343

FINAL SINGLE POINT ENERGY     -3987.794379946441

DIPOLE MOMENT
-------------
                                X             Y             Z
Electronic contribution:      4.65381      15.58356     -58.79184
Nuclear contribution   :     -3.72809     -13.83919      61.68870
                        -----------------------------------------
Total Dipole Moment    :      0.92571       1.74437       2.89686
                        -----------------------------------------
Magnitude (a.u.)       :      3.50593
Magnitude (Debye)      :      8.91137

Rotational constants in cm-1:     0.003215     0.000524     0.000500
Rotational constants in MHz :    96.389898    15.712639    15.000953

                             ****ORCA TERMINATED NORMALLY****
TOTAL RUN TIME: 0 days 0 hours 4 minutes 4 seconds 736 msec
