                         Program Version 4.2.0 -  RELEASE  -
|  1> # ORCA input file
|  2> # SCF done        -93.806542996936          0.000988993004
|  3> ! CAM-B3LYP def2-SVP def2/J RIJCOSX Grid4 TightSCF
|  4> %maxcore 5000
|  5> %tddft
|  6>     Mode sTDDFT
|  7>     Ethresh 5.0
|  8>     maxcore 5000
|  9> end
| 10>
| 11> %pal
| 12>   nprocs 6
| 13>   end
| 14> * xyz 0 1
| 15>    C        2.28774        -0.35542        -0.52355
| 16>    C        2.19139        -1.29213         0.49851
| 17>    N        1.11915        -2.04757         0.64499
| 18>    C        0.11414        -1.87966        -0.21633
| 19>    C        0.20382        -0.89995        -1.21200
| 20>    N        1.28388        -0.15626        -1.36440
| 21>    C       -1.05952        -2.73781        -0.03844
| 22>    C       -1.93636        -3.02802        -1.07824
| 23>    C       -3.03410        -3.85376        -0.83813
| 24>    C       -3.20181        -4.33227         0.46845
| 25>    N       -2.38143        -4.05233         1.45829
| 26>    C       -1.33674        -3.28419         1.21850
| 27>    C       -3.97133        -4.21476        -1.87806
| 28>    S       -5.61300        -4.57680        -1.46333
| 29>    C       -6.03728        -4.87678        -3.11884
| 30>    C       -4.94155        -4.71413        -3.94268
| 31>    C       -3.76206        -4.35271        -3.23319
| 32>    S       -2.15392        -4.17816        -3.94975
| 33>    C       -2.28615        -5.32970        -5.36799
| 34>    C       -2.91999        -4.51750        -6.46266
| 35>    O       -2.32710        -4.11953        -7.42842
| 36>    C       -4.36994        -4.13282        -6.18983
| 37>    O       -5.04263        -4.97510        -5.28004
| 38>    C       -7.40091        -5.23088        -3.45430
| 39>    C       -8.27992        -5.66131        -2.46125
| 40>    C       -9.59725        -5.97236        -2.78201
| 41>    C       -9.99340        -5.80165        -4.11055
| 42>    N       -9.16889        -5.40069        -5.05899
| 43>    C       -7.91493        -5.13756        -4.75532
| 44>    C      -10.50805        -6.44878        -1.73889
| 45>    C      -11.66482        -7.18861        -2.01158
| 46>    N      -12.48476        -7.57980        -1.05369
| 47>    C      -12.16477        -7.26567         0.19294
| 48>    C      -10.99307        -6.57583         0.47988
| 49>    N      -10.18018        -6.16714        -0.47610
| 50>    H        3.16950         0.25146        -0.67256
| 51>    H        2.98733        -1.44841         1.21384
| 52>    H       -0.60995        -0.69430        -1.89321
| 53>    H       -1.77510        -2.61812        -2.06368
| 54>    H       -4.03493        -4.97916         0.71154
| 55>    H       -0.68622        -3.07661         2.05585
| 56>    H       -2.87896        -6.19332        -5.07245
| 57>    H       -1.26985        -5.62042        -5.62798
| 58>    H       -4.92603        -4.19796        -7.13018
| 59>    H       -4.38780        -3.08426        -5.85992
| 60>    H       -7.95108        -5.76524        -1.43724
| 61>    H      -11.01235        -5.97623        -4.42694
| 62>    H       -7.29462        -4.82594        -5.58096
| 63>    H      -11.93403        -7.48775        -3.01493
| 64>    H      -12.85469        -7.58151         0.96239
| 65>    H      -10.69657        -6.33897         1.49278
| 66> *
| 67>
| 68>                          ****END OF INPUT****

CARTESIAN COORDINATES (ANGSTROEM)
---------------------------------
  C      2.287740   -0.355420   -0.523550
  C      2.191390   -1.292130    0.498510
  N      1.119150   -2.047570    0.644990
  C      0.114140   -1.879660   -0.216330
  C      0.203820   -0.899950   -1.212000
  N      1.283880   -0.156260   -1.364400
  C     -1.059520   -2.737810   -0.038440
  C     -1.936360   -3.028020   -1.078240
  C     -3.034100   -3.853760   -0.838130
  C     -3.201810   -4.332270    0.468450
  N     -2.381430   -4.052330    1.458290
  C     -1.336740   -3.284190    1.218500
  C     -3.971330   -4.214760   -1.878060
  S     -5.613000   -4.576800   -1.463330
  C     -6.037280   -4.876780   -3.118840
  C     -4.941550   -4.714130   -3.942680
  C     -3.762060   -4.352710   -3.233190
  S     -2.153920   -4.178160   -3.949750
  C     -2.286150   -5.329700   -5.367990
  C     -2.919990   -4.517500   -6.462660
  O     -2.327100   -4.119530   -7.428420
  C     -4.369940   -4.132820   -6.189830
  O     -5.042630   -4.975100   -5.280040
  C     -7.400910   -5.230880   -3.454300
  C     -8.279920   -5.661310   -2.461250
  C     -9.597250   -5.972360   -2.782010
  C     -9.993400   -5.801650   -4.110550
  N     -9.168890   -5.400690   -5.058990
  C     -7.914930   -5.137560   -4.755320
  C    -10.508050   -6.448780   -1.738890
  C    -11.664820   -7.188610   -2.011580
  N    -12.484760   -7.579800   -1.053690
  C    -12.164770   -7.265670    0.192940
  C    -10.993070   -6.575830    0.479880
  N    -10.180180   -6.167140   -0.476100
  H      3.169500    0.251460   -0.672560
  H      2.987330   -1.448410    1.213840
  H     -0.609950   -0.694300   -1.893210
  H     -1.775100   -2.618120   -2.063680
  H     -4.034930   -4.979160    0.711540
  H     -0.686220   -3.076610    2.055850
  H     -2.878960   -6.193320   -5.072450
  H     -1.269850   -5.620420   -5.627980
  H     -4.926030   -4.197960   -7.130180
  H     -4.387800   -3.084260   -5.859920
  H     -7.951080   -5.765240   -1.437240
  H    -11.012350   -5.976230   -4.426940
  H     -7.294620   -4.825940   -5.580960
  H    -11.934030   -7.487750   -3.014930
  H    -12.854690   -7.581510    0.962390
  H    -10.696570   -6.338970    1.492780

 Total Charge           Charge          ....    0
 Multiplicity           Mult            ....    1
 Number of Electrons    NEL             ....  256
 Basis Dimension        Dim             ....  578

ORBITAL ENERGIES
----------------

  NO   OCC          E(Eh)            E(eV)
   0   2.0000     -88.967523     -2420.9294
   1   2.0000     -88.952984     -2420.5337
   2   2.0000     -19.266499      -524.2681
   3   2.0000     -19.221440      -523.0420
   4   2.0000     -14.424447      -392.5092
   5   2.0000     -14.423887      -392.4939
   6   2.0000     -14.423367      -392.4798
   7   2.0000     -14.422947      -392.4683
   8   2.0000     -14.404328      -391.9617
   9   2.0000     -14.401197      -391.8765
  10   2.0000     -10.372772      -282.2575
  11   2.0000     -10.350275      -281.6453
  12   2.0000     -10.342606      -281.4366
  13   2.0000     -10.326016      -280.9852
  14   2.0000     -10.325526      -280.9718
  15   2.0000     -10.317610      -280.7564
  16   2.0000     -10.317062      -280.7415
  17   2.0000     -10.316339      -280.7219
  18   2.0000     -10.316028      -280.7134
  19   2.0000     -10.315983      -280.7122
  20   2.0000     -10.315198      -280.6908
  21   2.0000     -10.313373      -280.6411
  22   2.0000     -10.313365      -280.6409
  23   2.0000     -10.313064      -280.6327
  24   2.0000     -10.309892      -280.5464
  25   2.0000     -10.309610      -280.5388
  26   2.0000     -10.305485      -280.4265
  27   2.0000     -10.303521      -280.3731
  28   2.0000     -10.302452      -280.3440
  29   2.0000     -10.300292      -280.2852
  30   2.0000     -10.297654      -280.2134
  31   2.0000     -10.296895      -280.1928
  32   2.0000     -10.290764      -280.0259
  33   2.0000     -10.288787      -279.9721
  34   2.0000     -10.288099      -279.9534
  35   2.0000      -8.062706      -219.3974
  36   2.0000      -8.047248      -218.9768
  37   2.0000      -6.032002      -164.1391
  38   2.0000      -6.028054      -164.0317
  39   2.0000      -6.024632      -163.9386
  40   2.0000      -6.017794      -163.7525
  41   2.0000      -6.013786      -163.6434
  42   2.0000      -6.006670      -163.4498
  43   2.0000      -1.172496       -31.9052
  44   2.0000      -1.140011       -31.0213
  45   2.0000      -1.080594       -29.4045
  46   2.0000      -1.080209       -29.3940
  47   2.0000      -1.041857       -28.3504
  48   2.0000      -1.037927       -28.2434
  49   2.0000      -1.001316       -27.2472
  50   2.0000      -0.999615       -27.2009
  51   2.0000      -0.999320       -27.1929
  52   2.0000      -0.934245       -25.4221
  53   2.0000      -0.918342       -24.9894
  54   2.0000      -0.912543       -24.8316
  55   2.0000      -0.901470       -24.5303
  56   2.0000      -0.884182       -24.0598
  57   2.0000      -0.866565       -23.5804
  58   2.0000      -0.846744       -23.0411
  59   2.0000      -0.842729       -22.9318
  60   2.0000      -0.822163       -22.3722
  61   2.0000      -0.792738       -21.5715
  62   2.0000      -0.768503       -20.9120
  63   2.0000      -0.760914       -20.7055
  64   2.0000      -0.757801       -20.6208
  65   2.0000      -0.754433       -20.5292
  66   2.0000      -0.747916       -20.3518
  67   2.0000      -0.728939       -19.8354
  68   2.0000      -0.712483       -19.3877
  69   2.0000      -0.701017       -19.0756
  70   2.0000      -0.695617       -18.9287
  71   2.0000      -0.670301       -18.2398
  72   2.0000      -0.656573       -17.8662
  73   2.0000      -0.639585       -17.4040
  74   2.0000      -0.621102       -16.9010
  75   2.0000      -0.619637       -16.8612
  76   2.0000      -0.614187       -16.7129
  77   2.0000      -0.612037       -16.6544
  78   2.0000      -0.597962       -16.2714
  79   2.0000      -0.597112       -16.2482
  80   2.0000      -0.595742       -16.2110
  81   2.0000      -0.590347       -16.0642
  82   2.0000      -0.577106       -15.7039
  83   2.0000      -0.572233       -15.5713
  84   2.0000      -0.567940       -15.4544
  85   2.0000      -0.558677       -15.2024
  86   2.0000      -0.553538       -15.0625
  87   2.0000      -0.542644       -14.7661
  88   2.0000      -0.529736       -14.4148
  89   2.0000      -0.524485       -14.2720
  90   2.0000      -0.522918       -14.2293
  91   2.0000      -0.522515       -14.2184
  92   2.0000      -0.518679       -14.1140
  93   2.0000      -0.516717       -14.0606
  94   2.0000      -0.509863       -13.8741
  95   2.0000      -0.502166       -13.6646
  96   2.0000      -0.499586       -13.5944
  97   2.0000      -0.491262       -13.3679
  98   2.0000      -0.489824       -13.3288
  99   2.0000      -0.486618       -13.2416
 100   2.0000      -0.479683       -13.0528
 101   2.0000      -0.476185       -12.9576
 102   2.0000      -0.472562       -12.8591
 103   2.0000      -0.466404       -12.6915
 104   2.0000      -0.458032       -12.4637
 105   2.0000      -0.453828       -12.3493
 106   2.0000      -0.446956       -12.1623
 107   2.0000      -0.421561       -11.4713
 108   2.0000      -0.420146       -11.4328
 109   2.0000      -0.411569       -11.1994
 110   2.0000      -0.411143       -11.1878
 111   2.0000      -0.404453       -11.0057
 112   2.0000      -0.397135       -10.8066
 113   2.0000      -0.385015       -10.4768
 114   2.0000      -0.384624       -10.4661
 115   2.0000      -0.378687       -10.3046
 116   2.0000      -0.375901       -10.2288
 117   2.0000      -0.359711        -9.7882
 118   2.0000      -0.350354        -9.5336
 119   2.0000      -0.338711        -9.2168
 120   2.0000      -0.335223        -9.1219
 121   2.0000      -0.325879        -8.8676
 122   2.0000      -0.322626        -8.7791
 123   2.0000      -0.316792        -8.6204
 124   2.0000      -0.315725        -8.5913
 125   2.0000      -0.311350        -8.4723
 126   2.0000      -0.291421        -7.9300
 127   2.0000      -0.268422        -7.3041
 128   0.0000      -0.040731        -1.1084
 129   0.0000      -0.028670        -0.7801
 130   0.0000      -0.027214        -0.7405
 131   0.0000      -0.007410        -0.2016
 132   0.0000      -0.003617        -0.0984

MULLIKEN ATOMIC CHARGES
-----------------------
   0 C :    0.020997
   1 C :    0.035165
   2 N :   -0.054644
   3 C :   -0.027025
   4 C :    0.001457
   5 N :   -0.049284
   6 C :    0.059597
   7 C :   -0.028783
   8 C :    0.056831
   9 C :   -0.020716
  10 N :   -0.049238
  11 C :    0.008720
  12 C :   -0.129566
  13 S :    0.144530
  14 C :   -0.107167
  15 C :    0.152285
  16 C :   -0.040107
  17 S :   -0.003749
  18 C :   -0.035244
  19 C :    0.000042
  20 O :   -0.160659
  21 C :    0.237440
  22 O :   -0.333563
  23 C :    0.079724
  24 C :   -0.050972
  25 C :    0.077168
  26 C :   -0.018987
  27 N :   -0.054452
  28 C :   -0.002594
  29 C :   -0.024628
  30 C :    0.002023
  31 N :   -0.047603
  32 C :    0.019940
  33 C :    0.036385
  34 N :   -0.055848
  35 H :    0.015467
  36 H :    0.013696
  37 H :    0.006404
  38 H :    0.008755
  39 H :    0.005212
  40 H :    0.010816
  41 H :    0.089326
  42 H :    0.069211
  43 H :    0.054367
  44 H :    0.056268
  45 H :    0.006773
  46 H :   -0.001841
  47 H :   -0.006227
  48 H :    0.006887
  49 H :    0.015090
  50 H :    0.012322
Sum of atomic charges:   -0.0000000

LOEWDIN ATOMIC CHARGES
----------------------
   0 C :   -0.001776
   1 C :    0.005037
   2 N :   -0.044748
   3 C :   -0.003006
   4 C :    0.004819
   5 N :   -0.039478
   6 C :   -0.051213
   7 C :    0.009511
   8 C :   -0.064080
   9 C :    0.020074
  10 N :   -0.060502
  11 C :    0.042850
  12 C :   -0.182743
  13 S :    0.468457
  14 C :   -0.189274
  15 C :   -0.005936
  16 C :   -0.220110
  17 S :    0.328712
  18 C :   -0.148671
  19 C :    0.039953
  20 O :   -0.125913
  21 C :    0.053375
  22 O :   -0.103393
  23 C :   -0.055541
  24 C :    0.019677
  25 C :   -0.054107
  26 C :    0.020788
  27 N :   -0.064454
  28 C :    0.030146
  29 C :   -0.001986
  30 C :    0.006570
  31 N :   -0.039595
  32 C :   -0.002597
  33 C :    0.004959
  34 N :   -0.048115
  35 H :    0.026690
  36 H :    0.027363
  37 H :    0.024817
  38 H :    0.019135
  39 H :    0.016213
  40 H :    0.025047
  41 H :    0.043106
  42 H :    0.042010
  43 H :    0.045026
  44 H :    0.040459
  45 H :    0.024542
  46 H :    0.020052
  47 H :    0.018934
  48 H :    0.025430
  49 H :    0.026591
  50 H :    0.026898

  Mayer bond orders larger than 0.100000
B(  0-C ,  1-C ) :   1.3541 B(  0-C ,  3-C ) :   0.1011 B(  0-C ,  5-N ) :   1.5418
B(  0-C , 35-H ) :   0.9781 B(  1-C ,  2-N ) :   1.5479 B(  1-C , 36-H ) :   0.9765
B(  2-N ,  3-C ) :   1.5626 B(  3-C ,  4-C ) :   1.3386 B(  3-C ,  6-C ) :   0.9578
B(  4-C ,  5-N ) :   1.5769 B(  4-C , 37-H ) :   0.9793 B(  6-C ,  7-C ) :   1.4133
B(  6-C , 11-C ) :   1.3620 B(  7-C ,  8-C ) :   1.3844 B(  7-C , 38-H ) :   0.9632
B(  8-C ,  9-C ) :   1.3277 B(  8-C , 12-C ) :   1.0277 B(  9-C , 10-N ) :   1.5758
B(  9-C , 39-H ) :   0.9834 B( 10-N , 11-C ) :   1.5405 B( 11-C , 40-H ) :   0.9800
B( 12-C , 13-S ) :   1.1400 B( 12-C , 14-C ) :   0.1277 B( 12-C , 16-C ) :   1.5876
B( 13-S , 14-C ) :   1.1195 B( 14-C , 15-C ) :   1.5592 B( 14-C , 23-C ) :   1.0421
B( 15-C , 16-C ) :   1.2069 B( 15-C , 22-O ) :   1.1081 B( 16-C , 17-S ) :   0.9924
B( 17-S , 18-C ) :   0.9822 B( 18-C , 19-C ) :   0.9707 B( 18-C , 41-H ) :   0.9300
B( 18-C , 42-H ) :   0.9395 B( 19-C , 20-O ) :   2.2145 B( 19-C , 21-C ) :   0.9373
B( 21-C , 22-O ) :   0.9439 B( 21-C , 43-H ) :   0.9351 B( 21-C , 44-H ) :   0.9252
B( 23-C , 24-C ) :   1.3347 B( 23-C , 28-C ) :   1.3433 B( 24-C , 25-C ) :   1.4082
B( 24-C , 45-H ) :   0.9792 B( 25-C , 26-C ) :   1.3543 B( 25-C , 29-C ) :   0.9546
B( 26-C , 27-N ) :   1.5571 B( 26-C , 46-H ) :   0.9818 B( 27-N , 28-C ) :   1.5635
B( 28-C , 47-H ) :   0.9831 B( 29-C , 30-C ) :   1.3399 B( 29-C , 32-C ) :   0.1011
B( 29-C , 34-N ) :   1.5655 B( 30-C , 31-N ) :   1.5764 B( 30-C , 48-H ) :   0.9788
B( 31-N , 32-C ) :   1.5426 B( 32-C , 33-C ) :   1.3548 B( 32-C , 49-H ) :   0.9785
B( 33-C , 34-N ) :   1.5450 B( 33-C , 50-H ) :   0.9767

-----------------------------------------------------------------------------
         ABSORPTION SPECTRUM VIA TRANSITION ELECTRIC DIPOLE MOMENTS
-----------------------------------------------------------------------------
State   Energy  Wavelength   fosc         T2         TX        TY        TZ
        (cm-1)    (nm)                  (au**2)     (au)      (au)      (au)
-----------------------------------------------------------------------------
   0   32688.4    305.9   0.965944976   9.72823   2.60337   0.92351   1.44838
   1   34461.9    290.2   0.089108039   0.85124   0.76368   0.49890  -0.13831
   2   34952.6    286.1   0.092234032   0.86873  -0.26615  -0.06674   0.89076
   3   35551.4    281.3   0.230742694   2.13672  -1.40925  -0.30817   0.23613
   4   39081.4    255.9   0.009695126   0.08167   0.13816  -0.05160   0.24478

FINAL SINGLE POINT ENERGY     -2235.571968941799

DIPOLE MOMENT
-------------
                                X             Y             Z
Electronic contribution:      0.31551      -0.08519       0.68809
Nuclear contribution   :     -0.09584       0.03696      -0.09045
                        -----------------------------------------
Total Dipole Moment    :      0.21967      -0.04823       0.59764
                        -----------------------------------------
Magnitude (a.u.)       :      0.63856
Magnitude (Debye)      :      1.62309

Rotational constants in cm-1:     0.005873     0.001615     0.001304
Rotational constants in MHz :   176.067489    48.410189    39.086359

                             ****ORCA TERMINATED NORMALLY****
TOTAL RUN TIME: 0 days 0 hours 2 minutes 13 seconds 586 msec
