                         Program Version 4.2.0 -  RELEASE  -
|  1> # ORCA input file
|  2> # SCF done       -147.153916158889          0.000993383676
|  3> ! CAM-B3LYP def2-SVP def2/J RIJCOSX Grid4 TightSCF
|  4> %maxcore 5000
|  5> %tddft
|  6>     Mode sTDDFT
|  7>     Ethresh 5.0
|  8>     maxcore 5000
|  9> end
| 10>
| 11> %pal
| 12>   nprocs 6
| 13>   end
| 14> * xyz 0 1
| 15>    C        2.01914        -2.73397        -0.41243
| 16>    N        2.67494        -1.64493        -0.87339
| 17>    C        2.72646        -1.30407        -2.27215
| 18>    C        4.03014        -1.77157        -2.91836
| 19>    C        3.29036        -1.01905         0.18677
| 20>    C        2.98000        -1.75708         1.33197
| 21>    C        2.18308        -2.83243         0.95037
| 22>    C        4.08968         0.15386         0.20907
| 23>    C        4.50587         0.97801        -0.78548
| 24>    C        5.31211         2.12054        -0.56712
| 25>    S        5.87242         2.57770         1.00601
| 26>    C        6.72408         3.97762         0.41732
| 27>    C        6.58318         4.08596        -0.96618
| 28>    C        5.77937         3.03291        -1.52344
| 29>    C        5.54230         2.99531        -2.90811
| 30>    C        6.08563         3.95964        -3.72137
| 31>    C        5.84551         3.91356        -5.11209
| 32>    N        5.62906         3.83785        -6.23555
| 33>    C        6.90438         4.99624        -3.16815
| 34>    C        7.46121         5.95923        -4.04165
| 35>    N        7.89860         6.72621        -4.77199
| 36>    C        7.15122         5.05297        -1.81997
| 37>    C        7.40319         4.80544         1.35879
| 38>    N        7.63277         4.35460         2.64141
| 39>    C        8.25362         5.30096         3.39088
| 40>    C        8.43536         6.40585         2.58939
| 41>    C        7.90773         6.09210         1.30843
| 42>    S        8.08466         7.55498         0.30702
| 43>    O        9.05875         7.36511        -0.73685
| 44>    O        6.79782         8.06368        -0.09083
| 45>    C        8.83826         8.50879         1.65345
| 46>    C        8.96671         7.72703         2.74612
| 47>    C        9.26116         9.83818         1.42664
| 48>    C        8.93084        10.51336         0.29802
| 49>    C        9.33163        11.83442        -0.02505
| 50>    S        8.32273        12.77326        -1.07794
| 51>    C        9.28499        14.20430        -0.91278
| 52>    C       10.39198        13.94593        -0.09211
| 53>    C       10.42958        12.59435         0.39314
| 54>    C       11.53922        12.16311         1.14355
| 55>    C       12.52058        13.05917         1.49099
| 56>    C       13.63650        12.62435         2.24014
| 57>    N       14.52899        12.24953         2.85403
| 58>    C       12.41596        14.43584         1.11319
| 59>    C       13.40140        15.35120         1.54372
| 60>    N       14.19248        16.10679         1.88643
| 61>    C       11.37402        14.86202         0.32562
| 62>    C        9.01506        15.42757        -1.59672
| 63>    N        7.77384        15.95947        -1.83827
| 64>    C        6.51868        15.39978        -1.40328
| 65>    C        5.82325        14.62681        -2.52228
| 66>    C        7.91402        17.13686        -2.51993
| 67>    C        9.27293        17.34728        -2.73175
| 68>    C        9.95992        16.29047        -2.15359
| 69>    C        6.80712        17.96970        -2.90891
| 70>    C        6.92453        19.12944        -3.55338
| 71>    H        1.46889        -3.36872        -1.08008
| 72>    H        2.59378        -0.22570        -2.38872
| 73>    H        1.88229        -1.79572        -2.76370
| 74>    H        4.89028        -1.34149        -2.41116
| 75>    H        4.05494        -1.47839        -3.96450
| 76>    H        4.10707        -2.85459        -2.85868
| 77>    H        3.30692        -1.52020         2.32542
| 78>    H        1.77169        -3.59089         1.58575
| 79>    H        4.41253         0.40961         1.21283
| 80>    H        4.24207         0.80491        -1.81514
| 81>    H        4.93843         2.21238        -3.34186
| 82>    H        7.78641         5.82636        -1.42690
| 83>    H        7.37193         3.43657         2.96574
| 84>    H        8.51245         5.12875         4.41602
| 85>    H        9.41168         8.05222         3.67333
| 86>    H        9.83544        10.31017         2.21321
| 87>    H        8.25442        10.03443        -0.39785
| 88>    H       11.63935        11.12558         1.42011
| 89>    H       11.30427        15.89941         0.03885
| 90>    H        5.87545        16.21115        -1.05058
| 91>    H        6.70833        14.73674        -0.55619
| 92>    H        5.62451        15.27779        -3.37009
| 93>    H        4.88214        14.22171        -2.16146
| 94>    H        6.44733        13.80404        -2.86109
| 95>    H        9.70920        18.17453        -3.25342
| 96>    H       11.01838        16.12556        -2.18354
| 97>    H        5.81747        17.61706        -2.65335
| 98>    H        7.87957        19.53307        -3.83878
| 99>    H        6.05938        19.71134        -3.81770
|100> *
|101>
|102>                          ****END OF INPUT****

CARTESIAN COORDINATES (ANGSTROEM)
---------------------------------
  C      2.019140   -2.733970   -0.412430
  N      2.674940   -1.644930   -0.873390
  C      2.726460   -1.304070   -2.272150
  C      4.030140   -1.771570   -2.918360
  C      3.290360   -1.019050    0.186770
  C      2.980000   -1.757080    1.331970
  C      2.183080   -2.832430    0.950370
  C      4.089680    0.153860    0.209070
  C      4.505870    0.978010   -0.785480
  C      5.312110    2.120540   -0.567120
  S      5.872420    2.577700    1.006010
  C      6.724080    3.977620    0.417320
  C      6.583180    4.085960   -0.966180
  C      5.779370    3.032910   -1.523440
  C      5.542300    2.995310   -2.908110
  C      6.085630    3.959640   -3.721370
  C      5.845510    3.913560   -5.112090
  N      5.629060    3.837850   -6.235550
  C      6.904380    4.996240   -3.168150
  C      7.461210    5.959230   -4.041650
  N      7.898600    6.726210   -4.771990
  C      7.151220    5.052970   -1.819970
  C      7.403190    4.805440    1.358790
  N      7.632770    4.354600    2.641410
  C      8.253620    5.300960    3.390880
  C      8.435360    6.405850    2.589390
  C      7.907730    6.092100    1.308430
  S      8.084660    7.554980    0.307020
  O      9.058750    7.365110   -0.736850
  O      6.797820    8.063680   -0.090830
  C      8.838260    8.508790    1.653450
  C      8.966710    7.727030    2.746120
  C      9.261160    9.838180    1.426640
  C      8.930840   10.513360    0.298020
  C      9.331630   11.834420   -0.025050
  S      8.322730   12.773260   -1.077940
  C      9.284990   14.204300   -0.912780
  C     10.391980   13.945930   -0.092110
  C     10.429580   12.594350    0.393140
  C     11.539220   12.163110    1.143550
  C     12.520580   13.059170    1.490990
  C     13.636500   12.624350    2.240140
  N     14.528990   12.249530    2.854030
  C     12.415960   14.435840    1.113190
  C     13.401400   15.351200    1.543720
  N     14.192480   16.106790    1.886430
  C     11.374020   14.862020    0.325620
  C      9.015060   15.427570   -1.596720
  N      7.773840   15.959470   -1.838270
  C      6.518680   15.399780   -1.403280
  C      5.823250   14.626810   -2.522280
  C      7.914020   17.136860   -2.519930
  C      9.272930   17.347280   -2.731750
  C      9.959920   16.290470   -2.153590
  C      6.807120   17.969700   -2.908910
  C      6.924530   19.129440   -3.553380
  H      1.468890   -3.368720   -1.080080
  H      2.593780   -0.225700   -2.388720
  H      1.882290   -1.795720   -2.763700
  H      4.890280   -1.341490   -2.411160
  H      4.054940   -1.478390   -3.964500
  H      4.107070   -2.854590   -2.858680
  H      3.306920   -1.520200    2.325420
  H      1.771690   -3.590890    1.585750
  H      4.412530    0.409610    1.212830
  H      4.242070    0.804910   -1.815140
  H      4.938430    2.212380   -3.341860
  H      7.786410    5.826360   -1.426900
  H      7.371930    3.436570    2.965740
  H      8.512450    5.128750    4.416020
  H      9.411680    8.052220    3.673330
  H      9.835440   10.310170    2.213210
  H      8.254420   10.034430   -0.397850
  H     11.639350   11.125580    1.420110
  H     11.304270   15.899410    0.038850
  H      5.875450   16.211150   -1.050580
  H      6.708330   14.736740   -0.556190
  H      5.624510   15.277790   -3.370090
  H      4.882140   14.221710   -2.161460
  H      6.447330   13.804040   -2.861090
  H      9.709200   18.174530   -3.253420
  H     11.018380   16.125560   -2.183540
  H      5.817470   17.617060   -2.653350
  H      7.879570   19.533070   -3.838780
  H      6.059380   19.711340   -3.817700

 Total Charge           Charge          ....    0
 Multiplicity           Mult            ....    1
 Number of Electrons    NEL             ....  406
 Basis Dimension        Dim             ....  941

ORBITAL ENERGIES
----------------

  NO   OCC          E(Eh)            E(eV)
   0   2.0000     -89.152943     -2425.9749
   1   2.0000     -88.989858     -2421.5371
   2   2.0000     -88.983208     -2421.3562
   3   2.0000     -19.201589      -522.5018
   4   2.0000     -19.201284      -522.4935
   5   2.0000     -14.495001      -394.4290
   6   2.0000     -14.474933      -393.8830
   7   2.0000     -14.470194      -393.7540
   8   2.0000     -14.403290      -391.9334
   9   2.0000     -14.403068      -391.9274
  10   2.0000     -14.400411      -391.8551
  11   2.0000     -14.396451      -391.7474
  12   2.0000     -10.350868      -281.6614
  13   2.0000     -10.331569      -281.1363
  14   2.0000     -10.330330      -281.1026
  15   2.0000     -10.329608      -281.0829
  16   2.0000     -10.329430      -281.0781
  17   2.0000     -10.327263      -281.0191
  18   2.0000     -10.324401      -280.9412
  19   2.0000     -10.324361      -280.9402
  20   2.0000     -10.322397      -280.8867
  21   2.0000     -10.321446      -280.8608
  22   2.0000     -10.321343      -280.8580
  23   2.0000     -10.316630      -280.7298
  24   2.0000     -10.312011      -280.6041
  25   2.0000     -10.311144      -280.5805
  26   2.0000     -10.309563      -280.5375
  27   2.0000     -10.309091      -280.5246
  28   2.0000     -10.307885      -280.4918
  29   2.0000     -10.307421      -280.4792
  30   2.0000     -10.306682      -280.4591
  31   2.0000     -10.305765      -280.4341
  32   2.0000     -10.304993      -280.4131
  33   2.0000     -10.304545      -280.4009
  34   2.0000     -10.304158      -280.3904
  35   2.0000     -10.302602      -280.3481
  36   2.0000     -10.302294      -280.3397
  37   2.0000     -10.301752      -280.3249
  38   2.0000     -10.301342      -280.3138
  39   2.0000     -10.300728      -280.2971
  40   2.0000     -10.300016      -280.2777
  41   2.0000     -10.299464      -280.2627
  42   2.0000     -10.298789      -280.2443
  43   2.0000     -10.296861      -280.1918
  44   2.0000     -10.295630      -280.1583
  45   2.0000     -10.295455      -280.1536
  46   2.0000     -10.294822      -280.1363
  47   2.0000     -10.294480      -280.1270
  48   2.0000     -10.281402      -279.7712
  49   2.0000     -10.279879      -279.7297
  50   2.0000     -10.271841      -279.5110
  51   2.0000     -10.268126      -279.4099
  52   2.0000     -10.267315      -279.3878
  53   2.0000     -10.263077      -279.2725
  54   2.0000     -10.262004      -279.2433
  55   2.0000     -10.256592      -279.0961
  56   2.0000      -8.216640      -223.5861
  57   2.0000      -8.084874      -220.0006
  58   2.0000      -8.077779      -219.8075
  59   2.0000      -6.185747      -168.3227
  60   2.0000      -6.185434      -168.3142
  61   2.0000      -6.184940      -168.3008
  62   2.0000      -6.053917      -164.7355
  63   2.0000      -6.049916      -164.6266
  64   2.0000      -6.047527      -164.5616
  65   2.0000      -6.046747      -164.5404
  66   2.0000      -6.042491      -164.4245
  67   2.0000      -6.040795      -164.3784
  68   2.0000      -1.206856       -32.8402
  69   2.0000      -1.111677       -30.2503
  70   2.0000      -1.097816       -29.8731
  71   2.0000      -1.094327       -29.7782
  72   2.0000      -1.083493       -29.4833
  73   2.0000      -1.021096       -27.7854
  74   2.0000      -1.016613       -27.6634
  75   2.0000      -0.995105       -27.0782
  76   2.0000      -0.994236       -27.0545
  77   2.0000      -0.982259       -26.7286
  78   2.0000      -0.979613       -26.6566
  79   2.0000      -0.971643       -26.4398
  80   2.0000      -0.955795       -26.0085
  81   2.0000      -0.954251       -25.9665
  82   2.0000      -0.926903       -25.2223
  83   2.0000      -0.923532       -25.1306
  84   2.0000      -0.921487       -25.0749
  85   2.0000      -0.916783       -24.9469
  86   2.0000      -0.896980       -24.4081
  87   2.0000      -0.891356       -24.2550
  88   2.0000      -0.881995       -24.0003
  89   2.0000      -0.873409       -23.7667
  90   2.0000      -0.868965       -23.6457
  91   2.0000      -0.866147       -23.5691
  92   2.0000      -0.859006       -23.3747
  93   2.0000      -0.839938       -22.8559
  94   2.0000      -0.834804       -22.7162
  95   2.0000      -0.833777       -22.6882
  96   2.0000      -0.827980       -22.5305
  97   2.0000      -0.802808       -21.8455
  98   2.0000      -0.793017       -21.5791
  99   2.0000      -0.784062       -21.3354
 100   2.0000      -0.760733       -20.7006
 101   2.0000      -0.755094       -20.5472
 102   2.0000      -0.751880       -20.4597
 103   2.0000      -0.741129       -20.1671
 104   2.0000      -0.735629       -20.0175
 105   2.0000      -0.735272       -20.0078
 106   2.0000      -0.729728       -19.8569
 107   2.0000      -0.725596       -19.7445
 108   2.0000      -0.703502       -19.1433
 109   2.0000      -0.694048       -18.8860
 110   2.0000      -0.687132       -18.6978
 111   2.0000      -0.681040       -18.5320
 112   2.0000      -0.674221       -18.3465
 113   2.0000      -0.668815       -18.1994
 114   2.0000      -0.660080       -17.9617
 115   2.0000      -0.657360       -17.8877
 116   2.0000      -0.636657       -17.3243
 117   2.0000      -0.630880       -17.1671
 118   2.0000      -0.628281       -17.0964
 119   2.0000      -0.625115       -17.0103
 120   2.0000      -0.622794       -16.9471
 121   2.0000      -0.615213       -16.7408
 122   2.0000      -0.605754       -16.4834
 123   2.0000      -0.604259       -16.4427
 124   2.0000      -0.602058       -16.3828
 125   2.0000      -0.600889       -16.3510
 126   2.0000      -0.586917       -15.9708
 127   2.0000      -0.578019       -15.7287
 128   2.0000      -0.570234       -15.5169
 129   2.0000      -0.558621       -15.2009
 130   2.0000      -0.557537       -15.1713
 131   2.0000      -0.557282       -15.1644
 132   2.0000      -0.554710       -15.0944
 133   2.0000      -0.553075       -15.0499
 134   2.0000      -0.549763       -14.9598
 135   2.0000      -0.549528       -14.9534
 136   2.0000      -0.548201       -14.9173
 137   2.0000      -0.540555       -14.7092
 138   2.0000      -0.537492       -14.6259
 139   2.0000      -0.534374       -14.5411
 140   2.0000      -0.529962       -14.4210
 141   2.0000      -0.527282       -14.3481
 142   2.0000      -0.526732       -14.3331
 143   2.0000      -0.522415       -14.2156
 144   2.0000      -0.519521       -14.1369
 145   2.0000      -0.519298       -14.1308
 146   2.0000      -0.517500       -14.0819
 147   2.0000      -0.513802       -13.9813
 148   2.0000      -0.504398       -13.7254
 149   2.0000      -0.500239       -13.6122
 150   2.0000      -0.496715       -13.5163
 151   2.0000      -0.491329       -13.3698
 152   2.0000      -0.487632       -13.2691
 153   2.0000      -0.484774       -13.1914
 154   2.0000      -0.483177       -13.1479
 155   2.0000      -0.478499       -13.0206
 156   2.0000      -0.477448       -12.9920
 157   2.0000      -0.475125       -12.9288
 158   2.0000      -0.469100       -12.7648
 159   2.0000      -0.468326       -12.7438
 160   2.0000      -0.466715       -12.7000
 161   2.0000      -0.464617       -12.6429
 162   2.0000      -0.461032       -12.5453
 163   2.0000      -0.457122       -12.4389
 164   2.0000      -0.455778       -12.4024
 165   2.0000      -0.454430       -12.3657
 166   2.0000      -0.448667       -12.2088
 167   2.0000      -0.447197       -12.1689
 168   2.0000      -0.439841       -11.9687
 169   2.0000      -0.438503       -11.9323
 170   2.0000      -0.437608       -11.9079
 171   2.0000      -0.436895       -11.8885
 172   2.0000      -0.436172       -11.8688
 173   2.0000      -0.431246       -11.7348
 174   2.0000      -0.430414       -11.7122
 175   2.0000      -0.429739       -11.6938
 176   2.0000      -0.427613       -11.6359
 177   2.0000      -0.423868       -11.5340
 178   2.0000      -0.419555       -11.4167
 179   2.0000      -0.414085       -11.2678
 180   2.0000      -0.410361       -11.1665
 181   2.0000      -0.408425       -11.1138
 182   2.0000      -0.404461       -11.0059
 183   2.0000      -0.403886       -10.9903
 184   2.0000      -0.402435       -10.9508
 185   2.0000      -0.399707       -10.8766
 186   2.0000      -0.398444       -10.8422
 187   2.0000      -0.396627       -10.7928
 188   2.0000      -0.375389       -10.2149
 189   2.0000      -0.372797       -10.1443
 190   2.0000      -0.367944       -10.0123
 191   2.0000      -0.363742        -9.8979
 192   2.0000      -0.359054        -9.7704
 193   2.0000      -0.336412        -9.1542
 194   2.0000      -0.329893        -8.9768
 195   2.0000      -0.326184        -8.8759
 196   2.0000      -0.326002        -8.8710
 197   2.0000      -0.321928        -8.7601
 198   2.0000      -0.315914        -8.5965
 199   2.0000      -0.298408        -8.1201
 200   2.0000      -0.281113        -7.6495
 201   2.0000      -0.241752        -6.5784
 202   2.0000      -0.233391        -6.3509
 203   0.0000      -0.082709        -2.2506
 204   0.0000      -0.076003        -2.0681
 205   0.0000      -0.036463        -0.9922
 206   0.0000      -0.022630        -0.6158
 207   0.0000      -0.011754        -0.3198

MULLIKEN ATOMIC CHARGES
-----------------------
   0 C :    0.061446
   1 N :   -0.159253
   2 C :    0.084186
   3 C :    0.000913
   4 C :    0.080537
   5 C :   -0.037484
   6 C :    0.008436
   7 C :    0.029823
   8 C :   -0.028801
   9 C :   -0.070953
  10 S :    0.112858
  11 C :   -0.144743
  12 C :    0.151949
  13 C :    0.102763
  14 C :   -0.062949
  15 C :   -0.070783
  16 C :   -0.182156
  17 N :    0.165465
  18 C :   -0.081660
  19 C :   -0.165650
  20 N :    0.175039
  21 C :   -0.018738
  22 C :    0.016597
  23 N :   -0.060618
  24 C :    0.000126
  25 C :    0.060776
  26 C :   -0.068219
  27 S :    0.794371
  28 O :   -0.435563
  29 O :   -0.452040
  30 C :   -0.024965
  31 C :    0.037681
  32 C :   -0.010468
  33 C :    0.053601
  34 C :   -0.132628
  35 S :    0.186456
  36 C :   -0.139274
  37 C :    0.132187
  38 C :    0.123387
  39 C :   -0.066559
  40 C :   -0.067105
  41 C :   -0.176904
  42 N :    0.168287
  43 C :   -0.075523
  44 C :   -0.176245
  45 N :    0.164843
  46 C :   -0.059734
  47 C :    0.069798
  48 N :   -0.162104
  49 C :    0.055399
  50 C :    0.016886
  51 C :    0.108075
  52 C :   -0.048486
  53 C :   -0.037414
  54 C :   -0.008015
  55 C :   -0.019173
  56 H :    0.001239
  57 H :    0.035442
  58 H :    0.027195
  59 H :    0.033710
  60 H :    0.031218
  61 H :    0.025491
  62 H :   -0.025384
  63 H :   -0.016999
  64 H :   -0.016200
  65 H :   -0.033181
  66 H :   -0.012064
  67 H :   -0.055335
  68 H :    0.134629
  69 H :    0.006469
  70 H :   -0.006993
  71 H :   -0.006275
  72 H :    0.019309
  73 H :   -0.003397
  74 H :   -0.000172
  75 H :    0.035455
  76 H :    0.037912
  77 H :    0.025739
  78 H :    0.028391
  79 H :    0.030290
  80 H :   -0.026057
  81 H :   -0.014222
  82 H :   -0.016152
  83 H :    0.018272
  84 H :    0.023991
Sum of atomic charges:   -0.0000000

LOEWDIN ATOMIC CHARGES
----------------------
   0 C :    0.002938
   1 N :    0.069718
   2 C :    0.041018
   3 C :   -0.061901
   4 C :   -0.035607
   5 C :   -0.047067
   6 C :   -0.078567
   7 C :   -0.005955
   8 C :   -0.083999
   9 C :   -0.147089
  10 S :    0.461450
  11 C :   -0.189347
  12 C :   -0.035102
  13 C :   -0.053025
  14 C :    0.029082
  15 C :   -0.057636
  16 C :   -0.031665
  17 N :   -0.044068
  18 C :   -0.048953
  19 C :   -0.026973
  20 N :   -0.035242
  21 C :    0.036454
  22 C :   -0.009361
  23 N :    0.095239
  24 C :    0.007421
  25 C :   -0.083505
  26 C :   -0.226814
  27 S :    1.179178
  28 O :   -0.486582
  29 O :   -0.497246
  30 C :   -0.150526
  31 C :   -0.008098
  32 C :   -0.044072
  33 C :   -0.027809
  34 C :   -0.183066
  35 S :    0.519324
  36 C :   -0.164072
  37 C :   -0.046881
  38 C :   -0.039099
  39 C :    0.027532
  40 C :   -0.054624
  41 C :   -0.031507
  42 N :   -0.041738
  43 C :   -0.064174
  44 C :   -0.032763
  45 N :   -0.043509
  46 C :    0.038122
  47 C :   -0.046587
  48 N :    0.070075
  49 C :    0.029370
  50 C :   -0.061261
  51 C :   -0.009540
  52 C :   -0.058746
  53 C :   -0.053322
  54 C :   -0.038618
  55 C :   -0.034354
  56 H :    0.021528
  57 H :    0.026995
  58 H :    0.033787
  59 H :    0.028345
  60 H :    0.033588
  61 H :    0.031212
  62 H :    0.023283
  63 H :    0.026505
  64 H :    0.029489
  65 H :    0.027126
  66 H :    0.038671
  67 H :    0.024397
  68 H :    0.084169
  69 H :    0.028541
  70 H :    0.038513
  71 H :    0.035939
  72 H :    0.029311
  73 H :    0.041945
  74 H :    0.044859
  75 H :    0.030465
  76 H :    0.021075
  77 H :    0.028557
  78 H :    0.033506
  79 H :    0.020830
  80 H :    0.025727
  81 H :    0.027475
  82 H :    0.027698
  83 H :    0.023105
  84 H :    0.026504

  Mayer bond orders larger than 0.100000
B(  0-C ,  1-N ) :   1.2332 B(  0-C ,  6-C ) :   1.4337 B(  0-C , 56-H ) :   0.9885
B(  1-N ,  2-C ) :   0.9620 B(  1-N ,  4-C ) :   1.1743 B(  2-C ,  3-C ) :   1.1036
B(  2-C , 57-H ) :   0.9490 B(  2-C , 58-H ) :   0.9460 B(  3-C , 59-H ) :   0.9668
B(  3-C , 60-H ) :   0.9675 B(  3-C , 61-H ) :   0.9614 B(  4-C ,  5-C ) :   1.3788
B(  4-C ,  7-C ) :   1.1806 B(  5-C ,  6-C ) :   1.3402 B(  5-C , 62-H ) :   1.0128
B(  6-C , 63-H ) :   1.0073 B(  7-C ,  8-C ) :   1.5784 B(  7-C , 64-H ) :   0.9507
B(  8-C ,  9-C ) :   1.1977 B(  8-C , 65-H ) :   0.9642 B(  9-C , 10-S ) :   1.1394
B(  9-C , 11-C ) :   0.1130 B(  9-C , 13-C ) :   1.3240 B( 10-S , 11-C ) :   1.1150
B( 11-C , 12-C ) :   1.4142 B( 11-C , 22-C ) :   1.0997 B( 12-C , 13-C ) :   1.1726
B( 12-C , 21-C ) :   1.1559 B( 13-C , 14-C ) :   1.1905 B( 14-C , 15-C ) :   1.5807
B( 14-C , 66-H ) :   0.9955 B( 15-C , 16-C ) :   1.0810 B( 15-C , 18-C ) :   1.2185
B( 16-C , 17-N ) :   3.0451 B( 18-C , 19-C ) :   1.0871 B( 18-C , 21-C ) :   1.6020
B( 19-C , 20-N ) :   3.0344 B( 21-C , 67-H ) :   0.9646 B( 22-C , 23-N ) :   1.2633
B( 22-C , 26-C ) :   1.5372 B( 23-N , 24-C ) :   1.2099 B( 23-N , 68-H ) :   0.9242
B( 24-C , 25-C ) :   1.4420 B( 24-C , 69-H ) :   0.9878 B( 25-C , 26-C ) :   1.3202
B( 25-C , 31-C ) :   1.0497 B( 26-C , 27-S ) :   0.8027 B( 27-S , 28-O ) :   1.6478
B( 27-S , 29-O ) :   1.6839 B( 27-S , 30-C ) :   0.8040 B( 28-O , 67-H ) :   0.1220
B( 30-C , 31-C ) :   1.6579 B( 30-C , 32-C ) :   1.1904 B( 31-C , 70-H ) :   0.9988
B( 32-C , 33-C ) :   1.6467 B( 32-C , 71-H ) :   0.9794 B( 33-C , 34-C ) :   1.1391
B( 33-C , 72-H ) :   0.9296 B( 34-C , 35-S ) :   1.1398 B( 34-C , 36-C ) :   0.1130
B( 34-C , 38-C ) :   1.3465 B( 35-S , 36-C ) :   1.1807 B( 36-C , 37-C ) :   1.3627
B( 36-C , 47-C ) :   1.0493 B( 37-C , 38-C ) :   1.1904 B( 37-C , 46-C ) :   1.1890
B( 38-C , 39-C ) :   1.1879 B( 39-C , 40-C ) :   1.5646 B( 39-C , 73-H ) :   0.9950
B( 40-C , 41-C ) :   1.0784 B( 40-C , 43-C ) :   1.2304 B( 41-C , 42-N ) :   3.0439
B( 43-C , 44-C ) :   1.0818 B( 43-C , 46-C ) :   1.5532 B( 44-C , 45-N ) :   3.0414
B( 46-C , 74-H ) :   0.9963 B( 47-C , 48-N ) :   1.1979 B( 47-C , 51-C ) :   0.1061
B( 47-C , 53-C ) :   1.4123 B( 48-N , 49-C ) :   0.9604 B( 48-N , 51-C ) :   1.1868
B( 49-C , 50-C ) :   1.1079 B( 49-C , 75-H ) :   0.9435 B( 49-C , 76-H ) :   0.9388
B( 50-C , 77-H ) :   0.9646 B( 50-C , 78-H ) :   0.9656 B( 50-C , 79-H ) :   0.9600
B( 51-C , 52-C ) :   1.4228 B( 51-C , 54-C ) :   1.0744 B( 52-C , 53-C ) :   1.3431
B( 52-C , 80-H ) :   1.0052 B( 53-C , 81-H ) :   1.0116 B( 54-C , 55-C ) :   1.9452
B( 54-C , 82-H ) :   0.9523 B( 55-C , 83-H ) :   0.9564 B( 55-C , 84-H ) :   0.9471

-----------------------------------------------------------------------------
         ABSORPTION SPECTRUM VIA TRANSITION ELECTRIC DIPOLE MOMENTS
-----------------------------------------------------------------------------
State   Energy  Wavelength   fosc         T2         TX        TY        TZ
        (cm-1)    (nm)                  (au**2)     (au)      (au)      (au)
-----------------------------------------------------------------------------
   0   17662.7    566.2   1.394073113  25.98388  -1.62651  -4.79282   0.60601
   1   19257.1    519.3   0.231377027   3.95554  -1.38748   0.53500  -1.32069
   2   22775.8    439.1   0.052598748   0.76029  -0.22201  -0.72454   0.43133
   3   23554.6    424.5   0.012355458   0.17269   0.19047  -0.10190   0.35500
   4   26655.9    375.2   0.200559197   2.47699  -1.02350  -1.18623  -0.14934
   5   28630.4    349.3   0.184694397   2.12374   1.04346   0.88515   0.50144
   6   29334.3    340.9   0.003040895   0.03413   0.04486  -0.00676   0.17908
   7   30175.8    331.4   0.287541858   3.13703   0.83312   0.71548  -1.38961
   8   31456.2    317.9   0.619980441   6.48855  -0.08343   2.24455  -1.20150
   9   31938.4    313.1   0.229732905   2.36802   1.31919   0.63865   0.46893
  10   32747.5    305.4   0.108121195   1.08695   0.02083   0.35024  -0.98176
  11   33309.9    300.2   0.021036022   0.20791   0.28848   0.33467   0.11261
  12   34663.6    288.5   0.050352493   0.47821  -0.15741   0.61922  -0.26460
  13   35043.5    285.4   0.037397123   0.35132   0.33548   0.46281  -0.15678
  14   35468.6    281.9   0.079017689   0.73343  -0.29631   0.52516  -0.60814
  15   36504.0    273.9   0.123457007   1.11340   0.26976  -0.37411  -0.94903
  16   36776.6    271.9   0.526054853   4.70907   1.40262  -0.85244   1.41953
  17   36967.8    270.5   0.001293736   0.01152  -0.00296   0.10546  -0.01976
  18   37545.6    266.3   0.154028627   1.35057   0.01193   0.55043  -1.02346
  19   37667.7    265.5   0.054799116   0.47894  -0.56663   0.10939   0.38198
  20   37728.9    265.0   0.039185613   0.34192  -0.46371  -0.17476  -0.31041
  21   38254.7    261.4   0.529597949   4.55761   0.48173   1.16815  -1.72075
  22   38996.7    256.4   0.134698373   1.13713  -0.88169  -0.58995  -0.10822
  23   39098.1    255.8   0.038044646   0.32034   0.05189   0.40387  -0.39311
  24   40071.1    249.6   0.097885853   0.80420   0.15712  -0.17985   0.86439
  25   40289.4    248.2   0.190667108   1.55798  -1.03323  -0.57241  -0.40344

FINAL SINGLE POINT ENERGY     -3419.041536852572

DIPOLE MOMENT
-------------
                                X             Y             Z
Electronic contribution:     33.20043       6.54671      14.57917
Nuclear contribution   :    -37.78247     -10.05774     -12.16434
                        -----------------------------------------
Total Dipole Moment    :     -4.58204      -3.51104       2.41482
                        -----------------------------------------
Magnitude (a.u.)       :      6.25730
Magnitude (Debye)      :     15.90480

Rotational constants in cm-1:     0.002683     0.000486     0.000440
Rotational constants in MHz :    80.422903    14.561262    13.178622

                             ****ORCA TERMINATED NORMALLY****
TOTAL RUN TIME: 0 days 0 hours 6 minutes 50 seconds 279 msec
