                         Program Version 4.2.0 -  RELEASE  -
|  1> # ORCA input file
|  2> # SCF done       -132.477129328641          0.000959652239
|  3> ! CAM-B3LYP def2-SVP def2/J RIJCOSX Grid4 TightSCF
|  4> %maxcore 5000
|  5> %tddft
|  6>     Mode sTDDFT
|  7>     Ethresh 5.0
|  8>     maxcore 5000
|  9> end
| 10>
| 11> %pal
| 12>   nprocs 6
| 13>   end
| 14> * xyz 0 2
| 15>    C        3.65693         0.83359        11.22917
| 16>    C        2.64087         0.85471        10.37008
| 17>    C        2.72957         0.37701         9.01262
| 18>    C        1.71684         0.37577         8.09846
| 19>    C        0.34331         0.87991         8.31195
| 20>    C       -0.53642         0.83782         7.09480
| 21>    O       -0.03930         1.29363         9.38282
| 22>    S        2.09070        -0.25015         6.50567
| 23>    C        3.75904        -0.61233         6.82005
| 24>    C        4.64602        -1.24117         5.97240
| 25>    S        6.11448        -1.88812         6.70607
| 26>    C        6.58609        -2.69421         5.24312
| 27>    C        7.84044        -3.40481         5.21247
| 28>    C        8.24142        -4.19631         6.29780
| 29>    N        9.38596        -4.84010         6.34049
| 30>    C       10.20349        -4.75957         5.30891
| 31>    C        9.91843        -4.01139         4.16310
| 32>    C       10.87253        -3.93818         3.05551
| 33>    C       11.11763        -2.73584         2.38841
| 34>    N       11.95260        -2.62808         1.37407
| 35>    C       12.64404        -3.68131         1.00361
| 36>    C       12.54382        -4.92811         1.63701
| 37>    C       13.35893        -6.04265         1.20765
| 38>    C       14.67170        -6.00500         0.89759
| 39>    C       15.29151        -7.13679         0.13268
| 40>    O       14.80477        -8.22373        -0.05766
| 41>    C       16.56442        -6.59113        -0.35187
| 42>    C       16.76402        -5.27395         0.18091
| 43>    C       17.92743        -4.70053        -0.22842
| 44>    S       18.80560        -5.75202        -1.27777
| 45>    C       17.58556        -6.99810        -1.15780
| 46>   Cl       17.75028        -8.47410        -1.97200
| 47>    C       15.66178        -4.94676         1.06374
| 48>    C       15.68186        -3.94675         1.99657
| 49>    C       14.74016        -3.78252         3.03194
| 50>    N       14.04985        -3.64225         3.93810
| 51>    C       16.74483        -3.02040         2.05240
| 52>    N       17.59852        -2.25579         2.09535
| 53>    C       11.59894        -5.05282         2.65294
| 54>    C        8.72314        -3.30521         4.13578
| 55>    C        5.65248        -2.49127         4.23041
| 56>    C        5.63066        -3.10585         2.94546
| 57>    C        6.49586        -4.16048         2.59968
| 58>    N        7.14461        -5.05026         2.27181
| 59>    C        4.68129        -2.71007         2.01251
| 60>    C        3.77462        -1.70743         2.30933
| 61>    C        3.71864        -1.14482         3.58841
| 62>    C        2.84386        -0.05208         3.73682
| 63>    N        2.16568         0.87450         3.75763
| 64>    C        4.59210        -1.59491         4.59487
| 65>    S        4.26699        -0.24286         8.45209
| 66>    H        3.54371         1.20159        12.23316
| 67>    H        4.62860         0.44908        10.96037
| 68>    H        1.67220         1.23957        10.65470
| 69>    H       -0.08074         1.39385         6.27683
| 70>    H       -1.50558         1.26659         7.33532
| 71>    H       -0.66743        -0.19256         6.76732
| 72>    H        7.59482        -4.31247         7.15814
| 73>    H       11.14415        -5.28223         5.41156
| 74>    H       10.63020        -1.81897         2.69027
| 75>    H       13.29495        -3.54686         0.14890
| 76>    H       12.85548        -6.99111         1.05166
| 77>    H       18.32695        -3.73345         0.00419
| 78>    H       11.45718        -6.00385         3.14408
| 79>    H        8.48415        -2.67474         3.29174
| 80>    H        4.67105        -3.17855         1.03995
| 81>    H        3.09126        -1.35129         1.55398
| 82> *
| 83>
| 84>                          ****END OF INPUT****

CARTESIAN COORDINATES (ANGSTROEM)
---------------------------------
  C      3.656930    0.833590   11.229170
  C      2.640870    0.854710   10.370080
  C      2.729570    0.377010    9.012620
  C      1.716840    0.375770    8.098460
  C      0.343310    0.879910    8.311950
  C     -0.536420    0.837820    7.094800
  O     -0.039300    1.293630    9.382820
  S      2.090700   -0.250150    6.505670
  C      3.759040   -0.612330    6.820050
  C      4.646020   -1.241170    5.972400
  S      6.114480   -1.888120    6.706070
  C      6.586090   -2.694210    5.243120
  C      7.840440   -3.404810    5.212470
  C      8.241420   -4.196310    6.297800
  N      9.385960   -4.840100    6.340490
  C     10.203490   -4.759570    5.308910
  C      9.918430   -4.011390    4.163100
  C     10.872530   -3.938180    3.055510
  C     11.117630   -2.735840    2.388410
  N     11.952600   -2.628080    1.374070
  C     12.644040   -3.681310    1.003610
  C     12.543820   -4.928110    1.637010
  C     13.358930   -6.042650    1.207650
  C     14.671700   -6.005000    0.897590
  C     15.291510   -7.136790    0.132680
  O     14.804770   -8.223730   -0.057660
  C     16.564420   -6.591130   -0.351870
  C     16.764020   -5.273950    0.180910
  C     17.927430   -4.700530   -0.228420
  S     18.805600   -5.752020   -1.277770
  C     17.585560   -6.998100   -1.157800
  Cl    17.750280   -8.474100   -1.972000
  C     15.661780   -4.946760    1.063740
  C     15.681860   -3.946750    1.996570
  C     14.740160   -3.782520    3.031940
  N     14.049850   -3.642250    3.938100
  C     16.744830   -3.020400    2.052400
  N     17.598520   -2.255790    2.095350
  C     11.598940   -5.052820    2.652940
  C      8.723140   -3.305210    4.135780
  C      5.652480   -2.491270    4.230410
  C      5.630660   -3.105850    2.945460
  C      6.495860   -4.160480    2.599680
  N      7.144610   -5.050260    2.271810
  C      4.681290   -2.710070    2.012510
  C      3.774620   -1.707430    2.309330
  C      3.718640   -1.144820    3.588410
  C      2.843860   -0.052080    3.736820
  N      2.165680    0.874500    3.757630
  C      4.592100   -1.594910    4.594870
  S      4.266990   -0.242860    8.452090
  H      3.543710    1.201590   12.233160
  H      4.628600    0.449080   10.960370
  H      1.672200    1.239570   10.654700
  H     -0.080740    1.393850    6.276830
  H     -1.505580    1.266590    7.335320
  H     -0.667430   -0.192560    6.767320
  H      7.594820   -4.312470    7.158140
  H     11.144150   -5.282230    5.411560
  H     10.630200   -1.818970    2.690270
  H     13.294950   -3.546860    0.148900
  H     12.855480   -6.991110    1.051660
  H     18.326950   -3.733450    0.004190
  H     11.457180   -6.003850    3.144080
  H      8.484150   -2.674740    3.291740
  H      4.671050   -3.178550    1.039950
  H      3.091260   -1.351290    1.553980

 Total Charge           Charge          ....    0
 Multiplicity           Mult            ....    2
 Number of Electrons    NEL             ....  383
 Basis Dimension        Dim             ....  814

ORBITAL ENERGIES
----------------
                 SPIN UP ORBITALS
  NO   OCC          E(Eh)            E(eV)
   0   1.0000    -101.619525     -2765.2079
   1   1.0000     -88.996676     -2421.7227
   2   1.0000     -88.985532     -2421.4194
   3   1.0000     -88.983254     -2421.3574
   4   1.0000     -88.971647     -2421.0416
   5   1.0000     -19.223074      -523.0864
   6   1.0000     -19.220658      -523.0207
   7   1.0000     -14.422785      -392.4639
   8   1.0000     -14.420161      -392.3925
   9   1.0000     -14.419022      -392.3615
  10   1.0000     -14.413053      -392.1991
  11   1.0000     -14.409566      -392.1042
  12   1.0000     -14.403339      -391.9348
  13   1.0000     -10.380324      -282.4630
  14   1.0000     -10.379374      -282.4371
  15   1.0000     -10.379036      -282.4279
  16   1.0000     -10.363012      -281.9919
  17   1.0000     -10.352885      -281.7163
  18   1.0000     -10.352127      -281.6957
  19   1.0000     -10.344735      -281.4945
  20   1.0000     -10.332042      -281.1491
  21   1.0000     -10.331451      -281.1331
  22   1.0000     -10.329865      -281.0899
  23   1.0000     -10.328859      -281.0626
  24   1.0000     -10.326369      -280.9948
  25   1.0000     -10.324391      -280.9410
  26   1.0000     -10.324271      -280.9377
  27   1.0000     -10.323965      -280.9294
  28   1.0000     -10.322781      -280.8972
  29   1.0000     -10.322295      -280.8839
  30   1.0000     -10.318506      -280.7808
  31   1.0000     -10.316299      -280.7208
  32   1.0000     -10.315241      -280.6920
  33   1.0000     -10.314936      -280.6837
  34   1.0000     -10.312132      -280.6074
  35   1.0000     -10.311810      -280.5986
  36   1.0000     -10.309823      -280.5445
  37   1.0000     -10.309020      -280.5227
  38   1.0000     -10.306544      -280.4553
  39   1.0000     -10.306463      -280.4531
  40   1.0000     -10.306038      -280.4415
  41   1.0000     -10.303467      -280.3716
  42   1.0000     -10.300555      -280.2923
  43   1.0000     -10.299157      -280.2543
  44   1.0000     -10.298524      -280.2371
  45   1.0000     -10.296631      -280.1856
  46   1.0000     -10.294963      -280.1402
  47   1.0000     -10.292869      -280.0832
  48   1.0000     -10.290968      -280.0315
  49   1.0000     -10.290279      -280.0127
  50   1.0000     -10.278424      -279.6901
  51   1.0000      -9.574303      -260.5300
  52   1.0000      -8.092264      -220.2017
  53   1.0000      -8.081109      -219.8982
  54   1.0000      -8.078089      -219.8160
  55   1.0000      -8.067234      -219.5206
  56   1.0000      -7.344965      -199.8666
  57   1.0000      -7.334325      -199.5771
  58   1.0000      -7.333786      -199.5625
  59   1.0000      -6.061624      -164.9452
  60   1.0000      -6.057027      -164.8201
  61   1.0000      -6.054600      -164.7540
  62   1.0000      -6.050907      -164.6536
  63   1.0000      -6.047981      -164.5739
  64   1.0000      -6.046439      -164.5320
  65   1.0000      -6.043242      -164.4450
  66   1.0000      -6.042597      -164.4274
  67   1.0000      -6.039672      -164.3478
  68   1.0000      -6.036751      -164.2683
  69   1.0000      -6.032410      -164.1502
  70   1.0000      -6.029495      -164.0709
  71   1.0000      -1.140108       -31.0239
  72   1.0000      -1.140076       -31.0230
  73   1.0000      -1.048893       -28.5418
  74   1.0000      -1.042302       -28.3625
  75   1.0000      -1.040669       -28.3180
  76   1.0000      -1.031617       -28.0717
  77   1.0000      -1.018910       -27.7259
  78   1.0000      -1.013482       -27.5782
  79   1.0000      -1.004041       -27.3213
  80   1.0000      -0.999761       -27.2049
  81   1.0000      -0.995407       -27.0864
  82   1.0000      -0.990924       -26.9644
  83   1.0000      -0.960465       -26.1356
  84   1.0000      -0.958488       -26.0818
  85   1.0000      -0.934394       -25.4261
  86   1.0000      -0.930621       -25.3235
  87   1.0000      -0.920187       -25.0396
  88   1.0000      -0.915000       -24.8984
  89   1.0000      -0.906690       -24.6723
  90   1.0000      -0.899469       -24.4758
  91   1.0000      -0.890041       -24.2193
  92   1.0000      -0.862914       -23.4811
  93   1.0000      -0.856352       -23.3025
  94   1.0000      -0.849730       -23.1223
  95   1.0000      -0.840690       -22.8764
  96   1.0000      -0.835647       -22.7391
  97   1.0000      -0.834056       -22.6958
  98   1.0000      -0.811930       -22.0937
  99   1.0000      -0.789426       -21.4814
 100   1.0000      -0.783688       -21.3252
 101   1.0000      -0.758284       -20.6340
 102   1.0000      -0.757630       -20.6162
 103   1.0000      -0.741266       -20.1709
 104   1.0000      -0.739206       -20.1148
 105   1.0000      -0.727626       -19.7997
 106   1.0000      -0.716476       -19.4963
 107   1.0000      -0.706457       -19.2237
 108   1.0000      -0.697486       -18.9796
 109   1.0000      -0.691522       -18.8173
 110   1.0000      -0.678901       -18.4738
 111   1.0000      -0.673751       -18.3337
 112   1.0000      -0.664554       -18.0834
 113   1.0000      -0.654042       -17.7974
 114   1.0000      -0.638695       -17.3798
 115   1.0000      -0.632015       -17.1980
 116   1.0000      -0.623087       -16.9551
 117   1.0000      -0.621074       -16.9003
 118   1.0000      -0.610676       -16.6173
 119   1.0000      -0.606095       -16.4927
 120   1.0000      -0.602162       -16.3857
 121   1.0000      -0.595709       -16.2101
 122   1.0000      -0.592767       -16.1300
 123   1.0000      -0.578527       -15.7425
 124   1.0000      -0.576702       -15.6929
 125   1.0000      -0.569743       -15.5035
 126   1.0000      -0.566297       -15.4097
 127   1.0000      -0.555516       -15.1164
 128   1.0000      -0.549946       -14.9648
 129   1.0000      -0.548917       -14.9368
 130   1.0000      -0.545874       -14.8540
 131   1.0000      -0.537307       -14.6209
 132   1.0000      -0.535293       -14.5661
 133   1.0000      -0.534541       -14.5456
 134   1.0000      -0.530451       -14.4343
 135   1.0000      -0.527932       -14.3658
 136   1.0000      -0.524800       -14.2805
 137   1.0000      -0.523376       -14.2418
 138   1.0000      -0.515004       -14.0140
 139   1.0000      -0.509993       -13.8776
 140   1.0000      -0.506514       -13.7830
 141   1.0000      -0.505512       -13.7557
 142   1.0000      -0.500769       -13.6266
 143   1.0000      -0.497208       -13.5297
 144   1.0000      -0.495558       -13.4848
 145   1.0000      -0.492364       -13.3979
 146   1.0000      -0.491532       -13.3753
 147   1.0000      -0.489166       -13.3109
 148   1.0000      -0.488610       -13.2957
 149   1.0000      -0.485017       -13.1980
 150   1.0000      -0.484576       -13.1860
 151   1.0000      -0.473200       -12.8764
 152   1.0000      -0.472057       -12.8453
 153   1.0000      -0.469158       -12.7664
 154   1.0000      -0.468126       -12.7383
 155   1.0000      -0.458577       -12.4785
 156   1.0000      -0.456613       -12.4251
 157   1.0000      -0.455608       -12.3977
 158   1.0000      -0.453352       -12.3363
 159   1.0000      -0.451501       -12.2860
 160   1.0000      -0.448968       -12.2170
 161   1.0000      -0.448506       -12.2045
 162   1.0000      -0.445272       -12.1165
 163   1.0000      -0.444483       -12.0950
 164   1.0000      -0.439787       -11.9672
 165   1.0000      -0.437287       -11.8992
 166   1.0000      -0.430337       -11.7101
 167   1.0000      -0.429868       -11.6973
 168   1.0000      -0.423114       -11.5135
 169   1.0000      -0.422369       -11.4932
 170   1.0000      -0.417605       -11.3636
 171   1.0000      -0.413273       -11.2457
 172   1.0000      -0.411939       -11.2094
 173   1.0000      -0.405875       -11.0444
 174   1.0000      -0.405461       -11.0331
 175   1.0000      -0.383764       -10.4427
 176   1.0000      -0.380657       -10.3582
 177   1.0000      -0.378281       -10.2936
 178   1.0000      -0.368017       -10.0142
 179   1.0000      -0.348206        -9.4752
 180   1.0000      -0.347247        -9.4491
 181   1.0000      -0.344770        -9.3817
 182   1.0000      -0.341572        -9.2946
 183   1.0000      -0.339465        -9.2373
 184   1.0000      -0.338868        -9.2211
 185   1.0000      -0.333114        -9.0645
 186   1.0000      -0.329800        -8.9743
 187   1.0000      -0.324272        -8.8239
 188   1.0000      -0.317328        -8.6349
 189   1.0000      -0.302266        -8.2251
 190   1.0000      -0.285065        -7.7570
 191   1.0000      -0.225470        -6.1354
 192   0.0000      -0.093423        -2.5422
 193   0.0000      -0.064573        -1.7571
 194   0.0000      -0.057471        -1.5639
 195   0.0000      -0.050835        -1.3833
 196   0.0000      -0.020619        -0.5611

                 SPIN DOWN ORBITALS
  NO   OCC          E(Eh)            E(eV)
   0   1.0000    -101.619526     -2765.2079
   1   1.0000     -88.996675     -2421.7226
   2   1.0000     -88.985165     -2421.4094
   3   1.0000     -88.982752     -2421.3438
   4   1.0000     -88.970890     -2421.0210
   5   1.0000     -19.223075      -523.0865
   6   1.0000     -19.220588      -523.0188
   7   1.0000     -14.422816      -392.4648
   8   1.0000     -14.420193      -392.3934
   9   1.0000     -14.420069      -392.3900
  10   1.0000     -14.411491      -392.1566
  11   1.0000     -14.409531      -392.1033
  12   1.0000     -14.403946      -391.9513
  13   1.0000     -10.380323      -282.4630
  14   1.0000     -10.379372      -282.4371
  15   1.0000     -10.379050      -282.4283
  16   1.0000     -10.358214      -281.8613
  17   1.0000     -10.352859      -281.7156
  18   1.0000     -10.352156      -281.6965
  19   1.0000     -10.344697      -281.4935
  20   1.0000     -10.333626      -281.1923
  21   1.0000     -10.332015      -281.1484
  22   1.0000     -10.331327      -281.1297
  23   1.0000     -10.326390      -280.9954
  24   1.0000     -10.326280      -280.9924
  25   1.0000     -10.324371      -280.9404
  26   1.0000     -10.323938      -280.9286
  27   1.0000     -10.322274      -280.8834
  28   1.0000     -10.321759      -280.8693
  29   1.0000     -10.317903      -280.7644
  30   1.0000     -10.317648      -280.7575
  31   1.0000     -10.316318      -280.7213
  32   1.0000     -10.316057      -280.7142
  33   1.0000     -10.314993      -280.6852
  34   1.0000     -10.312629      -280.6209
  35   1.0000     -10.312204      -280.6093
  36   1.0000     -10.309842      -280.5451
  37   1.0000     -10.308401      -280.5059
  38   1.0000     -10.307855      -280.4910
  39   1.0000     -10.305462      -280.4259
  40   1.0000     -10.303457      -280.3713
  41   1.0000     -10.302933      -280.3571
  42   1.0000     -10.300527      -280.2916
  43   1.0000     -10.299632      -280.2672
  44   1.0000     -10.299224      -280.2561
  45   1.0000     -10.295539      -280.1558
  46   1.0000     -10.294865      -280.1375
  47   1.0000     -10.292865      -280.0831
  48   1.0000     -10.291518      -280.0464
  49   1.0000     -10.290283      -280.0128
  50   1.0000     -10.278419      -279.6900
  51   1.0000      -9.574304      -260.5301
  52   1.0000      -8.092263      -220.2017
  53   1.0000      -8.080740      -219.8881
  54   1.0000      -8.077583      -219.8022
  55   1.0000      -8.066472      -219.4999
  56   1.0000      -7.344964      -199.8666
  57   1.0000      -7.334327      -199.5772
  58   1.0000      -7.333787      -199.5625
  59   1.0000      -6.061623      -164.9452
  60   1.0000      -6.057027      -164.8201
  61   1.0000      -6.054596      -164.7539
  62   1.0000      -6.050776      -164.6500
  63   1.0000      -6.047768      -164.5681
  64   1.0000      -6.046290      -164.5279
  65   1.0000      -6.043012      -164.4387
  66   1.0000      -6.041243      -164.3906
  67   1.0000      -6.037894      -164.2994
  68   1.0000      -6.036296      -164.2560
  69   1.0000      -6.032041      -164.1402
  70   1.0000      -6.026958      -164.0019
  71   1.0000      -1.140108       -31.0239
  72   1.0000      -1.139970       -31.0201
  73   1.0000      -1.048850       -28.5406
  74   1.0000      -1.041698       -28.3460
  75   1.0000      -1.040585       -28.3158
  76   1.0000      -1.029473       -28.0134
  77   1.0000      -1.018936       -27.7267
  78   1.0000      -1.011324       -27.5195
  79   1.0000      -1.004392       -27.3309
  80   1.0000      -0.999801       -27.2060
  81   1.0000      -0.993248       -27.0277
  82   1.0000      -0.990929       -26.9645
  83   1.0000      -0.958479       -26.0816
  84   1.0000      -0.958073       -26.0705
  85   1.0000      -0.933083       -25.3905
  86   1.0000      -0.928939       -25.2777
  87   1.0000      -0.919785       -25.0286
  88   1.0000      -0.913647       -24.8616
  89   1.0000      -0.906671       -24.6718
  90   1.0000      -0.896979       -24.4080
  91   1.0000      -0.889143       -24.1948
  92   1.0000      -0.861514       -23.4430
  93   1.0000      -0.854991       -23.2655
  94   1.0000      -0.848394       -23.0860
  95   1.0000      -0.839888       -22.8545
  96   1.0000      -0.835430       -22.7332
  97   1.0000      -0.833159       -22.6714
  98   1.0000      -0.809378       -22.0243
  99   1.0000      -0.789388       -21.4803
 100   1.0000      -0.781930       -21.2774
 101   1.0000      -0.758224       -20.6323
 102   1.0000      -0.754194       -20.5227
 103   1.0000      -0.739337       -20.1184
 104   1.0000      -0.736892       -20.0519
 105   1.0000      -0.727168       -19.7873
 106   1.0000      -0.715714       -19.4756
 107   1.0000      -0.705844       -19.2070
 108   1.0000      -0.696796       -18.9608
 109   1.0000      -0.690508       -18.7897
 110   1.0000      -0.678896       -18.4737
 111   1.0000      -0.672215       -18.2919
 112   1.0000      -0.663078       -18.0433
 113   1.0000      -0.653598       -17.7853
 114   1.0000      -0.637537       -17.3483
 115   1.0000      -0.631304       -17.1787
 116   1.0000      -0.622813       -16.9476
 117   1.0000      -0.620800       -16.8928
 118   1.0000      -0.610155       -16.6032
 119   1.0000      -0.605218       -16.4688
 120   1.0000      -0.601599       -16.3703
 121   1.0000      -0.594760       -16.1842
 122   1.0000      -0.590841       -16.0776
 123   1.0000      -0.577767       -15.7218
 124   1.0000      -0.576299       -15.6819
 125   1.0000      -0.569310       -15.4917
 126   1.0000      -0.565358       -15.3842
 127   1.0000      -0.555177       -15.1071
 128   1.0000      -0.548437       -14.9237
 129   1.0000      -0.548264       -14.9190
 130   1.0000      -0.544186       -14.8080
 131   1.0000      -0.536096       -14.5879
 132   1.0000      -0.534740       -14.5510
 133   1.0000      -0.532318       -14.4851
 134   1.0000      -0.529171       -14.3995
 135   1.0000      -0.527600       -14.3567
 136   1.0000      -0.523546       -14.2464
 137   1.0000      -0.522607       -14.2209
 138   1.0000      -0.514903       -14.0112
 139   1.0000      -0.507815       -13.8183
 140   1.0000      -0.505273       -13.7492
 141   1.0000      -0.501947       -13.6587
 142   1.0000      -0.499160       -13.5828
 143   1.0000      -0.496023       -13.4975
 144   1.0000      -0.495285       -13.4774
 145   1.0000      -0.491351       -13.3703
 146   1.0000      -0.490567       -13.3490
 147   1.0000      -0.488783       -13.3005
 148   1.0000      -0.487648       -13.2696
 149   1.0000      -0.484483       -13.1835
 150   1.0000      -0.483793       -13.1647
 151   1.0000      -0.472296       -12.8518
 152   1.0000      -0.471364       -12.8265
 153   1.0000      -0.467265       -12.7149
 154   1.0000      -0.464096       -12.6287
 155   1.0000      -0.458535       -12.4774
 156   1.0000      -0.455781       -12.4024
 157   1.0000      -0.455598       -12.3975
 158   1.0000      -0.452119       -12.3028
 159   1.0000      -0.450769       -12.2661
 160   1.0000      -0.448880       -12.2147
 161   1.0000      -0.446087       -12.1386
 162   1.0000      -0.445270       -12.1164
 163   1.0000      -0.442503       -12.0411
 164   1.0000      -0.438203       -11.9241
 165   1.0000      -0.437218       -11.8973
 166   1.0000      -0.430388       -11.7114
 167   1.0000      -0.425337       -11.5740
 168   1.0000      -0.423054       -11.5119
 169   1.0000      -0.420744       -11.4490
 170   1.0000      -0.413897       -11.2627
 171   1.0000      -0.412106       -11.2140
 172   1.0000      -0.405472       -11.0334
 173   1.0000      -0.404142       -10.9973
 174   1.0000      -0.402678       -10.9574
 175   1.0000      -0.382019       -10.3953
 176   1.0000      -0.378260       -10.2930
 177   1.0000      -0.374541       -10.1918
 178   1.0000      -0.360297        -9.8042
 179   1.0000      -0.347241        -9.4489
 180   1.0000      -0.342794        -9.3279
 181   1.0000      -0.341167        -9.2836
 182   1.0000      -0.339823        -9.2470
 183   1.0000      -0.338446        -9.2096
 184   1.0000      -0.335124        -9.1192
 185   1.0000      -0.329798        -8.9743
 186   1.0000      -0.324120        -8.8198
 187   1.0000      -0.323228        -8.7955
 188   1.0000      -0.315554        -8.5867
 189   1.0000      -0.301052        -8.1920
 190   1.0000      -0.272443        -7.4136
 191   0.0000      -0.093401        -2.5416
 192   0.0000      -0.087333        -2.3765
 193   0.0000      -0.056323        -1.5326
 194   0.0000      -0.050855        -1.3838
 195   0.0000      -0.050808        -1.3826

MULLIKEN ATOMIC CHARGES AND SPIN POPULATIONS
--------------------------------------------
   0 C :   -0.005448    0.001177
   1 C :   -0.011065    0.000617
   2 C :   -0.027510   -0.000815
   3 C :   -0.075590   -0.005292
   4 C :    0.013889    0.000609
   5 C :    0.017928   -0.000303
   6 O :   -0.170968    0.002243
   7 S :    0.156209    0.081058
   8 C :   -0.141095    0.275769
   9 C :   -0.115014   -0.179334
  10 S :    0.140624    0.125372
  11 C :   -0.150774    0.425219
  12 C :    0.010850   -0.091482
  13 C :   -0.004608    0.071781
  14 N :   -0.046534   -0.031886
  15 C :   -0.001555    0.067498
  16 C :    0.036998   -0.044820
  17 C :    0.075156    0.007835
  18 C :   -0.005863   -0.004611
  19 N :   -0.041175    0.001911
  20 C :    0.016629   -0.003946
  21 C :   -0.029106    0.002262
  22 C :    0.042271    0.001689
  23 C :   -0.130362   -0.001321
  24 C :    0.135791    0.000095
  25 O :   -0.121867   -0.000003
  26 C :    0.087532    0.000651
  27 C :    0.015958   -0.001322
  28 C :   -0.124391    0.001533
  29 S :    0.189320    0.000125
  30 C :   -0.172671   -0.000684
  31 Cl:    0.002024   -0.000048
  32 C :    0.266478    0.002889
  33 C :   -0.317582   -0.002965
  34 C :   -0.175927    0.001145
  35 N :    0.173592   -0.001331
  36 C :   -0.192398    0.001128
  37 N :    0.161809   -0.001252
  38 C :    0.037517   -0.004757
  39 C :    0.011875    0.075269
  40 C :    0.167150   -0.192771
  41 C :   -0.116154    0.264543
  42 C :   -0.212427   -0.059702
  43 N :    0.127011    0.077774
  44 C :    0.034101   -0.176992
  45 C :    0.021333    0.262943
  46 C :   -0.105922   -0.168471
  47 C :   -0.221874    0.038978
  48 N :    0.118381   -0.052042
  49 C :    0.139643    0.186704
  50 S :    0.120905    0.061313
  51 H :    0.042057   -0.000069
  52 H :    0.035508   -0.000282
  53 H :    0.037440   -0.000107
  54 H :    0.068093    0.000587
  55 H :    0.043330   -0.000090
  56 H :    0.051269    0.000439
  57 H :    0.000909   -0.004048
  58 H :    0.007314   -0.003152
  59 H :    0.003072    0.000158
  60 H :    0.007797    0.000181
  61 H :    0.038257   -0.000058
  62 H :    0.054680   -0.000079
  63 H :   -0.002821    0.000241
  64 H :    0.006152   -0.003359
  65 H :    0.001530    0.006759
  66 H :    0.002318   -0.011105
Sum of atomic charges         :   -0.0000000

LOEWDIN ATOMIC CHARGES AND SPIN POPULATIONS
-------------------------------------------
   0 C :   -0.014738    0.001015
   1 C :   -0.041820    0.000770
   2 C :   -0.130679    0.001536
   3 C :   -0.232826   -0.001330
   4 C :    0.070272    0.000340
   5 C :   -0.087061    0.000146
   6 O :   -0.136207    0.002156
   7 S :    0.474993    0.082906
   8 C :   -0.319463    0.225841
   9 C :   -0.227944   -0.111307
  10 S :    0.428735    0.124884
  11 C :   -0.165057    0.333912
  12 C :   -0.071463   -0.038081
  13 C :    0.019976    0.057444
  14 N :   -0.059192   -0.023544
  15 C :    0.032645    0.053071
  16 C :   -0.033090   -0.025735
  17 C :   -0.022769    0.003512
  18 C :    0.039502   -0.003546
  19 N :   -0.055971    0.001412
  20 C :    0.029302   -0.003113
  21 C :   -0.062860    0.001473
  22 C :    0.083637    0.001259
  23 C :   -0.078985   -0.000649
  24 C :    0.081411    0.000074
  25 O :   -0.127326    0.000000
  26 C :   -0.119191    0.000396
  27 C :   -0.057887   -0.000703
  28 C :   -0.150354    0.001173
  29 S :    0.478901    0.000161
  30 C :   -0.271600   -0.000535
  31 Cl:    0.193700   -0.000067
  32 C :    0.067498    0.001737
  33 C :   -0.125990   -0.001822
  34 C :   -0.017600    0.000666
  35 N :   -0.041045   -0.001157
  36 C :   -0.015098    0.000659
  37 N :   -0.046013   -0.001092
  38 C :    0.040453   -0.003513
  39 C :    0.030902    0.053820
  40 C :   -0.025424   -0.095912
  41 C :   -0.065196    0.178167
  42 C :   -0.030031   -0.026386
  43 N :   -0.054892    0.069891
  44 C :    0.012604   -0.110164
  45 C :   -0.000294    0.189140
  46 C :   -0.066307   -0.098165
  47 C :   -0.047565    0.021556
  48 N :   -0.059478   -0.046272
  49 C :   -0.018327    0.118518
  50 S :    0.425923    0.065974
  51 H :    0.035123   -0.000014
  52 H :    0.019090   -0.000047
  53 H :    0.042932   -0.000066
  54 H :    0.048193    0.000424
  55 H :    0.044401   -0.000047
  56 H :    0.043822    0.000297
  57 H :    0.018288   -0.000818
  58 H :    0.025178   -0.000099
  59 H :    0.023806    0.000030
  60 H :    0.021889    0.000006
  61 H :    0.051256    0.000018
  62 H :    0.038229   -0.000007
  63 H :    0.036527    0.000089
  64 H :    0.033095   -0.000463
  65 H :    0.044451    0.000239
  66 H :    0.043009   -0.000057

  Mayer bond orders larger than 0.100000
B(  0-C ,  1-C ) :   1.8932 B(  0-C , 51-H ) :   0.9508 B(  0-C , 52-H ) :   0.9516
B(  1-C ,  2-C ) :   1.1507 B(  1-C , 53-H ) :   0.9467 B(  2-C ,  3-C ) :   1.6410
B(  2-C , 50-S ) :   1.0574 B(  3-C ,  4-C ) :   0.9687 B(  3-C ,  7-S ) :   1.0439
B(  4-C ,  5-C ) :   1.0816 B(  4-C ,  6-O ) :   2.1421 B(  5-C , 54-H ) :   0.9411
B(  5-C , 55-H ) :   0.9446 B(  5-C , 56-H ) :   0.9388 B(  7-S ,  8-C ) :   1.1055
B(  8-C ,  9-C ) :   1.5198 B(  8-C , 50-S ) :   1.0740 B(  9-C , 10-S ) :   1.0418
B(  9-C , 49-C ) :   1.2138 B( 10-S , 11-C ) :   1.1458 B( 11-C , 12-C ) :   1.0146
B( 11-C , 40-C ) :   1.3649 B( 12-C , 13-C ) :   1.3281 B( 12-C , 39-C ) :   1.3780
B( 13-C , 14-N ) :   1.5739 B( 13-C , 57-H ) :   0.9871 B( 14-N , 15-C ) :   1.5535
B( 15-C , 16-C ) :   1.3600 B( 15-C , 58-H ) :   0.9834 B( 16-C , 17-C ) :   0.9489
B( 16-C , 39-C ) :   1.4244 B( 17-C , 18-C ) :   1.3506 B( 17-C , 38-C ) :   1.4058
B( 18-C , 19-N ) :   1.5501 B( 18-C , 59-H ) :   0.9849 B( 19-N , 20-C ) :   1.5785
B( 20-C , 21-C ) :   1.3265 B( 20-C , 60-H ) :   0.9855 B( 21-C , 22-C ) :   0.9869
B( 21-C , 38-C ) :   1.3720 B( 22-C , 23-C ) :   1.7789 B( 22-C , 61-H ) :   0.9466
B( 23-C , 24-C ) :   0.9249 B( 23-C , 32-C ) :   1.0055 B( 24-C , 25-O ) :   2.2929
B( 24-C , 26-C ) :   0.9235 B( 26-C , 27-C ) :   1.2232 B( 26-C , 30-C ) :   1.4796
B( 27-C , 28-C ) :   1.5484 B( 27-C , 32-C ) :   1.0153 B( 28-C , 29-S ) :   1.1612
B( 28-C , 62-H ) :   0.9553 B( 29-S , 30-C ) :   1.1556 B( 30-C , 31-Cl) :   1.1300
B( 32-C , 33-C ) :   1.6913 B( 33-C , 34-C ) :   1.1506 B( 33-C , 36-C ) :   1.1366
B( 34-C , 35-N ) :   2.9942 B( 36-C , 37-N ) :   3.0009 B( 38-C , 63-H ) :   0.9925
B( 39-C , 64-H ) :   0.9748 B( 40-C , 41-C ) :   1.2246 B( 40-C , 49-C ) :   1.2036
B( 41-C , 42-C ) :   1.1044 B( 41-C , 44-C ) :   1.4346 B( 42-C , 43-N ) :   3.0107
B( 44-C , 45-C ) :   1.2993 B( 44-C , 65-H ) :   0.9939 B( 45-C , 46-C ) :   1.3836
B( 45-C , 66-H ) :   0.9923 B( 46-C , 47-C ) :   1.0998 B( 46-C , 49-C ) :   1.3186
B( 47-C , 48-N ) :   3.0010

-----------------------------------------------------------------------------
         ABSORPTION SPECTRUM VIA TRANSITION ELECTRIC DIPOLE MOMENTS
-----------------------------------------------------------------------------
State   Energy  Wavelength   fosc         T2         TX        TY        TZ
        (cm-1)    (nm)                  (au**2)     (au)      (au)      (au)
-----------------------------------------------------------------------------
   0   14233.2    702.6   0.061414624   1.42051  -0.28652   0.45396   1.06412
   1   17458.5    572.8   0.010725150   0.20224   0.34180   0.00723   0.29217
   2   18831.6    531.0   0.000090142   0.00158   0.00897   0.01885  -0.03377
   3   20286.9    492.9   0.342223613   5.55355  -1.36025   1.17629   1.52303
   4   21270.9    470.1   0.000004429   0.00007   0.00571  -0.00119  -0.00588
   5   25115.8    398.2   0.085233384   1.11722   0.95649  -0.44627   0.05654
   6   25577.4    391.0   0.001990071   0.02561  -0.11639   0.06833   0.08602
   7   25754.9    388.3   0.251913128   3.22008  -1.50754   0.85088   0.47266
   8   26268.1    380.7   0.002600637   0.03259  -0.17165   0.03201  -0.04587
   9   26304.0    380.2   0.015099087   0.18898  -0.38353   0.04965  -0.19854
  10   26617.2    375.7   0.089264453   1.10406   1.02852  -0.05601   0.20753
  11   28462.6    351.3   0.017800670   0.20589  -0.28505   0.04880   0.34965
  12   28942.5    345.5   0.002785734   0.03169   0.17102   0.03594  -0.03388
  13   29170.1    342.8   0.013058805   0.14738  -0.11889   0.09289   0.35301
  14   29240.6    342.0   0.146978054   1.65478  -0.19364   0.21435   1.25353
  15   29510.5    338.9   0.018482449   0.20619  -0.05033  -0.27486  -0.35792
  16   29706.2    336.6   0.014414005   0.15974  -0.29825   0.15887   0.21342
  17   30040.2    332.9   0.000877250   0.00961   0.09747  -0.01061   0.00051
  18   30227.9    330.8   0.029816634   0.32473   0.47126  -0.31033   0.07963
  19   30322.2    329.8   0.001946538   0.02113  -0.04510  -0.13452   0.03169
  20   30558.6    327.2   0.000817359   0.00881   0.05330   0.07253   0.02652
  21   30890.2    323.7   0.014675424   0.15640  -0.26838   0.10204   0.27196
  22   31104.3    321.5   0.035412123   0.37481   0.54484  -0.02212  -0.27832
  23   31521.6    317.2   0.055973070   0.58458  -0.43246   0.06538  -0.62713
  24   31884.0    313.6   0.013988663   0.14444   0.35958  -0.07028   0.10098
  25   32073.7    311.8   0.085363591   0.87619  -0.70189   0.00694  -0.61927
  26   32095.0    311.6   0.006592790   0.06763   0.01522  -0.11417  -0.23315
  27   32222.3    310.3   0.056555469   0.57782   0.69689   0.20507  -0.22386
  28   32377.5    308.9   0.017124565   0.17412  -0.33317   0.12707  -0.21673
  29   32509.8    307.6   0.000066568   0.00067   0.00824  -0.01562  -0.01904
  30   32804.3    304.8   0.032611104   0.32727  -0.56545  -0.01155   0.08603
  31   33545.6    298.1   0.054686170   0.53668  -0.67623  -0.27992  -0.03234
  32   34099.2    293.3   0.047429521   0.45791   0.53682  -0.07871  -0.40440
  33   34254.2    291.9   0.055581956   0.53419  -0.65842   0.31710   0.01110
  34   34661.8    288.5   0.000622186   0.00591   0.07456   0.01828   0.00400
  35   34956.3    286.1   0.001241125   0.01169  -0.01409   0.07010   0.08109
  36   35077.4    285.1   0.013621498   0.12784  -0.09114  -0.28463  -0.19627
  37   35238.0    283.8   0.039701928   0.37092  -0.09187   0.11688   0.59061
  38   35394.4    282.5   0.073385421   0.68258   0.48642  -0.34417  -0.57229
  39   36165.6    276.5   0.002890129   0.02631  -0.09334   0.09414   0.09346
  40   36310.1    275.4   0.003888583   0.03526  -0.10650   0.03459  -0.15072
  41   36542.7    273.7   0.024456665   0.22033   0.39941  -0.16027  -0.18739
  42   37259.0    268.4   0.013689982   0.12096   0.32386  -0.11690  -0.04913
  43   37347.4    267.8   0.561615775   4.95056  -1.21885   1.26060   1.36962
  44   37379.0    267.5   0.000009617   0.00008   0.00780  -0.00018   0.00488
  45   37508.9    266.6   0.577080245   5.06498   1.34656  -1.22865  -1.31991
  46   37707.5    265.2   0.001203208   0.01050  -0.00337   0.03459   0.09642
  47   37798.2    264.6   0.003710028   0.03231  -0.09992  -0.02078   0.14798
  48   37849.7    264.2   0.001054185   0.00917  -0.08901  -0.03358   0.01087
  49   38075.9    262.6   0.001544242   0.01335   0.03649  -0.00193   0.10962
  50   38330.5    260.9   0.002360049   0.02027  -0.07286   0.07845   0.09385
  51   38446.2    260.1   0.001969107   0.01686  -0.07052   0.07495   0.07918
  52   38586.4    259.2   0.004053411   0.03458   0.09560  -0.15141   0.05018
  53   38849.8    257.4   0.000296833   0.00252   0.00986   0.01904   0.04534
  54   39320.6    254.3   0.105742828   0.88533  -0.18561   0.53605   0.75068
  55   39655.5    252.2   0.001245907   0.01034   0.00319   0.02881   0.09748
  56   39748.7    251.6   0.003566498   0.02954  -0.14568  -0.07350  -0.05398
  57   39768.6    251.5   0.001837115   0.01521   0.09819  -0.06340  -0.03934
  58   39972.2    250.2   0.045841553   0.37755  -0.12621   0.31928   0.50959
  59   40124.9    249.2   0.011693432   0.09594  -0.17644   0.21566   0.13529

FINAL SINGLE POINT ENERGY     -3986.374034699494

DIPOLE MOMENT
-------------
                                X             Y             Z
Electronic contribution:     46.96616     -22.42554     -26.84912
Nuclear contribution   :    -47.63868      22.34697      26.31095
                        -----------------------------------------
Total Dipole Moment    :     -0.67251      -0.07858      -0.53816
                        -----------------------------------------
Magnitude (a.u.)       :      0.86491
Magnitude (Debye)      :      2.19843

Rotational constants in cm-1:     0.005229     0.000441     0.000427
Rotational constants in MHz :   156.757552    13.232168    12.805570

                             ****ORCA TERMINATED NORMALLY****
TOTAL RUN TIME: 0 days 0 hours 7 minutes 51 seconds 112 msec
