                         Program Version 4.2.0 -  RELEASE  -
|  1> # ORCA input file
|  2> # SCF done       -196.016267501387          0.000713539084
|  3> ! CAM-B3LYP def2-SVP def2/J RIJCOSX Grid4 TightSCF
|  4> %maxcore 5000
|  5> %tddft
|  6>     Mode sTDDFT
|  7>     Ethresh 5.0
|  8>     maxcore 5000
|  9> end
| 10>
| 11> %pal
| 12>   nprocs 6
| 13>   end
| 14> * xyz 0 1
| 15>    C       -5.58519        -3.53264       -15.34977
| 16>    O       -4.65353        -3.19958       -14.42619
| 17>    C       -4.31161        -4.33545       -13.82675
| 18>    C       -5.02008        -5.42070       -14.35633
| 19>    C       -5.85255        -4.87662       -15.35605
| 20>    C       -4.62817        -6.65426       -13.68577
| 21>    S       -5.17405        -8.16280       -13.95039
| 22>    C       -3.62408        -6.21602       -12.71438
| 23>    C       -3.44363        -4.82381       -12.80770
| 24>    O       -2.53884        -4.39400       -11.94759
| 25>    C       -2.09536        -5.49787       -11.26310
| 26>    C       -2.75215        -6.64711       -11.71603
| 27>    C       -1.08949        -5.30143       -10.28579
| 28>    C       -0.56160        -6.31989        -9.55987
| 29>    C        0.47257        -6.28787        -8.57928
| 30>    C        0.86571        -7.51861        -7.99402
| 31>    C        0.40199        -8.88943        -8.31885
| 32>    O       -0.45400        -9.26916        -9.06010
| 33>    O        1.16048        -9.76503        -7.58511
| 34>    C        2.07368        -9.09393        -6.81141
| 35>    O        2.92182        -9.66528        -6.19943
| 36>    C        1.82912        -7.64596        -7.00316
| 37>    C        2.50870        -6.54828        -6.43827
| 38>    C        2.22290        -5.34311        -7.10521
| 39>    C        1.24537        -5.20006        -8.09962
| 40>    C        1.23688        -3.76166        -8.46357
| 41>    O        0.57009        -3.14246        -9.23711
| 42>    O        2.19982        -3.13341        -7.71745
| 43>    C        2.85732        -4.02196        -6.91255
| 44>    O        3.79572        -3.69874        -6.25017
| 45>    C        3.35470        -6.70417        -5.29127
| 46>    S        4.81266        -5.80555        -5.03559
| 47>    C        5.17406        -6.72665        -3.62609
| 48>    C        4.17933        -7.62678        -3.30320
| 49>    C        3.11579        -7.59345        -4.24493
| 50>    O        1.92764        -8.22285        -4.16788
| 51>    C        1.74526        -9.16398        -3.11867
| 52>    C        2.89110       -10.16928        -3.05317
| 53>    C        3.99429        -9.69887        -2.10623
| 54>    O        4.21966        -8.29275        -2.11693
| 55>    C        6.38777        -6.44568        -2.88715
| 56>    C        6.68618        -5.17475        -2.38625
| 57>    C        5.79087        -3.99336        -2.29949
| 58>    O        4.65739        -3.86465        -2.63501
| 59>    O        6.49755        -3.00956        -1.65460
| 60>    C        7.74739        -3.44433        -1.28996
| 61>    O        8.50571        -2.74833        -0.68938
| 62>    C        7.88184        -4.85112        -1.74887
| 63>    C        8.91576        -5.78954        -1.54287
| 64>    C        8.60537        -7.08002        -2.02770
| 65>    C        7.39845        -7.38204        -2.65720
| 66>    C        7.45536        -8.79952        -3.08501
| 67>    O        6.64240        -9.46340        -3.64931
| 68>    O        8.68193        -9.27958        -2.71953
| 69>    C        9.44896        -8.29928        -2.12086
| 70>    O       10.58622        -8.49582        -1.83127
| 71>    C       10.15798        -5.48482        -0.90246
| 72>    O       10.82021        -6.49827        -0.25626
| 73>    C       11.95615        -5.99009         0.17285
| 74>    C       12.07799        -4.63061        -0.17959
| 75>    C       10.90698        -4.30891        -0.86451
| 76>    C       13.35478        -4.10499         0.29314
| 77>    S       13.95665        -2.60564         0.11604
| 78>    C       13.97336        -5.25134         0.95708
| 79>    C       13.12686        -6.36823         0.88301
| 80>    O       13.67364        -7.42421         1.47365
| 81>    C       14.88875        -7.02045         1.94182
| 82>    C       15.11430        -5.68120         1.64472
| 83>    C       15.69443        -7.99533         2.62383
| 84>    C       16.90510        -7.76524         3.12737
| 85>    H       -5.98384        -2.73233       -15.94086
| 86>    H       -6.54565        -5.39010       -15.98925
| 87>    H       -2.60096        -7.64518       -11.35944
| 88>    H       -0.76110        -4.28113       -10.16643
| 89>    H       -0.95529        -7.30899        -9.73940
| 90>    H        1.63258        -8.63498        -2.16338
| 91>    H        0.80192        -9.65425        -3.36705
| 92>    H        3.28824       -10.29328        -4.06269
| 93>    H        2.52750       -11.13674        -2.70937
| 94>    H        3.72962        -9.90768        -1.06569
| 95>    H        4.92964       -10.21563        -2.35082
| 96>    H       10.63283        -3.36622        -1.28847
| 97>    H       15.98457        -5.11131         1.89432
| 98>    H       15.23739        -8.97207         2.70344
| 99>    H       17.37944        -6.80219         3.05747
|100>    H       17.45756        -8.54133         3.62553
|101> *
|102>
|103>                          ****END OF INPUT****

CARTESIAN COORDINATES (ANGSTROEM)
---------------------------------
  C     -5.585190   -3.532640  -15.349770
  O     -4.653530   -3.199580  -14.426190
  C     -4.311610   -4.335450  -13.826750
  C     -5.020080   -5.420700  -14.356330
  C     -5.852550   -4.876620  -15.356050
  C     -4.628170   -6.654260  -13.685770
  S     -5.174050   -8.162800  -13.950390
  C     -3.624080   -6.216020  -12.714380
  C     -3.443630   -4.823810  -12.807700
  O     -2.538840   -4.394000  -11.947590
  C     -2.095360   -5.497870  -11.263100
  C     -2.752150   -6.647110  -11.716030
  C     -1.089490   -5.301430  -10.285790
  C     -0.561600   -6.319890   -9.559870
  C      0.472570   -6.287870   -8.579280
  C      0.865710   -7.518610   -7.994020
  C      0.401990   -8.889430   -8.318850
  O     -0.454000   -9.269160   -9.060100
  O      1.160480   -9.765030   -7.585110
  C      2.073680   -9.093930   -6.811410
  O      2.921820   -9.665280   -6.199430
  C      1.829120   -7.645960   -7.003160
  C      2.508700   -6.548280   -6.438270
  C      2.222900   -5.343110   -7.105210
  C      1.245370   -5.200060   -8.099620
  C      1.236880   -3.761660   -8.463570
  O      0.570090   -3.142460   -9.237110
  O      2.199820   -3.133410   -7.717450
  C      2.857320   -4.021960   -6.912550
  O      3.795720   -3.698740   -6.250170
  C      3.354700   -6.704170   -5.291270
  S      4.812660   -5.805550   -5.035590
  C      5.174060   -6.726650   -3.626090
  C      4.179330   -7.626780   -3.303200
  C      3.115790   -7.593450   -4.244930
  O      1.927640   -8.222850   -4.167880
  C      1.745260   -9.163980   -3.118670
  C      2.891100  -10.169280   -3.053170
  C      3.994290   -9.698870   -2.106230
  O      4.219660   -8.292750   -2.116930
  C      6.387770   -6.445680   -2.887150
  C      6.686180   -5.174750   -2.386250
  C      5.790870   -3.993360   -2.299490
  O      4.657390   -3.864650   -2.635010
  O      6.497550   -3.009560   -1.654600
  C      7.747390   -3.444330   -1.289960
  O      8.505710   -2.748330   -0.689380
  C      7.881840   -4.851120   -1.748870
  C      8.915760   -5.789540   -1.542870
  C      8.605370   -7.080020   -2.027700
  C      7.398450   -7.382040   -2.657200
  C      7.455360   -8.799520   -3.085010
  O      6.642400   -9.463400   -3.649310
  O      8.681930   -9.279580   -2.719530
  C      9.448960   -8.299280   -2.120860
  O     10.586220   -8.495820   -1.831270
  C     10.157980   -5.484820   -0.902460
  O     10.820210   -6.498270   -0.256260
  C     11.956150   -5.990090    0.172850
  C     12.077990   -4.630610   -0.179590
  C     10.906980   -4.308910   -0.864510
  C     13.354780   -4.104990    0.293140
  S     13.956650   -2.605640    0.116040
  C     13.973360   -5.251340    0.957080
  C     13.126860   -6.368230    0.883010
  O     13.673640   -7.424210    1.473650
  C     14.888750   -7.020450    1.941820
  C     15.114300   -5.681200    1.644720
  C     15.694430   -7.995330    2.623830
  C     16.905100   -7.765240    3.127370
  H     -5.983840   -2.732330  -15.940860
  H     -6.545650   -5.390100  -15.989250
  H     -2.600960   -7.645180  -11.359440
  H     -0.761100   -4.281130  -10.166430
  H     -0.955290   -7.308990   -9.739400
  H      1.632580   -8.634980   -2.163380
  H      0.801920   -9.654250   -3.367050
  H      3.288240  -10.293280   -4.062690
  H      2.527500  -11.136740   -2.709370
  H      3.729620   -9.907680   -1.065690
  H      4.929640  -10.215630   -2.350820
  H     10.632830   -3.366220   -1.288470
  H     15.984570   -5.111310    1.894320
  H     15.237390   -8.972070    2.703440
  H     17.379440   -6.802190    3.057470
  H     17.457560   -8.541330    3.625530

 Total Charge           Charge          ....    0
 Multiplicity           Mult            ....    1
 Number of Electrons    NEL             ....  502
 Basis Dimension        Dim             .... 1072

ORBITAL ENERGIES
----------------

  NO   OCC          E(Eh)            E(eV)
   0   2.0000     -88.961844     -2420.7749
   1   2.0000     -88.919467     -2419.6217
   2   2.0000     -88.917109     -2419.5576
   3   2.0000     -19.322726      -525.7981
   4   2.0000     -19.319641      -525.7142
   5   2.0000     -19.318608      -525.6860
   6   2.0000     -19.318274      -525.6770
   7   2.0000     -19.294289      -525.0243
   8   2.0000     -19.294250      -525.0232
   9   2.0000     -19.292797      -524.9837
  10   2.0000     -19.292334      -524.9711
  11   2.0000     -19.258094      -524.0394
  12   2.0000     -19.247826      -523.7600
  13   2.0000     -19.243106      -523.6315
  14   2.0000     -19.242515      -523.6155
  15   2.0000     -19.241356      -523.5839
  16   2.0000     -19.240867      -523.5706
  17   2.0000     -19.240211      -523.5528
  18   2.0000     -19.238957      -523.5186
  19   2.0000     -19.238943      -523.5182
  20   2.0000     -19.237429      -523.4771
  21   2.0000     -10.438123      -284.0358
  22   2.0000     -10.436459      -283.9905
  23   2.0000     -10.435948      -283.9766
  24   2.0000     -10.435291      -283.9587
  25   2.0000     -10.434382      -283.9340
  26   2.0000     -10.433455      -283.9087
  27   2.0000     -10.433065      -283.8981
  28   2.0000     -10.431673      -283.8603
  29   2.0000     -10.368377      -282.1379
  30   2.0000     -10.360533      -281.9244
  31   2.0000     -10.355336      -281.7830
  32   2.0000     -10.354062      -281.7483
  33   2.0000     -10.351790      -281.6865
  34   2.0000     -10.351364      -281.6749
  35   2.0000     -10.350841      -281.6607
  36   2.0000     -10.348496      -281.5969
  37   2.0000     -10.348394      -281.5941
  38   2.0000     -10.346725      -281.5487
  39   2.0000     -10.341888      -281.4171
  40   2.0000     -10.341185      -281.3980
  41   2.0000     -10.340220      -281.3717
  42   2.0000     -10.339020      -281.3390
  43   2.0000     -10.337938      -281.3096
  44   2.0000     -10.336914      -281.2817
  45   2.0000     -10.335127      -281.2331
  46   2.0000     -10.334994      -281.2295
  47   2.0000     -10.334325      -281.2113
  48   2.0000     -10.333507      -281.1890
  49   2.0000     -10.331805      -281.1427
  50   2.0000     -10.329246      -281.0731
  51   2.0000     -10.328892      -281.0634
  52   2.0000     -10.326628      -281.0018
  53   2.0000     -10.324663      -280.9484
  54   2.0000     -10.322174      -280.8806
  55   2.0000     -10.309266      -280.5294
  56   2.0000     -10.307616      -280.4845
  57   2.0000     -10.302640      -280.3491
  58   2.0000     -10.295956      -280.1672
  59   2.0000     -10.295143      -280.1451
  60   2.0000     -10.292278      -280.0671
  61   2.0000     -10.291767      -280.0532
  62   2.0000     -10.290867      -280.0287
  63   2.0000     -10.290154      -280.0093
  64   2.0000     -10.288289      -279.9586
  65   2.0000     -10.286517      -279.9104
  66   2.0000     -10.286145      -279.9002
  67   2.0000     -10.282665      -279.8055
  68   2.0000     -10.279184      -279.7108
  69   2.0000     -10.271860      -279.5115
  70   2.0000      -8.056326      -219.2238
  71   2.0000      -8.015358      -218.1090
  72   2.0000      -8.012949      -218.0434
  73   2.0000      -6.025782      -163.9699
  74   2.0000      -6.021647      -163.8573
  75   2.0000      -6.017960      -163.7570
  76   2.0000      -5.985214      -162.8659
  77   2.0000      -5.983488      -162.8190
  78   2.0000      -5.982801      -162.8003
  79   2.0000      -5.981067      -162.7531
  80   2.0000      -5.973929      -162.5589
  81   2.0000      -5.971575      -162.4948
  82   2.0000      -1.245987       -33.9050
  83   2.0000      -1.245345       -33.8876
  84   2.0000      -1.244631       -33.8681
  85   2.0000      -1.243470       -33.8366
  86   2.0000      -1.242122       -33.7999
  87   2.0000      -1.236875       -33.6571
  88   2.0000      -1.233939       -33.5772
  89   2.0000      -1.231122       -33.5005
  90   2.0000      -1.173658       -31.9369
  91   2.0000      -1.170004       -31.8374
  92   2.0000      -1.169788       -31.8316
  93   2.0000      -1.169661       -31.8281
  94   2.0000      -1.165753       -31.7218
  95   2.0000      -1.144858       -31.1532
  96   2.0000      -1.131777       -30.7972
  97   2.0000      -1.131087       -30.7784
  98   2.0000      -1.130975       -30.7754
  99   2.0000      -1.128626       -30.7115
 100   2.0000      -1.021583       -27.7987
 101   2.0000      -1.012814       -27.5601
 102   2.0000      -0.995001       -27.0754
 103   2.0000      -0.990956       -26.9653
 104   2.0000      -0.986769       -26.8513
 105   2.0000      -0.938987       -25.5511
 106   2.0000      -0.930213       -25.3124
 107   2.0000      -0.929157       -25.2837
 108   2.0000      -0.924491       -25.1567
 109   2.0000      -0.916675       -24.9440
 110   2.0000      -0.909635       -24.7524
 111   2.0000      -0.901589       -24.5335
 112   2.0000      -0.899144       -24.4670
 113   2.0000      -0.884833       -24.0775
 114   2.0000      -0.877015       -23.8648
 115   2.0000      -0.873187       -23.7606
 116   2.0000      -0.870132       -23.6775
 117   2.0000      -0.867255       -23.5992
 118   2.0000      -0.848097       -23.0779
 119   2.0000      -0.830803       -22.6073
 120   2.0000      -0.820045       -22.3146
 121   2.0000      -0.816969       -22.2309
 122   2.0000      -0.804867       -21.9015
 123   2.0000      -0.801125       -21.7997
 124   2.0000      -0.799631       -21.7591
 125   2.0000      -0.796734       -21.6802
 126   2.0000      -0.782072       -21.2813
 127   2.0000      -0.778143       -21.1743
 128   2.0000      -0.774388       -21.0722
 129   2.0000      -0.769675       -20.9439
 130   2.0000      -0.762048       -20.7364
 131   2.0000      -0.745720       -20.2921
 132   2.0000      -0.744406       -20.2563
 133   2.0000      -0.735520       -20.0145
 134   2.0000      -0.726604       -19.7719
 135   2.0000      -0.710723       -19.3397
 136   2.0000      -0.705802       -19.2059
 137   2.0000      -0.694203       -18.8902
 138   2.0000      -0.688996       -18.7485
 139   2.0000      -0.685260       -18.6469
 140   2.0000      -0.678492       -18.4627
 141   2.0000      -0.673797       -18.3349
 142   2.0000      -0.665973       -18.1220
 143   2.0000      -0.661867       -18.0103
 144   2.0000      -0.657061       -17.8795
 145   2.0000      -0.654966       -17.8225
 146   2.0000      -0.653759       -17.7897
 147   2.0000      -0.652494       -17.7553
 148   2.0000      -0.651218       -17.7205
 149   2.0000      -0.644874       -17.5479
 150   2.0000      -0.634406       -17.2631
 151   2.0000      -0.625228       -17.0133
 152   2.0000      -0.619654       -16.8617
 153   2.0000      -0.612896       -16.6777
 154   2.0000      -0.611354       -16.6358
 155   2.0000      -0.608540       -16.5592
 156   2.0000      -0.605383       -16.4733
 157   2.0000      -0.604473       -16.4485
 158   2.0000      -0.602458       -16.3937
 159   2.0000      -0.599756       -16.3202
 160   2.0000      -0.597432       -16.2569
 161   2.0000      -0.595725       -16.2105
 162   2.0000      -0.592279       -16.1167
 163   2.0000      -0.590940       -16.0803
 164   2.0000      -0.590549       -16.0697
 165   2.0000      -0.582149       -15.8411
 166   2.0000      -0.573555       -15.6072
 167   2.0000      -0.569298       -15.4914
 168   2.0000      -0.567201       -15.4343
 169   2.0000      -0.564682       -15.3658
 170   2.0000      -0.561654       -15.2834
 171   2.0000      -0.560461       -15.2509
 172   2.0000      -0.557242       -15.1633
 173   2.0000      -0.556802       -15.1514
 174   2.0000      -0.553891       -15.0721
 175   2.0000      -0.549157       -14.9433
 176   2.0000      -0.544661       -14.8210
 177   2.0000      -0.542218       -14.7545
 178   2.0000      -0.540374       -14.7043
 179   2.0000      -0.539543       -14.6817
 180   2.0000      -0.534366       -14.5408
 181   2.0000      -0.530976       -14.4486
 182   2.0000      -0.526952       -14.3391
 183   2.0000      -0.522701       -14.2234
 184   2.0000      -0.520459       -14.1624
 185   2.0000      -0.518518       -14.1096
 186   2.0000      -0.517304       -14.0765
 187   2.0000      -0.514176       -13.9914
 188   2.0000      -0.512449       -13.9444
 189   2.0000      -0.510759       -13.8985
 190   2.0000      -0.509063       -13.8523
 191   2.0000      -0.507713       -13.8156
 192   2.0000      -0.506359       -13.7787
 193   2.0000      -0.505046       -13.7430
 194   2.0000      -0.504593       -13.7307
 195   2.0000      -0.503747       -13.7076
 196   2.0000      -0.503170       -13.6920
 197   2.0000      -0.502152       -13.6643
 198   2.0000      -0.501041       -13.6340
 199   2.0000      -0.499279       -13.5861
 200   2.0000      -0.497862       -13.5475
 201   2.0000      -0.493964       -13.4414
 202   2.0000      -0.491970       -13.3872
 203   2.0000      -0.486841       -13.2476
 204   2.0000      -0.483610       -13.1597
 205   2.0000      -0.482910       -13.1406
 206   2.0000      -0.475842       -12.9483
 207   2.0000      -0.472623       -12.8607
 208   2.0000      -0.463967       -12.6252
 209   2.0000      -0.460721       -12.5369
 210   2.0000      -0.457823       -12.4580
 211   2.0000      -0.454933       -12.3793
 212   2.0000      -0.452290       -12.3074
 213   2.0000      -0.446434       -12.1481
 214   2.0000      -0.440773       -11.9940
 215   2.0000      -0.439030       -11.9466
 216   2.0000      -0.436213       -11.8700
 217   2.0000      -0.424001       -11.5377
 218   2.0000      -0.421340       -11.4653
 219   2.0000      -0.419702       -11.4207
 220   2.0000      -0.417379       -11.3575
 221   2.0000      -0.416295       -11.3280
 222   2.0000      -0.414602       -11.2819
 223   2.0000      -0.410388       -11.1672
 224   2.0000      -0.408496       -11.1158
 225   2.0000      -0.403054       -10.9677
 226   2.0000      -0.400857       -10.9079
 227   2.0000      -0.397368       -10.8129
 228   2.0000      -0.396873       -10.7995
 229   2.0000      -0.395600       -10.7648
 230   2.0000      -0.388104       -10.5608
 231   2.0000      -0.381937       -10.3930
 232   2.0000      -0.379767       -10.3340
 233   2.0000      -0.378538       -10.3006
 234   2.0000      -0.373344       -10.1592
 235   2.0000      -0.371935       -10.1209
 236   2.0000      -0.371757       -10.1160
 237   2.0000      -0.370817       -10.0904
 238   2.0000      -0.368315       -10.0224
 239   2.0000      -0.366590        -9.9754
 240   2.0000      -0.361671        -9.8416
 241   2.0000      -0.340878        -9.2758
 242   2.0000      -0.338987        -9.2243
 243   2.0000      -0.332092        -9.0367
 244   2.0000      -0.325242        -8.8503
 245   2.0000      -0.301703        -8.2097
 246   2.0000      -0.299511        -8.1501
 247   2.0000      -0.288949        -7.8627
 248   2.0000      -0.280702        -7.6383
 249   2.0000      -0.254661        -6.9297
 250   2.0000      -0.245431        -6.6785
 251   0.0000      -0.094681        -2.5764
 252   0.0000      -0.093471        -2.5435
 253   0.0000      -0.091447        -2.4884
 254   0.0000      -0.089680        -2.4403
 255   0.0000      -0.079487        -2.1629

MULLIKEN ATOMIC CHARGES
-----------------------
   0 C :    0.145983
   1 O :   -0.152680
   2 C :    0.091649
   3 C :    0.003686
   4 C :   -0.036776
   5 C :    0.003796
   6 S :   -0.069990
   7 C :    0.017955
   8 C :    0.132206
   9 O :   -0.152156
  10 C :    0.149461
  11 C :   -0.075164
  12 C :    0.028154
  13 C :   -0.085671
  14 C :    0.090703
  15 C :   -0.093992
  16 C :    0.240869
  17 O :   -0.113822
  18 O :   -0.224049
  19 C :    0.237483
  20 O :   -0.102856
  21 C :   -0.092348
  22 C :    0.104681
  23 C :   -0.088614
  24 C :   -0.100375
  25 C :    0.243842
  26 O :   -0.110179
  27 O :   -0.218006
  28 C :    0.239892
  29 O :   -0.104079
  30 C :   -0.234813
  31 S :    0.233862
  32 C :   -0.236965
  33 C :    0.182964
  34 C :    0.192203
  35 O :   -0.312726
  36 C :    0.218527
  37 C :   -0.123580
  38 C :    0.244067
  39 O :   -0.328189
  40 C :    0.047943
  41 C :   -0.092184
  42 C :    0.233993
  43 O :   -0.082030
  44 O :   -0.224939
  45 C :    0.228090
  46 O :   -0.102358
  47 C :   -0.076088
  48 C :    0.083135
  49 C :   -0.082736
  50 C :   -0.050638
  51 C :    0.235409
  52 O :   -0.103682
  53 O :   -0.228675
  54 C :    0.219246
  55 O :   -0.086030
  56 C :    0.050775
  57 O :   -0.144906
  58 C :    0.143927
  59 C :    0.004301
  60 C :   -0.017015
  61 C :    0.001664
  62 S :   -0.062587
  63 C :    0.026586
  64 C :    0.095650
  65 O :   -0.155885
  66 C :    0.172745
  67 C :   -0.085084
  68 C :   -0.010376
  69 C :   -0.014754
  70 H :    0.016034
  71 H :    0.001709
  72 H :    0.016751
  73 H :    0.024637
  74 H :    0.003840
  75 H :    0.029869
  76 H :    0.022198
  77 H :    0.072848
  78 H :    0.027981
  79 H :    0.014342
  80 H :    0.027814
  81 H :    0.010295
  82 H :   -0.005324
  83 H :    0.009876
  84 H :    0.023118
  85 H :    0.035560
Sum of atomic charges:   -0.0000000

LOEWDIN ATOMIC CHARGES
----------------------
   0 C :    0.042713
   1 O :    0.043966
   2 C :    0.017026
   3 C :   -0.085328
   4 C :   -0.041243
   5 C :   -0.129790
   6 S :    0.123189
   7 C :   -0.088734
   8 C :    0.039178
   9 O :    0.046571
  10 C :    0.014035
  11 C :   -0.004259
  12 C :    0.014043
  13 C :   -0.058802
  14 C :    0.026948
  15 C :   -0.049681
  16 C :    0.110490
  17 O :   -0.106804
  18 O :   -0.051589
  19 C :    0.111201
  20 O :   -0.095338
  21 C :   -0.036938
  22 C :    0.010465
  23 C :   -0.046567
  24 C :   -0.054998
  25 C :    0.113710
  26 O :   -0.099940
  27 O :   -0.046694
  28 C :    0.102491
  29 O :   -0.104198
  30 C :   -0.224051
  31 S :    0.514404
  32 C :   -0.203803
  33 C :   -0.000731
  34 C :    0.021770
  35 O :   -0.089571
  36 C :    0.090468
  37 C :   -0.071705
  38 C :    0.087166
  39 O :   -0.120799
  40 C :    0.006203
  41 C :   -0.038107
  42 C :    0.099723
  43 O :   -0.084699
  44 O :   -0.051777
  45 C :    0.107193
  46 O :   -0.096910
  47 C :   -0.050713
  48 C :    0.017156
  49 C :   -0.050506
  50 C :   -0.029368
  51 C :    0.108624
  52 O :   -0.093882
  53 O :   -0.055422
  54 C :    0.103046
  55 O :   -0.091472
  56 C :   -0.001477
  57 O :    0.057894
  58 C :    0.056056
  59 C :   -0.096305
  60 C :    0.016434
  61 C :   -0.130949
  62 S :    0.129468
  63 C :   -0.070432
  64 C :    0.013168
  65 O :    0.045208
  66 C :    0.038053
  67 C :   -0.030957
  68 C :   -0.037128
  69 C :   -0.026786
  70 H :    0.026629
  71 H :    0.039781
  72 H :    0.044536
  73 H :    0.037257
  74 H :    0.031586
  75 H :    0.020356
  76 H :    0.027910
  77 H :    0.040583
  78 H :    0.040488
  79 H :    0.019502
  80 H :    0.016118
  81 H :    0.041363
  82 H :    0.037953
  83 H :    0.040473
  84 H :    0.024659
  85 H :    0.031198

  Mayer bond orders larger than 0.100000
B(  0-C ,  1-O ) :   1.1058 B(  0-C ,  4-C ) :   1.5286 B(  0-C , 70-H ) :   1.0057
B(  1-O ,  2-C ) :   1.2178 B(  2-C ,  3-C ) :   1.4555 B(  2-C ,  8-C ) :   1.0953
B(  3-C ,  4-C ) :   1.2468 B(  3-C ,  5-C ) :   1.0098 B(  4-C , 71-H ) :   1.0099
B(  5-C ,  6-S ) :   1.7774 B(  5-C ,  7-C ) :   0.9877 B(  7-C ,  8-C ) :   1.4084
B(  7-C , 11-C ) :   1.2840 B(  8-C ,  9-O ) :   1.2436 B(  8-C , 10-C ) :   0.1035
B(  9-O , 10-C ) :   1.0738 B( 10-C , 11-C ) :   1.4050 B( 10-C , 12-C ) :   1.1496
B( 11-C , 72-H ) :   1.0123 B( 12-C , 13-C ) :   1.5769 B( 12-C , 73-H ) :   0.9462
B( 13-C , 14-C ) :   1.2038 B( 13-C , 74-H ) :   0.9507 B( 14-C , 15-C ) :   1.2763
B( 14-C , 24-C ) :   1.2610 B( 15-C , 16-C ) :   0.9215 B( 15-C , 21-C ) :   1.3877
B( 16-C , 17-O ) :   2.1948 B( 16-C , 18-O ) :   1.0663 B( 18-O , 19-C ) :   1.0531
B( 19-C , 20-O ) :   2.2112 B( 19-C , 21-C ) :   0.9048 B( 21-C , 22-C ) :   1.3403
B( 22-C , 23-C ) :   1.3499 B( 22-C , 30-C ) :   1.0563 B( 23-C , 24-C ) :   1.3669
B( 23-C , 28-C ) :   0.9115 B( 24-C , 25-C ) :   0.9171 B( 25-C , 26-O ) :   2.1760
B( 25-C , 27-O ) :   1.0653 B( 27-O , 28-C ) :   1.0617 B( 28-C , 29-O ) :   2.2211
B( 30-C , 31-S ) :   1.1313 B( 30-C , 32-C ) :   0.1377 B( 30-C , 34-C ) :   1.4796
B( 31-S , 32-C ) :   1.1355 B( 32-C , 33-C ) :   1.5258 B( 32-C , 40-C ) :   0.9710
B( 33-C , 34-C ) :   1.1835 B( 33-C , 39-O ) :   1.1804 B( 34-C , 35-O ) :   1.1743
B( 35-O , 36-C ) :   0.9260 B( 36-C , 37-C ) :   1.0537 B( 36-C , 75-H ) :   0.9587
B( 36-C , 76-H ) :   0.9553 B( 37-C , 38-C ) :   1.0823 B( 37-C , 77-H ) :   0.9331
B( 37-C , 78-H ) :   0.9324 B( 38-C , 39-O ) :   0.9330 B( 38-C , 79-H ) :   0.9535
B( 38-C , 80-H ) :   0.9435 B( 40-C , 41-C ) :   1.3900 B( 40-C , 50-C ) :   1.3995
B( 41-C , 42-C ) :   0.8943 B( 41-C , 47-C ) :   1.3451 B( 42-C , 43-O ) :   2.2776
B( 42-C , 44-O ) :   1.0469 B( 44-O , 45-C ) :   1.0631 B( 45-C , 46-O ) :   2.2380
B( 45-C , 47-C ) :   0.9017 B( 47-C , 48-C ) :   1.3462 B( 48-C , 49-C ) :   1.3082
B( 48-C , 56-C ) :   1.0601 B( 49-C , 50-C ) :   1.3496 B( 49-C , 54-C ) :   0.9019
B( 50-C , 51-C ) :   0.8898 B( 51-C , 52-O ) :   2.2198 B( 51-C , 53-O ) :   1.0756
B( 53-O , 54-C ) :   1.0350 B( 54-C , 55-O ) :   2.2850 B( 56-C , 57-O ) :   1.0863
B( 56-C , 58-C ) :   0.1126 B( 56-C , 60-C ) :   1.4276 B( 57-O , 58-C ) :   1.2498
B( 58-C , 59-C ) :   1.3919 B( 58-C , 64-C ) :   1.0948 B( 59-C , 60-C ) :   1.2924
B( 59-C , 61-C ) :   0.9892 B( 60-C , 81-H ) :   1.0007 B( 61-C , 62-S ) :   1.7857
B( 61-C , 63-C ) :   0.9895 B( 63-C , 64-C ) :   1.4284 B( 63-C , 67-C ) :   1.2645
B( 64-C , 65-O ) :   1.2126 B( 64-C , 66-C ) :   0.1074 B( 65-O , 66-C ) :   1.0964
B( 66-C , 67-C ) :   1.4515 B( 66-C , 68-C ) :   1.1036 B( 67-C , 82-H ) :   1.0130
B( 68-C , 69-C ) :   1.9283 B( 68-C , 83-H ) :   0.9573 B( 69-C , 84-H ) :   0.9551
B( 69-C , 85-H ) :   0.9509

-----------------------------------------------------------------------------
         ABSORPTION SPECTRUM VIA TRANSITION ELECTRIC DIPOLE MOMENTS
-----------------------------------------------------------------------------
State   Energy  Wavelength   fosc         T2         TX        TY        TZ
        (cm-1)    (nm)                  (au**2)     (au)      (au)      (au)
-----------------------------------------------------------------------------
   0   14245.4    702.0   0.100814972   2.32984  -1.02378   0.28079  -1.09676
   1   14440.9    692.5   0.102667904   2.34054  -1.27336   0.21214  -0.82104
   2   16972.0    589.2   0.082710298   1.60436   0.71796   0.88893   0.54653
   3   17456.4    572.9   0.038288680   0.72209  -0.32439   0.78137   0.07947
   4   18476.4    541.2   0.000000707   0.00001   0.00112  -0.00329   0.00072
   5   18552.8    539.0   0.000006333   0.00011  -0.00792   0.00161  -0.00686
   6   20090.2    497.8   2.340682574  38.35607  -4.54699   0.50176  -4.17483
   7   21124.6    473.4   0.003794103   0.05913   0.18494   0.02088   0.15649
   8   21511.7    464.9   0.000374383   0.00573  -0.01920   0.06798  -0.02720
   9   21577.9    463.4   0.002178711   0.03324   0.12847  -0.02772   0.12636
  10   23018.5    434.4   0.223962860   3.20312   1.70173   0.52324   0.18291
  11   24481.4    408.5   0.010171408   0.13678   0.21611  -0.27287   0.12496
  12   25050.5    399.2   0.083829414   1.10168  -0.98905  -0.27620  -0.21719
  13   25961.2    385.2   0.048015135   0.60888   0.45461  -0.35758   0.52378
  14   27122.4    368.7   0.020617842   0.25026  -0.49079   0.05436  -0.08017
  15   27384.2    365.2   0.006127825   0.07367  -0.11329   0.24603  -0.01738
  16   27776.5    360.0   0.007303594   0.08656   0.06777   0.28476  -0.02968
  17   28097.2    355.9   0.007830784   0.09175   0.17775  -0.12073   0.21350
  18   29166.7    342.9   0.003922759   0.04428   0.13964   0.15429   0.03119
  19   29589.5    338.0   0.032637634   0.36313   0.50278  -0.19372   0.26983
  20   30262.4    330.4   0.075895486   0.82564  -0.72765  -0.03794  -0.54288
  21   30986.4    322.7   0.013141712   0.13962  -0.04774   0.18438  -0.32148
  22   31462.1    317.8   0.000102647   0.00107  -0.01556   0.02787   0.00743
  23   31642.2    316.0   0.004567184   0.04752  -0.07354   0.10472  -0.17647
  24   32047.0    312.0   0.000241893   0.00248  -0.00841  -0.04617   0.01682
  25   32159.5    311.0   0.014971973   0.15327   0.23229  -0.11672   0.29272
  26   32958.6    303.4   0.000018524   0.00019  -0.00676   0.00375   0.01119
  27   32981.6    303.2   0.001529270   0.01526  -0.01913  -0.11351  -0.04489
  28   33084.1    302.3   0.000522963   0.00520   0.05613   0.01894   0.04116
  29   33838.7    295.5   0.005709511   0.05555  -0.03411  -0.22706   0.05316
  30   33981.4    294.3   0.007262805   0.07036   0.06366  -0.22831  -0.11910
  31   34249.9    292.0   0.006272258   0.06029   0.16096  -0.18539   0.00305
  32   34378.6    290.9   0.000000650   0.00001   0.00240  -0.00007   0.00068
  33   34898.7    286.5   0.029957478   0.28260   0.11773   0.51764  -0.02802
  34   35054.8    285.3   0.000373235   0.00351  -0.04608   0.02477   0.02772
  35   35198.9    284.1   0.012527449   0.11717  -0.09627  -0.24829  -0.21506
  36   35634.4    280.6   0.036954202   0.34141  -0.40890   0.41418   0.05155
  37   35955.7    278.1   0.006976745   0.06388   0.19509   0.15567  -0.03981
  38   36464.9    274.2   0.010015857   0.09043   0.19203  -0.00151   0.23140
  39   36750.6    272.1   0.005210903   0.04668  -0.01463  -0.10444   0.18857
  40   37500.6    266.7   0.001205609   0.01058  -0.04529  -0.08224  -0.04205
  41   38239.8    261.5   0.057395260   0.49412   0.49632   0.03413   0.49661
  42   38304.9    261.1   0.249481301   2.14417   0.97347  -0.84367   0.69623
  43   38403.9    260.4   0.264385079   2.26640   0.97685  -0.81846   0.80143
  44   38438.2    260.2   0.000050821   0.00044  -0.01473   0.00980  -0.01106
  45   38670.2    258.6   0.002097620   0.01786  -0.04173   0.09658  -0.08240
  46   38708.7    258.3   0.008442664   0.07180   0.14997  -0.13208   0.17852
  47   39169.1    255.3   0.123589929   1.03876   0.87423   0.47944   0.21124
  48   39858.1    250.9   0.004924380   0.04067   0.19776   0.01411  -0.03697
  49   40161.1    249.0   0.219610135   1.80021  -1.12374   0.12947  -0.72156
  50   40258.3    248.4   0.008071451   0.06600  -0.17062  -0.13911  -0.13245

FINAL SINGLE POINT ENERGY     -4421.160610448560

DIPOLE MOMENT
-------------
                                X             Y             Z
Electronic contribution:     -3.84531      18.38470     -13.50104
Nuclear contribution   :      3.79411     -19.10888      14.00661
                        -----------------------------------------
Total Dipole Moment    :     -0.05120      -0.72417       0.50557
                        -----------------------------------------
Magnitude (a.u.)       :      0.88468
Magnitude (Debye)      :      2.24867

Rotational constants in cm-1:     0.002920     0.000280     0.000264
Rotational constants in MHz :    87.539295     8.396258     7.926199

                             ****ORCA TERMINATED NORMALLY****
TOTAL RUN TIME: 0 days 0 hours 8 minutes 9 seconds 277 msec
