                         Program Version 4.2.0 -  RELEASE  -
|  1> # ORCA input file
|  2> # SCF done       -174.126529724029          0.000671114318
|  3> ! CAM-B3LYP def2-SVP def2/J RIJCOSX Grid4 TightSCF
|  4> %maxcore 5000
|  5> %tddft
|  6>     Mode sTDDFT
|  7>     Ethresh 5.0
|  8>     maxcore 5000
|  9> end
| 10>
| 11> %pal
| 12>   nprocs 6
| 13>   end
| 14> * xyz 0 1
| 15>    C       -0.40733        -0.84735         5.28888
| 16>    C        0.08233         0.35642         5.59394
| 17>    C        1.47109         0.69283         5.59772
| 18>    S        2.68494        -0.46889         5.20625
| 19>    C        3.99640         0.65439         5.43129
| 20>    C        5.33823         0.24300         5.31050
| 21>    S        6.61478         1.11264         6.11303
| 22>    C        7.85313         0.01490         5.58299
| 23>    C        9.19863         0.20481         5.90977
| 24>    C        9.66506         1.21120         6.71546
| 25>    C       11.01238         1.43587         7.00764
| 26>    S       12.28198         0.48209         6.30197
| 27>    C       13.55246         1.39135         7.07635
| 28>    C       14.90194         1.15550         6.77122
| 29>    S       16.11189         2.38146         7.03033
| 30>    C       17.36498         1.48143         6.23565
| 31>    C       18.61081         2.11508         6.06376
| 32>    C       19.56856         1.80970         5.14319
| 33>    C       20.78812         2.50457         5.01944
| 34>    S       21.28277         3.72612         6.15460
| 35>    C       22.73580         4.03094         5.32456
| 36>    C       22.87574         3.24199         4.20013
| 37>    C       23.94247         3.24068         3.27632
| 38>    C       23.89742         2.39115         2.20113
| 39>    C       24.95183         2.38150         1.25714
| 40>    N       25.81243         2.39029         0.50144
| 41>    C       22.78552         1.50785         2.01512
| 42>    C       22.76523         0.65175         0.89038
| 43>    N       22.72749        -0.04256        -0.02025
| 44>    C       21.74068         1.49085         2.90989
| 45>    C       21.76037         2.35454         4.01615
| 46>    C       16.88477         0.21331         5.85755
| 47>    C       17.62914        -0.85355         5.33082
| 48>    C       17.01377        -2.05343         5.05374
| 49>    C       17.76994        -3.12834         4.53103
| 50>    N       18.40423        -3.98205         4.10577
| 51>    C       15.62668        -2.22783         5.32283
| 52>    C       15.00788        -3.47158         5.05932
| 53>    N       14.48171        -4.46823         4.85434
| 54>    C       14.88913        -1.20348         5.87458
| 55>    C       15.49353         0.03098         6.14885
| 56>    C       12.99001         2.39147         7.90464
| 57>    C       13.66334         3.27431         8.76084
| 58>    C       12.95003         4.17898         9.51657
| 59>    C       13.63764         5.05917        10.38399
| 60>    N       14.21820         5.76382        11.07579
| 61>    C       11.52907         4.22928         9.43877
| 62>    C       10.81923         5.16770        10.22340
| 63>    N       10.23062         5.91686        10.85928
| 64>    C       10.84942         3.35235         8.62266
| 65>    C       11.56178         2.41916         7.85781
| 66>    C        7.28571        -1.00762         4.79437
| 67>    C        7.96897        -2.07111         4.18905
| 68>    C        7.27521        -2.98396         3.42659
| 69>    C        7.95261        -4.06195         2.81083
| 70>    N        8.51258        -4.93004         2.31615
| 71>    C        5.87067        -2.83771         3.23698
| 72>    C        5.17256        -3.76142         2.42458
| 73>    N        4.58434        -4.49727         1.77290
| 74>    C        5.18503        -1.80295         3.83259
| 75>    C        5.86936        -0.88089         4.63946
| 76>    C        3.48570         1.91865         5.79263
| 77>    C        4.19517         3.11235         5.99464
| 78>    C        3.52248         4.26814         6.31938
| 79>    C        4.24728         5.46688         6.50825
| 80>    N        4.85986         6.42407         6.65388
| 81>    C        2.10145         4.26879         6.45595
| 82>    C        1.43421         5.46678         6.80314
| 83>    N        0.87547         6.42668         7.08311
| 84>    C        1.38408         3.11911         6.23320
| 85>    C        2.05446         1.93114         5.88688
| 86>    H       -1.46402        -1.04260         5.30170
| 87>    H        0.23539        -1.66858         5.01656
| 88>    H       -0.59190         1.15824         5.86165
| 89>    H        9.90944        -0.49548         5.49149
| 90>    H        8.94937         1.89234         7.15653
| 91>    H       18.77561         2.98402         6.69063
| 92>    H       19.39279         1.03196         4.41550
| 93>    H       23.41783         4.77160         5.69189
| 94>    H       24.77966         3.90719         3.41753
| 95>    H       20.91355         0.81632         2.74770
| 96>    H       18.69217        -0.75942         5.17960
| 97>    H       13.85428        -1.38109         6.11852
| 98>    H       14.73640         3.24533         8.85953
| 99>    H        9.77154         3.38529         8.58602
|100>    H        9.03535        -2.18059         4.31232
|101>    H        4.12631        -1.70758         3.65408
|102>    H        5.26651         3.14842         5.87950
|103>    H        0.30864         3.13514         6.31854
|104> *
|105>
|106>                          ****END OF INPUT****

CARTESIAN COORDINATES (ANGSTROEM)
---------------------------------
  C     -0.407330   -0.847350    5.288880
  C      0.082330    0.356420    5.593940
  C      1.471090    0.692830    5.597720
  S      2.684940   -0.468890    5.206250
  C      3.996400    0.654390    5.431290
  C      5.338230    0.243000    5.310500
  S      6.614780    1.112640    6.113030
  C      7.853130    0.014900    5.582990
  C      9.198630    0.204810    5.909770
  C      9.665060    1.211200    6.715460
  C     11.012380    1.435870    7.007640
  S     12.281980    0.482090    6.301970
  C     13.552460    1.391350    7.076350
  C     14.901940    1.155500    6.771220
  S     16.111890    2.381460    7.030330
  C     17.364980    1.481430    6.235650
  C     18.610810    2.115080    6.063760
  C     19.568560    1.809700    5.143190
  C     20.788120    2.504570    5.019440
  S     21.282770    3.726120    6.154600
  C     22.735800    4.030940    5.324560
  C     22.875740    3.241990    4.200130
  C     23.942470    3.240680    3.276320
  C     23.897420    2.391150    2.201130
  C     24.951830    2.381500    1.257140
  N     25.812430    2.390290    0.501440
  C     22.785520    1.507850    2.015120
  C     22.765230    0.651750    0.890380
  N     22.727490   -0.042560   -0.020250
  C     21.740680    1.490850    2.909890
  C     21.760370    2.354540    4.016150
  C     16.884770    0.213310    5.857550
  C     17.629140   -0.853550    5.330820
  C     17.013770   -2.053430    5.053740
  C     17.769940   -3.128340    4.531030
  N     18.404230   -3.982050    4.105770
  C     15.626680   -2.227830    5.322830
  C     15.007880   -3.471580    5.059320
  N     14.481710   -4.468230    4.854340
  C     14.889130   -1.203480    5.874580
  C     15.493530    0.030980    6.148850
  C     12.990010    2.391470    7.904640
  C     13.663340    3.274310    8.760840
  C     12.950030    4.178980    9.516570
  C     13.637640    5.059170   10.383990
  N     14.218200    5.763820   11.075790
  C     11.529070    4.229280    9.438770
  C     10.819230    5.167700   10.223400
  N     10.230620    5.916860   10.859280
  C     10.849420    3.352350    8.622660
  C     11.561780    2.419160    7.857810
  C      7.285710   -1.007620    4.794370
  C      7.968970   -2.071110    4.189050
  C      7.275210   -2.983960    3.426590
  C      7.952610   -4.061950    2.810830
  N      8.512580   -4.930040    2.316150
  C      5.870670   -2.837710    3.236980
  C      5.172560   -3.761420    2.424580
  N      4.584340   -4.497270    1.772900
  C      5.185030   -1.802950    3.832590
  C      5.869360   -0.880890    4.639460
  C      3.485700    1.918650    5.792630
  C      4.195170    3.112350    5.994640
  C      3.522480    4.268140    6.319380
  C      4.247280    5.466880    6.508250
  N      4.859860    6.424070    6.653880
  C      2.101450    4.268790    6.455950
  C      1.434210    5.466780    6.803140
  N      0.875470    6.426680    7.083110
  C      1.384080    3.119110    6.233200
  C      2.054460    1.931140    5.886880
  H     -1.464020   -1.042600    5.301700
  H      0.235390   -1.668580    5.016560
  H     -0.591900    1.158240    5.861650
  H      9.909440   -0.495480    5.491490
  H      8.949370    1.892340    7.156530
  H     18.775610    2.984020    6.690630
  H     19.392790    1.031960    4.415500
  H     23.417830    4.771600    5.691890
  H     24.779660    3.907190    3.417530
  H     20.913550    0.816320    2.747700
  H     18.692170   -0.759420    5.179600
  H     13.854280   -1.381090    6.118520
  H     14.736400    3.245330    8.859530
  H      9.771540    3.385290    8.586020
  H      9.035350   -2.180590    4.312320
  H      4.126310   -1.707580    3.654080
  H      5.266510    3.148420    5.879500
  H      0.308640    3.135140    6.318540

 Total Charge           Charge          ....    0
 Multiplicity           Mult            ....    1
 Number of Electrons    NEL             ....  504
 Basis Dimension        Dim             .... 1104

ORBITAL ENERGIES
----------------

  NO   OCC          E(Eh)            E(eV)
   0   2.0000     -89.014971     -2422.2205
   1   2.0000     -89.014416     -2422.2054
   2   2.0000     -89.013473     -2422.1797
   3   2.0000     -89.011934     -2422.1379
   4   2.0000     -89.009522     -2422.0722
   5   2.0000     -14.427466      -392.5913
   6   2.0000     -14.427406      -392.5897
   7   2.0000     -14.426421      -392.5629
   8   2.0000     -14.425882      -392.5482
   9   2.0000     -14.425312      -392.5327
  10   2.0000     -14.425040      -392.5253
  11   2.0000     -14.424236      -392.5034
  12   2.0000     -14.423631      -392.4870
  13   2.0000     -14.419368      -392.3710
  14   2.0000     -14.418952      -392.3596
  15   2.0000     -10.363935      -282.0170
  16   2.0000     -10.363153      -281.9957
  17   2.0000     -10.361925      -281.9623
  18   2.0000     -10.358657      -281.8734
  19   2.0000     -10.356460      -281.8136
  20   2.0000     -10.354637      -281.7640
  21   2.0000     -10.354208      -281.7523
  22   2.0000     -10.354055      -281.7482
  23   2.0000     -10.353652      -281.7372
  24   2.0000     -10.353560      -281.7347
  25   2.0000     -10.352644      -281.7098
  26   2.0000     -10.352236      -281.6987
  27   2.0000     -10.351881      -281.6890
  28   2.0000     -10.351061      -281.6667
  29   2.0000     -10.349943      -281.6363
  30   2.0000     -10.349823      -281.6330
  31   2.0000     -10.346460      -281.5415
  32   2.0000     -10.345770      -281.5227
  33   2.0000     -10.345197      -281.5071
  34   2.0000     -10.339915      -281.3634
  35   2.0000     -10.338442      -281.3233
  36   2.0000     -10.337448      -281.2963
  37   2.0000     -10.337405      -281.2951
  38   2.0000     -10.337341      -281.2934
  39   2.0000     -10.336798      -281.2786
  40   2.0000     -10.336762      -281.2776
  41   2.0000     -10.335894      -281.2540
  42   2.0000     -10.335861      -281.2531
  43   2.0000     -10.335832      -281.2523
  44   2.0000     -10.335665      -281.2477
  45   2.0000     -10.334817      -281.2247
  46   2.0000     -10.334522      -281.2167
  47   2.0000     -10.334477      -281.2154
  48   2.0000     -10.334091      -281.2049
  49   2.0000     -10.333473      -281.1881
  50   2.0000     -10.331385      -281.1313
  51   2.0000     -10.331177      -281.1256
  52   2.0000     -10.330666      -281.1117
  53   2.0000     -10.330527      -281.1079
  54   2.0000     -10.330392      -281.1043
  55   2.0000     -10.329545      -281.0812
  56   2.0000     -10.328938      -281.0647
  57   2.0000     -10.327103      -281.0147
  58   2.0000     -10.325321      -280.9663
  59   2.0000     -10.325201      -280.9630
  60   2.0000     -10.324927      -280.9555
  61   2.0000     -10.324028      -280.9311
  62   2.0000     -10.323431      -280.9148
  63   2.0000     -10.323165      -280.9076
  64   2.0000     -10.322874      -280.8997
  65   2.0000     -10.321684      -280.8673
  66   2.0000     -10.321534      -280.8632
  67   2.0000     -10.318239      -280.7735
  68   2.0000     -10.317154      -280.7440
  69   2.0000     -10.317015      -280.7402
  70   2.0000     -10.304951      -280.4120
  71   2.0000      -8.109743      -220.6773
  72   2.0000      -8.108863      -220.6534
  73   2.0000      -8.108017      -220.6304
  74   2.0000      -8.106685      -220.5941
  75   2.0000      -8.104723      -220.5407
  76   2.0000      -6.078855      -165.4141
  77   2.0000      -6.077975      -165.3901
  78   2.0000      -6.077102      -165.3663
  79   2.0000      -6.075724      -165.3288
  80   2.0000      -6.074572      -165.2975
  81   2.0000      -6.073869      -165.2784
  82   2.0000      -6.073551      -165.2697
  83   2.0000      -6.072984      -165.2543
  84   2.0000      -6.072421      -165.2390
  85   2.0000      -6.071472      -165.2131
  86   2.0000      -6.071432      -165.2121
  87   2.0000      -6.070628      -165.1902
  88   2.0000      -6.069476      -165.1588
  89   2.0000      -6.069274      -165.1533
  90   2.0000      -6.067972      -165.1179
  91   2.0000      -1.057681       -28.7810
  92   2.0000      -1.055236       -28.7144
  93   2.0000      -1.043675       -28.3999
  94   2.0000      -1.040941       -28.3254
  95   2.0000      -1.040597       -28.3161
  96   2.0000      -1.023416       -27.8486
  97   2.0000      -1.021225       -27.7889
  98   2.0000      -1.019363       -27.7383
  99   2.0000      -1.016836       -27.6695
 100   2.0000      -1.013979       -27.5918
 101   2.0000      -1.007231       -27.4081
 102   2.0000      -1.006909       -27.3994
 103   2.0000      -1.005004       -27.3475
 104   2.0000      -1.004703       -27.3394
 105   2.0000      -0.999427       -27.1958
 106   2.0000      -0.985469       -26.8160
 107   2.0000      -0.984818       -26.7983
 108   2.0000      -0.982410       -26.7327
 109   2.0000      -0.981146       -26.6983
 110   2.0000      -0.976382       -26.5687
 111   2.0000      -0.961833       -26.1728
 112   2.0000      -0.949891       -25.8478
 113   2.0000      -0.936208       -25.4755
 114   2.0000      -0.924172       -25.1480
 115   2.0000      -0.918460       -24.9926
 116   2.0000      -0.909246       -24.7418
 117   2.0000      -0.904503       -24.6128
 118   2.0000      -0.902411       -24.5558
 119   2.0000      -0.901545       -24.5323
 120   2.0000      -0.898331       -24.4448
 121   2.0000      -0.893997       -24.3269
 122   2.0000      -0.890542       -24.2329
 123   2.0000      -0.888944       -24.1894
 124   2.0000      -0.882655       -24.0183
 125   2.0000      -0.868364       -23.6294
 126   2.0000      -0.849673       -23.1208
 127   2.0000      -0.832558       -22.6551
 128   2.0000      -0.818506       -22.2727
 129   2.0000      -0.791380       -21.5345
 130   2.0000      -0.785862       -21.3844
 131   2.0000      -0.784068       -21.3356
 132   2.0000      -0.782194       -21.2846
 133   2.0000      -0.780570       -21.2404
 134   2.0000      -0.778390       -21.1811
 135   2.0000      -0.774715       -21.0811
 136   2.0000      -0.772252       -21.0140
 137   2.0000      -0.769758       -20.9462
 138   2.0000      -0.753823       -20.5126
 139   2.0000      -0.743521       -20.2322
 140   2.0000      -0.726787       -19.7769
 141   2.0000      -0.717851       -19.5337
 142   2.0000      -0.714043       -19.4301
 143   2.0000      -0.712158       -19.3788
 144   2.0000      -0.697883       -18.9904
 145   2.0000      -0.692684       -18.8489
 146   2.0000      -0.692140       -18.8341
 147   2.0000      -0.674541       -18.3552
 148   2.0000      -0.667637       -18.1673
 149   2.0000      -0.658358       -17.9148
 150   2.0000      -0.656526       -17.8650
 151   2.0000      -0.647952       -17.6317
 152   2.0000      -0.646068       -17.5804
 153   2.0000      -0.638621       -17.3778
 154   2.0000      -0.637964       -17.3599
 155   2.0000      -0.635594       -17.2954
 156   2.0000      -0.633017       -17.2253
 157   2.0000      -0.629478       -17.1290
 158   2.0000      -0.627075       -17.0636
 159   2.0000      -0.620919       -16.8961
 160   2.0000      -0.616841       -16.7851
 161   2.0000      -0.606665       -16.5082
 162   2.0000      -0.592681       -16.1277
 163   2.0000      -0.591111       -16.0849
 164   2.0000      -0.586271       -15.9533
 165   2.0000      -0.579351       -15.7649
 166   2.0000      -0.575529       -15.6609
 167   2.0000      -0.574300       -15.6275
 168   2.0000      -0.573536       -15.6067
 169   2.0000      -0.572954       -15.5909
 170   2.0000      -0.568625       -15.4731
 171   2.0000      -0.562774       -15.3139
 172   2.0000      -0.561670       -15.2838
 173   2.0000      -0.559237       -15.2176
 174   2.0000      -0.555085       -15.1046
 175   2.0000      -0.551760       -15.0142
 176   2.0000      -0.550159       -14.9706
 177   2.0000      -0.549056       -14.9406
 178   2.0000      -0.546993       -14.8844
 179   2.0000      -0.545618       -14.8470
 180   2.0000      -0.545108       -14.8331
 181   2.0000      -0.533081       -14.5059
 182   2.0000      -0.531049       -14.4506
 183   2.0000      -0.527662       -14.3584
 184   2.0000      -0.524381       -14.2691
 185   2.0000      -0.516639       -14.0585
 186   2.0000      -0.514467       -13.9993
 187   2.0000      -0.510818       -13.9001
 188   2.0000      -0.507397       -13.8070
 189   2.0000      -0.506919       -13.7940
 190   2.0000      -0.503277       -13.6949
 191   2.0000      -0.500584       -13.6216
 192   2.0000      -0.500212       -13.6115
 193   2.0000      -0.498850       -13.5744
 194   2.0000      -0.493316       -13.4238
 195   2.0000      -0.487367       -13.2619
 196   2.0000      -0.484268       -13.1776
 197   2.0000      -0.478983       -13.0338
 198   2.0000      -0.477454       -12.9922
 199   2.0000      -0.470377       -12.7996
 200   2.0000      -0.466543       -12.6953
 201   2.0000      -0.466323       -12.6893
 202   2.0000      -0.463743       -12.6191
 203   2.0000      -0.462006       -12.5718
 204   2.0000      -0.460242       -12.5238
 205   2.0000      -0.458718       -12.4824
 206   2.0000      -0.456852       -12.4316
 207   2.0000      -0.456529       -12.4228
 208   2.0000      -0.455937       -12.4067
 209   2.0000      -0.454785       -12.3753
 210   2.0000      -0.453141       -12.3306
 211   2.0000      -0.452838       -12.3224
 212   2.0000      -0.451758       -12.2930
 213   2.0000      -0.451334       -12.2814
 214   2.0000      -0.450359       -12.2549
 215   2.0000      -0.450086       -12.2474
 216   2.0000      -0.449641       -12.2353
 217   2.0000      -0.447371       -12.1736
 218   2.0000      -0.447228       -12.1697
 219   2.0000      -0.445420       -12.1205
 220   2.0000      -0.444982       -12.1086
 221   2.0000      -0.439237       -11.9523
 222   2.0000      -0.434582       -11.8256
 223   2.0000      -0.432863       -11.7788
 224   2.0000      -0.432254       -11.7622
 225   2.0000      -0.431014       -11.7285
 226   2.0000      -0.429870       -11.6974
 227   2.0000      -0.428757       -11.6671
 228   2.0000      -0.428372       -11.6566
 229   2.0000      -0.428026       -11.6472
 230   2.0000      -0.426735       -11.6120
 231   2.0000      -0.426440       -11.6040
 232   2.0000      -0.426310       -11.6005
 233   2.0000      -0.425781       -11.5861
 234   2.0000      -0.421472       -11.4688
 235   2.0000      -0.420595       -11.4450
 236   2.0000      -0.415083       -11.2950
 237   2.0000      -0.403124       -10.9696
 238   2.0000      -0.395651       -10.7662
 239   2.0000      -0.377359       -10.2685
 240   2.0000      -0.375398       -10.2151
 241   2.0000      -0.374812       -10.1992
 242   2.0000      -0.358100        -9.7444
 243   2.0000      -0.356467        -9.7000
 244   2.0000      -0.355749        -9.6804
 245   2.0000      -0.353436        -9.6175
 246   2.0000      -0.348238        -9.4760
 247   2.0000      -0.342370        -9.3164
 248   2.0000      -0.326872        -8.8946
 249   2.0000      -0.303152        -8.2492
 250   2.0000      -0.275005        -7.4833
 251   2.0000      -0.242146        -6.5891
 252   0.0000      -0.142137        -3.8678
 253   0.0000      -0.113942        -3.1005
 254   0.0000      -0.093259        -2.5377
 255   0.0000      -0.079558        -2.1649
 256   0.0000      -0.071999        -1.9592

MULLIKEN ATOMIC CHARGES
-----------------------
   0 C :   -0.010777
   1 C :   -0.000982
   2 C :   -0.102707
   3 S :    0.169327
   4 C :   -0.118906
   5 C :   -0.103522
   6 S :    0.148404
   7 C :   -0.075873
   8 C :   -0.011392
   9 C :   -0.015875
  10 C :   -0.071856
  11 S :    0.142959
  12 C :   -0.090011
  13 C :   -0.113526
  14 S :    0.173507
  15 C :   -0.111883
  16 C :    0.031348
  17 C :   -0.004722
  18 C :   -0.130731
  19 S :    0.181796
  20 C :   -0.107044
  21 C :    0.099294
  22 C :   -0.010168
  23 C :   -0.072294
  24 C :   -0.176775
  25 N :    0.178628
  26 C :   -0.065082
  27 C :   -0.178289
  28 N :    0.180835
  29 C :   -0.046325
  30 C :    0.145435
  31 C :    0.123363
  32 C :   -0.059435
  33 C :   -0.064955
  34 C :   -0.180234
  35 N :    0.189119
  36 C :   -0.066416
  37 C :   -0.181269
  38 N :    0.188412
  39 C :   -0.066750
  40 C :    0.113260
  41 C :    0.113498
  42 C :   -0.063590
  43 C :   -0.066621
  44 C :   -0.180991
  45 N :    0.181661
  46 C :   -0.064839
  47 C :   -0.179709
  48 N :    0.188173
  49 C :   -0.050530
  50 C :    0.129312
  51 C :    0.126278
  52 C :   -0.051528
  53 C :   -0.067643
  54 C :   -0.180209
  55 N :    0.192139
  56 C :   -0.067225
  57 C :   -0.181247
  58 N :    0.182079
  59 C :   -0.063477
  60 C :    0.123623
  61 C :    0.127503
  62 C :   -0.064944
  63 C :   -0.065609
  64 C :   -0.180968
  65 N :    0.181096
  66 C :   -0.065137
  67 C :   -0.179553
  68 N :    0.183020
  69 C :   -0.046947
  70 C :    0.120037
  71 H :    0.045073
  72 H :    0.033775
  73 H :    0.006761
  74 H :    0.002082
  75 H :    0.002456
  76 H :   -0.000255
  77 H :    0.003476
  78 H :    0.038677
  79 H :    0.000620
  80 H :   -0.001983
  81 H :   -0.002413
  82 H :    0.003904
  83 H :    0.006187
  84 H :   -0.000583
  85 H :   -0.001452
  86 H :    0.005505
  87 H :    0.001480
  88 H :    0.001150
Sum of atomic charges:    0.0000000

LOEWDIN ATOMIC CHARGES
----------------------
   0 C :   -0.017407
   1 C :   -0.044517
   2 C :   -0.158621
   3 S :    0.521786
   4 C :   -0.188754
   5 C :   -0.175399
   6 S :    0.503378
   7 C :   -0.165156
   8 C :   -0.041208
   9 C :   -0.044697
  10 C :   -0.162310
  11 S :    0.499197
  12 C :   -0.177560
  13 C :   -0.188024
  14 S :    0.512732
  15 C :   -0.157670
  16 C :   -0.055016
  17 C :   -0.027276
  18 C :   -0.176190
  19 S :    0.514834
  20 C :   -0.170299
  21 C :   -0.051111
  22 C :    0.039020
  23 C :   -0.052861
  24 C :   -0.033260
  25 N :   -0.028726
  26 C :   -0.047797
  27 C :   -0.034555
  28 N :   -0.026452
  29 C :    0.029128
  30 C :   -0.039837
  31 C :   -0.041956
  32 C :    0.031272
  33 C :   -0.048202
  34 C :   -0.035348
  35 N :   -0.022782
  36 C :   -0.045125
  37 C :   -0.034915
  38 N :   -0.023038
  39 C :    0.016974
  40 C :   -0.041575
  41 C :   -0.045701
  42 C :    0.017858
  43 C :   -0.046113
  44 C :   -0.033406
  45 N :   -0.027348
  46 C :   -0.047241
  47 C :   -0.034890
  48 N :   -0.022334
  49 C :    0.034394
  50 C :   -0.036779
  51 C :   -0.036581
  52 C :    0.032839
  53 C :   -0.046778
  54 C :   -0.035520
  55 N :   -0.020954
  56 C :   -0.047115
  57 C :   -0.033500
  58 N :   -0.027054
  59 C :    0.019649
  60 C :   -0.046003
  61 C :   -0.043490
  62 C :    0.016361
  63 C :   -0.047058
  64 C :   -0.034158
  65 N :   -0.027719
  66 C :   -0.051026
  67 C :   -0.033870
  68 N :   -0.026793
  69 C :    0.037535
  70 C :   -0.042964
  71 H :    0.036094
  72 H :    0.022302
  73 H :    0.039440
  74 H :    0.029532
  75 H :    0.029247
  76 H :    0.026041
  77 H :    0.035701
  78 H :    0.033528
  79 H :    0.047302
  80 H :    0.042557
  81 H :    0.042795
  82 H :    0.026603
  83 H :    0.027230
  84 H :    0.044382
  85 H :    0.044145
  86 H :    0.027337
  87 H :    0.025859
  88 H :    0.044985

  Mayer bond orders larger than 0.100000
B(  0-C ,  1-C ) :   1.8980 B(  0-C , 71-H ) :   0.9485 B(  0-C , 72-H ) :   0.9590
B(  1-C ,  2-C ) :   1.1460 B(  1-C , 73-H ) :   0.9571 B(  2-C ,  3-S ) :   1.1559
B(  2-C ,  4-C ) :   0.1021 B(  2-C , 70-C ) :   1.3315 B(  3-S ,  4-C ) :   1.1567
B(  4-C ,  5-C ) :   1.2146 B(  4-C , 61-C ) :   1.3088 B(  5-C ,  6-S ) :   1.1558
B(  5-C , 60-C ) :   1.2995 B(  6-S ,  7-C ) :   1.1226 B(  7-C ,  8-C ) :   1.2600
B(  7-C , 51-C ) :   1.2694 B(  8-C ,  9-C ) :   1.5340 B(  8-C , 74-H ) :   0.9633
B(  9-C , 10-C ) :   1.2622 B(  9-C , 75-H ) :   0.9625 B( 10-C , 11-S ) :   1.1235
B( 10-C , 50-C ) :   1.2637 B( 11-S , 12-C ) :   1.1450 B( 12-C , 13-C ) :   1.2415
B( 12-C , 41-C ) :   1.2884 B( 13-C , 14-S ) :   1.1449 B( 13-C , 40-C ) :   1.2847
B( 14-S , 15-C ) :   1.1582 B( 15-C , 16-C ) :   1.1855 B( 15-C , 31-C ) :   1.2923
B( 16-C , 17-C ) :   1.6091 B( 16-C , 76-H ) :   0.9452 B( 17-C , 18-C ) :   1.2178
B( 17-C , 77-H ) :   0.9612 B( 18-C , 19-S ) :   1.1597 B( 18-C , 30-C ) :   1.3011
B( 19-S , 20-C ) :   1.2175 B( 20-C , 21-C ) :   1.4030 B( 20-C , 78-H ) :   0.9701
B( 21-C , 22-C ) :   1.1573 B( 21-C , 30-C ) :   1.1967 B( 22-C , 23-C ) :   1.5785
B( 22-C , 79-H ) :   1.0064 B( 23-C , 24-C ) :   1.0783 B( 23-C , 26-C ) :   1.2273
B( 24-C , 25-N ) :   3.0495 B( 26-C , 27-C ) :   1.0825 B( 26-C , 29-C ) :   1.5765
B( 27-C , 28-N ) :   3.0420 B( 29-C , 30-C ) :   1.2009 B( 29-C , 80-H ) :   0.9942
B( 31-C , 32-C ) :   1.2103 B( 31-C , 40-C ) :   1.2097 B( 32-C , 33-C ) :   1.5448
B( 32-C , 81-H ) :   0.9932 B( 33-C , 34-C ) :   1.0750 B( 33-C , 36-C ) :   1.2634
B( 34-C , 35-N ) :   3.0463 B( 36-C , 37-C ) :   1.0780 B( 36-C , 39-C ) :   1.5644
B( 37-C , 38-N ) :   3.0446 B( 39-C , 40-C ) :   1.2022 B( 39-C , 82-H ) :   0.9754
B( 41-C , 42-C ) :   1.1989 B( 41-C , 50-C ) :   1.2102 B( 42-C , 43-C ) :   1.5680
B( 42-C , 83-H ) :   0.9746 B( 43-C , 44-C ) :   1.0801 B( 43-C , 46-C ) :   1.2589
B( 44-C , 45-N ) :   3.0445 B( 46-C , 47-C ) :   1.0770 B( 46-C , 49-C ) :   1.5503
B( 47-C , 48-N ) :   3.0445 B( 49-C , 50-C ) :   1.2184 B( 49-C , 84-H ) :   0.9945
B( 51-C , 52-C ) :   1.2142 B( 51-C , 60-C ) :   1.2043 B( 52-C , 53-C ) :   1.5525
B( 52-C , 85-H ) :   0.9959 B( 53-C , 54-C ) :   1.0775 B( 53-C , 56-C ) :   1.2539
B( 54-C , 55-N ) :   3.0452 B( 56-C , 57-C ) :   1.0810 B( 56-C , 59-C ) :   1.5726
B( 57-C , 58-N ) :   3.0449 B( 59-C , 60-C ) :   1.1926 B( 59-C , 86-H ) :   0.9757
B( 61-C , 62-C ) :   1.1909 B( 61-C , 70-C ) :   1.1964 B( 62-C , 63-C ) :   1.5777
B( 62-C , 87-H ) :   0.9754 B( 63-C , 64-C ) :   1.0794 B( 63-C , 66-C ) :   1.2432
B( 64-C , 65-N ) :   3.0434 B( 66-C , 67-C ) :   1.0755 B( 66-C , 69-C ) :   1.5713
B( 67-C , 68-N ) :   3.0469 B( 69-C , 70-C ) :   1.1891 B( 69-C , 88-H ) :   0.9966

-----------------------------------------------------------------------------
         ABSORPTION SPECTRUM VIA TRANSITION ELECTRIC DIPOLE MOMENTS
-----------------------------------------------------------------------------
State   Energy  Wavelength   fosc         T2         TX        TY        TZ
        (cm-1)    (nm)                  (au**2)     (au)      (au)      (au)
-----------------------------------------------------------------------------
   0    8805.5   1135.7   1.351058931  50.51216  -7.10065  -0.25417   0.16829
   1   14690.5    680.7   0.037016087   0.82953  -0.01558  -0.39180   0.82205
   2   16056.9    622.8   0.061298662   1.25680  -0.22927  -0.39535   1.02369
   3   18594.2    537.8   0.100036209   1.77115  -1.06210  -0.15578   0.78665
   4   20988.5    476.5   0.073350050   1.15052   0.71831   0.79582  -0.03496
   5   21377.4    467.8   0.137421174   2.11628   0.70575  -0.62966  -1.10532
   6   21975.6    455.1   0.144802526   2.16926   1.25905   0.41221  -0.64352
   7   23899.2    418.4   0.042967866   0.59188   0.38066   0.56295   0.36065
   8   26008.0    384.5   0.493301798   6.24427   0.33872   2.18693   1.16054
   9   26651.2    375.2   0.134081469   1.65625  -0.43670  -0.93868  -0.76448
  10   27473.8    364.0   0.003297585   0.03951   0.07085  -0.16677  -0.08176
  11   27721.1    360.7   0.010029676   0.11911   0.24856  -0.16615   0.17241
  12   28739.0    348.0   0.033368501   0.38224  -0.61277  -0.06438   0.05110
  13   29116.9    343.4   0.010377543   0.11733  -0.21152   0.20735  -0.17204
  14   29450.8    339.5   0.034334630   0.38381  -0.43578  -0.44025  -0.00915
  15   29716.7    336.5   0.102090167   1.13099  -0.93615   0.27101   0.42564
  16   29887.8    334.6   0.052658619   0.58003  -0.15411  -0.72709  -0.16621
  17   30706.5    325.7   0.116757193   1.25178  -0.95498   0.48273   0.32676
  18   30976.8    322.8   0.127481501   1.35483  -0.08999   0.95924   0.65314
  19   31556.6    316.9   0.049337963   0.51471  -0.30910  -0.60635   0.22695
  20   32544.6    307.3   0.066185667   0.66952   0.59303   0.41538   0.38117
  21   32864.8    304.3   0.146579288   1.46831   0.64672  -0.35400  -0.96164
  22   32923.6    303.7   0.065303927   0.65299   0.34120  -0.49303  -0.54175
  23   33077.0    302.3   0.008400000   0.08360  -0.25920  -0.04734   0.11908
  24   33221.5    301.0   0.823815163   8.16368  -0.48141  -2.56904  -1.15411
  25   34492.8    289.9   0.228246370   2.17847   0.26525   1.27509   0.69445
  26   35057.3    285.2   0.112686743   1.05821   0.02094  -0.72307  -0.73140
  27   35388.0    282.6   0.111430429   1.03663  -0.02318  -0.89667  -0.48173
  28   35543.7    281.3   0.100460882   0.93049   0.01833   0.93734   0.22701
  29   35728.6    279.9   0.017622186   0.16237   0.37934  -0.13421   0.02152
  30   36111.0    276.9   0.068920972   0.62833   0.34384   0.47155   0.53642
  31   36233.8    276.0   0.017138823   0.15572  -0.37656  -0.01576  -0.11695
  32   36685.4    272.6   0.103232549   0.92640  -0.88370   0.04632   0.37859
  33   37076.3    269.7   0.038796106   0.34448  -0.36962   0.17051   0.42283
  34   37421.1    267.2   0.023387050   0.20575  -0.08172   0.40691   0.18302
  35   37554.2    266.3   0.011627994   0.10193   0.21577   0.11789  -0.20366
  36   37771.6    264.7   0.018162740   0.15830  -0.02513  -0.13056  -0.37500
  37   38058.6    262.8   0.006240316   0.05398   0.03867   0.15389   0.16971
  38   38461.7    260.0   0.031090214   0.26612  -0.20399   0.47329   0.02248
  39   38587.0    259.2   0.065323302   0.55732   0.64091   0.22100  -0.31259
  40   38944.2    256.8   0.018995842   0.16058  -0.22864  -0.32517  -0.05066
  41   39124.1    255.6   0.012220642   0.10283  -0.27481  -0.09127  -0.13777
  42   39458.2    253.4   0.060191053   0.50219   0.63154  -0.29905  -0.11798
  43   39658.3    252.2   0.013586839   0.11279   0.22172   0.17328  -0.18331
  44   39714.6    251.8   0.088655561   0.73490   0.42541  -0.44573  -0.59604
  45   39925.9    250.5   0.174335128   1.43749  -0.12320  -1.12879  -0.38489
  46   40102.9    249.4   0.103987730   0.85365   0.14897   0.72916   0.54753

FINAL SINGLE POINT ENERGY     -4679.016940863879

DIPOLE MOMENT
-------------
                                X             Y             Z
Electronic contribution:     11.96991       1.64019       1.70544
Nuclear contribution   :    -13.46793      -0.45625       0.59515
                        -----------------------------------------
Total Dipole Moment    :     -1.49802       1.18394       2.30059
                        -----------------------------------------
Magnitude (a.u.)       :      2.98973
Magnitude (Debye)      :      7.59929

Rotational constants in cm-1:     0.001352     0.000306     0.000267
Rotational constants in MHz :    40.529801     9.176261     8.013214

                             ****ORCA TERMINATED NORMALLY****
TOTAL RUN TIME: 0 days 0 hours 7 minutes 41 seconds 864 msec
