                         Program Version 4.2.0 -  RELEASE  -
|  1> # ORCA input file
|  2> # SCF done       -214.714441706747          0.000777651031
|  3> ! CAM-B3LYP def2-SVP def2/J RIJCOSX Grid4 TightSCF
|  4> %maxcore 5000
|  5> %tddft
|  6>     Mode sTDDFT
|  7>     Ethresh 5.0
|  8>     maxcore 5000
|  9> end
| 10>
| 11> %pal
| 12>   nprocs 6
| 13>   end
| 14> * xyz 0 1
| 15>    C       -1.65220        -0.83385        -7.78877
| 16>    O       -1.24242        -1.38095        -6.79526
| 17>    C       -1.06661         0.34617        -8.45713
| 18>    C       -1.90539         0.77301        -9.50227
| 19>    C       -1.54866         1.88068       -10.25626
| 20>    C       -0.36098         2.53651        -9.95628
| 21>    C        0.46691         2.10206        -8.91663
| 22>    C        0.11089         0.99828        -8.15343
| 23>   Br        2.07629         3.01213        -8.53552
| 24>   Br        0.12540         4.04474       -10.98471
| 25>    C       -3.06122        -0.11394        -9.58224
| 26>    C       -4.05271        -0.05779       -10.52074
| 27>    C       -4.12547         0.92152       -11.53665
| 28>    N       -4.23786         1.69481       -12.37618
| 29>    C       -5.12678        -0.97067       -10.61878
| 30>    N       -6.01685        -1.67789       -10.77287
| 31>    C       -2.92125        -1.11004        -8.52884
| 32>    C       -3.83503        -2.03106        -8.14497
| 33>    C       -3.59635        -3.07432        -7.17815
| 34>    C       -2.44787        -3.84918        -7.13621
| 35>    F       -1.51558        -3.70063        -8.08026
| 36>    C       -2.24785        -4.87266        -6.19049
| 37>    F       -1.14581        -5.61341        -6.31118
| 38>    C       -3.17831        -5.17330        -5.20806
| 39>    C       -4.39313        -4.44611        -5.26312
| 40>    C       -4.60250        -3.41545        -6.24041
| 41>    N       -5.80120        -2.84995        -6.11642
| 42>    S       -6.58472        -3.55216        -4.90352
| 43>    N       -5.44740        -4.59615        -4.46501
| 44>    C       -2.96144        -6.16906        -4.19175
| 45>    S       -4.27848        -7.13875        -3.59315
| 46>    C       -1.80230        -6.50457        -3.53713
| 47>    C       -0.41852        -5.99240        -3.45206
| 48>    O        0.10323        -5.05453        -3.99227
| 49>    N        0.19378        -6.80854        -2.50524
| 50>    C        1.59298        -6.68518        -2.15394
| 51>    C        2.45705        -7.58338        -3.03166
| 52>    C       -0.64982        -7.74212        -1.92707
| 53>    O       -0.32653        -8.50833        -1.05197
| 54>    C       -1.95619        -7.53711        -2.58378
| 55>    C       -3.24609        -8.01534        -2.48759
| 56>    C       -3.82187        -9.01850        -1.65228
| 57>    C       -3.09398        -9.79561        -0.82917
| 58>    C       -3.62015       -10.77640         0.08606
| 59>    C       -2.95457       -12.00407         0.29857
| 60>    C       -1.84885       -12.45132        -0.57610
| 61>    O       -1.38838       -11.89127        -1.52399
| 62>    S       -1.30552       -14.07636        -0.04678
| 63>    C       -2.59156       -14.20755         1.19825
| 64>    O       -2.82120       -15.22815         1.77404
| 65>    C       -3.31900       -12.92069         1.27937
| 66>    C       -4.38581       -12.67364         2.17268
| 67>    C       -5.11840       -11.51429         1.87341
| 68>    C       -4.76089       -10.60084         0.88511
| 69>    C       -5.72414        -9.47336         0.97784
| 70>    O       -5.79779        -8.45589         0.36251
| 71>    O       -6.61498        -9.77977         1.97945
| 72>    C       -6.31616       -10.98674         2.55970
| 73>    O       -6.96202       -11.45338         3.44811
| 74>    C       -4.72630       -13.47262         3.31685
| 75>    C       -3.79755       -14.03352         4.12242
| 76>    C       -3.97860       -14.77272         5.32350
| 77>    N       -5.12008       -15.29341         5.88738
| 78>    C       -6.45408       -15.34046         5.33650
| 79>    C       -6.53384       -16.25775         4.11938
| 80>    C       -4.84292       -15.95712         7.10157
| 81>    O       -5.69591       -16.50451         7.77034
| 82>    C       -3.41720       -15.80317         7.28749
| 83>    C       -2.92389       -15.07773         6.17454
| 84>    C       -1.49991       -14.89629         6.34581
| 85>    O       -0.66132       -14.33266         5.67727
| 86>    N       -1.22177       -15.54222         7.57163
| 87>    C        0.12997       -15.63669         8.06744
| 88>    C        0.74743       -17.00122         7.77099
| 89>    C       -2.35025       -16.08232         8.13440
| 90>    C       -2.35512       -16.77776         9.38901
| 91>    C       -3.46292       -17.30472         9.91639
| 92>    H       -2.16285         2.24858       -11.06213
| 93>    H        0.73803         0.65170        -7.34664
| 94>    H       -4.84592        -1.99687        -8.53007
| 95>    H        1.69428        -6.96590        -1.10294
| 96>    H        1.87043        -5.63719        -2.28924
| 97>    H        2.16815        -8.62402        -2.90363
| 98>    H        3.50147        -7.47324        -2.75441
| 99>    H        2.34119        -7.30908        -4.07766
|100>    H       -4.89234        -9.13581        -1.73575
|101>    H       -2.01410        -9.70782        -0.84017
|102>    H       -5.77428       -13.48341         3.56973
|103>    H       -2.74895       -13.87560         3.90299
|104>    H       -6.79876       -14.33036         5.10130
|105>    H       -7.08471       -15.73835         6.13766
|106>    H       -5.84858       -15.93773         3.33813
|107>    H       -7.54570       -16.25393         3.72388
|108>    H       -6.27673       -17.27486         4.40522
|109>    H        0.14513       -15.42515         9.14014
|110>    H        0.69577       -14.85828         7.54759
|111>    H        0.17830       -17.79883         8.24354
|112>    H        1.76830       -17.03145         8.14143
|113>    H        0.76179       -17.17570         6.69798
|114>    H       -1.41029       -16.85884         9.90830
|115>    H       -4.41464       -17.23551         9.41599
|116>    H       -3.43916       -17.81704        10.86271
|117> *
|118>
|119>                          ****END OF INPUT****

CARTESIAN COORDINATES (ANGSTROEM)
---------------------------------
  C     -1.652200   -0.833850   -7.788770
  O     -1.242420   -1.380950   -6.795260
  C     -1.066610    0.346170   -8.457130
  C     -1.905390    0.773010   -9.502270
  C     -1.548660    1.880680  -10.256260
  C     -0.360980    2.536510   -9.956280
  C      0.466910    2.102060   -8.916630
  C      0.110890    0.998280   -8.153430
  Br     2.076290    3.012130   -8.535520
  Br     0.125400    4.044740  -10.984710
  C     -3.061220   -0.113940   -9.582240
  C     -4.052710   -0.057790  -10.520740
  C     -4.125470    0.921520  -11.536650
  N     -4.237860    1.694810  -12.376180
  C     -5.126780   -0.970670  -10.618780
  N     -6.016850   -1.677890  -10.772870
  C     -2.921250   -1.110040   -8.528840
  C     -3.835030   -2.031060   -8.144970
  C     -3.596350   -3.074320   -7.178150
  C     -2.447870   -3.849180   -7.136210
  F     -1.515580   -3.700630   -8.080260
  C     -2.247850   -4.872660   -6.190490
  F     -1.145810   -5.613410   -6.311180
  C     -3.178310   -5.173300   -5.208060
  C     -4.393130   -4.446110   -5.263120
  C     -4.602500   -3.415450   -6.240410
  N     -5.801200   -2.849950   -6.116420
  S     -6.584720   -3.552160   -4.903520
  N     -5.447400   -4.596150   -4.465010
  C     -2.961440   -6.169060   -4.191750
  S     -4.278480   -7.138750   -3.593150
  C     -1.802300   -6.504570   -3.537130
  C     -0.418520   -5.992400   -3.452060
  O      0.103230   -5.054530   -3.992270
  N      0.193780   -6.808540   -2.505240
  C      1.592980   -6.685180   -2.153940
  C      2.457050   -7.583380   -3.031660
  C     -0.649820   -7.742120   -1.927070
  O     -0.326530   -8.508330   -1.051970
  C     -1.956190   -7.537110   -2.583780
  C     -3.246090   -8.015340   -2.487590
  C     -3.821870   -9.018500   -1.652280
  C     -3.093980   -9.795610   -0.829170
  C     -3.620150  -10.776400    0.086060
  C     -2.954570  -12.004070    0.298570
  C     -1.848850  -12.451320   -0.576100
  O     -1.388380  -11.891270   -1.523990
  S     -1.305520  -14.076360   -0.046780
  C     -2.591560  -14.207550    1.198250
  O     -2.821200  -15.228150    1.774040
  C     -3.319000  -12.920690    1.279370
  C     -4.385810  -12.673640    2.172680
  C     -5.118400  -11.514290    1.873410
  C     -4.760890  -10.600840    0.885110
  C     -5.724140   -9.473360    0.977840
  O     -5.797790   -8.455890    0.362510
  O     -6.614980   -9.779770    1.979450
  C     -6.316160  -10.986740    2.559700
  O     -6.962020  -11.453380    3.448110
  C     -4.726300  -13.472620    3.316850
  C     -3.797550  -14.033520    4.122420
  C     -3.978600  -14.772720    5.323500
  N     -5.120080  -15.293410    5.887380
  C     -6.454080  -15.340460    5.336500
  C     -6.533840  -16.257750    4.119380
  C     -4.842920  -15.957120    7.101570
  O     -5.695910  -16.504510    7.770340
  C     -3.417200  -15.803170    7.287490
  C     -2.923890  -15.077730    6.174540
  C     -1.499910  -14.896290    6.345810
  O     -0.661320  -14.332660    5.677270
  N     -1.221770  -15.542220    7.571630
  C      0.129970  -15.636690    8.067440
  C      0.747430  -17.001220    7.770990
  C     -2.350250  -16.082320    8.134400
  C     -2.355120  -16.777760    9.389010
  C     -3.462920  -17.304720    9.916390
  H     -2.162850    2.248580  -11.062130
  H      0.738030    0.651700   -7.346640
  H     -4.845920   -1.996870   -8.530070
  H      1.694280   -6.965900   -1.102940
  H      1.870430   -5.637190   -2.289240
  H      2.168150   -8.624020   -2.903630
  H      3.501470   -7.473240   -2.754410
  H      2.341190   -7.309080   -4.077660
  H     -4.892340   -9.135810   -1.735750
  H     -2.014100   -9.707820   -0.840170
  H     -5.774280  -13.483410    3.569730
  H     -2.748950  -13.875600    3.902990
  H     -6.798760  -14.330360    5.101300
  H     -7.084710  -15.738350    6.137660
  H     -5.848580  -15.937730    3.338130
  H     -7.545700  -16.253930    3.723880
  H     -6.276730  -17.274860    4.405220
  H      0.145130  -15.425150    9.140140
  H      0.695770  -14.858280    7.547590
  H      0.178300  -17.798830    8.243540
  H      1.768300  -17.031450    8.141430
  H      0.761790  -17.175700    6.697980
  H     -1.410290  -16.858840    9.908300
  H     -4.414640  -17.235510    9.415990
  H     -3.439160  -17.817040   10.862710

 Total Charge           Charge          ....    0
 Multiplicity           Mult            ....    1
 Number of Electrons    NEL             ....  608
 Basis Dimension        Dim             .... 1251

ORBITAL ENERGIES
----------------

  NO   OCC          E(Eh)            E(eV)
   0   2.0000    -482.881733    -13139.8800
   1   2.0000    -482.880260    -13139.8399
   2   2.0000     -89.040535     -2422.9161
   3   2.0000     -88.982061     -2421.3250
   4   2.0000     -88.954093     -2420.5639
   5   2.0000     -62.559341     -1702.3262
   6   2.0000     -62.557885     -1702.2866
   7   2.0000     -56.393296     -1534.5396
   8   2.0000     -56.391854     -1534.5004
   9   2.0000     -56.390640     -1534.4673
  10   2.0000     -56.390533     -1534.4644
  11   2.0000     -56.389176     -1534.4275
  12   2.0000     -56.389071     -1534.4246
  13   2.0000     -24.813818      -675.2183
  14   2.0000     -24.808662      -675.0780
  15   2.0000     -19.299688      -525.1712
  16   2.0000     -19.248017      -523.7652
  17   2.0000     -19.247117      -523.7407
  18   2.0000     -19.246801      -523.7321
  19   2.0000     -19.245748      -523.7034
  20   2.0000     -19.232102      -523.3321
  21   2.0000     -19.215428      -522.8784
  22   2.0000     -19.212900      -522.8096
  23   2.0000     -19.198623      -522.4211
  24   2.0000     -19.188746      -522.1523
  25   2.0000     -14.458561      -393.4375
  26   2.0000     -14.456669      -393.3860
  27   2.0000     -14.455689      -393.3593
  28   2.0000     -14.455078      -393.3427
  29   2.0000     -14.452676      -393.2773
  30   2.0000     -14.427955      -392.6046
  31   2.0000     -14.427529      -392.5930
  32   2.0000     -10.441942      -284.1397
  33   2.0000     -10.440543      -284.1016
  34   2.0000     -10.410129      -283.2740
  35   2.0000     -10.408656      -283.2339
  36   2.0000     -10.401756      -283.0462
  37   2.0000     -10.398264      -282.9511
  38   2.0000     -10.397459      -282.9292
  39   2.0000     -10.395772      -282.8833
  40   2.0000     -10.382555      -282.5237
  41   2.0000     -10.380260      -282.4612
  42   2.0000     -10.372997      -282.2636
  43   2.0000     -10.360085      -281.9122
  44   2.0000     -10.359781      -281.9040
  45   2.0000     -10.359725      -281.9025
  46   2.0000     -10.355396      -281.7847
  47   2.0000     -10.347381      -281.5665
  48   2.0000     -10.347341      -281.5655
  49   2.0000     -10.346725      -281.5487
  50   2.0000     -10.340700      -281.3848
  51   2.0000     -10.339950      -281.3644
  52   2.0000     -10.339635      -281.3558
  53   2.0000     -10.337448      -281.2963
  54   2.0000     -10.335283      -281.2374
  55   2.0000     -10.334234      -281.2088
  56   2.0000     -10.334169      -281.2070
  57   2.0000     -10.332961      -281.1742
  58   2.0000     -10.332876      -281.1718
  59   2.0000     -10.332442      -281.1600
  60   2.0000     -10.331763      -281.1416
  61   2.0000     -10.329319      -281.0751
  62   2.0000     -10.329027      -281.0671
  63   2.0000     -10.325498      -280.9711
  64   2.0000     -10.323820      -280.9254
  65   2.0000     -10.317846      -280.7629
  66   2.0000     -10.317572      -280.7554
  67   2.0000     -10.316376      -280.7228
  68   2.0000     -10.312932      -280.6291
  69   2.0000     -10.310653      -280.5671
  70   2.0000     -10.305218      -280.4192
  71   2.0000     -10.304156      -280.3903
  72   2.0000     -10.303195      -280.3642
  73   2.0000     -10.302714      -280.3511
  74   2.0000     -10.301501      -280.3181
  75   2.0000     -10.297258      -280.2026
  76   2.0000     -10.297056      -280.1972
  77   2.0000     -10.293238      -280.0932
  78   2.0000     -10.292578      -280.0753
  79   2.0000     -10.286434      -279.9081
  80   2.0000     -10.267551      -279.3943
  81   2.0000     -10.267450      -279.3915
  82   2.0000     -10.261074      -279.2180
  83   2.0000     -10.258800      -279.1561
  84   2.0000     -10.258375      -279.1446
  85   2.0000      -8.788666      -239.1518
  86   2.0000      -8.787215      -239.1123
  87   2.0000      -8.132328      -221.2919
  88   2.0000      -8.076884      -219.7832
  89   2.0000      -8.053345      -219.1427
  90   2.0000      -6.624819      -180.2705
  91   2.0000      -6.623418      -180.2324
  92   2.0000      -6.610812      -179.8893
  93   2.0000      -6.609956      -179.8661
  94   2.0000      -6.609310      -179.8485
  95   2.0000      -6.608501      -179.8265
  96   2.0000      -6.103560      -166.0863
  97   2.0000      -6.095810      -165.8754
  98   2.0000      -6.094615      -165.8429
  99   2.0000      -6.046208      -164.5257
 100   2.0000      -6.041770      -164.4049
 101   2.0000      -6.039156      -164.3338
 102   2.0000      -6.022172      -163.8716
 103   2.0000      -6.018948      -163.7839
 104   2.0000      -6.014412      -163.6605
 105   2.0000      -2.740714       -74.5786
 106   2.0000      -2.739295       -74.5400
 107   2.0000      -2.736946       -74.4761
 108   2.0000      -2.736345       -74.4597
 109   2.0000      -2.735506       -74.4369
 110   2.0000      -2.734927       -74.4211
 111   2.0000      -2.725167       -74.1556
 112   2.0000      -2.725155       -74.1552
 113   2.0000      -2.723684       -74.1152
 114   2.0000      -2.723668       -74.1148
 115   2.0000      -1.337078       -36.3837
 116   2.0000      -1.319231       -35.8981
 117   2.0000      -1.249800       -34.0088
 118   2.0000      -1.175252       -31.9802
 119   2.0000      -1.172395       -31.9025
 120   2.0000      -1.168190       -31.7881
 121   2.0000      -1.161402       -31.6034
 122   2.0000      -1.148958       -31.2647
 123   2.0000      -1.144054       -31.1313
 124   2.0000      -1.138040       -30.9676
 125   2.0000      -1.137777       -30.9605
 126   2.0000      -1.137152       -30.9435
 127   2.0000      -1.127669       -30.6854
 128   2.0000      -1.067709       -29.0539
 129   2.0000      -1.055417       -28.7194
 130   2.0000      -1.052710       -28.6457
 131   2.0000      -1.033558       -28.1245
 132   2.0000      -1.022697       -27.8290
 133   2.0000      -1.016882       -27.6708
 134   2.0000      -1.014483       -27.6055
 135   2.0000      -1.005970       -27.3738
 136   2.0000      -0.999533       -27.1987
 137   2.0000      -0.989841       -26.9349
 138   2.0000      -0.983072       -26.7508
 139   2.0000      -0.957846       -26.0643
 140   2.0000      -0.945021       -25.7153
 141   2.0000      -0.930917       -25.3315
 142   2.0000      -0.930476       -25.3195
 143   2.0000      -0.925776       -25.1916
 144   2.0000      -0.917840       -24.9757
 145   2.0000      -0.913176       -24.8488
 146   2.0000      -0.902127       -24.5481
 147   2.0000      -0.899144       -24.4669
 148   2.0000      -0.894198       -24.3324
 149   2.0000      -0.880523       -23.9603
 150   2.0000      -0.879092       -23.9213
 151   2.0000      -0.877052       -23.8658
 152   2.0000      -0.869520       -23.6608
 153   2.0000      -0.859717       -23.3941
 154   2.0000      -0.854537       -23.2531
 155   2.0000      -0.831851       -22.6358
 156   2.0000      -0.827606       -22.5203
 157   2.0000      -0.821274       -22.3480
 158   2.0000      -0.809696       -22.0329
 159   2.0000      -0.805910       -21.9299
 160   2.0000      -0.793224       -21.5847
 161   2.0000      -0.786561       -21.4034
 162   2.0000      -0.776169       -21.1206
 163   2.0000      -0.772577       -21.0229
 164   2.0000      -0.765431       -20.8284
 165   2.0000      -0.764375       -20.7997
 166   2.0000      -0.761240       -20.7144
 167   2.0000      -0.753958       -20.5162
 168   2.0000      -0.747816       -20.3491
 169   2.0000      -0.736382       -20.0380
 170   2.0000      -0.735158       -20.0047
 171   2.0000      -0.723489       -19.6871
 172   2.0000      -0.712857       -19.3978
 173   2.0000      -0.706764       -19.2320
 174   2.0000      -0.704782       -19.1781
 175   2.0000      -0.703509       -19.1435
 176   2.0000      -0.694748       -18.9050
 177   2.0000      -0.691178       -18.8079
 178   2.0000      -0.684862       -18.6360
 179   2.0000      -0.674457       -18.3529
 180   2.0000      -0.669871       -18.2281
 181   2.0000      -0.663167       -18.0457
 182   2.0000      -0.657705       -17.8971
 183   2.0000      -0.653762       -17.7898
 184   2.0000      -0.650578       -17.7031
 185   2.0000      -0.646286       -17.5863
 186   2.0000      -0.642939       -17.4953
 187   2.0000      -0.639155       -17.3923
 188   2.0000      -0.633190       -17.2300
 189   2.0000      -0.629170       -17.1206
 190   2.0000      -0.626254       -17.0412
 191   2.0000      -0.623373       -16.9628
 192   2.0000      -0.615667       -16.7531
 193   2.0000      -0.608711       -16.5639
 194   2.0000      -0.603625       -16.4255
 195   2.0000      -0.602061       -16.3829
 196   2.0000      -0.594659       -16.1815
 197   2.0000      -0.592521       -16.1233
 198   2.0000      -0.585903       -15.9432
 199   2.0000      -0.585146       -15.9226
 200   2.0000      -0.580092       -15.7851
 201   2.0000      -0.579044       -15.7566
 202   2.0000      -0.577314       -15.7095
 203   2.0000      -0.575241       -15.6531
 204   2.0000      -0.570764       -15.5313
 205   2.0000      -0.569076       -15.4853
 206   2.0000      -0.564798       -15.3689
 207   2.0000      -0.562833       -15.3155
 208   2.0000      -0.561005       -15.2657
 209   2.0000      -0.558942       -15.2096
 210   2.0000      -0.555130       -15.1059
 211   2.0000      -0.554503       -15.0888
 212   2.0000      -0.552447       -15.0328
 213   2.0000      -0.550857       -14.9896
 214   2.0000      -0.547470       -14.8974
 215   2.0000      -0.546896       -14.8818
 216   2.0000      -0.545082       -14.8324
 217   2.0000      -0.544418       -14.8144
 218   2.0000      -0.541845       -14.7443
 219   2.0000      -0.538392       -14.6504
 220   2.0000      -0.533502       -14.5173
 221   2.0000      -0.532208       -14.4821
 222   2.0000      -0.530004       -14.4222
 223   2.0000      -0.526925       -14.3384
 224   2.0000      -0.525616       -14.3027
 225   2.0000      -0.523821       -14.2539
 226   2.0000      -0.519040       -14.1238
 227   2.0000      -0.515884       -14.0379
 228   2.0000      -0.514057       -13.9882
 229   2.0000      -0.512962       -13.9584
 230   2.0000      -0.510622       -13.8947
 231   2.0000      -0.509989       -13.8775
 232   2.0000      -0.509580       -13.8664
 233   2.0000      -0.507650       -13.8138
 234   2.0000      -0.505966       -13.7680
 235   2.0000      -0.503646       -13.7049
 236   2.0000      -0.502288       -13.6679
 237   2.0000      -0.501904       -13.6575
 238   2.0000      -0.500095       -13.6083
 239   2.0000      -0.496639       -13.5142
 240   2.0000      -0.494697       -13.4614
 241   2.0000      -0.488952       -13.3051
 242   2.0000      -0.485166       -13.2020
 243   2.0000      -0.483558       -13.1583
 244   2.0000      -0.479844       -13.0572
 245   2.0000      -0.477503       -12.9935
 246   2.0000      -0.474002       -12.8982
 247   2.0000      -0.469670       -12.7804
 248   2.0000      -0.469149       -12.7662
 249   2.0000      -0.468545       -12.7498
 250   2.0000      -0.466669       -12.6987
 251   2.0000      -0.466107       -12.6834
 252   2.0000      -0.465755       -12.6738
 253   2.0000      -0.461548       -12.5594
 254   2.0000      -0.459178       -12.4949
 255   2.0000      -0.457003       -12.4357
 256   2.0000      -0.454497       -12.3675
 257   2.0000      -0.451255       -12.2793
 258   2.0000      -0.450646       -12.2627
 259   2.0000      -0.449787       -12.2393
 260   2.0000      -0.445564       -12.1244
 261   2.0000      -0.444887       -12.1060
 262   2.0000      -0.442182       -12.0324
 263   2.0000      -0.439704       -11.9650
 264   2.0000      -0.438778       -11.9398
 265   2.0000      -0.437696       -11.9103
 266   2.0000      -0.436310       -11.8726
 267   2.0000      -0.434181       -11.8147
 268   2.0000      -0.426726       -11.6118
 269   2.0000      -0.425667       -11.5830
 270   2.0000      -0.422271       -11.4906
 271   2.0000      -0.421708       -11.4753
 272   2.0000      -0.419960       -11.4277
 273   2.0000      -0.418676       -11.3927
 274   2.0000      -0.413351       -11.2478
 275   2.0000      -0.405217       -11.0265
 276   2.0000      -0.403041       -10.9673
 277   2.0000      -0.397962       -10.8291
 278   2.0000      -0.394738       -10.7414
 279   2.0000      -0.388466       -10.5707
 280   2.0000      -0.385096       -10.4790
 281   2.0000      -0.380757       -10.3609
 282   2.0000      -0.378361       -10.2957
 283   2.0000      -0.372836       -10.1454
 284   2.0000      -0.364099        -9.9076
 285   2.0000      -0.360075        -9.7981
 286   2.0000      -0.357446        -9.7266
 287   2.0000      -0.355129        -9.6635
 288   2.0000      -0.353436        -9.6175
 289   2.0000      -0.351510        -9.5651
 290   2.0000      -0.350824        -9.5464
 291   2.0000      -0.350605        -9.5405
 292   2.0000      -0.350063        -9.5257
 293   2.0000      -0.345717        -9.4074
 294   2.0000      -0.341609        -9.2957
 295   2.0000      -0.339501        -9.2383
 296   2.0000      -0.333469        -9.0741
 297   2.0000      -0.333089        -9.0638
 298   2.0000      -0.332266        -9.0414
 299   2.0000      -0.319026        -8.6811
 300   2.0000      -0.317768        -8.6469
 301   2.0000      -0.311625        -8.4797
 302   2.0000      -0.281512        -7.6603
 303   2.0000      -0.246406        -6.7050
 304   0.0000      -0.110145        -2.9972
 305   0.0000      -0.100258        -2.7282
 306   0.0000      -0.094857        -2.5812
 307   0.0000      -0.082389        -2.2419
 308   0.0000      -0.065137        -1.7725

MULLIKEN ATOMIC CHARGES
-----------------------
   0 C :    0.149761
   1 O :   -0.125342
   2 C :   -0.021094
   3 C :    0.041855
   4 C :   -0.009433
   5 C :   -0.023930
   6 C :   -0.016396
   7 C :   -0.013865
   8 Br:    0.021735
   9 Br:    0.027424
  10 C :    0.294254
  11 C :   -0.324708
  12 C :   -0.188796
  13 N :    0.168550
  14 C :   -0.196489
  15 N :    0.172953
  16 C :   -0.074707
  17 C :   -0.027899
  18 C :   -0.025155
  19 C :    0.215161
  20 F :   -0.154425
  21 C :    0.181831
  22 F :   -0.144584
  23 C :    0.022388
  24 C :    0.009380
  25 C :    0.009743
  26 N :   -0.265961
  27 S :    0.531942
  28 N :   -0.277251
  29 C :   -0.213400
  30 S :    0.228952
  31 C :    0.048150
  32 C :    0.175669
  33 O :   -0.149458
  34 N :   -0.306609
  35 C :    0.134122
  36 C :   -0.009174
  37 C :    0.220503
  38 O :   -0.178123
  39 C :   -0.009389
  40 C :   -0.165288
  41 C :    0.102571
  42 C :   -0.050838
  43 C :    0.030546
  44 C :    0.040932
  45 C :    0.036529
  46 O :   -0.116212
  47 S :    0.028771
  48 C :    0.031088
  49 O :   -0.115227
  50 C :    0.010615
  51 C :    0.043079
  52 C :   -0.066465
  53 C :   -0.073725
  54 C :    0.230406
  55 O :   -0.097125
  56 O :   -0.226870
  57 C :    0.235534
  58 O :   -0.108826
  59 C :   -0.042485
  60 C :    0.035290
  61 C :    0.075895
  62 N :   -0.263311
  63 C :    0.094937
  64 C :   -0.006723
  65 C :    0.163704
  66 O :   -0.207385
  67 C :   -0.067397
  68 C :   -0.029344
  69 C :    0.155651
  70 O :   -0.183977
  71 N :   -0.266103
  72 C :    0.094436
  73 C :    0.003858
  74 C :    0.122150
  75 C :   -0.040769
  76 C :    0.022528
  77 H :    0.008712
  78 H :    0.011303
  79 H :    0.052595
  80 H :    0.031949
  81 H :    0.033432
  82 H :    0.030126
  83 H :    0.023556
  84 H :    0.027248
  85 H :   -0.010662
  86 H :    0.051276
  87 H :    0.019306
  88 H :    0.011635
  89 H :    0.037738
  90 H :    0.044657
  91 H :    0.029761
  92 H :    0.021404
  93 H :    0.024002
  94 H :    0.025830
  95 H :    0.045406
  96 H :    0.016240
  97 H :    0.024683
  98 H :    0.032214
  99 H :   -0.016083
 100 H :    0.060784
 101 H :    0.034252
Sum of atomic charges:   -0.0000000

LOEWDIN ATOMIC CHARGES
----------------------
   0 C :    0.082273
   1 O :   -0.117916
   2 C :   -0.041138
   3 C :   -0.012151
   4 C :   -0.006058
   5 C :   -0.117298
   6 C :   -0.121085
   7 C :    0.009690
   8 Br:    0.143656
   9 Br:    0.145799
  10 C :    0.071337
  11 C :   -0.120134
  12 C :   -0.019297
  13 N :   -0.036313
  14 C :   -0.021874
  15 N :   -0.034658
  16 C :   -0.073642
  17 C :    0.083139
  18 C :   -0.065761
  19 C :    0.100827
  20 F :   -0.026321
  21 C :    0.083370
  22 F :   -0.022210
  23 C :   -0.059108
  24 C :   -0.051904
  25 C :   -0.041768
  26 N :   -0.283017
  27 S :    0.662806
  28 N :   -0.290630
  29 C :   -0.143148
  30 S :    0.508402
  31 C :   -0.076959
  32 C :    0.086178
  33 O :   -0.149389
  34 N :   -0.029166
  35 C :    0.043850
  36 C :   -0.059306
  37 C :    0.096282
  38 O :   -0.159848
  39 C :   -0.091354
  40 C :   -0.131323
  41 C :   -0.014868
  42 C :   -0.006754
  43 C :    0.025240
  44 C :   -0.044936
  45 C :   -0.044509
  46 O :   -0.098411
  47 S :    0.310754
  48 C :   -0.045992
  49 O :   -0.106676
  50 C :   -0.052724
  51 C :    0.030489
  52 C :   -0.046918
  53 C :   -0.045503
  54 C :    0.109145
  55 O :   -0.093511
  56 O :   -0.053445
  57 C :    0.108150
  58 O :   -0.102394
  59 C :   -0.032167
  60 C :    0.018835
  61 C :    0.061167
  62 N :   -0.001096
  63 C :    0.035062
  64 C :   -0.063118
  65 C :    0.082172
  66 O :   -0.199046
  67 C :   -0.131902
  68 C :   -0.098007
  69 C :    0.083764
  70 O :   -0.184890
  71 N :   -0.002838
  72 C :    0.036056
  73 C :   -0.060849
  74 C :    0.094887
  75 C :   -0.056270
  76 C :    0.037221
  77 H :    0.045031
  78 H :    0.048465
  79 H :    0.052382
  80 H :    0.031998
  81 H :    0.032738
  82 H :    0.029423
  83 H :    0.030574
  84 H :    0.028658
  85 H :    0.028403
  86 H :    0.039216
  87 H :    0.034681
  88 H :    0.043875
  89 H :    0.024771
  90 H :    0.037596
  91 H :    0.024118
  92 H :    0.030618
  93 H :    0.030821
  94 H :    0.023699
  95 H :    0.038246
  96 H :    0.022545
  97 H :    0.031239
  98 H :    0.033114
  99 H :    0.030587
 100 H :    0.034666
 101 H :    0.031590

  Mayer bond orders larger than 0.100000
B(  0-C ,  1-O ) :   2.2386 B(  0-C ,  2-C ) :   0.9487 B(  0-C , 16-C ) :   0.9253
B(  2-C ,  3-C ) :   1.3261 B(  2-C ,  7-C ) :   1.3691 B(  3-C ,  4-C ) :   1.3574
B(  3-C , 10-C ) :   1.0040 B(  4-C ,  5-C ) :   1.3774 B(  4-C , 77-H ) :   0.9798
B(  5-C ,  6-C ) :   1.4137 B(  5-C ,  9-Br) :   1.0610 B(  6-C ,  7-C ) :   1.3552
B(  6-C ,  8-Br) :   1.0387 B(  7-C , 78-H ) :   1.0083 B( 10-C , 11-C ) :   1.6766
B( 10-C , 16-C ) :   1.0392 B( 11-C , 12-C ) :   1.1353 B( 11-C , 14-C ) :   1.1404
B( 12-C , 13-N ) :   2.9765 B( 14-C , 15-N ) :   2.9854 B( 16-C , 17-C ) :   1.7055
B( 17-C , 18-C ) :   1.0685 B( 17-C , 79-H ) :   0.9378 B( 18-C , 19-C ) :   1.4051
B( 18-C , 23-C ) :   0.1239 B( 18-C , 25-C ) :   1.1820 B( 19-C , 20-F ) :   1.1628
B( 19-C , 21-C ) :   1.1173 B( 21-C , 22-F ) :   1.1915 B( 21-C , 23-C ) :   1.4244
B( 23-C , 24-C ) :   1.1816 B( 23-C , 29-C ) :   1.0457 B( 24-C , 25-C ) :   1.1542
B( 24-C , 28-N ) :   1.5473 B( 25-C , 26-N ) :   1.5727 B( 26-N , 27-S ) :   1.2640
B( 26-N , 28-N ) :   0.1444 B( 27-S , 28-N ) :   1.2658 B( 29-C , 30-S ) :   1.1624
B( 29-C , 31-C ) :   1.5506 B( 30-S , 40-C ) :   1.1365 B( 31-C , 32-C ) :   0.8770
B( 31-C , 39-C ) :   1.2734 B( 32-C , 33-O ) :   2.2031 B( 32-C , 34-N ) :   1.0633
B( 34-N , 35-C ) :   0.9169 B( 34-N , 37-C ) :   1.0962 B( 35-C , 36-C ) :   1.1268
B( 35-C , 80-H ) :   0.9413 B( 35-C , 81-H ) :   0.9393 B( 36-C , 82-H ) :   0.9692
B( 36-C , 83-H ) :   0.9707 B( 36-C , 84-H ) :   0.9689 B( 37-C , 38-O ) :   2.0832
B( 37-C , 39-C ) :   0.8964 B( 38-O , 86-H ) :   0.1031 B( 39-C , 40-C ) :   1.4985
B( 40-C , 41-C ) :   1.1378 B( 41-C , 42-C ) :   1.7360 B( 41-C , 85-H ) :   0.9459
B( 42-C , 43-C ) :   1.0958 B( 42-C , 86-H ) :   0.9050 B( 43-C , 44-C ) :   1.3502
B( 43-C , 53-C ) :   1.3388 B( 44-C , 45-C ) :   0.8457 B( 44-C , 50-C ) :   1.3407
B( 45-C , 46-O ) :   2.1710 B( 45-C , 47-S ) :   1.0308 B( 46-O , 47-S ) :   0.1068
B( 47-S , 48-C ) :   1.0270 B( 47-S , 49-O ) :   0.1071 B( 48-C , 49-O ) :   2.1939
B( 48-C , 50-C ) :   0.8402 B( 50-C , 51-C ) :   1.3258 B( 51-C , 52-C ) :   1.3352
B( 51-C , 59-C ) :   1.1120 B( 52-C , 53-C ) :   1.3522 B( 52-C , 57-C ) :   0.9167
B( 53-C , 54-C ) :   0.8992 B( 54-C , 55-O ) :   2.2534 B( 54-C , 56-O ) :   1.0534
B( 56-O , 57-C ) :   1.0609 B( 57-C , 58-O ) :   2.2266 B( 59-C , 60-C ) :   1.6071
B( 59-C , 87-H ) :   0.9493 B( 60-C , 61-C ) :   1.2115 B( 60-C , 88-H ) :   0.9365
B( 61-C , 62-N ) :   1.1643 B( 61-C , 68-C ) :   1.3758 B( 62-N , 63-C ) :   0.9391
B( 62-N , 65-C ) :   1.0564 B( 63-C , 64-C ) :   1.1155 B( 63-C , 89-H ) :   0.9503
B( 63-C , 90-H ) :   0.9231 B( 64-C , 91-H ) :   0.9672 B( 64-C , 92-H ) :   0.9674
B( 64-C , 93-H ) :   0.9621 B( 65-C , 66-O ) :   2.0428 B( 65-C , 67-C ) :   0.9877
B( 67-C , 68-C ) :   1.2352 B( 67-C , 74-C ) :   1.3531 B( 68-C , 69-C ) :   0.9681
B( 69-C , 70-O ) :   2.1344 B( 69-C , 71-N ) :   1.0271 B( 71-N , 72-C ) :   0.9441
B( 71-N , 74-C ) :   1.1823 B( 72-C , 73-C ) :   1.1197 B( 72-C , 94-H ) :   0.9508
B( 72-C , 95-H ) :   0.9285 B( 73-C , 96-H ) :   0.9688 B( 73-C , 97-H ) :   0.9680
B( 73-C , 98-H ) :   0.9640 B( 74-C , 75-C ) :   1.1291 B( 75-C , 76-C ) :   1.8804
B( 75-C , 99-H ) :   0.9549 B( 76-C ,100-H ) :   0.9262 B( 76-C ,101-H ) :   0.9449

-----------------------------------------------------------------------------
         ABSORPTION SPECTRUM VIA TRANSITION ELECTRIC DIPOLE MOMENTS
-----------------------------------------------------------------------------
State   Energy  Wavelength   fosc         T2         TX        TY        TZ
        (cm-1)    (nm)                  (au**2)     (au)      (au)      (au)
-----------------------------------------------------------------------------
   0   15704.5    636.8   0.122645745   2.57101  -0.02150   0.55105  -1.50562
   1   17234.6    580.2   0.808624471  15.44617  -1.20246   2.22977  -3.00473
   2   21004.4    476.1   0.814644526  12.76828  -0.31386  -2.72846   2.28588
   3   22418.9    446.1   0.022695938   0.33328   0.43194  -0.37239  -0.08965
   4   23652.9    422.8   0.149919640   2.08665   0.38493  -0.94809   1.01961
   5   25644.8    389.9   0.322758400   4.14338  -1.12483  -1.39268   0.96880
   6   26446.5    378.1   0.072873337   0.90714   0.33813  -0.56802   0.68569
   7   27061.5    369.5   0.000799919   0.00973  -0.08775  -0.02412   0.03808
   8   27295.2    366.4   0.005161383   0.06225   0.19137  -0.13921   0.07906
   9   27396.4    365.0   0.033831055   0.40653  -0.24348  -0.40680   0.42634
  10   27835.0    359.3   0.002577394   0.03048   0.07621  -0.14382  -0.06317
  11   28894.9    346.1   0.127203861   1.44929   0.94825   0.42589   0.60723
  12   28967.8    345.2   0.000939074   0.01067   0.02370   0.10003   0.01019
  13   29620.1    337.6   0.017553794   0.19510  -0.43861  -0.05003   0.01496
  14   30297.2    330.1   0.007272567   0.07902   0.24550   0.10131   0.09215
  15   30529.8    327.5   0.039632199   0.42737  -0.09007   0.64728   0.01681
  16   30937.9    323.2   0.121471733   1.29259   0.79870   0.58961  -0.55410
  17   31014.0    322.4   0.049278712   0.52309  -0.43823  -0.51333   0.25988
  18   31839.6    314.1   0.012112143   0.12524   0.05112  -0.28048   0.20965
  19   32150.6    311.0   0.012145646   0.12437   0.09576   0.22359   0.25535
  20   32532.7    307.4   0.090859747   0.91945  -0.86055   0.39464   0.15218
  21   32660.3    306.2   0.005494749   0.05539   0.12463   0.07815  -0.18370
  22   32839.1    304.5   0.012921016   0.12953  -0.30775   0.00204  -0.18660
  23   32868.5    304.2   0.058876295   0.58971   0.59762   0.44878  -0.17650
  24   32905.9    303.9   0.008666453   0.08670  -0.00080   0.06915  -0.28622
  25   33128.4    301.9   0.012002695   0.11928   0.15556  -0.14105  -0.27420
  26   33238.3    300.9   0.041182279   0.40789  -0.20203  -0.57848  -0.18012
  27   34054.8    293.6   0.147592448   1.42680   0.42584   0.86150  -0.70942
  28   34256.4    291.9   0.035909980   0.34510  -0.47861  -0.08035  -0.33102
  29   34469.4    290.1   0.273522132   2.61237  -1.27255  -0.12397  -0.98875
  30   34589.4    289.1   0.097520555   0.92817   0.13127  -0.26058   0.91817
  31   34703.0    288.2   0.264433658   2.50857   1.43758   0.52339   0.40988
  32   35033.5    285.4   0.030264933   0.28440   0.19007   0.36926  -0.33455
  33   35316.8    283.2   0.188499592   1.75713  -0.74753   0.42282  -1.00973
  34   35834.4    279.1   0.013977086   0.12841   0.19241  -0.27347   0.12885
  35   36187.2    276.3   0.112400923   1.02256   0.05168  -0.58190   0.82540
  36   36347.7    275.1   0.011832024   0.10717  -0.04728  -0.24458   0.21239
  37   36462.2    274.3   0.039182710   0.35378  -0.39869  -0.39094   0.20492
  38   36562.8    273.5   0.012499422   0.11255   0.06814   0.25442  -0.20778
  39   36629.9    273.0   0.029120366   0.26172   0.03029   0.43603  -0.26585
  40   36967.8    270.5   0.060427761   0.53813  -0.52181   0.05038  -0.51314
  41   37073.0    269.7   0.006928811   0.06153   0.08821   0.19016  -0.13262
  42   37095.1    269.6   0.033913799   0.30098  -0.00653  -0.36049   0.41350
  43   37129.9    269.3   0.003552218   0.03150   0.10267   0.09910  -0.10553
  44   37329.5    267.9   0.014946851   0.13182   0.26463   0.20199  -0.14488
  45   37542.9    266.4   0.049911957   0.43768  -0.31502   0.52905  -0.24195
  46   37914.9    263.7   0.004613891   0.04006   0.09563  -0.03352  -0.17261
  47   38160.5    262.1   0.105019071   0.90600   0.19681   0.70052  -0.61363
  48   38232.0    261.6   0.131168333   1.12948   0.77262  -0.23118  -0.69217
  49   38426.9    260.2   0.012585399   0.10782   0.29729  -0.07768   0.11579
  50   38549.0    259.4   0.030185347   0.25779   0.43528   0.26032  -0.02349
  51   39327.2    254.3   0.017613947   0.14745  -0.35010   0.00265  -0.15771
  52   39347.1    254.1   0.082198633   0.68775  -0.81485   0.12700  -0.08739
  53   39594.8    252.6   0.059026175   0.49077  -0.47114  -0.25121   0.45354
  54   39663.4    252.1   0.082816415   0.68739  -0.04980  -0.57762   0.59268
  55   39892.0    250.7   0.011237244   0.09274  -0.08950   0.09310  -0.27579
  56   40286.3    248.2   0.001525898   0.01247  -0.03323  -0.04137   0.09825

FINAL SINGLE POINT ENERGY     -9707.941656729279

DIPOLE MOMENT
-------------
                                X             Y             Z
Electronic contribution:     57.95097     312.70316    -255.13424
Nuclear contribution   :    -56.84188    -313.69887     257.08301
                        -----------------------------------------
Total Dipole Moment    :      1.10910      -0.99571       1.94877
                        -----------------------------------------
Magnitude (a.u.)       :      2.45342
Magnitude (Debye)      :      6.23609

Rotational constants in cm-1:     0.001886     0.000166     0.000158
Rotational constants in MHz :    56.526729     4.975142     4.746575

                             ****ORCA TERMINATED NORMALLY****
TOTAL RUN TIME: 0 days 0 hours 10 minutes 30 seconds 663 msec
