                         Program Version 4.2.0 -  RELEASE  -
|  1> # ORCA input file
|  2> # SCF done       -194.251752234781          0.000845693582
|  3> ! CAM-B3LYP def2-SVP def2/J RIJCOSX Grid4 TightSCF
|  4> %maxcore 5000
|  5> %tddft
|  6>     Mode sTDDFT
|  7>     Ethresh 5.0
|  8>     maxcore 5000
|  9> end
| 10>
| 11> %pal
| 12>   nprocs 6
| 13>   end
| 14> * xyz 0 1
| 15>    C        0.30562         1.71142        -3.67988
| 16>    C       -0.88010         2.37274        -3.76789
| 17>    S       -2.20581         1.26951        -3.82943
| 18>    C       -1.14185        -0.11540        -3.73641
| 19>   Cl       -1.74733        -1.69643        -3.73970
| 20>    C        0.15744         0.28778        -3.66040
| 21>    C        1.47316        -0.35588        -3.56434
| 22>    O        1.71094        -1.54028        -3.57130
| 23>    C        2.44787         0.78052        -3.54127
| 24>    C        1.71450         2.03688        -3.59280
| 25>    C        2.21188         3.31202        -3.51850
| 26>    C        1.35785         4.43429        -3.56588
| 27>    N        0.68020         5.35908        -3.60833
| 28>    C        3.56726         3.66975        -3.37708
| 29>    N        4.64911         4.03493        -3.25412
| 30>    C        3.80600         0.67844        -3.62771
| 31>    C        4.63108        -0.46514        -3.48196
| 32>    C        4.41115        -1.65406        -2.81943
| 33>    C        5.57363        -2.47279        -2.93828
| 34>    C        6.55727        -1.69313        -3.70733
| 35>    C        5.99678        -0.49147        -3.99890
| 36>    C        7.87674        -2.06067        -4.00369
| 37>    N        8.97460        -2.30451        -4.23448
| 38>    C        5.74636        -3.74652        -2.44561
| 39>    C        6.81600        -4.63715        -2.72344
| 40>    C        6.64018        -5.80406        -2.00333
| 41>    C        5.41226        -5.66260        -1.22794
| 42>    C        4.85737        -4.45473        -1.50557
| 43>    C        3.68117        -3.96634        -0.92246
| 44>    N        2.72855        -3.59888        -0.39731
| 45>    C        7.52987        -6.90643        -2.08459
| 46>    N        7.67571        -7.94487        -1.19622
| 47>    C        7.04351        -8.11720         0.09164
| 48>    C        7.44386        -7.02859         1.08175
| 49>    C        8.68784        -8.83781        -1.59781
| 50>    O        9.01001        -9.81740        -0.95614
| 51>    C        9.16337        -8.30752        -2.85512
| 52>    C        8.44361        -7.12217        -3.12197
| 53>    C        8.87337        -6.61991        -4.41244
| 54>    O        8.53277        -5.67143        -5.08147
| 55>    N        9.86847        -7.53573        -4.82178
| 56>    C       10.53750        -7.37667        -6.09029
| 57>    C        9.94850        -8.29236        -7.16068
| 58>    C       10.04711        -8.54393        -3.91263
| 59>    C       10.99122        -9.59251        -4.07478
| 60>    C       11.16726       -10.56312        -3.14777
| 61>    C       12.12086       -11.63869        -3.23093
| 62>    C       12.34292       -12.42811        -2.10032
| 63>    C       13.28017       -13.44673        -2.10735
| 64>    N       13.46847       -14.14846        -0.86307
| 65>    O       12.53683       -14.17016        -0.09176
| 66>    O       14.54592       -14.67211        -0.64901
| 67>    C       14.02824       -13.75377        -3.26216
| 68>    C       13.76394       -12.97774        -4.39904
| 69>    C       12.85485       -11.94797        -4.38693
| 70>    C       14.99961       -14.82189        -3.29339
| 71>    C       16.04890       -14.88128        -4.13361
| 72>    C       17.01427       -15.94010        -4.10356
| 73>    C       17.53284       -16.56585        -3.02326
| 74>    C       18.25502       -17.86867        -3.22000
| 75>    O       18.61009       -18.33210        -4.27618
| 76>    C       18.36108       -18.43223        -1.87268
| 77>    C       18.79088       -19.59482        -1.30320
| 78>    S       18.58475       -19.53951         0.43021
| 79>    C       17.93126       -17.94301         0.36773
| 80>    C       17.87138       -17.48679        -0.91131
| 81>    C       17.47571       -16.26906        -1.59529
| 82>    C       17.31728       -15.06103        -0.97884
| 83>    C       17.41338       -14.93560         0.42494
| 84>    N       17.51096       -14.81782         1.56110
| 85>    C       17.11936       -13.82638        -1.62631
| 86>    N       16.99429       -12.78702        -2.09670
| 87>   Cl       19.44441       -20.95505        -2.07238
| 88>    H       -1.07168         3.42669        -3.80510
| 89>    H        4.35363         1.58601        -3.85780
| 90>    H        3.51756        -1.94350        -2.30516
| 91>    H        6.45949         0.31896        -4.53183
| 92>    H        7.61812        -4.43335        -3.40416
| 93>    H        4.98554        -6.39976        -0.57578
| 94>    H        7.38922        -9.09002         0.45458
| 95>    H        5.95830        -8.16581        -0.02808
| 96>    H        8.52288        -7.02579         1.21634
| 97>    H        6.97530        -7.22003         2.04302
| 98>    H        7.13578        -6.04453         0.73496
| 99>    H       11.60860        -7.55665        -5.96468
|100>    H       10.38837        -6.33296        -6.38055
|101>    H       10.03374        -9.33864        -6.87424
|102>    H       10.47128        -8.14159        -8.10096
|103>    H        8.89689        -8.05990        -7.30818
|104>    H       11.59204        -9.57267        -4.97194
|105>    H       10.56594       -10.53880        -2.24827
|106>    H       11.79676       -12.23168        -1.18876
|107>    H       14.28126       -13.21068        -5.31610
|108>    H       12.69583       -11.38398        -5.29245
|109>    H       14.88968       -15.61386        -2.56532
|110>    H       16.18925       -14.13223        -4.90111
|111>    H       17.35314       -16.31617        -5.06495
|112>    H       17.62786       -17.46041         1.27532
|113> *
|114>
|115>                          ****END OF INPUT****

CARTESIAN COORDINATES (ANGSTROEM)
---------------------------------
  C      0.305620    1.711420   -3.679880
  C     -0.880100    2.372740   -3.767890
  S     -2.205810    1.269510   -3.829430
  C     -1.141850   -0.115400   -3.736410
  Cl    -1.747330   -1.696430   -3.739700
  C      0.157440    0.287780   -3.660400
  C      1.473160   -0.355880   -3.564340
  O      1.710940   -1.540280   -3.571300
  C      2.447870    0.780520   -3.541270
  C      1.714500    2.036880   -3.592800
  C      2.211880    3.312020   -3.518500
  C      1.357850    4.434290   -3.565880
  N      0.680200    5.359080   -3.608330
  C      3.567260    3.669750   -3.377080
  N      4.649110    4.034930   -3.254120
  C      3.806000    0.678440   -3.627710
  C      4.631080   -0.465140   -3.481960
  C      4.411150   -1.654060   -2.819430
  C      5.573630   -2.472790   -2.938280
  C      6.557270   -1.693130   -3.707330
  C      5.996780   -0.491470   -3.998900
  C      7.876740   -2.060670   -4.003690
  N      8.974600   -2.304510   -4.234480
  C      5.746360   -3.746520   -2.445610
  C      6.816000   -4.637150   -2.723440
  C      6.640180   -5.804060   -2.003330
  C      5.412260   -5.662600   -1.227940
  C      4.857370   -4.454730   -1.505570
  C      3.681170   -3.966340   -0.922460
  N      2.728550   -3.598880   -0.397310
  C      7.529870   -6.906430   -2.084590
  N      7.675710   -7.944870   -1.196220
  C      7.043510   -8.117200    0.091640
  C      7.443860   -7.028590    1.081750
  C      8.687840   -8.837810   -1.597810
  O      9.010010   -9.817400   -0.956140
  C      9.163370   -8.307520   -2.855120
  C      8.443610   -7.122170   -3.121970
  C      8.873370   -6.619910   -4.412440
  O      8.532770   -5.671430   -5.081470
  N      9.868470   -7.535730   -4.821780
  C     10.537500   -7.376670   -6.090290
  C      9.948500   -8.292360   -7.160680
  C     10.047110   -8.543930   -3.912630
  C     10.991220   -9.592510   -4.074780
  C     11.167260  -10.563120   -3.147770
  C     12.120860  -11.638690   -3.230930
  C     12.342920  -12.428110   -2.100320
  C     13.280170  -13.446730   -2.107350
  N     13.468470  -14.148460   -0.863070
  O     12.536830  -14.170160   -0.091760
  O     14.545920  -14.672110   -0.649010
  C     14.028240  -13.753770   -3.262160
  C     13.763940  -12.977740   -4.399040
  C     12.854850  -11.947970   -4.386930
  C     14.999610  -14.821890   -3.293390
  C     16.048900  -14.881280   -4.133610
  C     17.014270  -15.940100   -4.103560
  C     17.532840  -16.565850   -3.023260
  C     18.255020  -17.868670   -3.220000
  O     18.610090  -18.332100   -4.276180
  C     18.361080  -18.432230   -1.872680
  C     18.790880  -19.594820   -1.303200
  S     18.584750  -19.539510    0.430210
  C     17.931260  -17.943010    0.367730
  C     17.871380  -17.486790   -0.911310
  C     17.475710  -16.269060   -1.595290
  C     17.317280  -15.061030   -0.978840
  C     17.413380  -14.935600    0.424940
  N     17.510960  -14.817820    1.561100
  C     17.119360  -13.826380   -1.626310
  N     16.994290  -12.787020   -2.096700
  Cl    19.444410  -20.955050   -2.072380
  H     -1.071680    3.426690   -3.805100
  H      4.353630    1.586010   -3.857800
  H      3.517560   -1.943500   -2.305160
  H      6.459490    0.318960   -4.531830
  H      7.618120   -4.433350   -3.404160
  H      4.985540   -6.399760   -0.575780
  H      7.389220   -9.090020    0.454580
  H      5.958300   -8.165810   -0.028080
  H      8.522880   -7.025790    1.216340
  H      6.975300   -7.220030    2.043020
  H      7.135780   -6.044530    0.734960
  H     11.608600   -7.556650   -5.964680
  H     10.388370   -6.332960   -6.380550
  H     10.033740   -9.338640   -6.874240
  H     10.471280   -8.141590   -8.100960
  H      8.896890   -8.059900   -7.308180
  H     11.592040   -9.572670   -4.971940
  H     10.565940  -10.538800   -2.248270
  H     11.796760  -12.231680   -1.188760
  H     14.281260  -13.210680   -5.316100
  H     12.695830  -11.383980   -5.292450
  H     14.889680  -15.613860   -2.565320
  H     16.189250  -14.132230   -4.901110
  H     17.353140  -16.316170   -5.064950
  H     17.627860  -17.460410    1.275320

 Total Charge           Charge          ....    0
 Multiplicity           Mult            ....    1
 Number of Electrons    NEL             ....  526
 Basis Dimension        Dim             .... 1163

ORBITAL ENERGIES
----------------

  NO   OCC          E(Eh)            E(eV)
   0   2.0000    -101.618012     -2765.1667
   1   2.0000    -101.616676     -2765.1303
   2   2.0000     -88.994139     -2421.6536
   3   2.0000     -88.993243     -2421.6292
   4   2.0000     -19.260030      -524.0921
   5   2.0000     -19.259505      -524.0778
   6   2.0000     -19.223157      -523.0887
   7   2.0000     -19.222021      -523.0578
   8   2.0000     -19.208851      -522.6994
   9   2.0000     -19.202617      -522.5298
  10   2.0000     -14.664920      -399.0528
  11   2.0000     -14.468982      -393.7210
  12   2.0000     -14.467569      -393.6826
  13   2.0000     -14.423023      -392.4704
  14   2.0000     -14.421017      -392.4158
  15   2.0000     -14.418419      -392.3451
  16   2.0000     -14.417076      -392.3086
  17   2.0000     -14.414142      -392.2287
  18   2.0000     -14.404179      -391.9576
  19   2.0000     -10.390209      -282.7320
  20   2.0000     -10.386046      -282.6187
  21   2.0000     -10.380431      -282.4659
  22   2.0000     -10.377938      -282.3981
  23   2.0000     -10.376797      -282.3670
  24   2.0000     -10.376272      -282.3527
  25   2.0000     -10.359388      -281.8933
  26   2.0000     -10.353245      -281.7261
  27   2.0000     -10.350531      -281.6523
  28   2.0000     -10.349760      -281.6313
  29   2.0000     -10.348680      -281.6019
  30   2.0000     -10.347733      -281.5761
  31   2.0000     -10.347325      -281.5650
  32   2.0000     -10.332582      -281.1638
  33   2.0000     -10.330341      -281.1029
  34   2.0000     -10.329816      -281.0886
  35   2.0000     -10.327718      -281.0315
  36   2.0000     -10.327703      -281.0311
  37   2.0000     -10.326271      -280.9921
  38   2.0000     -10.326068      -280.9866
  39   2.0000     -10.325228      -280.9637
  40   2.0000     -10.323119      -280.9064
  41   2.0000     -10.322109      -280.8789
  42   2.0000     -10.321922      -280.8738
  43   2.0000     -10.321019      -280.8492
  44   2.0000     -10.320295      -280.8295
  45   2.0000     -10.318904      -280.7917
  46   2.0000     -10.318694      -280.7859
  47   2.0000     -10.318270      -280.7744
  48   2.0000     -10.315433      -280.6972
  49   2.0000     -10.315350      -280.6950
  50   2.0000     -10.314891      -280.6825
  51   2.0000     -10.313235      -280.6374
  52   2.0000     -10.312830      -280.6264
  53   2.0000     -10.312755      -280.6243
  54   2.0000     -10.312416      -280.6151
  55   2.0000     -10.312252      -280.6106
  56   2.0000     -10.310650      -280.5671
  57   2.0000     -10.310130      -280.5529
  58   2.0000     -10.310020      -280.5499
  59   2.0000     -10.309003      -280.5222
  60   2.0000     -10.308780      -280.5162
  61   2.0000     -10.307456      -280.4801
  62   2.0000     -10.306781      -280.4618
  63   2.0000     -10.306683      -280.4591
  64   2.0000     -10.305690      -280.4321
  65   2.0000     -10.300890      -280.3015
  66   2.0000     -10.300058      -280.2788
  67   2.0000     -10.299664      -280.2681
  68   2.0000     -10.290412      -280.0163
  69   2.0000     -10.281626      -279.7773
  70   2.0000     -10.275650      -279.6147
  71   2.0000     -10.275470      -279.6097
  72   2.0000     -10.273361      -279.5524
  73   2.0000      -9.572844      -260.4903
  74   2.0000      -9.571471      -260.4530
  75   2.0000      -8.089731      -220.1328
  76   2.0000      -8.088976      -220.1122
  77   2.0000      -7.343472      -199.8260
  78   2.0000      -7.342129      -199.7895
  79   2.0000      -7.332880      -199.5378
  80   2.0000      -7.332336      -199.5230
  81   2.0000      -7.331487      -199.4999
  82   2.0000      -7.330955      -199.4854
  83   2.0000      -6.059114      -164.8769
  84   2.0000      -6.058334      -164.8556
  85   2.0000      -6.054491      -164.7511
  86   2.0000      -6.053757      -164.7311
  87   2.0000      -6.052038      -164.6843
  88   2.0000      -6.051239      -164.6626
  89   2.0000      -1.340549       -36.4782
  90   2.0000      -1.158818       -31.5330
  91   2.0000      -1.149758       -31.2865
  92   2.0000      -1.141702       -31.0673
  93   2.0000      -1.140772       -31.0420
  94   2.0000      -1.138975       -30.9931
  95   2.0000      -1.079635       -29.3784
  96   2.0000      -1.070193       -29.1214
  97   2.0000      -1.038867       -28.2690
  98   2.0000      -1.038194       -28.2507
  99   2.0000      -1.022156       -27.8143
 100   2.0000      -1.019079       -27.7305
 101   2.0000      -1.016061       -27.6484
 102   2.0000      -1.007007       -27.4021
 103   2.0000      -1.003809       -27.3150
 104   2.0000      -1.000486       -27.2246
 105   2.0000      -0.996287       -27.1103
 106   2.0000      -0.989841       -26.9349
 107   2.0000      -0.988764       -26.9056
 108   2.0000      -0.988229       -26.8911
 109   2.0000      -0.981462       -26.7069
 110   2.0000      -0.957147       -26.0453
 111   2.0000      -0.955079       -25.9890
 112   2.0000      -0.946620       -25.7589
 113   2.0000      -0.940827       -25.6012
 114   2.0000      -0.927622       -25.2419
 115   2.0000      -0.912957       -24.8428
 116   2.0000      -0.909470       -24.7479
 117   2.0000      -0.905040       -24.6274
 118   2.0000      -0.900733       -24.5102
 119   2.0000      -0.892548       -24.2875
 120   2.0000      -0.883495       -24.0411
 121   2.0000      -0.878612       -23.9083
 122   2.0000      -0.862781       -23.4775
 123   2.0000      -0.849174       -23.1072
 124   2.0000      -0.843935       -22.9646
 125   2.0000      -0.833377       -22.6773
 126   2.0000      -0.833338       -22.6763
 127   2.0000      -0.832449       -22.6521
 128   2.0000      -0.821793       -22.3621
 129   2.0000      -0.809840       -22.0369
 130   2.0000      -0.807756       -21.9802
 131   2.0000      -0.791297       -21.5323
 132   2.0000      -0.776718       -21.1356
 133   2.0000      -0.772967       -21.0335
 134   2.0000      -0.767811       -20.8932
 135   2.0000      -0.755849       -20.5677
 136   2.0000      -0.753809       -20.5122
 137   2.0000      -0.739323       -20.1180
 138   2.0000      -0.728982       -19.8366
 139   2.0000      -0.723169       -19.6784
 140   2.0000      -0.720010       -19.5925
 141   2.0000      -0.709952       -19.3188
 142   2.0000      -0.704689       -19.1755
 143   2.0000      -0.700563       -19.0633
 144   2.0000      -0.691726       -18.8228
 145   2.0000      -0.686753       -18.6875
 146   2.0000      -0.680332       -18.5128
 147   2.0000      -0.678130       -18.4529
 148   2.0000      -0.675877       -18.3916
 149   2.0000      -0.673986       -18.3401
 150   2.0000      -0.666815       -18.1449
 151   2.0000      -0.661174       -17.9915
 152   2.0000      -0.651116       -17.7178
 153   2.0000      -0.649573       -17.6758
 154   2.0000      -0.636714       -17.3259
 155   2.0000      -0.634658       -17.2699
 156   2.0000      -0.632633       -17.2148
 157   2.0000      -0.624363       -16.9898
 158   2.0000      -0.618887       -16.8408
 159   2.0000      -0.616457       -16.7746
 160   2.0000      -0.613033       -16.6815
 161   2.0000      -0.611126       -16.6296
 162   2.0000      -0.605729       -16.4827
 163   2.0000      -0.604307       -16.4440
 164   2.0000      -0.599355       -16.3093
 165   2.0000      -0.588050       -16.0017
 166   2.0000      -0.582954       -15.8630
 167   2.0000      -0.580375       -15.7928
 168   2.0000      -0.576084       -15.6760
 169   2.0000      -0.573516       -15.6062
 170   2.0000      -0.566144       -15.4056
 171   2.0000      -0.563493       -15.3334
 172   2.0000      -0.552654       -15.0385
 173   2.0000      -0.551952       -15.0194
 174   2.0000      -0.549617       -14.9558
 175   2.0000      -0.547962       -14.9108
 176   2.0000      -0.546048       -14.8587
 177   2.0000      -0.545189       -14.8354
 178   2.0000      -0.542662       -14.7666
 179   2.0000      -0.542069       -14.7504
 180   2.0000      -0.538728       -14.6595
 181   2.0000      -0.534526       -14.5452
 182   2.0000      -0.532991       -14.5034
 183   2.0000      -0.532072       -14.4784
 184   2.0000      -0.530846       -14.4450
 185   2.0000      -0.525661       -14.3040
 186   2.0000      -0.525013       -14.2863
 187   2.0000      -0.523810       -14.2536
 188   2.0000      -0.518078       -14.0976
 189   2.0000      -0.514566       -14.0021
 190   2.0000      -0.512174       -13.9370
 191   2.0000      -0.507108       -13.7991
 192   2.0000      -0.506500       -13.7826
 193   2.0000      -0.505309       -13.7502
 194   2.0000      -0.502414       -13.6714
 195   2.0000      -0.499342       -13.5878
 196   2.0000      -0.497576       -13.5397
 197   2.0000      -0.496423       -13.5084
 198   2.0000      -0.495828       -13.4922
 199   2.0000      -0.495020       -13.4702
 200   2.0000      -0.492900       -13.4125
 201   2.0000      -0.487740       -13.2721
 202   2.0000      -0.487018       -13.2524
 203   2.0000      -0.485690       -13.2163
 204   2.0000      -0.484455       -13.1827
 205   2.0000      -0.480290       -13.0694
 206   2.0000      -0.479218       -13.0402
 207   2.0000      -0.474783       -12.9195
 208   2.0000      -0.471292       -12.8245
 209   2.0000      -0.468525       -12.7492
 210   2.0000      -0.466021       -12.6811
 211   2.0000      -0.463739       -12.6190
 212   2.0000      -0.458222       -12.4689
 213   2.0000      -0.455902       -12.4057
 214   2.0000      -0.455091       -12.3836
 215   2.0000      -0.454441       -12.3660
 216   2.0000      -0.453104       -12.3296
 217   2.0000      -0.451979       -12.2990
 218   2.0000      -0.449066       -12.2197
 219   2.0000      -0.448468       -12.2034
 220   2.0000      -0.446588       -12.1523
 221   2.0000      -0.445295       -12.1171
 222   2.0000      -0.444852       -12.1050
 223   2.0000      -0.442916       -12.0524
 224   2.0000      -0.440703       -11.9921
 225   2.0000      -0.436628       -11.8812
 226   2.0000      -0.436301       -11.8724
 227   2.0000      -0.434699       -11.8288
 228   2.0000      -0.433870       -11.8062
 229   2.0000      -0.433192       -11.7878
 230   2.0000      -0.431959       -11.7542
 231   2.0000      -0.431558       -11.7433
 232   2.0000      -0.423604       -11.5268
 233   2.0000      -0.419922       -11.4267
 234   2.0000      -0.418173       -11.3791
 235   2.0000      -0.417343       -11.3565
 236   2.0000      -0.412183       -11.2161
 237   2.0000      -0.408634       -11.1195
 238   2.0000      -0.406299       -11.0560
 239   2.0000      -0.403562       -10.9815
 240   2.0000      -0.402828       -10.9615
 241   2.0000      -0.401064       -10.9135
 242   2.0000      -0.398955       -10.8561
 243   2.0000      -0.395654       -10.7663
 244   2.0000      -0.385565       -10.4918
 245   2.0000      -0.378596       -10.3021
 246   2.0000      -0.372020       -10.1232
 247   2.0000      -0.362262        -9.8576
 248   2.0000      -0.361078        -9.8254
 249   2.0000      -0.347172        -9.4470
 250   2.0000      -0.346036        -9.4161
 251   2.0000      -0.345776        -9.4090
 252   2.0000      -0.345697        -9.4069
 253   2.0000      -0.339607        -9.2412
 254   2.0000      -0.333521        -9.0756
 255   2.0000      -0.332660        -9.0521
 256   2.0000      -0.331097        -9.0096
 257   2.0000      -0.320956        -8.7337
 258   2.0000      -0.315527        -8.5859
 259   2.0000      -0.315176        -8.5764
 260   2.0000      -0.300372        -8.1735
 261   2.0000      -0.293660        -7.9909
 262   2.0000      -0.249673        -6.7939
 263   0.0000      -0.142327        -3.8729
 264   0.0000      -0.100497        -2.7347
 265   0.0000      -0.085091        -2.3154
 266   0.0000      -0.076972        -2.0945
 267   0.0000      -0.060503        -1.6464

MULLIKEN ATOMIC CHARGES
-----------------------
   0 C :    0.032046
   1 C :   -0.130121
   2 S :    0.186880
   3 C :   -0.167899
   4 Cl:    0.002767
   5 C :    0.073712
   6 C :    0.152420
   7 O :   -0.126212
   8 C :   -0.083281
   9 C :    0.290417
  10 C :   -0.328226
  11 C :   -0.195287
  12 N :    0.159750
  13 C :   -0.190207
  14 N :    0.163661
  15 C :   -0.029754
  16 C :    0.087642
  17 C :   -0.045908
  18 C :    0.070005
  19 C :   -0.081803
  20 C :   -0.007448
  21 C :   -0.178691
  22 N :    0.147481
  23 C :    0.137033
  24 C :   -0.112769
  25 C :    0.039231
  26 C :   -0.029997
  27 C :   -0.086432
  28 C :   -0.176739
  29 N :    0.151775
  30 C :    0.145629
  31 N :   -0.255000
  32 C :    0.095674
  33 C :   -0.008246
  34 C :    0.164678
  35 O :   -0.208457
  36 C :   -0.078932
  37 C :   -0.042339
  38 C :    0.155349
  39 O :   -0.172090
  40 N :   -0.258604
  41 C :    0.095477
  42 C :    0.002183
  43 C :    0.144872
  44 C :    0.001284
  45 C :    0.014969
  46 C :    0.101111
  47 C :   -0.060674
  48 C :    0.152186
  49 N :    0.257534
  50 O :   -0.212446
  51 O :   -0.246653
  52 C :    0.071570
  53 C :   -0.021839
  54 C :    0.024857
  55 C :    0.015599
  56 C :   -0.001686
  57 C :    0.027527
  58 C :   -0.124859
  59 C :    0.124397
  60 O :   -0.126253
  61 C :    0.093136
  62 C :   -0.172040
  63 S :    0.186645
  64 C :   -0.123623
  65 C :    0.009037
  66 C :    0.266665
  67 C :   -0.295724
  68 C :   -0.186835
  69 N :    0.160496
  70 C :   -0.182813
  71 N :    0.163317
  72 Cl:   -0.000407
  73 H :    0.055226
  74 H :    0.018356
  75 H :    0.024986
  76 H :    0.007554
  77 H :    0.028441
  78 H :   -0.007962
  79 H :    0.050650
  80 H :    0.026812
  81 H :    0.031504
  82 H :    0.029565
  83 H :    0.030330
  84 H :    0.028267
  85 H :    0.054589
  86 H :    0.012162
  87 H :    0.027621
  88 H :    0.033348
  89 H :   -0.027953
  90 H :    0.018414
  91 H :    0.022357
  92 H :   -0.013817
  93 H :   -0.012734
  94 H :    0.030458
  95 H :    0.022478
  96 H :    0.034437
  97 H :    0.056193
Sum of atomic charges:    0.0000000

LOEWDIN ATOMIC CHARGES
----------------------
   0 C :   -0.059961
   1 C :   -0.148726
   2 S :    0.477009
   3 C :   -0.271155
   4 Cl:    0.194756
   5 C :   -0.116137
   6 C :    0.082386
   7 O :   -0.121139
   8 C :   -0.074510
   9 C :    0.073544
  10 C :   -0.134531
  11 C :   -0.015188
  12 N :   -0.049738
  13 C :   -0.025196
  14 N :   -0.044480
  15 C :    0.068114
  16 C :   -0.040577
  17 C :    0.042227
  18 C :    0.032796
  19 C :   -0.085467
  20 C :    0.058103
  21 C :   -0.033721
  22 N :   -0.053384
  23 C :    0.049095
  24 C :    0.005129
  25 C :   -0.026011
  26 C :    0.048632
  27 C :   -0.072915
  28 C :   -0.033435
  29 N :   -0.050845
  30 C :    0.064866
  31 N :    0.000174
  32 C :    0.035187
  33 C :   -0.060491
  34 C :    0.079934
  35 O :   -0.199216
  36 C :   -0.125795
  37 C :   -0.093633
  38 C :    0.086541
  39 O :   -0.163796
  40 N :    0.002567
  41 C :    0.036989
  42 C :   -0.060735
  43 C :    0.092542
  44 C :   -0.048403
  45 C :    0.048075
  46 C :   -0.028562
  47 C :    0.026667
  48 C :   -0.021427
  49 N :    0.290593
  50 O :   -0.179918
  51 O :   -0.194937
  52 C :    0.006882
  53 C :    0.001241
  54 C :    0.018986
  55 C :    0.011511
  56 C :   -0.013789
  57 C :    0.061122
  58 C :   -0.073319
  59 C :    0.080770
  60 O :   -0.131416
  61 C :   -0.120792
  62 C :   -0.272590
  63 S :    0.476223
  64 C :   -0.150841
  65 C :   -0.055636
  66 C :    0.059297
  67 C :   -0.115917
  68 C :   -0.012329
  69 N :   -0.045724
  70 C :   -0.014671
  71 N :   -0.051272
  72 Cl:    0.191588
  73 H :    0.037930
  74 H :    0.047795
  75 H :    0.037244
  76 H :    0.040325
  77 H :    0.039263
  78 H :    0.036217
  79 H :    0.040240
  80 H :    0.020076
  81 H :    0.033989
  82 H :    0.034610
  83 H :    0.024229
  84 H :    0.024613
  85 H :    0.042592
  86 H :    0.020217
  87 H :    0.032506
  88 H :    0.033970
  89 H :    0.027543
  90 H :    0.040554
  91 H :    0.049162
  92 H :    0.035202
  93 H :    0.033137
  94 H :    0.032492
  95 H :    0.037487
  96 H :    0.048576
  97 H :    0.038808

  Mayer bond orders larger than 0.100000
B(  0-C ,  1-C ) :   1.5427 B(  0-C ,  5-C ) :   1.2229 B(  0-C ,  9-C ) :   0.9990
B(  1-C ,  2-S ) :   1.1626 B(  1-C , 73-H ) :   0.9543 B(  2-S ,  3-C ) :   1.1495
B(  3-C ,  4-Cl) :   1.1299 B(  3-C ,  5-C ) :   1.4795 B(  5-C ,  6-C ) :   0.9493
B(  6-C ,  7-O ) :   2.2284 B(  6-C ,  8-C ) :   0.9266 B(  8-C ,  9-C ) :   1.0662
B(  8-C , 15-C ) :   1.6165 B(  9-C , 10-C ) :   1.6511 B( 10-C , 11-C ) :   1.1474
B( 10-C , 13-C ) :   1.1375 B( 11-C , 12-N ) :   2.9917 B( 13-C , 14-N ) :   2.9797
B( 15-C , 16-C ) :   1.1218 B( 15-C , 74-H ) :   0.9412 B( 16-C , 17-C ) :   1.5313
B( 16-C , 20-C ) :   1.0310 B( 17-C , 18-C ) :   1.1143 B( 17-C , 75-H ) :   0.9879
B( 18-C , 19-C ) :   1.1132 B( 18-C , 23-C ) :   1.3933 B( 19-C , 20-C ) :   1.6602
B( 19-C , 21-C ) :   1.0855 B( 20-C , 76-H ) :   1.0245 B( 21-C , 22-N ) :   2.9881
B( 23-C , 24-C ) :   1.1239 B( 23-C , 27-C ) :   1.0925 B( 24-C , 25-C ) :   1.5425
B( 24-C , 77-H ) :   0.9919 B( 25-C , 26-C ) :   1.0107 B( 25-C , 30-C ) :   1.0515
B( 26-C , 27-C ) :   1.6810 B( 26-C , 78-H ) :   1.0284 B( 27-C , 28-C ) :   1.0828
B( 28-C , 29-N ) :   2.9776 B( 30-C , 31-N ) :   1.1942 B( 30-C , 37-C ) :   1.3759
B( 31-N , 32-C ) :   0.9396 B( 31-N , 34-C ) :   1.0538 B( 32-C , 33-C ) :   1.1165
B( 32-C , 79-H ) :   0.9220 B( 32-C , 80-H ) :   0.9513 B( 33-C , 81-H ) :   0.9615
B( 33-C , 82-H ) :   0.9665 B( 33-C , 83-H ) :   0.9667 B( 34-C , 35-O ) :   2.0188
B( 34-C , 36-C ) :   0.9959 B( 35-O , 90-H ) :   0.1159 B( 36-C , 37-C ) :   1.2586
B( 36-C , 43-C ) :   1.3080 B( 37-C , 38-C ) :   0.9612 B( 38-C , 39-O ) :   2.1022
B( 38-C , 40-N ) :   1.0313 B( 40-N , 41-C ) :   0.9406 B( 40-N , 43-C ) :   1.1865
B( 41-C , 42-C ) :   1.1203 B( 41-C , 84-H ) :   0.9497 B( 41-C , 85-H ) :   0.9274
B( 42-C , 86-H ) :   0.9684 B( 42-C , 87-H ) :   0.9682 B( 42-C , 88-H ) :   0.9636
B( 43-C , 44-C ) :   1.1568 B( 44-C , 45-C ) :   1.6066 B( 44-C , 89-H ) :   0.9568
B( 45-C , 46-C ) :   1.0746 B( 45-C , 90-H ) :   0.9630 B( 46-C , 47-C ) :   1.2920
B( 46-C , 54-C ) :   1.3030 B( 47-C , 48-C ) :   1.3614 B( 47-C , 91-H ) :   1.0043
B( 48-C , 49-N ) :   0.8787 B( 48-C , 52-C ) :   1.3504 B( 49-N , 50-O ) :   1.5769
B( 49-N , 51-O ) :   1.4846 B( 50-O , 51-O ) :   0.2607 B( 52-C , 53-C ) :   1.3342
B( 52-C , 55-C ) :   1.0855 B( 53-C , 54-C ) :   1.4282 B( 53-C , 92-H ) :   0.9868
B( 54-C , 93-H ) :   0.9890 B( 55-C , 56-C ) :   1.7617 B( 55-C , 94-H ) :   0.9486
B( 56-C , 57-C ) :   1.0695 B( 56-C , 95-H ) :   0.9452 B( 57-C , 58-C ) :   1.7709
B( 57-C , 96-H ) :   0.9258 B( 58-C , 59-C ) :   0.9286 B( 58-C , 66-C ) :   1.0104
B( 59-C , 60-O ) :   2.2833 B( 59-C , 61-C ) :   0.9294 B( 61-C , 62-C ) :   1.4725
B( 61-C , 65-C ) :   1.2204 B( 62-C , 63-S ) :   1.1571 B( 62-C , 72-Cl) :   1.1294
B( 63-S , 64-C ) :   1.1567 B( 64-C , 65-C ) :   1.5579 B( 64-C , 97-H ) :   0.9544
B( 65-C , 66-C ) :   1.0074 B( 66-C , 67-C ) :   1.7086 B( 67-C , 68-C ) :   1.1292
B( 67-C , 70-C ) :   1.1574 B( 68-C , 69-N ) :   3.0048 B( 70-C , 71-N ) :   2.9819

-----------------------------------------------------------------------------
         ABSORPTION SPECTRUM VIA TRANSITION ELECTRIC DIPOLE MOMENTS
-----------------------------------------------------------------------------
State   Energy  Wavelength   fosc         T2         TX        TY        TZ
        (cm-1)    (nm)                  (au**2)     (au)      (au)      (au)
-----------------------------------------------------------------------------
   0    8158.9   1225.7   0.479906803  19.36418  -2.57833   3.56369   0.12844
   1   15155.3    659.8   0.036130412   0.78485  -0.25911   0.77283  -0.34704
   2   18658.2    536.0   0.413079679   7.28853  -2.06113   1.59875   0.69590
   3   19570.2    511.0   0.067486529   1.13526   0.84926  -0.61068  -0.20272
   4   22643.0    441.6   0.135594041   1.97143  -0.36511   1.33477  -0.23773
   5   23133.1    432.3   0.138419146   1.96987   0.86126  -1.08802   0.21053
   6   23228.4    430.5   0.014485298   0.20530   0.03889  -0.11977   0.43525
   7   23630.3    423.2   0.173898846   2.42272  -0.91697   0.89382  -0.88486
   8   24257.8    412.2   0.493338403   6.69527  -1.76414   1.89036  -0.09819
   9   24545.7    407.4   0.004643793   0.06228  -0.03961   0.21305   0.12378
  10   24996.0    400.1   0.008070636   0.10630   0.30724   0.03341   0.10383
  11   25497.3    392.2   0.163507862   2.11116   0.25375  -1.26541   0.66745
  12   27140.3    368.5   0.051668540   0.62674  -0.71623  -0.22445  -0.25175
  13   27206.5    367.6   0.029409042   0.35586   0.22983  -0.37390   0.40403
  14   27843.4    359.2   0.424073477   5.01411  -1.24561   1.76683  -0.58385
  15   28256.1    353.9   0.016494805   0.19218  -0.09532   0.33334   0.26829
  16   28444.8    351.6   0.065050209   0.75287  -0.60988   0.61246   0.07625
  17   29596.2    337.9   0.000654530   0.00728   0.02543  -0.02390  -0.07786
  18   29651.9    337.2   0.008529105   0.09469  -0.20432   0.17534  -0.14902
  19   30695.5    325.8   0.005833700   0.06257   0.13912   0.06129  -0.19863
  20   30812.1    324.5   0.038043331   0.40647   0.52878   0.27457   0.22689
  21   31782.3    314.6   0.074434162   0.77102   0.00186  -0.30705   0.82264
  22   32136.0    311.2   0.123154203   1.26163  -0.65103   0.91494   0.02609
  23   32260.8    310.0   0.027330964   0.27890  -0.17580   0.09341  -0.48916
  24   32940.2    303.6   0.009264702   0.09259  -0.04766   0.29991   0.01941
  25   33029.3    302.8   0.018743761   0.18682   0.13777  -0.38260   0.14650
  26   33298.7    300.3   0.002094164   0.02070   0.10443  -0.00838   0.09863
  27   33471.5    298.8   0.634038336   6.23613   1.11773  -2.19761   0.39664
  28   33606.9    297.6   0.162672279   1.59353   1.14958   0.52091  -0.02547
  29   33813.1    295.7   0.080959485   0.78824  -0.58560   0.62782  -0.22617
  30   33865.1    295.3   0.020484169   0.19913   0.13932  -0.34413   0.24758
  31   34026.0    293.9   0.043088093   0.41689  -0.32150   0.23098   0.51007
  32   34200.9    292.4   0.010299001   0.09914  -0.31398  -0.01152  -0.02048
  33   34623.5    288.8   0.029799393   0.28334  -0.32848   0.17540  -0.38036
  34   34818.6    287.2   0.027767023   0.26254   0.39791  -0.32231  -0.01791
  35   35132.6    284.6   0.107190932   1.00444  -0.30826   0.87792  -0.37239
  36   35636.8    280.6   0.137329090   1.26864  -1.12455  -0.06346  -0.00307
  37   35983.7    277.9   0.003315422   0.03033   0.11915   0.11670  -0.05016
  38   36006.1    277.7   0.057703267   0.52759   0.32317   0.64889  -0.04579
  39   36203.7    276.2   0.048957182   0.44518   0.27006  -0.57465  -0.20501
  40   36403.3    274.7   0.034410730   0.31119  -0.01505   0.42243   0.36404
  41   36785.4    271.8   0.007015599   0.06279   0.16591   0.14271   0.12203
  42   37152.9    269.2   0.051204814   0.45373   0.02375  -0.07140  -0.66938
  43   37373.3    267.6   0.033833190   0.29803   0.48117  -0.25779   0.00659
  44   37900.5    263.8   0.298569573   2.59344   0.51957  -1.51969   0.11841
  45   38043.3    262.9   0.054355561   0.47037   0.18840  -0.64715   0.12681
  46   38137.1    262.2   0.055395535   0.47819  -0.59935   0.32841  -0.10548
  47   38319.2    261.0   0.342228361   2.94019  -0.46864  -1.64652  -0.09765
  48   38386.8    260.5   0.015172144   0.13012  -0.11953  -0.33777  -0.04172
  49   38527.8    259.6   0.091423936   0.78120  -0.60395   0.61930  -0.18140
  50   38822.0    257.6   0.081342077   0.68978  -0.37228  -0.74135  -0.03991
  51   38999.0    256.4   0.104801544   0.88469   0.74783   0.56559  -0.07452
  52   39018.7    256.3   0.156453783   1.32005  -0.95250  -0.63210  -0.11511
  53   39402.8    253.8   0.008733919   0.07297  -0.17396   0.08665   0.18762
  54   39775.8    251.4   0.061988882   0.51306  -0.33384   0.63024  -0.06647
  55   40015.6    249.9   0.099317557   0.81709  -0.62086   0.48724  -0.44071
  56   40213.9    248.7   0.099187979   0.81201   0.55939   0.66675  -0.23354

FINAL SINGLE POINT ENERGY     -4729.089326799373

DIPOLE MOMENT
-------------
                                X             Y             Z
Electronic contribution:     -9.64330      -7.33626       9.30769
Nuclear contribution   :      9.07062       4.23072     -11.15035
                        -----------------------------------------
Total Dipole Moment    :     -0.57267      -3.10554      -1.84266
                        -----------------------------------------
Magnitude (a.u.)       :      3.65619
Magnitude (Debye)      :      9.29330

Rotational constants in cm-1:     0.003182     0.000168     0.000166
Rotational constants in MHz :    95.405834     5.038912     4.978617

                             ****ORCA TERMINATED NORMALLY****
TOTAL RUN TIME: 0 days 0 hours 10 minutes 36 seconds 993 msec
