                         Program Version 4.2.0 -  RELEASE  -
|  1> # ORCA input file
|  2> # SCF done       -199.784419235654          0.000883616299
|  3> ! CAM-B3LYP def2-SVP def2/J RIJCOSX Grid4 TightSCF
|  4> %maxcore 5000
|  5> %tddft
|  6>     Mode sTDDFT
|  7>     Ethresh 5.0
|  8>     maxcore 5000
|  9> end
| 10>
| 11> %pal
| 12>   nprocs 6
| 13>   end
| 14> * xyz 0 1
| 15>    C        0.96778        -0.72905         1.52800
| 16>    N        0.25139        -0.01569         2.43759
| 17>    C       -0.21504        -0.50146         3.71180
| 18>    C       -1.43228        -1.40925         3.55329
| 19>    C       -0.06890         1.27367         1.94782
| 20>    O       -0.70017         2.09608         2.58096
| 21>    C        0.53153         1.29849         0.63753
| 22>    C        1.16767         0.03770         0.41430
| 23>    C        1.75887         0.08135        -0.90566
| 24>    O        2.40272        -0.72417        -1.53884
| 25>    N        1.42094         1.36474        -1.40255
| 26>    C        1.94211         1.78270        -2.68165
| 27>    C        3.05569         2.81684        -2.53909
| 28>    C        0.69268         2.09163        -0.48619
| 29>    C        0.12785         3.39943        -0.57693
| 30>    C        0.00992         4.21734        -1.64273
| 31>    C       -0.63333         5.51009        -1.62335
| 32>    C       -0.91403         6.13922        -2.83795
| 33>    C       -1.55480         7.36370        -2.87947
| 34>    N       -1.91991         7.86740        -4.17967
| 35>    O       -1.24133         7.51476        -5.12095
| 36>    O       -2.90446         8.57017        -4.25925
| 37>    C       -1.91176         8.05257        -1.70500
| 38>    C       -1.61527         7.41187        -0.49282
| 39>    C       -1.00772         6.17986        -0.44770
| 40>    C       -2.47480         9.37829        -1.73871
| 41>    C       -3.32925         9.86585        -0.81239
| 42>    C       -3.85369        11.18562        -0.89517
| 43>    N       -4.81920        11.68356        -0.04858
| 44>    C       -5.38935        11.01822         1.09675
| 45>    C       -4.44727        11.04963         2.29829
| 46>    C       -5.19743        12.99169        -0.39309
| 47>    O       -6.03659        13.62840         0.21736
| 48>    C       -4.38974        13.30606        -1.54800
| 49>    C       -3.56543        12.18145        -1.82003
| 50>    C       -2.74094        12.50130        -2.96344
| 51>    O       -1.85796        11.88825        -3.52942
| 52>    N       -3.14393        13.79712        -3.32976
| 53>    C       -2.58719        14.44603        -4.49213
| 54>    C       -3.50719        14.32137        -5.70431
| 55>    C       -4.12675        14.28612        -2.50115
| 56>    C       -4.71662        15.57026        -2.65649
| 57>    C       -5.66031        16.03993        -1.80887
| 58>    C       -6.30403        17.32404        -1.89708
| 59>    C       -6.20942        18.15683        -3.01125
| 60>    C       -6.86016        19.37923        -3.06253
| 61>    N       -6.67387        20.11999        -4.28442
| 62>    O       -5.65964        19.89514        -4.91363
| 63>    O       -7.52943        20.90537        -4.64181
| 64>    C       -7.61642        19.85773        -1.96823
| 65>    C       -7.69964        19.00513        -0.85368
| 66>    C       -7.08564        17.77827        -0.82105
| 67>    C       -8.26310        21.14606        -1.96694
| 68>    C       -8.57265        21.83379        -0.84453
| 69>    C       -9.17481        23.11841        -0.72759
| 70>    N       -9.73360        23.93663        -1.68413
| 71>    C       -9.99073        23.66125        -3.07879
| 72>    C      -11.09219        22.62125        -3.26408
| 73>    C      -10.18535        25.15262        -1.12711
| 74>    O      -10.71632        26.02685        -1.78287
| 75>    C       -9.85912        25.05970         0.27696
| 76>    C       -9.25076        23.79427         0.48404
| 77>    C       -8.91255        23.67764         1.88146
| 78>    O       -8.39456        22.79035         2.52825
| 79>    N       -9.34847        24.89948         2.43921
| 80>    C       -9.12597        25.19755         3.83256
| 81>    C       -7.90950        26.09899         4.03205
| 82>    C       -9.90494        25.72666         1.49348
| 83>    C      -10.43173        27.02764         1.79098
| 84>    C      -10.95010        27.82760         0.85644
| 85>    H        1.28919        -1.73166         1.74248
| 86>    H       -0.48209         0.37997         4.30101
| 87>    H        0.59772        -1.03631         4.21185
| 88>    H       -2.24408        -0.86453         3.07736
| 89>    H       -1.76719        -1.75278         4.52796
| 90>    H       -1.18857        -2.27527         2.94162
| 91>    H        1.13142         2.15251        -3.31499
| 92>    H        2.34561         0.87407        -3.13987
| 93>    H        2.70308         3.70947        -2.02736
| 94>    H        3.42315         3.09838        -3.52209
| 95>    H        3.87972         2.39474        -1.96894
| 96>    H       -0.29772         3.70425         0.37047
| 97>    H        0.37396         3.91681        -2.61308
| 98>    H       -0.66240         5.66213        -3.77448
| 99>    H       -1.84692         7.92074         0.43010
|100>    H       -0.79934         5.73428         0.51207
|101>    H       -2.19617        10.01423        -2.56892
|102>    H       -3.68465         9.23428        -0.01035
|103>    H       -5.65111         9.98971         0.83212
|104>    H       -6.30649        11.56346         1.33708
|105>    H       -3.50366        10.55945         2.06852
|106>    H       -4.90877        10.54459         3.14239
|107>    H       -4.24041        12.07919         2.57965
|108>    H       -1.64191        13.93608        -4.69827
|109>    H       -2.37827        15.49488        -4.26386
|110>    H       -3.65925        13.27235        -5.94593
|111>    H       -3.05600        14.81422        -6.56096
|112>    H       -4.47661        14.77489        -5.50907
|113>    H       -4.36757        16.17423        -3.48087
|114>    H       -5.96013        15.42261        -0.97224
|115>    H       -5.64238        17.85645        -3.87903
|116>    H       -8.29173        19.31845        -0.00874
|117>    H       -7.19369        17.14450         0.04628
|118>    H       -8.46204        21.57414        -2.93349
|119>    H       -8.29912        21.43368         0.12392
|120>    H       -9.07050        23.35751        -3.58315
|121>    H      -10.31526        24.61499        -3.50647
|122>    H      -10.83410        21.68291        -2.77891
|123>    H      -11.24038        22.43499        -4.32387
|124>    H      -12.02440        22.98640        -2.83914
|125>    H       -8.95159        24.23463         4.32141
|126>    H      -10.02336        25.65235         4.26128
|127>    H       -7.02022        25.61218         3.63919
|128>    H       -7.76180        26.29028         5.09134
|129>    H       -8.03901        27.04892         3.51791
|130>    H      -10.39795        27.34502         2.82413
|131>    H      -10.99543        27.53043        -0.17805
|132>    H      -11.34293        28.79738         1.10892
|133> *
|134>
|135>                          ****END OF INPUT****

CARTESIAN COORDINATES (ANGSTROEM)
---------------------------------
  C      0.967780   -0.729050    1.528000
  N      0.251390   -0.015690    2.437590
  C     -0.215040   -0.501460    3.711800
  C     -1.432280   -1.409250    3.553290
  C     -0.068900    1.273670    1.947820
  O     -0.700170    2.096080    2.580960
  C      0.531530    1.298490    0.637530
  C      1.167670    0.037700    0.414300
  C      1.758870    0.081350   -0.905660
  O      2.402720   -0.724170   -1.538840
  N      1.420940    1.364740   -1.402550
  C      1.942110    1.782700   -2.681650
  C      3.055690    2.816840   -2.539090
  C      0.692680    2.091630   -0.486190
  C      0.127850    3.399430   -0.576930
  C      0.009920    4.217340   -1.642730
  C     -0.633330    5.510090   -1.623350
  C     -0.914030    6.139220   -2.837950
  C     -1.554800    7.363700   -2.879470
  N     -1.919910    7.867400   -4.179670
  O     -1.241330    7.514760   -5.120950
  O     -2.904460    8.570170   -4.259250
  C     -1.911760    8.052570   -1.705000
  C     -1.615270    7.411870   -0.492820
  C     -1.007720    6.179860   -0.447700
  C     -2.474800    9.378290   -1.738710
  C     -3.329250    9.865850   -0.812390
  C     -3.853690   11.185620   -0.895170
  N     -4.819200   11.683560   -0.048580
  C     -5.389350   11.018220    1.096750
  C     -4.447270   11.049630    2.298290
  C     -5.197430   12.991690   -0.393090
  O     -6.036590   13.628400    0.217360
  C     -4.389740   13.306060   -1.548000
  C     -3.565430   12.181450   -1.820030
  C     -2.740940   12.501300   -2.963440
  O     -1.857960   11.888250   -3.529420
  N     -3.143930   13.797120   -3.329760
  C     -2.587190   14.446030   -4.492130
  C     -3.507190   14.321370   -5.704310
  C     -4.126750   14.286120   -2.501150
  C     -4.716620   15.570260   -2.656490
  C     -5.660310   16.039930   -1.808870
  C     -6.304030   17.324040   -1.897080
  C     -6.209420   18.156830   -3.011250
  C     -6.860160   19.379230   -3.062530
  N     -6.673870   20.119990   -4.284420
  O     -5.659640   19.895140   -4.913630
  O     -7.529430   20.905370   -4.641810
  C     -7.616420   19.857730   -1.968230
  C     -7.699640   19.005130   -0.853680
  C     -7.085640   17.778270   -0.821050
  C     -8.263100   21.146060   -1.966940
  C     -8.572650   21.833790   -0.844530
  C     -9.174810   23.118410   -0.727590
  N     -9.733600   23.936630   -1.684130
  C     -9.990730   23.661250   -3.078790
  C    -11.092190   22.621250   -3.264080
  C    -10.185350   25.152620   -1.127110
  O    -10.716320   26.026850   -1.782870
  C     -9.859120   25.059700    0.276960
  C     -9.250760   23.794270    0.484040
  C     -8.912550   23.677640    1.881460
  O     -8.394560   22.790350    2.528250
  N     -9.348470   24.899480    2.439210
  C     -9.125970   25.197550    3.832560
  C     -7.909500   26.098990    4.032050
  C     -9.904940   25.726660    1.493480
  C    -10.431730   27.027640    1.790980
  C    -10.950100   27.827600    0.856440
  H      1.289190   -1.731660    1.742480
  H     -0.482090    0.379970    4.301010
  H      0.597720   -1.036310    4.211850
  H     -2.244080   -0.864530    3.077360
  H     -1.767190   -1.752780    4.527960
  H     -1.188570   -2.275270    2.941620
  H      1.131420    2.152510   -3.314990
  H      2.345610    0.874070   -3.139870
  H      2.703080    3.709470   -2.027360
  H      3.423150    3.098380   -3.522090
  H      3.879720    2.394740   -1.968940
  H     -0.297720    3.704250    0.370470
  H      0.373960    3.916810   -2.613080
  H     -0.662400    5.662130   -3.774480
  H     -1.846920    7.920740    0.430100
  H     -0.799340    5.734280    0.512070
  H     -2.196170   10.014230   -2.568920
  H     -3.684650    9.234280   -0.010350
  H     -5.651110    9.989710    0.832120
  H     -6.306490   11.563460    1.337080
  H     -3.503660   10.559450    2.068520
  H     -4.908770   10.544590    3.142390
  H     -4.240410   12.079190    2.579650
  H     -1.641910   13.936080   -4.698270
  H     -2.378270   15.494880   -4.263860
  H     -3.659250   13.272350   -5.945930
  H     -3.056000   14.814220   -6.560960
  H     -4.476610   14.774890   -5.509070
  H     -4.367570   16.174230   -3.480870
  H     -5.960130   15.422610   -0.972240
  H     -5.642380   17.856450   -3.879030
  H     -8.291730   19.318450   -0.008740
  H     -7.193690   17.144500    0.046280
  H     -8.462040   21.574140   -2.933490
  H     -8.299120   21.433680    0.123920
  H     -9.070500   23.357510   -3.583150
  H    -10.315260   24.614990   -3.506470
  H    -10.834100   21.682910   -2.778910
  H    -11.240380   22.434990   -4.323870
  H    -12.024400   22.986400   -2.839140
  H     -8.951590   24.234630    4.321410
  H    -10.023360   25.652350    4.261280
  H     -7.020220   25.612180    3.639190
  H     -7.761800   26.290280    5.091340
  H     -8.039010   27.048920    3.517910
  H    -10.397950   27.345020    2.824130
  H    -10.995430   27.530430   -0.178050
  H    -11.342930   28.797380    1.108920

 Total Charge           Charge          ....    0
 Multiplicity           Mult            ....    1
 Number of Electrons    NEL             ....  496
 Basis Dimension        Dim             .... 1220

ORBITAL ENERGIES
----------------

  NO   OCC          E(Eh)            E(eV)
   0   2.0000     -19.248385      -523.7752
   1   2.0000     -19.246701      -523.7294
   2   2.0000     -19.243090      -523.6311
   3   2.0000     -19.240717      -523.5665
   4   2.0000     -19.191421      -522.2251
   5   2.0000     -19.189587      -522.1752
   6   2.0000     -19.188682      -522.1506
   7   2.0000     -19.188141      -522.1359
   8   2.0000     -19.187347      -522.1142
   9   2.0000     -19.184482      -522.0363
  10   2.0000     -14.653069      -398.7303
  11   2.0000     -14.647110      -398.5681
  12   2.0000     -14.455226      -393.3467
  13   2.0000     -14.452442      -393.2709
  14   2.0000     -14.451712      -393.2511
  15   2.0000     -14.451631      -393.2489
  16   2.0000     -14.450857      -393.2278
  17   2.0000     -14.447819      -393.1451
  18   2.0000     -10.374292      -282.2988
  19   2.0000     -10.373520      -282.2778
  20   2.0000     -10.372054      -282.2379
  21   2.0000     -10.371390      -282.2199
  22   2.0000     -10.370606      -282.1985
  23   2.0000     -10.368040      -282.1287
  24   2.0000     -10.342355      -281.4298
  25   2.0000     -10.339022      -281.3391
  26   2.0000     -10.337312      -281.2926
  27   2.0000     -10.335307      -281.2380
  28   2.0000     -10.335306      -281.2380
  29   2.0000     -10.334264      -281.2096
  30   2.0000     -10.333983      -281.2020
  31   2.0000     -10.332956      -281.1740
  32   2.0000     -10.314216      -280.6641
  33   2.0000     -10.313420      -280.6424
  34   2.0000     -10.311127      -280.5800
  35   2.0000     -10.308736      -280.5150
  36   2.0000     -10.307767      -280.4886
  37   2.0000     -10.306439      -280.4525
  38   2.0000     -10.305600      -280.4296
  39   2.0000     -10.305230      -280.4196
  40   2.0000     -10.302078      -280.3338
  41   2.0000     -10.301579      -280.3202
  42   2.0000     -10.299739      -280.2701
  43   2.0000     -10.298774      -280.2439
  44   2.0000     -10.298732      -280.2427
  45   2.0000     -10.297611      -280.2122
  46   2.0000     -10.297316      -280.2042
  47   2.0000     -10.296767      -280.1893
  48   2.0000     -10.293666      -280.1049
  49   2.0000     -10.292129      -280.0631
  50   2.0000     -10.291566      -280.0477
  51   2.0000     -10.291296      -280.0404
  52   2.0000     -10.290770      -280.0261
  53   2.0000     -10.290750      -280.0255
  54   2.0000     -10.290108      -280.0081
  55   2.0000     -10.287531      -279.9380
  56   2.0000     -10.287061      -279.9252
  57   2.0000     -10.279873      -279.7296
  58   2.0000     -10.266811      -279.3741
  59   2.0000     -10.265813      -279.3470
  60   2.0000     -10.263525      -279.2847
  61   2.0000     -10.263110      -279.2734
  62   2.0000     -10.261098      -279.2187
  63   2.0000     -10.260542      -279.2036
  64   2.0000     -10.260380      -279.1991
  65   2.0000     -10.258506      -279.1481
  66   2.0000     -10.257587      -279.1231
  67   2.0000     -10.257298      -279.1153
  68   2.0000     -10.254818      -279.0478
  69   2.0000     -10.254807      -279.0475
  70   2.0000      -1.327663       -36.1275
  71   2.0000      -1.322887       -35.9976
  72   2.0000      -1.145257       -31.1640
  73   2.0000      -1.141926       -31.0734
  74   2.0000      -1.132156       -30.8075
  75   2.0000      -1.131109       -30.7790
  76   2.0000      -1.129753       -30.7421
  77   2.0000      -1.125384       -30.6233
  78   2.0000      -1.124471       -30.5984
  79   2.0000      -1.122013       -30.5315
  80   2.0000      -1.062928       -28.9237
  81   2.0000      -1.061273       -28.8787
  82   2.0000      -1.060030       -28.8449
  83   2.0000      -1.053378       -28.6639
  84   2.0000      -1.053259       -28.6606
  85   2.0000      -1.049261       -28.5518
  86   2.0000      -0.994406       -27.0592
  87   2.0000      -0.991529       -26.9809
  88   2.0000      -0.933552       -25.4032
  89   2.0000      -0.929996       -25.3065
  90   2.0000      -0.927949       -25.2508
  91   2.0000      -0.924899       -25.1678
  92   2.0000      -0.923855       -25.1394
  93   2.0000      -0.908126       -24.7114
  94   2.0000      -0.906971       -24.6799
  95   2.0000      -0.893533       -24.3143
  96   2.0000      -0.892056       -24.2741
  97   2.0000      -0.889297       -24.1990
  98   2.0000      -0.876387       -23.8477
  99   2.0000      -0.871443       -23.7132
 100   2.0000      -0.867532       -23.6067
 101   2.0000      -0.858851       -23.3705
 102   2.0000      -0.853178       -23.2162
 103   2.0000      -0.821110       -22.3435
 104   2.0000      -0.819008       -22.2863
 105   2.0000      -0.817520       -22.2459
 106   2.0000      -0.816121       -22.2078
 107   2.0000      -0.810126       -22.0447
 108   2.0000      -0.804008       -21.8782
 109   2.0000      -0.792465       -21.5641
 110   2.0000      -0.785031       -21.3618
 111   2.0000      -0.782991       -21.3063
 112   2.0000      -0.765352       -20.8263
 113   2.0000      -0.761561       -20.7231
 114   2.0000      -0.759442       -20.6655
 115   2.0000      -0.756979       -20.5985
 116   2.0000      -0.755220       -20.5506
 117   2.0000      -0.733476       -19.9589
 118   2.0000      -0.725060       -19.7299
 119   2.0000      -0.713889       -19.4259
 120   2.0000      -0.708383       -19.2761
 121   2.0000      -0.706334       -19.2203
 122   2.0000      -0.705067       -19.1859
 123   2.0000      -0.701918       -19.1002
 124   2.0000      -0.693490       -18.8708
 125   2.0000      -0.681486       -18.5442
 126   2.0000      -0.680211       -18.5095
 127   2.0000      -0.679481       -18.4896
 128   2.0000      -0.665345       -18.1050
 129   2.0000      -0.657865       -17.9014
 130   2.0000      -0.655979       -17.8501
 131   2.0000      -0.653664       -17.7871
 132   2.0000      -0.650031       -17.6882
 133   2.0000      -0.647468       -17.6185
 134   2.0000      -0.644676       -17.5425
 135   2.0000      -0.636711       -17.3258
 136   2.0000      -0.634241       -17.2586
 137   2.0000      -0.625948       -17.0329
 138   2.0000      -0.619632       -16.8610
 139   2.0000      -0.612004       -16.6535
 140   2.0000      -0.605046       -16.4641
 141   2.0000      -0.602167       -16.3858
 142   2.0000      -0.600439       -16.3388
 143   2.0000      -0.596339       -16.2272
 144   2.0000      -0.593013       -16.1367
 145   2.0000      -0.592033       -16.1100
 146   2.0000      -0.586586       -15.9618
 147   2.0000      -0.584238       -15.8979
 148   2.0000      -0.581297       -15.8179
 149   2.0000      -0.580090       -15.7850
 150   2.0000      -0.576319       -15.6824
 151   2.0000      -0.574571       -15.6349
 152   2.0000      -0.571877       -15.5616
 153   2.0000      -0.570481       -15.5236
 154   2.0000      -0.567188       -15.4340
 155   2.0000      -0.564211       -15.3530
 156   2.0000      -0.562871       -15.3165
 157   2.0000      -0.560404       -15.2494
 158   2.0000      -0.548668       -14.9300
 159   2.0000      -0.546325       -14.8663
 160   2.0000      -0.544501       -14.8166
 161   2.0000      -0.538200       -14.6452
 162   2.0000      -0.533704       -14.5228
 163   2.0000      -0.531791       -14.4708
 164   2.0000      -0.530941       -14.4476
 165   2.0000      -0.529810       -14.4169
 166   2.0000      -0.529130       -14.3984
 167   2.0000      -0.527050       -14.3417
 168   2.0000      -0.526451       -14.3255
 169   2.0000      -0.524609       -14.2753
 170   2.0000      -0.522511       -14.2182
 171   2.0000      -0.518887       -14.1196
 172   2.0000      -0.518372       -14.1056
 173   2.0000      -0.516557       -14.0562
 174   2.0000      -0.514275       -13.9941
 175   2.0000      -0.513411       -13.9706
 176   2.0000      -0.508662       -13.8414
 177   2.0000      -0.507356       -13.8059
 178   2.0000      -0.503086       -13.6897
 179   2.0000      -0.502589       -13.6761
 180   2.0000      -0.501242       -13.6395
 181   2.0000      -0.496982       -13.5236
 182   2.0000      -0.496699       -13.5159
 183   2.0000      -0.492185       -13.3930
 184   2.0000      -0.489472       -13.3192
 185   2.0000      -0.487121       -13.2552
 186   2.0000      -0.483124       -13.1465
 187   2.0000      -0.476782       -12.9739
 188   2.0000      -0.472922       -12.8689
 189   2.0000      -0.471941       -12.8422
 190   2.0000      -0.469672       -12.7804
 191   2.0000      -0.467188       -12.7128
 192   2.0000      -0.465339       -12.6625
 193   2.0000      -0.462142       -12.5755
 194   2.0000      -0.460968       -12.5436
 195   2.0000      -0.460088       -12.5196
 196   2.0000      -0.458404       -12.4738
 197   2.0000      -0.457254       -12.4425
 198   2.0000      -0.455403       -12.3921
 199   2.0000      -0.454153       -12.3581
 200   2.0000      -0.453443       -12.3388
 201   2.0000      -0.453358       -12.3365
 202   2.0000      -0.450441       -12.2571
 203   2.0000      -0.448470       -12.2035
 204   2.0000      -0.447437       -12.1754
 205   2.0000      -0.445090       -12.1115
 206   2.0000      -0.443445       -12.0668
 207   2.0000      -0.441556       -12.0154
 208   2.0000      -0.441306       -12.0085
 209   2.0000      -0.439038       -11.9468
 210   2.0000      -0.437880       -11.9153
 211   2.0000      -0.434135       -11.8134
 212   2.0000      -0.433573       -11.7981
 213   2.0000      -0.433542       -11.7973
 214   2.0000      -0.430324       -11.7097
 215   2.0000      -0.425064       -11.5666
 216   2.0000      -0.421868       -11.4796
 217   2.0000      -0.420097       -11.4314
 218   2.0000      -0.418992       -11.4014
 219   2.0000      -0.413480       -11.2514
 220   2.0000      -0.406336       -11.0570
 221   2.0000      -0.400337       -10.8937
 222   2.0000      -0.395141       -10.7523
 223   2.0000      -0.389745       -10.6055
 224   2.0000      -0.384524       -10.4634
 225   2.0000      -0.384029       -10.4499
 226   2.0000      -0.378914       -10.3108
 227   2.0000      -0.375790       -10.2258
 228   2.0000      -0.370982       -10.0949
 229   2.0000      -0.354749        -9.6532
 230   2.0000      -0.351068        -9.5531
 231   2.0000      -0.347026        -9.4431
 232   2.0000      -0.346848        -9.4382
 233   2.0000      -0.345895        -9.4123
 234   2.0000      -0.345193        -9.3932
 235   2.0000      -0.344470        -9.3735
 236   2.0000      -0.343071        -9.3354
 237   2.0000      -0.330267        -8.9870
 238   2.0000      -0.329529        -8.9670
 239   2.0000      -0.327389        -8.9087
 240   2.0000      -0.315364        -8.5815
 241   2.0000      -0.312969        -8.5163
 242   2.0000      -0.311583        -8.4786
 243   2.0000      -0.309206        -8.4139
 244   2.0000      -0.305113        -8.3025
 245   2.0000      -0.252381        -6.8676
 246   2.0000      -0.243297        -6.6205
 247   2.0000      -0.231772        -6.3068
 248   0.0000      -0.093896        -2.5550
 249   0.0000      -0.079916        -2.1746
 250   0.0000      -0.062209        -1.6928
 251   0.0000      -0.045554        -1.2396
 252   0.0000      -0.043945        -1.1958

MULLIKEN ATOMIC CHARGES
-----------------------
   0 C :    0.050427
   1 N :   -0.264963
   2 C :    0.109652
   3 C :    0.000373
   4 C :    0.159591
   5 O :   -0.200339
   6 C :   -0.077229
   7 C :    0.009433
   8 C :    0.160175
   9 O :   -0.184942
  10 N :   -0.276324
  11 C :    0.097659
  12 C :    0.000325
  13 C :    0.130171
  14 C :   -0.019115
  15 C :    0.016510
  16 C :    0.101873
  17 C :   -0.069909
  18 C :    0.146107
  19 N :    0.246498
  20 O :   -0.234574
  21 O :   -0.220260
  22 C :    0.068095
  23 C :   -0.028504
  24 C :    0.020566
  25 C :    0.010814
  26 C :   -0.030074
  27 C :    0.125771
  28 N :   -0.258466
  29 C :    0.100989
  30 C :    0.004547
  31 C :    0.165173
  32 O :   -0.220315
  33 C :   -0.068818
  34 C :   -0.064329
  35 C :    0.172645
  36 O :   -0.207139
  37 N :   -0.257781
  38 C :    0.098715
  39 C :    0.003733
  40 C :    0.131693
  41 C :   -0.000050
  42 C :    0.003283
  43 C :    0.107791
  44 C :   -0.064628
  45 C :    0.140311
  46 N :    0.251075
  47 O :   -0.229005
  48 O :   -0.235035
  49 C :    0.071906
  50 C :   -0.036738
  51 C :    0.018772
  52 C :   -0.044091
  53 C :   -0.014788
  54 C :    0.104284
  55 N :   -0.265968
  56 C :    0.094977
  57 C :    0.002086
  58 C :    0.161047
  59 O :   -0.209481
  60 C :   -0.059516
  61 C :   -0.040388
  62 C :    0.151072
  63 O :   -0.195822
  64 N :   -0.265900
  65 C :    0.099126
  66 C :    0.003625
  67 C :    0.114623
  68 C :   -0.037430
  69 C :    0.018271
  70 H :    0.016434
  71 H :    0.041458
  72 H :    0.020006
  73 H :    0.030673
  74 H :    0.023403
  75 H :    0.014850
  76 H :    0.024972
  77 H :    0.046228
  78 H :    0.020952
  79 H :    0.023234
  80 H :    0.025821
  81 H :    0.006134
  82 H :   -0.021272
  83 H :    0.000778
  84 H :   -0.012285
  85 H :   -0.000662
  86 H :    0.036985
  87 H :   -0.025742
  88 H :    0.024360
  89 H :    0.042083
  90 H :    0.010234
  91 H :    0.023406
  92 H :    0.030243
  93 H :    0.043157
  94 H :    0.025839
  95 H :    0.035599
  96 H :    0.025336
  97 H :    0.011995
  98 H :   -0.025944
  99 H :    0.009792
 100 H :   -0.000725
 101 H :    0.000010
 102 H :    0.006250
 103 H :    0.015363
 104 H :    0.006638
 105 H :    0.038975
 106 H :    0.042066
 107 H :    0.020482
 108 H :    0.025570
 109 H :    0.020458
 110 H :    0.041959
 111 H :    0.023770
 112 H :    0.029225
 113 H :    0.023184
 114 H :    0.015393
 115 H :   -0.018559
 116 H :    0.059489
 117 H :    0.030524
Sum of atomic charges:   -0.0000000

LOEWDIN ATOMIC CHARGES
----------------------
   0 C :    0.098353
   1 N :   -0.003222
   2 C :    0.037999
   3 C :   -0.060301
   4 C :    0.076762
   5 O :   -0.201886
   6 C :   -0.120357
   7 C :   -0.132308
   8 C :    0.084702
   9 O :   -0.186848
  10 N :   -0.012709
  11 C :    0.033889
  12 C :   -0.062815
  13 C :    0.078028
  14 C :   -0.025340
  15 C :    0.000834
  16 C :   -0.024659
  17 C :    0.009722
  18 C :   -0.020133
  19 N :    0.285504
  20 O :   -0.201528
  21 O :   -0.181793
  22 C :   -0.005321
  23 C :   -0.003655
  24 C :    0.013825
  25 C :    0.033098
  26 C :   -0.043862
  27 C :    0.074062
  28 N :   -0.000073
  29 C :    0.036315
  30 C :   -0.061220
  31 C :    0.079701
  32 O :   -0.209536
  33 C :   -0.124604
  34 C :   -0.118520
  35 C :    0.082378
  36 O :   -0.194895
  37 N :    0.001047
  38 C :    0.036202
  39 C :   -0.060548
  40 C :    0.079134
  41 C :   -0.044468
  42 C :    0.033206
  43 C :   -0.029892
  44 C :    0.015637
  45 C :   -0.026767
  46 N :    0.289146
  47 O :   -0.197568
  48 O :   -0.200154
  49 C :   -0.001897
  50 C :   -0.003200
  51 C :    0.019136
  52 C :   -0.019531
  53 C :   -0.013695
  54 C :    0.066855
  55 N :   -0.002953
  56 C :    0.035025
  57 C :   -0.061829
  58 C :    0.082850
  59 O :   -0.199720
  60 C :   -0.130705
  61 C :   -0.109590
  62 C :    0.080297
  63 O :   -0.197196
  64 N :   -0.003694
  65 C :    0.035898
  66 C :   -0.061115
  67 C :    0.088304
  68 C :   -0.055665
  69 C :    0.030570
  70 H :    0.033502
  71 H :    0.036260
  72 H :    0.025070
  73 H :    0.031822
  74 H :    0.030238
  75 H :    0.022544
  76 H :    0.018953
  77 H :    0.038313
  78 H :    0.021565
  79 H :    0.031310
  80 H :    0.031724
  81 H :    0.043438
  82 H :    0.030529
  83 H :    0.039794
  84 H :    0.034287
  85 H :    0.037631
  86 H :    0.036507
  87 H :    0.026853
  88 H :    0.023146
  89 H :    0.037358
  90 H :    0.019955
  91 H :    0.030420
  92 H :    0.032492
  93 H :    0.038216
  94 H :    0.023368
  95 H :    0.034467
  96 H :    0.031491
  97 H :    0.020814
  98 H :    0.028198
  99 H :    0.038022
 100 H :    0.035661
 101 H :    0.038606
 102 H :    0.041853
 103 H :    0.026581
 104 H :    0.041961
 105 H :    0.025191
 106 H :    0.036926
 107 H :    0.021862
 108 H :    0.032769
 109 H :    0.029054
 110 H :    0.037223
 111 H :    0.022821
 112 H :    0.032201
 113 H :    0.030341
 114 H :    0.022254
 115 H :    0.029668
 116 H :    0.033990
 117 H :    0.030046

  Mayer bond orders larger than 0.100000
B(  0-C ,  1-N ) :   1.1953 B(  0-C ,  7-C ) :   1.4550 B(  0-C , 70-H ) :   0.9891
B(  1-N ,  2-C ) :   0.9415 B(  1-N ,  4-C ) :   1.0339 B(  2-C ,  3-C ) :   1.1191
B(  2-C , 71-H ) :   0.9346 B(  2-C , 72-H ) :   0.9541 B(  3-C , 73-H ) :   0.9676
B(  3-C , 74-H ) :   0.9687 B(  3-C , 75-H ) :   0.9688 B(  4-C ,  5-O ) :   2.1148
B(  4-C ,  6-C ) :   0.9920 B(  6-C ,  7-C ) :   1.1896 B(  6-C , 13-C ) :   1.3966
B(  7-C ,  8-C ) :   0.9537 B(  8-C ,  9-O ) :   2.1689 B(  8-C , 10-N ) :   1.0138
B( 10-N , 11-C ) :   0.9441 B( 10-N , 13-C ) :   1.1660 B( 11-C , 12-C ) :   1.1151
B( 11-C , 76-H ) :   0.9512 B( 11-C , 77-H ) :   0.9220 B( 12-C , 78-H ) :   0.9682
B( 12-C , 79-H ) :   0.9676 B( 12-C , 80-H ) :   0.9626 B( 13-C , 14-C ) :   1.1611
B( 14-C , 15-C ) :   1.6157 B( 14-C , 81-H ) :   0.9427 B( 15-C , 16-C ) :   1.0713
B( 15-C , 82-H ) :   0.9906 B( 16-C , 17-C ) :   1.2831 B( 16-C , 24-C ) :   1.3185
B( 17-C , 18-C ) :   1.3810 B( 17-C , 83-H ) :   1.0002 B( 18-C , 19-N ) :   0.8767
B( 18-C , 22-C ) :   1.3467 B( 19-N , 20-O ) :   1.5483 B( 19-N , 21-O ) :   1.5359
B( 20-O , 21-O ) :   0.2695 B( 22-C , 23-C ) :   1.3276 B( 22-C , 25-C ) :   1.0590
B( 23-C , 24-C ) :   1.4191 B( 23-C , 84-H ) :   0.9884 B( 24-C , 85-H ) :   0.9901
B( 25-C , 26-C ) :   1.6752 B( 25-C , 86-H ) :   0.9192 B( 26-C , 27-C ) :   1.1425
B( 26-C , 87-H ) :   0.9633 B( 27-C , 28-N ) :   1.1534 B( 27-C , 34-C ) :   1.3643
B( 28-N , 29-C ) :   0.9483 B( 28-N , 31-C ) :   1.0643 B( 29-C , 30-C ) :   1.1200
B( 29-C , 88-H ) :   0.9502 B( 29-C , 89-H ) :   0.9278 B( 30-C , 90-H ) :   0.9689
B( 30-C , 91-H ) :   0.9682 B( 30-C , 92-H ) :   0.9636 B( 31-C , 32-O ) :   2.0118
B( 31-C , 33-C ) :   0.9918 B( 32-O , 99-H ) :   0.1166 B( 33-C , 34-C ) :   1.2434
B( 33-C , 40-C ) :   1.3494 B( 34-C , 35-C ) :   0.9826 B( 35-C , 36-O ) :   2.0270
B( 35-C , 37-N ) :   1.0569 B( 36-O , 86-H ) :   0.1122 B( 37-N , 38-C ) :   0.9453
B( 37-N , 40-C ) :   1.1639 B( 38-C , 39-C ) :   1.1207 B( 38-C , 93-H ) :   0.9266
B( 38-C , 94-H ) :   0.9501 B( 39-C , 95-H ) :   0.9637 B( 39-C , 96-H ) :   0.9682
B( 39-C , 97-H ) :   0.9684 B( 40-C , 41-C ) :   1.1448 B( 41-C , 42-C ) :   1.6218
B( 41-C , 98-H ) :   0.9579 B( 42-C , 43-C ) :   1.0706 B( 42-C , 99-H ) :   0.9642
B( 43-C , 44-C ) :   1.2961 B( 43-C , 51-C ) :   1.3007 B( 44-C , 45-C ) :   1.3878
B( 44-C ,100-H ) :   0.9860 B( 45-C , 46-N ) :   0.8821 B( 45-C , 49-C ) :   1.3340
B( 46-N , 47-O ) :   1.5586 B( 46-N , 48-O ) :   1.5150 B( 47-O , 48-O ) :   0.2618
B( 49-C , 50-C ) :   1.3275 B( 49-C , 52-C ) :   1.0772 B( 50-C , 51-C ) :   1.4036
B( 50-C ,101-H ) :   0.9891 B( 51-C ,102-H ) :   1.0013 B( 52-C , 53-C ) :   1.5903
B( 52-C ,103-H ) :   0.9717 B( 53-C , 54-C ) :   1.1717 B( 53-C ,104-H ) :   0.9457
B( 54-C , 55-N ) :   1.1658 B( 54-C , 61-C ) :   1.3671 B( 55-N , 56-C ) :   0.9389
B( 55-N , 58-C ) :   1.0559 B( 56-C , 57-C ) :   1.1170 B( 56-C ,105-H ) :   0.9505
B( 56-C ,106-H ) :   0.9217 B( 57-C ,107-H ) :   0.9678 B( 57-C ,108-H ) :   0.9677
B( 57-C ,109-H ) :   0.9626 B( 58-C , 59-O ) :   2.0405 B( 58-C , 60-C ) :   0.9862
B( 60-C , 61-C ) :   1.2274 B( 60-C , 67-C ) :   1.3657 B( 61-C , 62-C ) :   0.9777
B( 62-C , 63-O ) :   2.1216 B( 62-C , 64-N ) :   1.0322 B( 64-N , 65-C ) :   0.9473
B( 64-N , 67-C ) :   1.1739 B( 65-C , 66-C ) :   1.1197 B( 65-C ,110-H ) :   0.9282
B( 65-C ,111-H ) :   0.9508 B( 66-C ,112-H ) :   0.9644 B( 66-C ,113-H ) :   0.9678
B( 66-C ,114-H ) :   0.9688 B( 67-C , 68-C ) :   1.1270 B( 68-C , 69-C ) :   1.8847
B( 68-C ,115-H ) :   0.9538 B( 69-C ,116-H ) :   0.9266 B( 69-C ,117-H ) :   0.9446

-----------------------------------------------------------------------------
         ABSORPTION SPECTRUM VIA TRANSITION ELECTRIC DIPOLE MOMENTS
-----------------------------------------------------------------------------
State   Energy  Wavelength   fosc         T2         TX        TY        TZ
        (cm-1)    (nm)                  (au**2)     (au)      (au)      (au)
-----------------------------------------------------------------------------
   0   15572.0    642.2   1.390585987  29.39877   1.69826  -5.14922   0.01519
   1   18622.9    537.0   0.366430948   6.47769   0.48680  -0.49058  -2.44950
   2   21209.6    471.5   0.090620006   1.40659  -0.13595   1.02521  -0.58055
   3   21769.7    459.4   0.159497378   2.41200  -0.19849   1.14203  -1.03362
   4   23991.9    416.8   0.075513522   1.03618  -0.06041  -0.44853   0.91178
   5   25219.3    396.5   0.097905876   1.27806   0.34530  -0.57959   0.90714
   6   25521.6    391.8   0.019907063   0.25679  -0.50080  -0.06923  -0.03459
   7   25908.1    386.0   0.037324446   0.47428  -0.15376   0.31919   0.59056
   8   27462.5    364.1   0.037500076   0.44954  -0.25649   0.17757   0.59348
   9   27608.9    362.2   0.150912721   1.79950   0.71001  -0.44021  -1.04957
  10   27720.2    360.7   0.003685362   0.04377   0.13674  -0.05131  -0.14980
  11   29079.8    343.9   0.020336840   0.23023   0.37010  -0.28490   0.10995
  12   29152.2    343.0   0.013837250   0.15626  -0.25352  -0.05022   0.29911
  13   29706.6    336.6   0.087416596   0.96876   0.55071  -0.81409  -0.05228
  14   30101.2    332.2   0.018617741   0.20362  -0.08857   0.27696   0.34506
  15   30435.3    328.6   0.021393318   0.23141   0.20028  -0.40547  -0.16397
  16   30574.8    327.1   0.221346674   2.38333  -0.88409   1.10683   0.61371
  17   30655.1    326.2   0.440125660   4.72661   1.15264  -1.84269  -0.05041
  18   31520.8    317.3   0.410745971   4.28995   0.93855  -1.84495  -0.07220
  19   32654.2    306.2   0.047306446   0.47693   0.27453  -0.62159   0.12328
  20   32970.7    303.3   0.031019589   0.30973   0.38190  -0.15183  -0.37528
  21   34345.0    291.2   0.042147126   0.40400   0.32702  -0.54175   0.05966
  22   34418.3    290.5   0.057847516   0.55331  -0.40002   0.60110   0.17882
  23   35261.6    283.6   0.012480344   0.11652  -0.02797   0.32310   0.10652
  24   36250.9    275.9   0.075290408   0.68375   0.44795  -0.65100  -0.24349
  25   36849.8    271.4   0.051961565   0.46422   0.39885  -0.49098  -0.25315
  26   37009.0    270.2   0.224947716   2.00101  -0.84578   0.67279   0.91270
  27   37306.9    268.0   0.158815630   1.40146  -0.52508   1.01002  -0.32498
  28   37753.5    264.9   0.008320148   0.07255   0.13755  -0.17619   0.15029
  29   38197.2    261.8   0.144826065   1.24822  -0.61945   0.91928  -0.13938
  30   38706.4    258.4   0.063538662   0.54042  -0.36539  -0.19544   0.60722
  31   39154.9    255.4   0.019289751   0.16219  -0.05644  -0.39807   0.02323
  32   39312.1    254.4   0.022705493   0.19014  -0.08010   0.36745  -0.22070
  33   39525.8    253.0   0.072245522   0.60174   0.39727  -0.63951   0.18691
  34   39555.9    252.8   0.024267538   0.20197  -0.08845   0.36362   0.24886
  35   39748.0    251.6   0.173028696   1.43310   0.46532  -0.87479   0.67181

FINAL SINGLE POINT ENERGY     -3196.590594220247

DIPOLE MOMENT
-------------
                                X             Y             Z
Electronic contribution:      4.49715      -2.44747     -22.55888
Nuclear contribution   :     -4.68511       1.69128      25.38985
                        -----------------------------------------
Total Dipole Moment    :     -0.18796      -0.75619       2.83097
                        -----------------------------------------
Magnitude (a.u.)       :      2.93625
Magnitude (Debye)      :      7.46335

Rotational constants in cm-1:     0.002588     0.000190     0.000180
Rotational constants in MHz :    77.585021     5.693831     5.391568

                             ****ORCA TERMINATED NORMALLY****
TOTAL RUN TIME: 0 days 0 hours 9 minutes 10 seconds 884 msec
