                         Program Version 4.2.0 -  RELEASE  -
|  1> # ORCA input file
|  2> # SCF done       -144.170113658277          0.000321398848
|  3> ! CAM-B3LYP def2-SVP def2/J RIJCOSX Grid4 TightSCF
|  4> %maxcore 5000
|  5> %tddft
|  6>     Mode sTDDFT
|  7>     Ethresh 5.0
|  8>     maxcore 5000
|  9> end
| 10>
| 11> %pal
| 12>   nprocs 6
| 13>   end
| 14> * xyz 0 1
| 15>    C        1.72007        -0.02733         1.75152
| 16>    N        2.01617         0.50988         0.53834
| 17>    C        3.05742         0.06297        -0.35226
| 18>    C        2.66956        -1.22789        -1.06841
| 19>    C        1.12653         1.55707         0.20610
| 20>    O        1.20361         2.19593        -0.82554
| 21>    C        0.23630         1.62907         1.33804
| 22>    C        0.64364         0.62840         2.27914
| 23>    C       -0.22799         0.71996         3.43248
| 24>    O       -0.28740         0.09218         4.46625
| 25>    N       -1.10257         1.77807         3.11468
| 26>    C       -2.12026         2.20470         4.04287
| 27>    C       -1.68953         3.43783         4.83438
| 28>    C       -0.83512         2.32464         1.87684
| 29>    C       -1.56846         3.40748         1.32432
| 30>    C       -1.37682         3.85408         0.05673
| 31>    C       -2.08233         4.97478        -0.45985
| 32>    O       -2.79649         5.74428         0.38325
| 33>    C       -3.32218         6.78313        -0.30090
| 34>    C       -2.95105         6.68737        -1.64647
| 35>    C       -2.16316         5.51262        -1.74854
| 36>    C       -1.60745         4.88665        -2.97917
| 37>    F       -1.23705         3.61709        -2.80741
| 38>    F       -2.50679         4.86196        -3.98727
| 39>    F       -0.52959         5.53468        -3.47026
| 40>    O       -3.33402         7.61283        -2.54491
| 41>    C       -2.58122         7.80737        -3.73121
| 42>    C       -4.08373         7.75404         0.40929
| 43>    C       -4.73986         8.77597        -0.17600
| 44>    C       -5.46832         9.80146         0.51972
| 45>    C       -6.16851        10.79958        -0.13814
| 46>    C       -6.28986        11.03177        -1.60487
| 47>    C       -5.06277        11.77077        -2.14888
| 48>    S       -6.90496        11.89418         0.96459
| 49>    C       -6.28086        11.02084         2.34278
| 50>    C       -5.54968         9.94050         1.92857
| 51>    C       -6.56464        11.50230         3.65769
| 52>    C       -6.10985        10.94376         4.79524
| 53>    C       -6.36431        11.42720         6.12690
| 54>    C       -7.16887        12.52961         6.45480
| 55>    N       -7.34976        12.93841         7.69022
| 56>    C       -6.73872        12.26480         8.66470
| 57>    N       -5.96501        11.19611         8.47438
| 58>    C       -5.78617        10.79204         7.23779
| 59>    C       -6.92906        12.72877        10.03405
| 60>    C       -7.72287        13.83706        10.34134
| 61>    N       -7.88924        14.25727        11.58194
| 62>    C       -7.26728        13.57811        12.53053
| 63>    N       -6.49415        12.51883        12.36252
| 64>    C       -6.32465        12.09553        11.12346
| 65>    H        2.30443        -0.83238         2.15743
| 66>    H        3.98067        -0.07928         0.21767
| 67>    H        3.20441         0.86404        -1.08174
| 68>    H        2.48738        -2.02554        -0.35136
| 69>    H        3.46963        -1.53433        -1.73641
| 70>    H        1.76661        -1.07254        -1.65364
| 71>    H       -2.27236         1.36703         4.72970
| 72>    H       -3.05289         2.39260         3.50336
| 73>    H       -0.79140         3.21449         5.40476
| 74>    H       -2.47731         3.72605         5.52516
| 75>    H       -1.47876         4.27424         4.17151
| 76>    H       -2.31336         3.88677         1.94253
| 77>    H       -0.65918         3.36785        -0.58632
| 78>    H       -2.85276         8.80217        -4.08256
| 79>    H       -2.84323         7.07654        -4.49792
| 80>    H       -1.50809         7.77422        -3.53529
| 81>    H       -4.09623         7.61302         1.48013
| 82>    H       -4.71742         8.84544        -1.25147
| 83>    H       -7.18289        11.62803        -1.80164
| 84>    H       -6.39845        10.07572        -2.12154
| 85>    H       -4.95750        12.73687        -1.66062
| 86>    H       -5.16870        11.93262        -3.21852
| 87>    H       -4.15919        11.19333        -1.96896
| 88>    H       -5.07308         9.26480         2.61350
| 89>    H       -7.18328        12.38801         3.69824
| 90>    H       -5.48554        10.06168         4.74157
| 91>    H       -7.68795        13.10360         5.69819
| 92>    H       -5.15118         9.92239         7.11234
| 93>    H       -8.22983        14.38891         9.56151
| 94>    H       -7.40441        13.92433        13.54697
| 95>    H       -5.69221        11.23003        10.97995
| 96> *
| 97>
| 98>                          ****END OF INPUT****

CARTESIAN COORDINATES (ANGSTROEM)
---------------------------------
  C      1.720070   -0.027330    1.751520
  N      2.016170    0.509880    0.538340
  C      3.057420    0.062970   -0.352260
  C      2.669560   -1.227890   -1.068410
  C      1.126530    1.557070    0.206100
  O      1.203610    2.195930   -0.825540
  C      0.236300    1.629070    1.338040
  C      0.643640    0.628400    2.279140
  C     -0.227990    0.719960    3.432480
  O     -0.287400    0.092180    4.466250
  N     -1.102570    1.778070    3.114680
  C     -2.120260    2.204700    4.042870
  C     -1.689530    3.437830    4.834380
  C     -0.835120    2.324640    1.876840
  C     -1.568460    3.407480    1.324320
  C     -1.376820    3.854080    0.056730
  C     -2.082330    4.974780   -0.459850
  O     -2.796490    5.744280    0.383250
  C     -3.322180    6.783130   -0.300900
  C     -2.951050    6.687370   -1.646470
  C     -2.163160    5.512620   -1.748540
  C     -1.607450    4.886650   -2.979170
  F     -1.237050    3.617090   -2.807410
  F     -2.506790    4.861960   -3.987270
  F     -0.529590    5.534680   -3.470260
  O     -3.334020    7.612830   -2.544910
  C     -2.581220    7.807370   -3.731210
  C     -4.083730    7.754040    0.409290
  C     -4.739860    8.775970   -0.176000
  C     -5.468320    9.801460    0.519720
  C     -6.168510   10.799580   -0.138140
  C     -6.289860   11.031770   -1.604870
  C     -5.062770   11.770770   -2.148880
  S     -6.904960   11.894180    0.964590
  C     -6.280860   11.020840    2.342780
  C     -5.549680    9.940500    1.928570
  C     -6.564640   11.502300    3.657690
  C     -6.109850   10.943760    4.795240
  C     -6.364310   11.427200    6.126900
  C     -7.168870   12.529610    6.454800
  N     -7.349760   12.938410    7.690220
  C     -6.738720   12.264800    8.664700
  N     -5.965010   11.196110    8.474380
  C     -5.786170   10.792040    7.237790
  C     -6.929060   12.728770   10.034050
  C     -7.722870   13.837060   10.341340
  N     -7.889240   14.257270   11.581940
  C     -7.267280   13.578110   12.530530
  N     -6.494150   12.518830   12.362520
  C     -6.324650   12.095530   11.123460
  H      2.304430   -0.832380    2.157430
  H      3.980670   -0.079280    0.217670
  H      3.204410    0.864040   -1.081740
  H      2.487380   -2.025540   -0.351360
  H      3.469630   -1.534330   -1.736410
  H      1.766610   -1.072540   -1.653640
  H     -2.272360    1.367030    4.729700
  H     -3.052890    2.392600    3.503360
  H     -0.791400    3.214490    5.404760
  H     -2.477310    3.726050    5.525160
  H     -1.478760    4.274240    4.171510
  H     -2.313360    3.886770    1.942530
  H     -0.659180    3.367850   -0.586320
  H     -2.852760    8.802170   -4.082560
  H     -2.843230    7.076540   -4.497920
  H     -1.508090    7.774220   -3.535290
  H     -4.096230    7.613020    1.480130
  H     -4.717420    8.845440   -1.251470
  H     -7.182890   11.628030   -1.801640
  H     -6.398450   10.075720   -2.121540
  H     -4.957500   12.736870   -1.660620
  H     -5.168700   11.932620   -3.218520
  H     -4.159190   11.193330   -1.968960
  H     -5.073080    9.264800    2.613500
  H     -7.183280   12.388010    3.698240
  H     -5.485540   10.061680    4.741570
  H     -7.687950   13.103600    5.698190
  H     -5.151180    9.922390    7.112340
  H     -8.229830   14.388910    9.561510
  H     -7.404410   13.924330   13.546970
  H     -5.692210   11.230030   10.979950

 Total Charge           Charge          ....    0
 Multiplicity           Mult            ....    1
 Number of Electrons    NEL             ....  364
 Basis Dimension        Dim             ....  859

ORBITAL ENERGIES
----------------

  NO   OCC          E(Eh)            E(eV)
   0   2.0000     -88.958657     -2420.6881
   1   2.0000     -24.803087      -674.9263
   2   2.0000     -24.800328      -674.8512
   3   2.0000     -24.798439      -674.7998
   4   2.0000     -19.306584      -525.3589
   5   2.0000     -19.265230      -524.2336
   6   2.0000     -19.184133      -522.0268
   7   2.0000     -19.180516      -521.9284
   8   2.0000     -14.447878      -393.1467
   9   2.0000     -14.445604      -393.0849
  10   2.0000     -14.417475      -392.3195
  11   2.0000     -14.416700      -392.2984
  12   2.0000     -14.400167      -391.8485
  13   2.0000     -14.400139      -391.8477
  14   2.0000     -10.526044      -286.4282
  15   2.0000     -10.366978      -282.0998
  16   2.0000     -10.366132      -282.0768
  17   2.0000     -10.353431      -281.7312
  18   2.0000     -10.351557      -281.6802
  19   2.0000     -10.348432      -281.5952
  20   2.0000     -10.339050      -281.3398
  21   2.0000     -10.335957      -281.2557
  22   2.0000     -10.329177      -281.0712
  23   2.0000     -10.327277      -281.0195
  24   2.0000     -10.325690      -280.9763
  25   2.0000     -10.325359      -280.9673
  26   2.0000     -10.323699      -280.9221
  27   2.0000     -10.310987      -280.5762
  28   2.0000     -10.310862      -280.5728
  29   2.0000     -10.305636      -280.4306
  30   2.0000     -10.304920      -280.4111
  31   2.0000     -10.304106      -280.3890
  32   2.0000     -10.303923      -280.3840
  33   2.0000     -10.303880      -280.3828
  34   2.0000     -10.298971      -280.2493
  35   2.0000     -10.295724      -280.1609
  36   2.0000     -10.294505      -280.1277
  37   2.0000     -10.289060      -279.9795
  38   2.0000     -10.288552      -279.9657
  39   2.0000     -10.284848      -279.8649
  40   2.0000     -10.284717      -279.8614
  41   2.0000     -10.281951      -279.7861
  42   2.0000     -10.280683      -279.7516
  43   2.0000     -10.280508      -279.7468
  44   2.0000     -10.277750      -279.6718
  45   2.0000     -10.266490      -279.3654
  46   2.0000     -10.261538      -279.2306
  47   2.0000     -10.261256      -279.2230
  48   2.0000     -10.253695      -279.0172
  49   2.0000     -10.252632      -278.9883
  50   2.0000      -8.054726      -219.1802
  51   2.0000      -6.023807      -163.9161
  52   2.0000      -6.019813      -163.8074
  53   2.0000      -6.017086      -163.7332
  54   2.0000      -1.391580       -37.8668
  55   2.0000      -1.294581       -35.2273
  56   2.0000      -1.289300       -35.0836
  57   2.0000      -1.227853       -33.4116
  58   2.0000      -1.165529       -31.7156
  59   2.0000      -1.125593       -30.6289
  60   2.0000      -1.118918       -30.4473
  61   2.0000      -1.090983       -29.6872
  62   2.0000      -1.070878       -29.1401
  63   2.0000      -1.056388       -28.7458
  64   2.0000      -1.047908       -28.5150
  65   2.0000      -0.990795       -26.9609
  66   2.0000      -0.984746       -26.7963
  67   2.0000      -0.967026       -26.3141
  68   2.0000      -0.934342       -25.4247
  69   2.0000      -0.932475       -25.3739
  70   2.0000      -0.924573       -25.1589
  71   2.0000      -0.920283       -25.0422
  72   2.0000      -0.904291       -24.6070
  73   2.0000      -0.895500       -24.3678
  74   2.0000      -0.879461       -23.9313
  75   2.0000      -0.870915       -23.6988
  76   2.0000      -0.860887       -23.4259
  77   2.0000      -0.845580       -23.0094
  78   2.0000      -0.823265       -22.4022
  79   2.0000      -0.820878       -22.3372
  80   2.0000      -0.815913       -22.2021
  81   2.0000      -0.799642       -21.7594
  82   2.0000      -0.792381       -21.5618
  83   2.0000      -0.791170       -21.5288
  84   2.0000      -0.772361       -21.0170
  85   2.0000      -0.761746       -20.7282
  86   2.0000      -0.757473       -20.6119
  87   2.0000      -0.756731       -20.5917
  88   2.0000      -0.726942       -19.7811
  89   2.0000      -0.724194       -19.7063
  90   2.0000      -0.721144       -19.6233
  91   2.0000      -0.717399       -19.5214
  92   2.0000      -0.707179       -19.2433
  93   2.0000      -0.705283       -19.1917
  94   2.0000      -0.695868       -18.9355
  95   2.0000      -0.687196       -18.6996
  96   2.0000      -0.674680       -18.3590
  97   2.0000      -0.673859       -18.3366
  98   2.0000      -0.661970       -18.0131
  99   2.0000      -0.655601       -17.8398
 100   2.0000      -0.647317       -17.6144
 101   2.0000      -0.644853       -17.5474
 102   2.0000      -0.632106       -17.2005
 103   2.0000      -0.629050       -17.1173
 104   2.0000      -0.614677       -16.7262
 105   2.0000      -0.610064       -16.6007
 106   2.0000      -0.605881       -16.4869
 107   2.0000      -0.597396       -16.2560
 108   2.0000      -0.594274       -16.1710
 109   2.0000      -0.587380       -15.9834
 110   2.0000      -0.584958       -15.9175
 111   2.0000      -0.583821       -15.8866
 112   2.0000      -0.577579       -15.7167
 113   2.0000      -0.568560       -15.4713
 114   2.0000      -0.567475       -15.4418
 115   2.0000      -0.560166       -15.2429
 116   2.0000      -0.557636       -15.1741
 117   2.0000      -0.556686       -15.1482
 118   2.0000      -0.553840       -15.0707
 119   2.0000      -0.548922       -14.9369
 120   2.0000      -0.545754       -14.8507
 121   2.0000      -0.541318       -14.7300
 122   2.0000      -0.537324       -14.6213
 123   2.0000      -0.534920       -14.5559
 124   2.0000      -0.529305       -14.4031
 125   2.0000      -0.526346       -14.3226
 126   2.0000      -0.522617       -14.2211
 127   2.0000      -0.520154       -14.1541
 128   2.0000      -0.516555       -14.0562
 129   2.0000      -0.515101       -14.0166
 130   2.0000      -0.508730       -13.8433
 131   2.0000      -0.507256       -13.8032
 132   2.0000      -0.506757       -13.7896
 133   2.0000      -0.505805       -13.7636
 134   2.0000      -0.502150       -13.6642
 135   2.0000      -0.501730       -13.6528
 136   2.0000      -0.498407       -13.5623
 137   2.0000      -0.492866       -13.4116
 138   2.0000      -0.489990       -13.3333
 139   2.0000      -0.487254       -13.2589
 140   2.0000      -0.486533       -13.2392
 141   2.0000      -0.482490       -13.1292
 142   2.0000      -0.479828       -13.0568
 143   2.0000      -0.474107       -12.9011
 144   2.0000      -0.471519       -12.8307
 145   2.0000      -0.468759       -12.7556
 146   2.0000      -0.463740       -12.6190
 147   2.0000      -0.462122       -12.5750
 148   2.0000      -0.460212       -12.5230
 149   2.0000      -0.456772       -12.4294
 150   2.0000      -0.453571       -12.3423
 151   2.0000      -0.452551       -12.3145
 152   2.0000      -0.450144       -12.2490
 153   2.0000      -0.445314       -12.1176
 154   2.0000      -0.442210       -12.0331
 155   2.0000      -0.432988       -11.7822
 156   2.0000      -0.431250       -11.7349
 157   2.0000      -0.428049       -11.6478
 158   2.0000      -0.426121       -11.5953
 159   2.0000      -0.425359       -11.5746
 160   2.0000      -0.421919       -11.4810
 161   2.0000      -0.418289       -11.3822
 162   2.0000      -0.406343       -11.0572
 163   2.0000      -0.402203       -10.9445
 164   2.0000      -0.399641       -10.8748
 165   2.0000      -0.399157       -10.8616
 166   2.0000      -0.392770       -10.6878
 167   2.0000      -0.380362       -10.3502
 168   2.0000      -0.377617       -10.2755
 169   2.0000      -0.361943        -9.8490
 170   2.0000      -0.358219        -9.7476
 171   2.0000      -0.341448        -9.2913
 172   2.0000      -0.340021        -9.2524
 173   2.0000      -0.329180        -8.9574
 174   2.0000      -0.325071        -8.8456
 175   2.0000      -0.323968        -8.8156
 176   2.0000      -0.321627        -8.7519
 177   2.0000      -0.310635        -8.4528
 178   2.0000      -0.307692        -8.3727
 179   2.0000      -0.274765        -7.4767
 180   2.0000      -0.256909        -6.9908
 181   2.0000      -0.233051        -6.3416
 182   0.0000      -0.073782        -2.0077
 183   0.0000      -0.053850        -1.4653
 184   0.0000      -0.017165        -0.4671
 185   0.0000      -0.008458        -0.2302
 186   0.0000       0.001926         0.0524

MULLIKEN ATOMIC CHARGES
-----------------------
   0 C :    0.036975
   1 N :   -0.257853
   2 C :    0.112873
   3 C :   -0.003173
   4 C :    0.166204
   5 O :   -0.210054
   6 C :   -0.098555
   7 C :    0.004647
   8 C :    0.160079
   9 O :   -0.188292
  10 N :   -0.271433
  11 C :    0.103116
  12 C :    0.002590
  13 C :    0.160135
  14 C :   -0.037062
  15 C :   -0.021102
  16 C :    0.109457
  17 O :   -0.188836
  18 C :    0.140826
  19 C :    0.120717
  20 C :   -0.144063
  21 C :    0.522622
  22 F :   -0.135598
  23 F :   -0.170645
  24 F :   -0.165696
  25 O :   -0.315547
  26 C :    0.180117
  27 C :   -0.014913
  28 C :   -0.042258
  29 C :    0.149449
  30 C :   -0.260087
  31 C :    0.083316
  32 C :    0.021871
  33 S :    0.125433
  34 C :   -0.079621
  35 C :   -0.036875
  36 C :    0.087313
  37 C :   -0.004212
  38 C :    0.031625
  39 C :    0.032042
  40 N :   -0.043608
  41 C :   -0.074292
  42 N :   -0.042648
  43 C :    0.024417
  44 C :    0.003175
  45 C :    0.041171
  46 N :   -0.089675
  47 C :    0.065929
  48 N :   -0.091293
  49 C :    0.042335
  50 H :    0.013471
  51 H :    0.017202
  52 H :    0.042277
  53 H :    0.014436
  54 H :    0.022629
  55 H :    0.031264
  56 H :    0.041886
  57 H :    0.020066
  58 H :    0.030442
  59 H :    0.020170
  60 H :    0.013062
  61 H :   -0.014329
  62 H :    0.035550
  63 H :    0.032979
  64 H :    0.042781
  65 H :    0.032372
  66 H :   -0.019905
  67 H :   -0.001470
  68 H :    0.007490
  69 H :    0.027877
  70 H :    0.013618
  71 H :    0.018775
  72 H :    0.018336
  73 H :   -0.023954
  74 H :   -0.018446
  75 H :   -0.018304
  76 H :    0.004604
  77 H :    0.002111
  78 H :    0.017178
  79 H :    0.017551
  80 H :    0.017241
Sum of atomic charges:   -0.0000000

LOEWDIN ATOMIC CHARGES
----------------------
   0 C :    0.087023
   1 N :   -0.000379
   2 C :    0.038201
   3 C :   -0.060884
   4 C :    0.075094
   5 O :   -0.203634
   6 C :   -0.131921
   7 C :   -0.128229
   8 C :    0.081278
   9 O :   -0.193392
  10 N :   -0.009979
  11 C :    0.035831
  12 C :   -0.062013
  13 C :    0.082461
  14 C :   -0.043012
  15 C :    0.009175
  16 C :    0.042681
  17 O :    0.030436
  18 C :    0.011173
  19 C :    0.022786
  20 C :   -0.143324
  21 C :    0.174250
  22 F :   -0.033618
  23 F :   -0.065786
  24 F :   -0.066425
  25 O :   -0.093536
  26 C :    0.077216
  27 C :   -0.045566
  28 C :   -0.009080
  29 C :   -0.073196
  30 C :   -0.159544
  31 C :   -0.045993
  32 C :   -0.048556
  33 S :    0.436717
  34 C :   -0.176388
  35 C :   -0.040507
  36 C :   -0.024336
  37 C :   -0.028870
  38 C :   -0.067932
  39 C :    0.055340
  40 N :   -0.074667
  41 C :    0.028410
  42 N :   -0.075573
  43 C :    0.047635
  44 C :   -0.089513
  45 C :    0.066619
  46 N :   -0.086932
  47 C :    0.048959
  48 N :   -0.086905
  49 C :    0.067057
  50 H :    0.031885
  51 H :    0.023999
  52 H :    0.036169
  53 H :    0.022177
  54 H :    0.029798
  55 H :    0.031895
  56 H :    0.037232
  57 H :    0.022182
  58 H :    0.032555
  59 H :    0.029100
  60 H :    0.020791
  61 H :    0.029159
  62 H :    0.041341
  63 H :    0.027121
  64 H :    0.017834
  65 H :    0.018693
  66 H :    0.031523
  67 H :    0.027881
  68 H :    0.029827
  69 H :    0.035573
  70 H :    0.025248
  71 H :    0.024942
  72 H :    0.024432
  73 H :    0.024526
  74 H :    0.026645
  75 H :    0.028395
  76 H :    0.023868
  77 H :    0.024564
  78 H :    0.027003
  79 H :    0.017936
  80 H :    0.027053

  Mayer bond orders larger than 0.100000
B(  0-C ,  1-N ) :   1.1878 B(  0-C ,  7-C ) :   1.4582 B(  0-C , 50-H ) :   0.9909
B(  1-N ,  2-C ) :   0.9429 B(  1-N ,  4-C ) :   1.0544 B(  2-C ,  3-C ) :   1.1188
B(  2-C , 51-H ) :   0.9539 B(  2-C , 52-H ) :   0.9344 B(  3-C , 53-H ) :   0.9692
B(  3-C , 54-H ) :   0.9688 B(  3-C , 55-H ) :   0.9675 B(  4-C ,  5-O ) :   2.0317
B(  4-C ,  6-C ) :   1.0040 B(  5-O , 62-H ) :   0.1022 B(  6-C ,  7-C ) :   1.2021
B(  6-C , 13-C ) :   1.3840 B(  7-C ,  8-C ) :   0.9489 B(  8-C ,  9-O ) :   2.1737
B(  8-C , 10-N ) :   1.0211 B( 10-N , 11-C ) :   0.9494 B( 10-N , 13-C ) :   1.1516
B( 11-C , 12-C ) :   1.1194 B( 11-C , 56-H ) :   0.9285 B( 11-C , 57-H ) :   0.9503
B( 12-C , 58-H ) :   0.9641 B( 12-C , 59-H ) :   0.9680 B( 12-C , 60-H ) :   0.9689
B( 13-C , 14-C ) :   1.1292 B( 14-C , 15-C ) :   1.5972 B( 14-C , 61-H ) :   0.9730
B( 15-C , 16-C ) :   1.1713 B( 15-C , 62-H ) :   0.9333 B( 16-C , 17-O ) :   1.1685
B( 16-C , 18-C ) :   0.1145 B( 16-C , 20-C ) :   1.3939 B( 17-O , 18-C ) :   1.1219
B( 18-C , 19-C ) :   1.4182 B( 18-C , 27-C ) :   1.1238 B( 19-C , 20-C ) :   1.2449
B( 19-C , 25-O ) :   1.1809 B( 20-C , 21-C ) :   0.9440 B( 21-C , 22-F ) :   1.1703
B( 21-C , 23-F ) :   1.1426 B( 21-C , 24-F ) :   1.1547 B( 25-O , 26-C ) :   0.9231
B( 26-C , 63-H ) :   0.9772 B( 26-C , 64-H ) :   0.9674 B( 26-C , 65-H ) :   0.9650
B( 27-C , 28-C ) :   1.6824 B( 27-C , 66-H ) :   0.9562 B( 28-C , 29-C ) :   1.0828
B( 28-C , 67-H ) :   0.9672 B( 29-C , 30-C ) :   1.4967 B( 29-C , 35-C ) :   1.2179
B( 30-C , 31-C ) :   1.0665 B( 30-C , 33-S ) :   1.1569 B( 31-C , 32-C ) :   1.0981
B( 31-C , 68-H ) :   0.9209 B( 31-C , 69-H ) :   0.9236 B( 32-C , 70-H ) :   0.9654
B( 32-C , 71-H ) :   0.9676 B( 32-C , 72-H ) :   0.9733 B( 33-S , 34-C ) :   1.1064
B( 34-C , 35-C ) :   1.5496 B( 34-C , 36-C ) :   1.0974 B( 35-C , 73-H ) :   0.9897
B( 36-C , 37-C ) :   1.7293 B( 36-C , 74-H ) :   0.9561 B( 37-C , 38-C ) :   1.0778
B( 37-C , 75-H ) :   0.9791 B( 38-C , 39-C ) :   1.3038 B( 38-C , 43-C ) :   1.3050
B( 39-C , 40-N ) :   1.5799 B( 39-C , 76-H ) :   0.9848 B( 40-N , 41-C ) :   1.5692
B( 41-C , 42-N ) :   1.5763 B( 41-C , 44-C ) :   0.9650 B( 42-N , 43-C ) :   1.5672
B( 43-C , 77-H ) :   0.9887 B( 44-C , 45-C ) :   1.3587 B( 44-C , 49-C ) :   1.3582
B( 45-C , 46-N ) :   1.5533 B( 45-C , 78-H ) :   0.9790 B( 46-N , 47-C ) :   1.5060
B( 47-C , 48-N ) :   1.5075 B( 47-C , 79-H ) :   0.9760 B( 48-N , 49-C ) :   1.5518
B( 49-C , 80-H ) :   0.9791

-----------------------------------------------------------------------------
         ABSORPTION SPECTRUM VIA TRANSITION ELECTRIC DIPOLE MOMENTS
-----------------------------------------------------------------------------
State   Energy  Wavelength   fosc         T2         TX        TY        TZ
        (cm-1)    (nm)                  (au**2)     (au)      (au)      (au)
-----------------------------------------------------------------------------
   0   19056.3    524.8   0.951224934  16.43316  -2.56861   3.12814   0.22388
   1   24223.6    412.8   0.215072885   2.92296  -0.56398   1.60666   0.15336
   2   26729.8    374.1   0.480597436   5.91918  -0.07285   0.03208  -2.43163
   3   28659.4    348.9   0.007101492   0.08158   0.05937   0.12341  -0.25064
   4   30082.3    332.4   0.001534041   0.01679   0.10141  -0.00294  -0.08059
   5   30624.3    326.5   0.021339931   0.22940   0.19644  -0.36122  -0.24564
   6   31046.4    322.1   0.712520058   7.55546   0.57872  -1.37223  -2.31031
   7   32304.6    309.6   0.574566601   5.85533  -0.27676   0.91457  -2.22313
   8   32862.9    304.3   0.001448437   0.01451  -0.03279  -0.03775   0.10959
   9   34520.5    289.7   0.000115699   0.00110   0.02831  -0.00092   0.01736
  10   35092.6    285.0   0.000634738   0.00595   0.00414   0.02807   0.07176
  11   35218.3    283.9   0.136257939   1.27371  -0.09913   0.24250   1.09776
  12   36633.0    273.0   0.173074544   1.55538  -0.91302   0.65202   0.54466
  13   38004.8    263.1   0.012319992   0.10672  -0.09819   0.13540  -0.28062
  14   38389.4    260.5   0.116478931   0.99888   0.38031  -0.10538  -0.91822
  15   39042.5    256.1   0.007675253   0.06472  -0.20759  -0.14701   0.00348
  16   39724.0    251.7   0.206730049   1.71327  -0.34814  -0.10638   1.25728
  17   40326.3    248.0   0.030260480   0.24704  -0.06402   0.12395   0.47705

FINAL SINGLE POINT ENERGY     -2714.680764135760

DIPOLE MOMENT
-------------
                                X             Y             Z
Electronic contribution:     -5.79895       2.79616      -5.28882
Nuclear contribution   :      5.99317      -2.53541       2.65524
                        -----------------------------------------
Total Dipole Moment    :      0.19422       0.26075      -2.63358
                        -----------------------------------------
Magnitude (a.u.)       :      2.65357
Magnitude (Debye)      :      6.74484

Rotational constants in cm-1:     0.002000     0.000600     0.000469
Rotational constants in MHz :    59.962391    17.996452    14.060888

                             ****ORCA TERMINATED NORMALLY****
TOTAL RUN TIME: 0 days 0 hours 10 minutes 26 seconds 206 msec
