                         Program Version 4.2.0 -  RELEASE  -
|  1> # ORCA input file
|  2> # SCF done       -160.903530550564          0.000644349252
|  3> ! CAM-B3LYP def2-SVP def2/J RIJCOSX Grid4 TightSCF
|  4> %maxcore 5000
|  5> %tddft
|  6>     Mode sTDDFT
|  7>     Ethresh 5.0
|  8>     maxcore 5000
|  9> end
| 10>
| 11> %pal
| 12>   nprocs 6
| 13>   end
| 14> * xyz 0 1
| 15>    C       -9.32055         0.87239         4.16690
| 16>    N       -9.81037         2.13954         4.24719
| 17>    C      -11.04705         2.52754         4.87639
| 18>    C      -10.93084         2.52458         6.39831
| 19>    C       -8.92018         3.07400         3.67493
| 20>    O       -9.14369         4.27149         3.63891
| 21>    C       -7.82043         2.26984         3.21030
| 22>    C       -8.10764         0.90467         3.54091
| 23>    C       -7.01563         0.08829         3.05390
| 24>    O       -6.80178        -1.10317         3.09537
| 25>    N       -6.14504         1.01279         2.44323
| 26>    C       -4.88730         0.58717         1.88179
| 27>    C       -3.71490         0.90213         2.80811
| 28>    C       -6.61180         2.30802         2.52987
| 29>    C       -5.94262         3.41925         1.95343
| 30>    C       -6.39110         4.69141         2.10008
| 31>    C       -5.80387         5.83024         1.49016
| 32>    S       -6.43758         7.41783         1.84439
| 33>    C       -5.33879         8.18085         0.74162
| 34>    C       -4.51084         7.22472         0.14422
| 35>    C       -4.77669         5.91435         0.57443
| 36>    C       -3.48138         7.49868        -0.77014
| 37>    N       -2.61518         7.66492        -1.50563
| 38>    C       -5.40194         9.58411         0.54707
| 39>    C       -4.81443        10.25437        -0.47354
| 40>    C       -4.91335        11.64904        -0.68375
| 41>    S       -5.63553        12.75225         0.47666
| 42>    C       -5.38692        14.11931        -0.55529
| 43>    C       -4.79787        13.75633        -1.71727
| 44>    C       -4.51429        12.36180        -1.79685
| 45>    C       -3.93702        12.07938        -3.07574
| 46>    C       -3.85324        13.23340        -3.77979
| 47>    C       -4.35618        14.42026        -2.98182
| 48>    N       -3.50839        13.31335        -5.12189
| 49>    C       -2.92337        14.36522        -5.79452
| 50>    C       -2.37533        15.58077        -5.15103
| 51>    C       -2.89115        14.05773        -7.12747
| 52>    C       -3.47453        12.75719        -7.31803
| 53>    C       -3.88098        12.25790        -6.03209
| 54>    O       -4.43333        11.23995        -5.69430
| 55>    C       -3.45106        12.44742        -8.64786
| 56>    C       -3.93738        11.22633        -9.32224
| 57>    N       -2.87930        13.51247        -9.31702
| 58>    C       -2.49031        14.56569        -8.41264
| 59>    O       -1.94884        15.58290        -8.76696
| 60>    C       -2.71402        13.61245       -10.68711
| 61>    O       -3.03110        14.80619       -11.26166
| 62>    C       -2.78908        14.65789       -12.55981
| 63>    C       -2.32949        13.37981       -12.85124
| 64>    C       -2.27584        12.69758       -11.61954
| 65>    C       -2.08993        13.25857       -14.31265
| 66>    O       -1.70307        12.30943       -14.94411
| 67>    C       -2.46259        14.61623       -14.81982
| 68>    C       -2.87152        15.42887       -13.76127
| 69>    S       -3.31491        16.98914       -14.27817
| 70>    C       -2.95524        16.56780       -15.94130
| 71>    C       -2.51126        15.26538       -16.05369
| 72>    C       -3.14948        17.56288       -16.95927
| 73>    C       -2.92308        17.38728       -18.26001
| 74>    H       -9.87795         0.03845         4.55130
| 75>    H      -11.84227         1.84848         4.55376
| 76>    H      -11.27062         3.53739         4.52152
| 77>    H      -10.68067         1.53039         6.76222
| 78>    H      -11.87365         2.83234         6.84168
| 79>    H      -10.15405         3.21670         6.71396
| 80>    H       -4.74396         1.05028         0.90094
| 81>    H       -4.96970        -0.49552         1.74943
| 82>    H       -3.63967         1.97184         2.99228
| 83>    H       -2.78707         0.55673         2.36046
| 84>    H       -3.85095         0.39641         3.76085
| 85>    H       -5.05585         3.22206         1.36937
| 86>    H       -7.26866         4.87210         2.70657
| 87>    H       -4.23121         5.06398         0.20589
| 88>    H       -6.01130        10.13350         1.25371
| 89>    H       -4.25135         9.71628        -1.22316
| 90>    H       -5.70813        15.08607        -0.22139
| 91>    H       -3.65067        11.10458        -3.41860
| 92>    H       -5.17623        14.92517        -3.49683
| 93>    H       -3.57627        15.15552        -2.78017
| 94>    H       -1.76425        15.32103        -4.28778
| 95>    H       -3.17297        16.24901        -4.82761
| 96>    H       -1.76559        16.10897        -5.88006
| 97>    H       -4.62469        10.70716        -8.65917
| 98>    H       -3.10558        10.55577        -9.53891
| 99>    H       -4.43043        11.46802       -10.26237
|100>    H       -1.94880        11.69621       -11.43600
|101>    H       -2.23633        14.80864       -16.98577
|102>    H       -3.51022        18.51807       -16.60052
|103>    H       -2.56528        16.45483       -18.65975
|104>    H       -3.09272        18.17993       -18.96650
|105> *
|106>
|107>                          ****END OF INPUT****

CARTESIAN COORDINATES (ANGSTROEM)
---------------------------------
  C     -9.320550    0.872390    4.166900
  N     -9.810370    2.139540    4.247190
  C    -11.047050    2.527540    4.876390
  C    -10.930840    2.524580    6.398310
  C     -8.920180    3.074000    3.674930
  O     -9.143690    4.271490    3.638910
  C     -7.820430    2.269840    3.210300
  C     -8.107640    0.904670    3.540910
  C     -7.015630    0.088290    3.053900
  O     -6.801780   -1.103170    3.095370
  N     -6.145040    1.012790    2.443230
  C     -4.887300    0.587170    1.881790
  C     -3.714900    0.902130    2.808110
  C     -6.611800    2.308020    2.529870
  C     -5.942620    3.419250    1.953430
  C     -6.391100    4.691410    2.100080
  C     -5.803870    5.830240    1.490160
  S     -6.437580    7.417830    1.844390
  C     -5.338790    8.180850    0.741620
  C     -4.510840    7.224720    0.144220
  C     -4.776690    5.914350    0.574430
  C     -3.481380    7.498680   -0.770140
  N     -2.615180    7.664920   -1.505630
  C     -5.401940    9.584110    0.547070
  C     -4.814430   10.254370   -0.473540
  C     -4.913350   11.649040   -0.683750
  S     -5.635530   12.752250    0.476660
  C     -5.386920   14.119310   -0.555290
  C     -4.797870   13.756330   -1.717270
  C     -4.514290   12.361800   -1.796850
  C     -3.937020   12.079380   -3.075740
  C     -3.853240   13.233400   -3.779790
  C     -4.356180   14.420260   -2.981820
  N     -3.508390   13.313350   -5.121890
  C     -2.923370   14.365220   -5.794520
  C     -2.375330   15.580770   -5.151030
  C     -2.891150   14.057730   -7.127470
  C     -3.474530   12.757190   -7.318030
  C     -3.880980   12.257900   -6.032090
  O     -4.433330   11.239950   -5.694300
  C     -3.451060   12.447420   -8.647860
  C     -3.937380   11.226330   -9.322240
  N     -2.879300   13.512470   -9.317020
  C     -2.490310   14.565690   -8.412640
  O     -1.948840   15.582900   -8.766960
  C     -2.714020   13.612450  -10.687110
  O     -3.031100   14.806190  -11.261660
  C     -2.789080   14.657890  -12.559810
  C     -2.329490   13.379810  -12.851240
  C     -2.275840   12.697580  -11.619540
  C     -2.089930   13.258570  -14.312650
  O     -1.703070   12.309430  -14.944110
  C     -2.462590   14.616230  -14.819820
  C     -2.871520   15.428870  -13.761270
  S     -3.314910   16.989140  -14.278170
  C     -2.955240   16.567800  -15.941300
  C     -2.511260   15.265380  -16.053690
  C     -3.149480   17.562880  -16.959270
  C     -2.923080   17.387280  -18.260010
  H     -9.877950    0.038450    4.551300
  H    -11.842270    1.848480    4.553760
  H    -11.270620    3.537390    4.521520
  H    -10.680670    1.530390    6.762220
  H    -11.873650    2.832340    6.841680
  H    -10.154050    3.216700    6.713960
  H     -4.743960    1.050280    0.900940
  H     -4.969700   -0.495520    1.749430
  H     -3.639670    1.971840    2.992280
  H     -2.787070    0.556730    2.360460
  H     -3.850950    0.396410    3.760850
  H     -5.055850    3.222060    1.369370
  H     -7.268660    4.872100    2.706570
  H     -4.231210    5.063980    0.205890
  H     -6.011300   10.133500    1.253710
  H     -4.251350    9.716280   -1.223160
  H     -5.708130   15.086070   -0.221390
  H     -3.650670   11.104580   -3.418600
  H     -5.176230   14.925170   -3.496830
  H     -3.576270   15.155520   -2.780170
  H     -1.764250   15.321030   -4.287780
  H     -3.172970   16.249010   -4.827610
  H     -1.765590   16.108970   -5.880060
  H     -4.624690   10.707160   -8.659170
  H     -3.105580   10.555770   -9.538910
  H     -4.430430   11.468020  -10.262370
  H     -1.948800   11.696210  -11.436000
  H     -2.236330   14.808640  -16.985770
  H     -3.510220   18.518070  -16.600520
  H     -2.565280   16.454830  -18.659750
  H     -3.092720   18.179930  -18.966500

 Total Charge           Charge          ....    0
 Multiplicity           Mult            ....    1
 Number of Electrons    NEL             ....  432
 Basis Dimension        Dim             ....  993

ORBITAL ENERGIES
----------------

  NO   OCC          E(Eh)            E(eV)
   0   2.0000     -88.976283     -2421.1677
   1   2.0000     -88.968220     -2420.9483
   2   2.0000     -88.952039     -2420.5080
   3   2.0000     -19.315491      -525.6012
   4   2.0000     -19.218823      -522.9708
   5   2.0000     -19.200799      -522.4803
   6   2.0000     -19.200104      -522.4614
   7   2.0000     -19.180905      -521.9390
   8   2.0000     -19.179279      -521.8947
   9   2.0000     -14.476725      -393.9317
  10   2.0000     -14.473017      -393.8308
  11   2.0000     -14.445467      -393.0812
  12   2.0000     -14.444020      -393.0418
  13   2.0000     -14.402906      -391.9230
  14   2.0000     -10.387361      -282.6545
  15   2.0000     -10.385513      -282.6042
  16   2.0000     -10.376211      -282.3511
  17   2.0000     -10.371200      -282.2147
  18   2.0000     -10.365381      -282.0564
  19   2.0000     -10.363114      -281.9947
  20   2.0000     -10.351236      -281.6714
  21   2.0000     -10.350068      -281.6397
  22   2.0000     -10.349365      -281.6205
  23   2.0000     -10.334971      -281.2289
  24   2.0000     -10.326523      -280.9990
  25   2.0000     -10.323821      -280.9255
  26   2.0000     -10.320086      -280.8238
  27   2.0000     -10.318400      -280.7779
  28   2.0000     -10.309965      -280.5484
  29   2.0000     -10.308741      -280.5151
  30   2.0000     -10.306423      -280.4520
  31   2.0000     -10.304705      -280.4053
  32   2.0000     -10.303104      -280.3617
  33   2.0000     -10.302245      -280.3384
  34   2.0000     -10.299967      -280.2764
  35   2.0000     -10.298724      -280.2425
  36   2.0000     -10.295376      -280.1514
  37   2.0000     -10.294744      -280.1342
  38   2.0000     -10.294688      -280.1327
  39   2.0000     -10.292055      -280.0611
  40   2.0000     -10.291644      -280.0499
  41   2.0000     -10.291247      -280.0391
  42   2.0000     -10.288790      -279.9722
  43   2.0000     -10.285576      -279.8847
  44   2.0000     -10.285401      -279.8800
  45   2.0000     -10.284519      -279.8560
  46   2.0000     -10.284449      -279.8541
  47   2.0000     -10.279154      -279.7100
  48   2.0000     -10.278914      -279.7035
  49   2.0000     -10.278785      -279.7000
  50   2.0000     -10.274624      -279.5867
  51   2.0000     -10.273502      -279.5562
  52   2.0000     -10.268382      -279.4169
  53   2.0000     -10.266891      -279.3763
  54   2.0000     -10.266457      -279.3645
  55   2.0000     -10.260248      -279.1955
  56   2.0000     -10.259120      -279.1648
  57   2.0000     -10.251380      -278.9542
  58   2.0000     -10.249125      -278.8929
  59   2.0000      -8.070773      -219.6169
  60   2.0000      -8.063909      -219.4301
  61   2.0000      -8.047594      -218.9862
  62   2.0000      -6.039862      -164.3530
  63   2.0000      -6.035782      -164.2420
  64   2.0000      -6.033449      -164.1785
  65   2.0000      -6.033051      -164.1677
  66   2.0000      -6.028949      -164.0560
  67   2.0000      -6.026222      -163.9818
  68   2.0000      -6.017073      -163.7329
  69   2.0000      -6.012768      -163.6157
  70   2.0000      -6.009518      -163.5273
  71   2.0000      -1.236523       -33.6475
  72   2.0000      -1.143816       -31.1248
  73   2.0000      -1.137463       -30.9519
  74   2.0000      -1.131576       -30.7917
  75   2.0000      -1.123124       -30.5618
  76   2.0000      -1.116339       -30.3771
  77   2.0000      -1.077906       -29.3313
  78   2.0000      -1.070888       -29.1403
  79   2.0000      -1.053897       -28.6780
  80   2.0000      -1.045546       -28.4508
  81   2.0000      -1.006631       -27.3918
  82   2.0000      -1.005235       -27.3538
  83   2.0000      -0.996918       -27.1275
  84   2.0000      -0.981627       -26.7114
  85   2.0000      -0.949722       -25.8432
  86   2.0000      -0.940868       -25.6023
  87   2.0000      -0.923837       -25.1389
  88   2.0000      -0.920153       -25.0386
  89   2.0000      -0.913168       -24.8486
  90   2.0000      -0.894547       -24.3419
  91   2.0000      -0.888530       -24.1781
  92   2.0000      -0.880947       -23.9718
  93   2.0000      -0.868095       -23.6221
  94   2.0000      -0.864528       -23.5250
  95   2.0000      -0.861398       -23.4398
  96   2.0000      -0.860878       -23.4257
  97   2.0000      -0.850830       -23.1523
  98   2.0000      -0.846470       -23.0336
  99   2.0000      -0.824832       -22.4448
 100   2.0000      -0.821508       -22.3544
 101   2.0000      -0.813922       -22.1479
 102   2.0000      -0.796896       -21.6846
 103   2.0000      -0.786101       -21.3909
 104   2.0000      -0.779192       -21.2029
 105   2.0000      -0.769850       -20.9487
 106   2.0000      -0.759541       -20.6682
 107   2.0000      -0.757760       -20.6197
 108   2.0000      -0.754894       -20.5417
 109   2.0000      -0.753644       -20.5077
 110   2.0000      -0.730926       -19.8895
 111   2.0000      -0.724077       -19.7031
 112   2.0000      -0.708563       -19.2810
 113   2.0000      -0.704458       -19.1693
 114   2.0000      -0.702813       -19.1245
 115   2.0000      -0.691879       -18.8270
 116   2.0000      -0.680178       -18.5086
 117   2.0000      -0.676336       -18.4040
 118   2.0000      -0.672220       -18.2920
 119   2.0000      -0.666841       -18.1457
 120   2.0000      -0.650731       -17.7073
 121   2.0000      -0.649989       -17.6871
 122   2.0000      -0.644295       -17.5322
 123   2.0000      -0.626254       -17.0412
 124   2.0000      -0.622979       -16.9521
 125   2.0000      -0.615583       -16.7509
 126   2.0000      -0.612035       -16.6543
 127   2.0000      -0.608227       -16.5507
 128   2.0000      -0.597373       -16.2553
 129   2.0000      -0.593199       -16.1418
 130   2.0000      -0.591608       -16.0985
 131   2.0000      -0.588324       -16.0091
 132   2.0000      -0.584238       -15.8979
 133   2.0000      -0.581489       -15.8231
 134   2.0000      -0.579672       -15.7737
 135   2.0000      -0.571741       -15.5579
 136   2.0000      -0.571001       -15.5377
 137   2.0000      -0.567990       -15.4558
 138   2.0000      -0.563203       -15.3255
 139   2.0000      -0.553977       -15.0745
 140   2.0000      -0.549286       -14.9468
 141   2.0000      -0.545998       -14.8574
 142   2.0000      -0.544515       -14.8170
 143   2.0000      -0.540988       -14.7210
 144   2.0000      -0.535261       -14.5652
 145   2.0000      -0.534554       -14.5459
 146   2.0000      -0.529809       -14.4168
 147   2.0000      -0.526337       -14.3224
 148   2.0000      -0.525025       -14.2867
 149   2.0000      -0.522912       -14.2292
 150   2.0000      -0.521296       -14.1852
 151   2.0000      -0.514476       -13.9996
 152   2.0000      -0.511172       -13.9097
 153   2.0000      -0.508707       -13.8426
 154   2.0000      -0.508362       -13.8332
 155   2.0000      -0.507499       -13.8098
 156   2.0000      -0.506596       -13.7852
 157   2.0000      -0.505820       -13.7641
 158   2.0000      -0.504990       -13.7415
 159   2.0000      -0.501603       -13.6493
 160   2.0000      -0.500946       -13.6314
 161   2.0000      -0.500152       -13.6098
 162   2.0000      -0.497718       -13.5436
 163   2.0000      -0.496575       -13.5125
 164   2.0000      -0.491780       -13.3820
 165   2.0000      -0.487289       -13.2598
 166   2.0000      -0.479068       -13.0361
 167   2.0000      -0.474120       -12.9014
 168   2.0000      -0.473337       -12.8802
 169   2.0000      -0.472297       -12.8519
 170   2.0000      -0.470631       -12.8065
 171   2.0000      -0.469300       -12.7703
 172   2.0000      -0.468991       -12.7619
 173   2.0000      -0.463264       -12.6061
 174   2.0000      -0.460460       -12.5297
 175   2.0000      -0.456116       -12.4115
 176   2.0000      -0.455186       -12.3862
 177   2.0000      -0.451159       -12.2767
 178   2.0000      -0.448267       -12.1980
 179   2.0000      -0.447205       -12.1691
 180   2.0000      -0.442495       -12.0409
 181   2.0000      -0.441503       -12.0139
 182   2.0000      -0.440091       -11.9755
 183   2.0000      -0.439690       -11.9646
 184   2.0000      -0.433681       -11.8011
 185   2.0000      -0.433175       -11.7873
 186   2.0000      -0.429378       -11.6840
 187   2.0000      -0.427491       -11.6326
 188   2.0000      -0.425461       -11.5774
 189   2.0000      -0.423417       -11.5218
 190   2.0000      -0.418392       -11.3850
 191   2.0000      -0.416949       -11.3458
 192   2.0000      -0.410460       -11.1692
 193   2.0000      -0.401304       -10.9200
 194   2.0000      -0.397785       -10.8243
 195   2.0000      -0.396383       -10.7861
 196   2.0000      -0.395650       -10.7662
 197   2.0000      -0.386853       -10.5268
 198   2.0000      -0.373336       -10.1590
 199   2.0000      -0.360582        -9.8119
 200   2.0000      -0.355799        -9.6818
 201   2.0000      -0.350317        -9.5326
 202   2.0000      -0.338208        -9.2031
 203   2.0000      -0.337880        -9.1942
 204   2.0000      -0.336292        -9.1510
 205   2.0000      -0.334965        -9.1149
 206   2.0000      -0.330724        -8.9994
 207   2.0000      -0.322161        -8.7664
 208   2.0000      -0.321808        -8.7568
 209   2.0000      -0.312535        -8.5045
 210   2.0000      -0.305264        -8.3067
 211   2.0000      -0.290418        -7.9027
 212   2.0000      -0.270287        -7.3549
 213   2.0000      -0.252486        -6.8705
 214   2.0000      -0.245681        -6.6853
 215   2.0000      -0.232268        -6.3203
 216   0.0000      -0.074509        -2.0275
 217   0.0000      -0.061578        -1.6756
 218   0.0000      -0.049437        -1.3453
 219   0.0000      -0.040248        -1.0952
 220   0.0000      -0.005909        -0.1608

MULLIKEN ATOMIC CHARGES
-----------------------
   0 C :    0.032515
   1 N :   -0.257704
   2 C :    0.116318
   3 C :   -0.000050
   4 C :    0.170411
   5 O :   -0.224444
   6 C :   -0.108984
   7 C :    0.008056
   8 C :    0.160885
   9 O :   -0.188661
  10 N :   -0.271468
  11 C :    0.100399
  12 C :    0.004735
  13 C :    0.159652
  14 C :   -0.038283
  15 C :    0.090055
  16 C :   -0.086076
  17 S :    0.172736
  18 C :   -0.049803
  19 C :   -0.075211
  20 C :    0.015349
  21 C :   -0.184378
  22 N :    0.109763
  23 C :    0.017423
  24 C :    0.000318
  25 C :   -0.132209
  26 S :    0.100539
  27 C :   -0.141247
  28 C :   -0.081027
  29 C :    0.107922
  30 C :    0.003144
  31 C :   -0.062171
  32 C :    0.278712
  33 N :   -0.208990
  34 C :   -0.083536
  35 C :    0.118707
  36 C :   -0.044859
  37 C :   -0.028286
  38 C :    0.166601
  39 O :   -0.165612
  40 C :   -0.077115
  41 C :    0.123038
  42 N :   -0.226870
  43 C :    0.177464
  44 O :   -0.159457
  45 C :    0.234746
  46 O :   -0.146686
  47 C :    0.094850
  48 C :   -0.082119
  49 C :   -0.116132
  50 C :    0.200946
  51 O :   -0.104046
  52 C :   -0.083043
  53 C :   -0.069069
  54 S :    0.196991
  55 C :   -0.099745
  56 C :   -0.001279
  57 C :    0.041360
  58 C :   -0.021893
  59 H :    0.011723
  60 H :    0.015835
  61 H :    0.039813
  62 H :    0.013241
  63 H :    0.020618
  64 H :    0.029415
  65 H :    0.018707
  66 H :    0.043624
  67 H :    0.015218
  68 H :    0.021491
  69 H :    0.028014
  70 H :   -0.029473
  71 H :    0.010053
  72 H :   -0.005439
  73 H :   -0.010080
  74 H :    0.013031
  75 H :    0.013212
  76 H :    0.003466
  77 H :    0.036313
  78 H :    0.029416
  79 H :    0.045391
  80 H :    0.047180
  81 H :    0.046640
  82 H :    0.048721
  83 H :    0.051634
  84 H :    0.045078
  85 H :   -0.014723
  86 H :   -0.009297
  87 H :   -0.009996
  88 H :    0.019620
  89 H :    0.028372
Sum of atomic charges:   -0.0000000

LOEWDIN ATOMIC CHARGES
----------------------
   0 C :    0.082863
   1 N :    0.000395
   2 C :    0.038228
   3 C :   -0.060493
   4 C :    0.074730
   5 O :   -0.214937
   6 C :   -0.137639
   7 C :   -0.126810
   8 C :    0.082230
   9 O :   -0.192696
  10 N :   -0.010346
  11 C :    0.035066
  12 C :   -0.061530
  13 C :    0.087568
  14 C :   -0.055416
  15 C :    0.018594
  16 C :   -0.181497
  17 S :    0.475366
  18 C :   -0.126857
  19 C :   -0.117833
  20 C :   -0.010858
  21 C :   -0.029085
  22 N :   -0.066718
  23 C :   -0.072891
  24 C :    0.002257
  25 C :   -0.185523
  26 S :    0.416074
  27 C :   -0.172606
  28 C :   -0.055887
  29 C :   -0.037574
  30 C :   -0.017527
  31 C :    0.016666
  32 C :   -0.017304
  33 N :    0.004486
  34 C :    0.084790
  35 C :   -0.047683
  36 C :   -0.134485
  37 C :   -0.134623
  38 C :    0.097199
  39 O :   -0.165279
  40 C :    0.094220
  41 C :   -0.046975
  42 N :   -0.008659
  43 C :    0.092080
  44 O :   -0.169596
  45 C :    0.057165
  46 O :    0.045568
  47 C :    0.031492
  48 C :   -0.108678
  49 C :   -0.051537
  50 C :    0.093349
  51 O :   -0.109584
  52 C :   -0.092994
  53 C :   -0.192060
  54 S :    0.481068
  55 C :   -0.173210
  56 C :   -0.022779
  57 C :   -0.044444
  58 C :   -0.039617
  59 H :    0.031114
  60 H :    0.023730
  61 H :    0.035432
  62 H :    0.021896
  63 H :    0.029151
  64 H :    0.031281
  65 H :    0.020755
  66 H :    0.037623
  67 H :    0.021671
  68 H :    0.029758
  69 H :    0.031882
  70 H :    0.026567
  71 H :    0.037569
  72 H :    0.037182
  73 H :    0.024471
  74 H :    0.044269
  75 H :    0.024026
  76 H :    0.035648
  77 H :    0.046531
  78 H :    0.045393
  79 H :    0.044322
  80 H :    0.046246
  81 H :    0.053347
  82 H :    0.053267
  83 H :    0.050741
  84 H :    0.044654
  85 H :    0.036550
  86 H :    0.038125
  87 H :    0.028560
  88 H :    0.022868
  89 H :    0.028149

  Mayer bond orders larger than 0.100000
B(  0-C ,  1-N ) :   1.1844 B(  0-C ,  7-C ) :   1.4632 B(  0-C , 59-H ) :   0.9905
B(  1-N ,  2-C ) :   0.9460 B(  1-N ,  4-C ) :   1.0604 B(  2-C ,  3-C ) :   1.1178
B(  2-C , 60-H ) :   0.9535 B(  2-C , 61-H ) :   0.9342 B(  3-C , 62-H ) :   0.9693
B(  3-C , 63-H ) :   0.9690 B(  3-C , 64-H ) :   0.9675 B(  4-C ,  5-O ) :   2.0076
B(  4-C ,  6-C ) :   1.0132 B(  5-O , 71-H ) :   0.1137 B(  6-C ,  7-C ) :   1.1994
B(  6-C , 13-C ) :   1.3716 B(  7-C ,  8-C ) :   0.9485 B(  8-C ,  9-O ) :   2.1741
B(  8-C , 10-N ) :   1.0188 B( 10-N , 11-C ) :   0.9510 B( 10-N , 13-C ) :   1.1514
B( 11-C , 12-C ) :   1.1197 B( 11-C , 65-H ) :   0.9494 B( 11-C , 66-H ) :   0.9271
B( 12-C , 67-H ) :   0.9681 B( 12-C , 68-H ) :   0.9682 B( 12-C , 69-H ) :   0.9639
B( 13-C , 14-C ) :   1.1629 B( 14-C , 15-C ) :   1.6332 B( 14-C , 70-H ) :   0.9614
B( 15-C , 16-C ) :   1.1173 B( 15-C , 71-H ) :   0.9369 B( 16-C , 17-S ) :   1.1089
B( 16-C , 20-C ) :   1.4728 B( 17-S , 18-C ) :   1.1535 B( 18-C , 19-C ) :   1.4296
B( 18-C , 23-C ) :   1.1553 B( 19-C , 20-C ) :   1.3039 B( 19-C , 21-C ) :   1.1152
B( 20-C , 72-H ) :   0.9989 B( 21-C , 22-N ) :   2.9828 B( 23-C , 24-C ) :   1.6446
B( 23-C , 73-H ) :   0.9500 B( 24-C , 25-C ) :   1.1863 B( 24-C , 74-H ) :   0.9594
B( 25-C , 26-S ) :   1.0905 B( 25-C , 29-C ) :   1.4186 B( 26-S , 27-C ) :   1.1364
B( 27-C , 28-C ) :   1.6003 B( 27-C , 75-H ) :   0.9760 B( 28-C , 29-C ) :   1.2729
B( 28-C , 32-C ) :   0.9840 B( 29-C , 30-C ) :   1.0556 B( 30-C , 31-C ) :   1.7114
B( 30-C , 76-H ) :   1.0031 B( 31-C , 32-C ) :   1.0635 B( 31-C , 33-N ) :   1.0014
B( 32-C , 77-H ) :   0.8840 B( 32-C , 78-H ) :   0.8734 B( 33-N , 34-C ) :   1.1473
B( 33-N , 38-C ) :   0.9580 B( 34-C , 35-C ) :   1.1293 B( 34-C , 36-C ) :   1.5026
B( 35-C , 79-H ) :   0.9339 B( 35-C , 80-H ) :   0.9254 B( 35-C , 81-H ) :   0.9281
B( 36-C , 37-C ) :   1.1656 B( 36-C , 43-C ) :   0.9760 B( 37-C , 38-C ) :   0.9777
B( 37-C , 40-C ) :   1.4966 B( 38-C , 39-O ) :   2.1782 B( 40-C , 41-C ) :   1.1374
B( 40-C , 42-N ) :   1.1380 B( 41-C , 82-H ) :   0.9291 B( 41-C , 83-H ) :   0.9273
B( 41-C , 84-H ) :   0.9275 B( 42-N , 43-C ) :   0.9368 B( 42-N , 45-C ) :   1.0066
B( 43-C , 44-O ) :   2.2151 B( 45-C , 46-O ) :   1.1088 B( 45-C , 47-C ) :   0.1094
B( 45-C , 49-C ) :   1.5250 B( 46-O , 47-C ) :   1.2220 B( 47-C , 48-C ) :   1.5001
B( 47-C , 53-C ) :   1.1068 B( 48-C , 49-C ) :   1.2002 B( 48-C , 50-C ) :   0.9072
B( 49-C , 85-H ) :   1.0281 B( 50-C , 51-O ) :   2.3287 B( 50-C , 52-C ) :   0.9009
B( 52-C , 53-C ) :   1.4625 B( 52-C , 56-C ) :   1.3271 B( 53-C , 54-S ) :   1.1168
B( 54-S , 55-C ) :   1.1076 B( 55-C , 56-C ) :   1.4839 B( 55-C , 57-C ) :   1.0945
B( 56-C , 86-H ) :   1.0012 B( 57-C , 58-C ) :   1.9519 B( 57-C , 87-H ) :   0.9526
B( 58-C , 88-H ) :   0.9545 B( 58-C , 89-H ) :   0.9497

-----------------------------------------------------------------------------
         ABSORPTION SPECTRUM VIA TRANSITION ELECTRIC DIPOLE MOMENTS
-----------------------------------------------------------------------------
State   Energy  Wavelength   fosc         T2         TX        TY        TZ
        (cm-1)    (nm)                  (au**2)     (au)      (au)      (au)
-----------------------------------------------------------------------------
   0   18998.9    526.3   1.333975423  23.11508  -1.86988  -3.54595   2.65422
   1   19827.8    504.3   0.111775979   1.85587   0.28986  -0.45326   1.25156
   2   23749.7    421.1   0.620719515   8.60424   0.13238  -2.44736   1.61157
   3   25259.7    395.9   0.007741424   0.10089   0.05424   0.21871  -0.22387
   4   25987.9    384.8   0.160503066   2.03323  -0.23339  -0.05465   1.40562
   5   27116.9    368.8   0.102565443   1.24519  -0.80120   0.77447   0.05897
   6   28495.8    350.9   0.191809291   2.21598  -0.33448   1.42897   0.24929
   7   28692.3    348.5   0.022984920   0.26373  -0.04285  -0.51056  -0.03483
   8   29122.0    343.4   0.023651459   0.26737  -0.17334   0.48592   0.03476
   9   29397.2    340.2   0.000266434   0.00298   0.04945   0.00770  -0.02188
  10   30333.7    329.7   0.201613573   2.18812  -0.38780   0.43718   1.35889
  11   30621.5    326.6   0.002149620   0.02311   0.06863  -0.02006   0.13416
  12   31342.8    319.1   0.059602361   0.62604   0.07803   0.31864  -0.72001
  13   32115.9    311.4   0.048239305   0.49449   0.13135   0.38575  -0.57309
  14   32524.7    307.5   0.042281731   0.42797  -0.21889  -0.37455   0.48966
  15   33856.0    295.4   0.075619095   0.73531   0.34859   0.06574  -0.78069
  16   34346.8    291.1   0.500910685   4.80120  -0.08837  -0.79294   2.04074
  17   34637.8    288.7   0.025295984   0.24042   0.42654   0.16286  -0.17878
  18   34909.7    286.5   0.021032946   0.19835   0.34919   0.08312  -0.26364
  19   35393.7    282.5   0.066435477   0.61795   0.11965  -0.50793   0.58791
  20   35559.1    281.2   0.135622598   1.25562  -0.20904  -0.10070   1.09626
  21   35830.6    279.1   0.067539846   0.62056  -0.00025   0.00268   0.78775
  22   36191.3    276.3   0.084618707   0.76973   0.18661  -0.60120   0.61112
  23   36986.9    270.4   0.072307482   0.64359  -0.14236   0.75056  -0.24493
  24   37256.0    268.4   0.091575358   0.80920   0.04005  -0.69962   0.56404
  25   37728.2    265.1   0.283486105   2.47367  -0.28033   0.09905   1.54443
  26   38012.0    263.1   0.106500710   0.92238   0.09689  -0.07684  -0.95241
  27   38195.3    261.8   0.104703443   0.90246   0.41958  -0.76285  -0.38009
  28   39534.3    252.9   0.092097246   0.76692  -0.50961  -0.40103   0.58855
  29   39944.8    250.3   0.018337595   0.15113  -0.04049  -0.09473   0.37486
  30   40085.6    249.5   0.115904027   0.95189   0.08270   0.38874  -0.89103

FINAL SINGLE POINT ENERGY     -3649.642125979588

DIPOLE MOMENT
-------------
                                X             Y             Z
Electronic contribution:     13.10245      39.37803     -37.58466
Nuclear contribution   :    -14.08044     -37.18978      37.72846
                        -----------------------------------------
Total Dipole Moment    :     -0.97799       2.18824       0.14381
                        -----------------------------------------
Magnitude (a.u.)       :      2.40116
Magnitude (Debye)      :      6.10325

Rotational constants in cm-1:     0.002501     0.000263     0.000248
Rotational constants in MHz :    74.973318     7.889073     7.433453

                             ****ORCA TERMINATED NORMALLY****
TOTAL RUN TIME: 0 days 0 hours 8 minutes 52 seconds 364 msec
