                         Program Version 4.2.0 -  RELEASE  -
|  1> # ORCA input file
|  2> # SCF done       -215.990615988113          0.001729707543
|  3> ! CAM-B3LYP def2-SVP def2/J RIJCOSX Grid4 TightSCF
|  4> %maxcore 5000
|  5> %tddft
|  6>     Mode sTDDFT
|  7>     Ethresh 5.0
|  8>     maxcore 5000
|  9> end
| 10>
| 11> %pal
| 12>   nprocs 6
| 13>   end
| 14> * xyz 0 1
| 15>    C      -19.81223        -7.69510         5.24045
| 16>    C      -21.15447        -7.51036         5.52602
| 17>    C      -22.02540        -7.21878         4.47398
| 18>    C      -23.40182        -7.02147         4.74838
| 19>    N      -24.51089        -6.86055         4.98172
| 20>    C      -21.56256        -7.11492         3.14851
| 21>    C      -22.47191        -6.81841         2.10462
| 22>    N      -23.19519        -6.57930         1.24982
| 23>    C      -20.20896        -7.30190         2.86377
| 24>    C      -19.35930        -7.58630         3.91146
| 25>    C      -17.90013        -7.81410         3.87441
| 26>    O      -17.19470        -7.79987         2.88220
| 27>    C      -17.49131        -8.05352         5.26049
| 28>    C      -18.67005        -8.00077         6.10524
| 29>    C      -18.73987        -8.19664         7.45846
| 30>    C      -19.93378        -8.12085         8.20967
| 31>    N      -20.86786        -8.06971         8.87381
| 32>    C      -17.65162        -8.50421         8.30447
| 33>    N      -16.82364        -8.75801         9.05774
| 34>    C      -16.20152        -8.25664         5.68626
| 35>    C      -14.99879        -8.28095         4.96758
| 36>    C      -13.76495        -8.43313         5.61850
| 37>    C      -12.69923        -8.38848         4.74528
| 38>    C      -13.11252        -8.21624         3.39849
| 39>    S      -14.80219        -8.10004         3.22305
| 40>    C      -11.95631        -8.15435         2.58779
| 41>    C      -10.81506        -8.27728         3.41470
| 42>    C      -11.24653        -8.44062         4.79285
| 43>    C      -10.45728        -8.60357         5.89228
| 44>    C       -9.04936        -8.63416         5.80109
| 45>    N       -7.90628        -8.65694         5.71890
| 46>    C      -10.99708        -8.75207         7.18849
| 47>    N      -11.43484        -8.87130         8.24106
| 48>    C       -9.62483        -8.18743         2.70777
| 49>    C       -9.85436        -8.00380         1.34823
| 50>    S      -11.56263        -7.95198         0.93697
| 51>    C       -8.91066        -7.83272         0.32181
| 52>    C       -9.22854        -7.67668        -1.03317
| 53>    C       -8.07785        -7.46659        -1.85818
| 54>    N       -8.18955        -7.28777        -3.17319
| 55>    C       -9.40476        -7.32669        -3.67738
| 56>    C       -9.53083        -7.13148        -5.14523
| 57>    O       -8.57406        -6.90459        -5.85355
| 58>    C      -10.90295        -7.23475        -5.67057
| 59>    C      -11.97696        -7.44799        -4.90308
| 60>    C      -11.91993        -7.60286        -3.43889
| 61>    O      -12.91047        -7.76518        -2.76019
| 62>    C      -10.55456        -7.54697        -2.85410
| 63>    N      -10.45531        -7.71201        -1.55178
| 64>    C       -6.87539        -7.46338        -1.14057
| 65>    S       -7.18815        -7.73549         0.54754
| 66>    C       -5.61644        -7.23459        -1.72055
| 67>    C       -4.36554        -7.21017        -1.11131
| 68>    C       -3.36247        -6.91353        -2.02354
| 69>    C       -3.85976        -6.70839        -3.33051
| 70>    S       -5.55386        -6.89554        -3.44387
| 71>    C       -2.77286        -6.39245        -4.17282
| 72>    C       -1.58220        -6.39833        -3.41106
| 73>    C       -1.91805        -6.73048        -2.03573
| 74>    C       -1.06239        -6.83628        -0.97984
| 75>    C        0.32695        -6.62701        -1.11838
| 76>    N        1.45379        -6.45106        -1.23023
| 77>    C       -1.51447        -7.14921         0.32001
| 78>    N       -1.88880        -7.39618         1.37475
| 79>    C       -0.46512        -6.06190        -4.16161
| 80>    C       -0.77649        -5.82381        -5.49716
| 81>    S       -2.50692        -5.98766        -5.80094
| 82>    C        0.13366        -5.37225        -6.47354
| 83>    C       -0.01939        -5.24268        -7.82298
| 84>    C        0.84205        -4.27814        -8.55803
| 85>    O        1.85220        -3.75036        -8.16136
| 86>    C        0.14901        -4.05819        -9.85069
| 87>    C        0.45066        -3.15299       -10.84565
| 88>    C       -0.38224        -3.10480       -11.96547
| 89>    C       -1.49597        -3.96178       -12.05891
| 90>    C       -1.78614        -4.88330       -11.05069
| 91>    C       -0.95495        -4.92914        -9.94563
| 92>    C       -0.97564        -5.78737        -8.76045
| 93>    C       -1.56255        -7.02296        -8.69492
| 94>    C       -1.29826        -7.94089        -7.65636
| 95>    N       -1.06474        -8.71884        -6.84573
| 96>    C       -2.40594        -7.54607        -9.69681
| 97>    N       -3.11013        -7.99910       -10.48096
| 98>    C       -2.33969        -3.88593       -13.19499
| 99>    N       -3.03035        -3.83067       -14.10581
|100>    C       -0.11235        -2.18313       -13.00599
|101>    N        0.12040        -1.42698       -13.83369
|102>    H      -21.54878        -7.58069         6.52690
|103>    H      -19.83685        -7.22455         1.85355
|104>    H      -16.05731        -8.40268         6.74976
|105>    H      -13.69206        -8.55774         6.68454
|106>    H       -8.63667        -8.24362         3.12833
|107>    H      -10.99101        -7.11987        -6.74241
|108>    H      -12.96872        -7.51256        -5.32970
|109>    H       -4.22640        -7.39868        -0.06178
|110>    H        0.54090        -6.00147        -3.78686
|111>    H        1.06427        -4.97113        -6.08165
|112>    H        1.30472        -2.49836       -10.76052
|113>    H       -2.64936        -5.52265       -11.14890
|114> *
|115>
|116>                          ****END OF INPUT****

CARTESIAN COORDINATES (ANGSTROEM)
---------------------------------
  C    -19.812230   -7.695100    5.240450
  C    -21.154470   -7.510360    5.526020
  C    -22.025400   -7.218780    4.473980
  C    -23.401820   -7.021470    4.748380
  N    -24.510890   -6.860550    4.981720
  C    -21.562560   -7.114920    3.148510
  C    -22.471910   -6.818410    2.104620
  N    -23.195190   -6.579300    1.249820
  C    -20.208960   -7.301900    2.863770
  C    -19.359300   -7.586300    3.911460
  C    -17.900130   -7.814100    3.874410
  O    -17.194700   -7.799870    2.882200
  C    -17.491310   -8.053520    5.260490
  C    -18.670050   -8.000770    6.105240
  C    -18.739870   -8.196640    7.458460
  C    -19.933780   -8.120850    8.209670
  N    -20.867860   -8.069710    8.873810
  C    -17.651620   -8.504210    8.304470
  N    -16.823640   -8.758010    9.057740
  C    -16.201520   -8.256640    5.686260
  C    -14.998790   -8.280950    4.967580
  C    -13.764950   -8.433130    5.618500
  C    -12.699230   -8.388480    4.745280
  C    -13.112520   -8.216240    3.398490
  S    -14.802190   -8.100040    3.223050
  C    -11.956310   -8.154350    2.587790
  C    -10.815060   -8.277280    3.414700
  C    -11.246530   -8.440620    4.792850
  C    -10.457280   -8.603570    5.892280
  C     -9.049360   -8.634160    5.801090
  N     -7.906280   -8.656940    5.718900
  C    -10.997080   -8.752070    7.188490
  N    -11.434840   -8.871300    8.241060
  C     -9.624830   -8.187430    2.707770
  C     -9.854360   -8.003800    1.348230
  S    -11.562630   -7.951980    0.936970
  C     -8.910660   -7.832720    0.321810
  C     -9.228540   -7.676680   -1.033170
  C     -8.077850   -7.466590   -1.858180
  N     -8.189550   -7.287770   -3.173190
  C     -9.404760   -7.326690   -3.677380
  C     -9.530830   -7.131480   -5.145230
  O     -8.574060   -6.904590   -5.853550
  C    -10.902950   -7.234750   -5.670570
  C    -11.976960   -7.447990   -4.903080
  C    -11.919930   -7.602860   -3.438890
  O    -12.910470   -7.765180   -2.760190
  C    -10.554560   -7.546970   -2.854100
  N    -10.455310   -7.712010   -1.551780
  C     -6.875390   -7.463380   -1.140570
  S     -7.188150   -7.735490    0.547540
  C     -5.616440   -7.234590   -1.720550
  C     -4.365540   -7.210170   -1.111310
  C     -3.362470   -6.913530   -2.023540
  C     -3.859760   -6.708390   -3.330510
  S     -5.553860   -6.895540   -3.443870
  C     -2.772860   -6.392450   -4.172820
  C     -1.582200   -6.398330   -3.411060
  C     -1.918050   -6.730480   -2.035730
  C     -1.062390   -6.836280   -0.979840
  C      0.326950   -6.627010   -1.118380
  N      1.453790   -6.451060   -1.230230
  C     -1.514470   -7.149210    0.320010
  N     -1.888800   -7.396180    1.374750
  C     -0.465120   -6.061900   -4.161610
  C     -0.776490   -5.823810   -5.497160
  S     -2.506920   -5.987660   -5.800940
  C      0.133660   -5.372250   -6.473540
  C     -0.019390   -5.242680   -7.822980
  C      0.842050   -4.278140   -8.558030
  O      1.852200   -3.750360   -8.161360
  C      0.149010   -4.058190   -9.850690
  C      0.450660   -3.152990  -10.845650
  C     -0.382240   -3.104800  -11.965470
  C     -1.495970   -3.961780  -12.058910
  C     -1.786140   -4.883300  -11.050690
  C     -0.954950   -4.929140   -9.945630
  C     -0.975640   -5.787370   -8.760450
  C     -1.562550   -7.022960   -8.694920
  C     -1.298260   -7.940890   -7.656360
  N     -1.064740   -8.718840   -6.845730
  C     -2.405940   -7.546070   -9.696810
  N     -3.110130   -7.999100  -10.480960
  C     -2.339690   -3.885930  -13.194990
  N     -3.030350   -3.830670  -14.105810
  C     -0.112350   -2.183130  -13.005990
  N      0.120400   -1.426980  -13.833690
  H    -21.548780   -7.580690    6.526900
  H    -19.836850   -7.224550    1.853550
  H    -16.057310   -8.402680    6.749760
  H    -13.692060   -8.557740    6.684540
  H     -8.636670   -8.243620    3.128330
  H    -10.991010   -7.119870   -6.742410
  H    -12.968720   -7.512560   -5.329700
  H     -4.226400   -7.398680   -0.061780
  H      0.540900   -6.001470   -3.786860
  H      1.064270   -4.971130   -6.081650
  H      1.304720   -2.498360  -10.760520
  H     -2.649360   -5.522650  -11.148900

 Total Charge           Charge          ....    0
 Multiplicity           Mult            ....    1
 Number of Electrons    NEL             ....  606
 Basis Dimension        Dim             .... 1298

ORBITAL ENERGIES
----------------

  NO   OCC          E(Eh)            E(eV)
   0   2.0000     -89.029202     -2422.6077
   1   2.0000     -89.014848     -2422.2172
   2   2.0000     -89.009971     -2422.0844
   3   2.0000     -89.009410     -2422.0692
   4   2.0000     -89.008793     -2422.0524
   5   2.0000     -19.252027      -523.8743
   6   2.0000     -19.251712      -523.8657
   7   2.0000     -19.251073      -523.8483
   8   2.0000     -19.241717      -523.5937
   9   2.0000     -14.481401      -394.0590
  10   2.0000     -14.481148      -394.0521
  11   2.0000     -14.448460      -393.1626
  12   2.0000     -14.447741      -393.1430
  13   2.0000     -14.447188      -393.1280
  14   2.0000     -14.445405      -393.0795
  15   2.0000     -14.439293      -392.9131
  16   2.0000     -14.438845      -392.9010
  17   2.0000     -14.438279      -392.8855
  18   2.0000     -14.435689      -392.8151
  19   2.0000     -14.433623      -392.7588
  20   2.0000     -14.432953      -392.7406
  21   2.0000     -14.432705      -392.7339
  22   2.0000     -14.431820      -392.7098
  23   2.0000     -10.401564      -283.0410
  24   2.0000     -10.401246      -283.0323
  25   2.0000     -10.399177      -282.9760
  26   2.0000     -10.393716      -282.8274
  27   2.0000     -10.385275      -282.5977
  28   2.0000     -10.383249      -282.5426
  29   2.0000     -10.372811      -282.2585
  30   2.0000     -10.372125      -282.2399
  31   2.0000     -10.371877      -282.2331
  32   2.0000     -10.371705      -282.2284
  33   2.0000     -10.370895      -282.2064
  34   2.0000     -10.369516      -282.1689
  35   2.0000     -10.368823      -282.1500
  36   2.0000     -10.366872      -282.0969
  37   2.0000     -10.365903      -282.0706
  38   2.0000     -10.365352      -282.0556
  39   2.0000     -10.364892      -282.0430
  40   2.0000     -10.364756      -282.0394
  41   2.0000     -10.364733      -282.0387
  42   2.0000     -10.364380      -282.0291
  43   2.0000     -10.364253      -282.0257
  44   2.0000     -10.362591      -281.9804
  45   2.0000     -10.362108      -281.9673
  46   2.0000     -10.358339      -281.8647
  47   2.0000     -10.358032      -281.8564
  48   2.0000     -10.354867      -281.7702
  49   2.0000     -10.349503      -281.6243
  50   2.0000     -10.349198      -281.6160
  51   2.0000     -10.349185      -281.6156
  52   2.0000     -10.348212      -281.5892
  53   2.0000     -10.348165      -281.5879
  54   2.0000     -10.347579      -281.5719
  55   2.0000     -10.347287      -281.5640
  56   2.0000     -10.347082      -281.5584
  57   2.0000     -10.346751      -281.5494
  58   2.0000     -10.346547      -281.5439
  59   2.0000     -10.345745      -281.5220
  60   2.0000     -10.344824      -281.4970
  61   2.0000     -10.340530      -281.3801
  62   2.0000     -10.340281      -281.3733
  63   2.0000     -10.340179      -281.3706
  64   2.0000     -10.340001      -281.3657
  65   2.0000     -10.339732      -281.3584
  66   2.0000     -10.338970      -281.3377
  67   2.0000     -10.338760      -281.3320
  68   2.0000     -10.337390      -281.2947
  69   2.0000     -10.334768      -281.2233
  70   2.0000     -10.332844      -281.1710
  71   2.0000     -10.331767      -281.1417
  72   2.0000     -10.331458      -281.1333
  73   2.0000     -10.331433      -281.1326
  74   2.0000     -10.331065      -281.1226
  75   2.0000     -10.331054      -281.1223
  76   2.0000     -10.330329      -281.1025
  77   2.0000     -10.330100      -281.0963
  78   2.0000     -10.329775      -281.0875
  79   2.0000     -10.329444      -281.0785
  80   2.0000     -10.329008      -281.0666
  81   2.0000     -10.328632      -281.0564
  82   2.0000     -10.328011      -281.0395
  83   2.0000     -10.327982      -281.0387
  84   2.0000     -10.325124      -280.9609
  85   2.0000     -10.321762      -280.8694
  86   2.0000     -10.320913      -280.8463
  87   2.0000      -8.123066      -221.0399
  88   2.0000      -8.109090      -220.6596
  89   2.0000      -8.103124      -220.4972
  90   2.0000      -8.102755      -220.4872
  91   2.0000      -8.101227      -220.4456
  92   2.0000      -6.092190      -165.7769
  93   2.0000      -6.088043      -165.6641
  94   2.0000      -6.085723      -165.6009
  95   2.0000      -6.078317      -165.3994
  96   2.0000      -6.074075      -165.2840
  97   2.0000      -6.072563      -165.2428
  98   2.0000      -6.072142      -165.2314
  99   2.0000      -6.071532      -165.2148
 100   2.0000      -6.070633      -165.1903
 101   2.0000      -6.068011      -165.1190
 102   2.0000      -6.067643      -165.1090
 103   2.0000      -6.065889      -165.0612
 104   2.0000      -6.065400      -165.0479
 105   2.0000      -6.065051      -165.0384
 106   2.0000      -6.063759      -165.0033
 107   2.0000      -1.170216       -31.8432
 108   2.0000      -1.166922       -31.7536
 109   2.0000      -1.165111       -31.7043
 110   2.0000      -1.157913       -31.5084
 111   2.0000      -1.132464       -30.8159
 112   2.0000      -1.069402       -29.0999
 113   2.0000      -1.066427       -29.0190
 114   2.0000      -1.060301       -28.8523
 115   2.0000      -1.049996       -28.5718
 116   2.0000      -1.049126       -28.5482
 117   2.0000      -1.042119       -28.3575
 118   2.0000      -1.039929       -28.2979
 119   2.0000      -1.037532       -28.2327
 120   2.0000      -1.034439       -28.1485
 121   2.0000      -1.034230       -28.1428
 122   2.0000      -1.025761       -27.9124
 123   2.0000      -1.023954       -27.8632
 124   2.0000      -1.021631       -27.8000
 125   2.0000      -1.017944       -27.6997
 126   2.0000      -1.017061       -27.6756
 127   2.0000      -1.016512       -27.6607
 128   2.0000      -1.015210       -27.6253
 129   2.0000      -1.012521       -27.5521
 130   2.0000      -1.012235       -27.5443
 131   2.0000      -1.011857       -27.5340
 132   2.0000      -0.987477       -26.8706
 133   2.0000      -0.985937       -26.8287
 134   2.0000      -0.980075       -26.6692
 135   2.0000      -0.976656       -26.5762
 136   2.0000      -0.964285       -26.2395
 137   2.0000      -0.945474       -25.7277
 138   2.0000      -0.940239       -25.5852
 139   2.0000      -0.933365       -25.3981
 140   2.0000      -0.933136       -25.3919
 141   2.0000      -0.920968       -25.0608
 142   2.0000      -0.912861       -24.8402
 143   2.0000      -0.910121       -24.7657
 144   2.0000      -0.908825       -24.7304
 145   2.0000      -0.904231       -24.6054
 146   2.0000      -0.899109       -24.4660
 147   2.0000      -0.890917       -24.2431
 148   2.0000      -0.886735       -24.1293
 149   2.0000      -0.879717       -23.9383
 150   2.0000      -0.877550       -23.8793
 151   2.0000      -0.859377       -23.3848
 152   2.0000      -0.851864       -23.1804
 153   2.0000      -0.825882       -22.4734
 154   2.0000      -0.825095       -22.4520
 155   2.0000      -0.819538       -22.3008
 156   2.0000      -0.816641       -22.2219
 157   2.0000      -0.815094       -22.1798
 158   2.0000      -0.799429       -21.7536
 159   2.0000      -0.797334       -21.6966
 160   2.0000      -0.795189       -21.6382
 161   2.0000      -0.775564       -21.1042
 162   2.0000      -0.773548       -21.0493
 163   2.0000      -0.759937       -20.6789
 164   2.0000      -0.758407       -20.6373
 165   2.0000      -0.739847       -20.1323
 166   2.0000      -0.735462       -20.0129
 167   2.0000      -0.721414       -19.6307
 168   2.0000      -0.719919       -19.5900
 169   2.0000      -0.718212       -19.5435
 170   2.0000      -0.715000       -19.4561
 171   2.0000      -0.709639       -19.3103
 172   2.0000      -0.707514       -19.2524
 173   2.0000      -0.703874       -19.1534
 174   2.0000      -0.701115       -19.0783
 175   2.0000      -0.695831       -18.9345
 176   2.0000      -0.692882       -18.8543
 177   2.0000      -0.688006       -18.7216
 178   2.0000      -0.674315       -18.3491
 179   2.0000      -0.670602       -18.2480
 180   2.0000      -0.665642       -18.1130
 181   2.0000      -0.662701       -18.0330
 182   2.0000      -0.659463       -17.9449
 183   2.0000      -0.655814       -17.8456
 184   2.0000      -0.645364       -17.5612
 185   2.0000      -0.642269       -17.4770
 186   2.0000      -0.639884       -17.4121
 187   2.0000      -0.639067       -17.3899
 188   2.0000      -0.628383       -17.0992
 189   2.0000      -0.627430       -17.0732
 190   2.0000      -0.621680       -16.9168
 191   2.0000      -0.618501       -16.8303
 192   2.0000      -0.615925       -16.7602
 193   2.0000      -0.607052       -16.5187
 194   2.0000      -0.603752       -16.4289
 195   2.0000      -0.598779       -16.2936
 196   2.0000      -0.592804       -16.1310
 197   2.0000      -0.588579       -16.0161
 198   2.0000      -0.583236       -15.8706
 199   2.0000      -0.581838       -15.8326
 200   2.0000      -0.575370       -15.6566
 201   2.0000      -0.574652       -15.6371
 202   2.0000      -0.573903       -15.6167
 203   2.0000      -0.572935       -15.5904
 204   2.0000      -0.570646       -15.5281
 205   2.0000      -0.567003       -15.4289
 206   2.0000      -0.566777       -15.4228
 207   2.0000      -0.565508       -15.3882
 208   2.0000      -0.557772       -15.1778
 209   2.0000      -0.552769       -15.0416
 210   2.0000      -0.552053       -15.0221
 211   2.0000      -0.548937       -14.9373
 212   2.0000      -0.548754       -14.9323
 213   2.0000      -0.543320       -14.7845
 214   2.0000      -0.539174       -14.6717
 215   2.0000      -0.535726       -14.5778
 216   2.0000      -0.533841       -14.5266
 217   2.0000      -0.531888       -14.4734
 218   2.0000      -0.531335       -14.4584
 219   2.0000      -0.530278       -14.4296
 220   2.0000      -0.527898       -14.3648
 221   2.0000      -0.527779       -14.3616
 222   2.0000      -0.525039       -14.2870
 223   2.0000      -0.523014       -14.2319
 224   2.0000      -0.520543       -14.1647
 225   2.0000      -0.519589       -14.1387
 226   2.0000      -0.518068       -14.0973
 227   2.0000      -0.516764       -14.0619
 228   2.0000      -0.515808       -14.0359
 229   2.0000      -0.513918       -13.9844
 230   2.0000      -0.510539       -13.8925
 231   2.0000      -0.509303       -13.8588
 232   2.0000      -0.506103       -13.7718
 233   2.0000      -0.503639       -13.7047
 234   2.0000      -0.498863       -13.5747
 235   2.0000      -0.497284       -13.5318
 236   2.0000      -0.492132       -13.3916
 237   2.0000      -0.483070       -13.1450
 238   2.0000      -0.480465       -13.0741
 239   2.0000      -0.478541       -13.0218
 240   2.0000      -0.477959       -13.0059
 241   2.0000      -0.476356       -12.9623
 242   2.0000      -0.475106       -12.9283
 243   2.0000      -0.474137       -12.9019
 244   2.0000      -0.471484       -12.8297
 245   2.0000      -0.470217       -12.7952
 246   2.0000      -0.469073       -12.7641
 247   2.0000      -0.467616       -12.7245
 248   2.0000      -0.466660       -12.6985
 249   2.0000      -0.466065       -12.6823
 250   2.0000      -0.464880       -12.6500
 251   2.0000      -0.463405       -12.6099
 252   2.0000      -0.462904       -12.5963
 253   2.0000      -0.460027       -12.5180
 254   2.0000      -0.459638       -12.5074
 255   2.0000      -0.458572       -12.4784
 256   2.0000      -0.458058       -12.4644
 257   2.0000      -0.457637       -12.4529
 258   2.0000      -0.457210       -12.4413
 259   2.0000      -0.456753       -12.4289
 260   2.0000      -0.456610       -12.4250
 261   2.0000      -0.456056       -12.4099
 262   2.0000      -0.455816       -12.4034
 263   2.0000      -0.455144       -12.3851
 264   2.0000      -0.452789       -12.3210
 265   2.0000      -0.449745       -12.2382
 266   2.0000      -0.448647       -12.2083
 267   2.0000      -0.445598       -12.1253
 268   2.0000      -0.445282       -12.1167
 269   2.0000      -0.444943       -12.1075
 270   2.0000      -0.443220       -12.0606
 271   2.0000      -0.442366       -12.0374
 272   2.0000      -0.439052       -11.9472
 273   2.0000      -0.436530       -11.8786
 274   2.0000      -0.432886       -11.7794
 275   2.0000      -0.432427       -11.7669
 276   2.0000      -0.430752       -11.7214
 277   2.0000      -0.428294       -11.6545
 278   2.0000      -0.425402       -11.5758
 279   2.0000      -0.421581       -11.4718
 280   2.0000      -0.420124       -11.4321
 281   2.0000      -0.413362       -11.2481
 282   2.0000      -0.405346       -11.0300
 283   2.0000      -0.396025       -10.7764
 284   2.0000      -0.390430       -10.6241
 285   2.0000      -0.388006       -10.5582
 286   2.0000      -0.378823       -10.3083
 287   2.0000      -0.376320       -10.2402
 288   2.0000      -0.374334       -10.1861
 289   2.0000      -0.372012       -10.1230
 290   2.0000      -0.369647       -10.0586
 291   2.0000      -0.368869       -10.0374
 292   2.0000      -0.367240        -9.9931
 293   2.0000      -0.366653        -9.9771
 294   2.0000      -0.362529        -9.8649
 295   2.0000      -0.362332        -9.8595
 296   2.0000      -0.348661        -9.4875
 297   2.0000      -0.341954        -9.3050
 298   2.0000      -0.341754        -9.2996
 299   2.0000      -0.340216        -9.2577
 300   2.0000      -0.323173        -8.7940
 301   2.0000      -0.296660        -8.0725
 302   2.0000      -0.261870        -7.1259
 303   0.0000      -0.147417        -4.0114
 304   0.0000      -0.130437        -3.5494
 305   0.0000      -0.115172        -3.1340
 306   0.0000      -0.111559        -3.0357
 307   0.0000      -0.111400        -3.0314

MULLIKEN ATOMIC CHARGES
-----------------------
   0 C :    0.043918
   1 C :   -0.041233
   2 C :   -0.059911
   3 C :   -0.173424
   4 N :    0.204720
   5 C :   -0.067698
   6 C :   -0.171618
   7 N :    0.198321
   8 C :   -0.033168
   9 C :   -0.003231
  10 C :    0.169479
  11 O :   -0.172553
  12 C :   -0.094992
  13 C :    0.324261
  14 C :   -0.338564
  15 C :   -0.187908
  16 N :    0.170232
  17 C :   -0.188726
  18 N :    0.164782
  19 C :   -0.025335
  20 C :   -0.052080
  21 C :   -0.060290
  22 C :    0.047905
  23 C :   -0.064418
  24 S :    0.254271
  25 C :   -0.094029
  26 C :    0.036349
  27 C :    0.299870
  28 C :   -0.284717
  29 C :   -0.190892
  30 N :    0.176270
  31 C :   -0.191660
  32 N :    0.188680
  33 C :   -0.077347
  34 C :   -0.072300
  35 S :    0.253242
  36 C :   -0.122356
  37 C :    0.029814
  38 C :    0.030709
  39 N :    0.032520
  40 C :   -0.109744
  41 C :    0.141920
  42 O :   -0.101155
  43 C :   -0.017160
  44 C :   -0.013808
  45 C :    0.138559
  46 O :   -0.100333
  47 C :   -0.107605
  48 N :    0.039215
  49 C :   -0.117616
  50 S :    0.252732
  51 C :   -0.074578
  52 C :   -0.075546
  53 C :    0.036314
  54 C :   -0.088578
  55 S :    0.250839
  56 C :   -0.074860
  57 C :    0.028897
  58 C :    0.296146
  59 C :   -0.282085
  60 C :   -0.189852
  61 N :    0.181732
  62 C :   -0.188719
  63 N :    0.181498
  64 C :   -0.002893
  65 C :   -0.082566
  66 S :    0.213794
  67 C :    0.048617
  68 C :   -0.144568
  69 C :    0.147964
  70 O :   -0.123517
  71 C :    0.008219
  72 C :   -0.033692
  73 C :   -0.067656
  74 C :   -0.058332
  75 C :   -0.035850
  76 C :    0.035771
  77 C :    0.242249
  78 C :   -0.306290
  79 C :   -0.211419
  80 N :    0.183097
  81 C :   -0.172377
  82 N :    0.171144
  83 C :   -0.177534
  84 N :    0.202119
  85 C :   -0.171771
  86 N :    0.196012
  87 H :    0.021359
  88 H :    0.015425
  89 H :    0.018720
  90 H :    0.033586
  91 H :    0.013474
  92 H :    0.027118
  93 H :    0.025737
  94 H :    0.014511
  95 H :    0.023777
  96 H :    0.037790
  97 H :    0.020235
  98 H :    0.024637
Sum of atomic charges:   -0.0000000

LOEWDIN ATOMIC CHARGES
----------------------
   0 C :    0.004330
   1 C :    0.034695
   2 C :   -0.022562
   3 C :   -0.031816
   4 N :   -0.008969
   5 C :   -0.028611
   6 C :   -0.032143
   7 N :   -0.012767
   8 C :    0.048028
   9 C :   -0.029920
  10 C :    0.084013
  11 O :   -0.161355
  12 C :   -0.117684
  13 C :    0.068704
  14 C :   -0.124144
  15 C :   -0.021944
  16 N :   -0.033864
  17 C :   -0.022927
  18 N :   -0.032338
  19 C :    0.061800
  20 C :   -0.183383
  21 C :    0.017698
  22 C :   -0.074027
  23 C :   -0.159513
  24 S :    0.551552
  25 C :   -0.188857
  26 C :   -0.051617
  27 C :    0.074706
  28 C :   -0.095613
  29 C :   -0.016870
  30 N :   -0.026755
  31 C :   -0.020427
  32 N :   -0.018612
  33 C :   -0.028719
  34 C :   -0.170317
  35 S :    0.538025
  36 C :   -0.189940
  37 C :   -0.050884
  38 C :   -0.051464
  39 N :   -0.010567
  40 C :   -0.032550
  41 C :    0.056502
  42 O :   -0.097027
  43 C :   -0.009166
  44 C :   -0.008900
  45 C :    0.056176
  46 O :   -0.095800
  47 C :   -0.033203
  48 N :   -0.008630
  49 C :   -0.190887
  50 S :    0.532144
  51 C :   -0.170157
  52 C :   -0.026679
  53 C :   -0.051551
  54 C :   -0.190256
  55 S :    0.540372
  56 C :   -0.145259
  57 C :   -0.071549
  58 C :    0.076489
  59 C :   -0.093138
  60 C :   -0.018007
  61 N :   -0.021556
  62 C :   -0.017162
  63 N :   -0.024516
  64 C :    0.021319
  65 C :   -0.179963
  66 S :    0.518728
  67 C :    0.059303
  68 C :   -0.110493
  69 C :    0.083129
  70 O :   -0.126559
  71 C :   -0.030341
  72 C :    0.049576
  73 C :   -0.028775
  74 C :   -0.022667
  75 C :    0.031413
  76 C :    0.004718
  77 C :    0.053196
  78 C :   -0.131836
  79 C :   -0.038867
  80 N :   -0.034085
  81 C :   -0.024370
  82 N :   -0.032699
  83 C :   -0.031773
  84 N :   -0.010077
  85 C :   -0.032325
  86 N :   -0.012427
  87 H :    0.052870
  88 H :    0.053833
  89 H :    0.054786
  90 H :    0.049853
  91 H :    0.039517
  92 H :    0.049677
  93 H :    0.049261
  94 H :    0.040248
  95 H :    0.049199
  96 H :    0.057952
  97 H :    0.055400
  98 H :    0.052649

  Mayer bond orders larger than 0.100000
B(  0-C ,  1-C ) :   1.3636 B(  0-C ,  9-C ) :   1.3370 B(  0-C , 13-C ) :   0.9527
B(  1-C ,  2-C ) :   1.3892 B(  1-C , 87-H ) :   0.9860 B(  2-C ,  3-C ) :   1.0868
B(  2-C ,  5-C ) :   1.4075 B(  3-C ,  4-N ) :   3.0437 B(  5-C ,  6-C ) :   1.0834
B(  5-C ,  8-C ) :   1.3584 B(  6-C ,  7-N ) :   3.0438 B(  8-C ,  9-C ) :   1.3633
B(  8-C , 88-H ) :   1.0161 B(  9-C , 10-C ) :   0.9406 B( 10-C , 11-O ) :   2.1345
B( 10-C , 12-C ) :   0.9904 B( 12-C , 13-C ) :   1.0915 B( 12-C , 19-C ) :   1.4616
B( 13-C , 14-C ) :   1.6420 B( 14-C , 15-C ) :   1.1483 B( 14-C , 17-C ) :   1.1432
B( 15-C , 16-N ) :   2.9589 B( 17-C , 18-N ) :   2.9580 B( 19-C , 20-C ) :   1.2956
B( 19-C , 89-H ) :   0.9391 B( 20-C , 21-C ) :   1.3059 B( 20-C , 24-S ) :   1.0625
B( 21-C , 22-C ) :   1.3475 B( 21-C , 90-H ) :   1.0079 B( 22-C , 23-C ) :   1.3358
B( 22-C , 27-C ) :   0.9895 B( 23-C , 24-S ) :   1.1350 B( 23-C , 25-C ) :   1.2220
B( 25-C , 26-C ) :   1.3918 B( 25-C , 35-S ) :   1.0928 B( 26-C , 27-C ) :   0.9952
B( 26-C , 33-C ) :   1.3309 B( 27-C , 28-C ) :   1.7204 B( 28-C , 29-C ) :   1.1338
B( 28-C , 31-C ) :   1.1311 B( 29-C , 30-N ) :   2.9907 B( 31-C , 32-N ) :   2.9930
B( 33-C , 34-C ) :   1.3777 B( 33-C , 91-H ) :   0.9960 B( 34-C , 35-S ) :   1.1271
B( 34-C , 36-C ) :   1.2402 B( 36-C , 37-C ) :   1.3121 B( 36-C , 49-C ) :   0.1180
B( 36-C , 50-S ) :   1.1606 B( 37-C , 38-C ) :   1.2004 B( 37-C , 48-N ) :   1.4179
B( 38-C , 39-N ) :   1.4111 B( 38-C , 49-C ) :   1.3118 B( 39-N , 40-C ) :   1.6985
B( 40-C , 41-C ) :   0.8938 B( 40-C , 47-C ) :   1.1108 B( 41-C , 42-O ) :   2.2496
B( 41-C , 43-C ) :   1.0231 B( 43-C , 44-C ) :   1.6761 B( 43-C , 92-H ) :   0.9989
B( 44-C , 45-C ) :   1.0230 B( 44-C , 93-H ) :   0.9993 B( 45-C , 46-O ) :   2.2516
B( 45-C , 47-C ) :   0.8920 B( 47-C , 48-N ) :   1.6980 B( 49-C , 50-S ) :   1.1591
B( 49-C , 51-C ) :   1.2392 B( 51-C , 52-C ) :   1.3800 B( 51-C , 55-S ) :   1.1278
B( 52-C , 53-C ) :   1.3376 B( 52-C , 94-H ) :   0.9946 B( 53-C , 54-C ) :   1.3912
B( 53-C , 58-C ) :   0.9925 B( 54-C , 55-S ) :   1.0895 B( 54-C , 56-C ) :   1.2298
B( 56-C , 57-C ) :   1.3718 B( 56-C , 66-S ) :   1.1713 B( 57-C , 58-C ) :   0.9905
B( 57-C , 64-C ) :   1.3232 B( 58-C , 59-C ) :   1.7237 B( 59-C , 60-C ) :   1.1300
B( 59-C , 62-C ) :   1.1339 B( 60-C , 61-N ) :   2.9929 B( 62-C , 63-N ) :   2.9932
B( 64-C , 65-C ) :   1.3672 B( 64-C , 95-H ) :   1.0028 B( 65-C , 66-S ) :   1.0726
B( 65-C , 67-C ) :   1.1920 B( 67-C , 68-C ) :   1.5910 B( 67-C , 96-H ) :   0.9454
B( 68-C , 69-C ) :   0.9523 B( 68-C , 77-C ) :   1.0495 B( 69-C , 70-O ) :   2.2814
B( 69-C , 71-C ) :   0.8984 B( 71-C , 72-C ) :   1.3723 B( 71-C , 76-C ) :   1.3343
B( 72-C , 73-C ) :   1.3645 B( 72-C , 97-H ) :   1.0147 B( 73-C , 74-C ) :   1.4029
B( 73-C , 85-C ) :   1.0867 B( 74-C , 75-C ) :   1.3852 B( 74-C , 83-C ) :   1.0863
B( 75-C , 76-C ) :   1.3663 B( 75-C , 98-H ) :   0.9910 B( 76-C , 77-C ) :   0.9792
B( 77-C , 78-C ) :   1.6642 B( 78-C , 79-C ) :   1.1528 B( 78-C , 81-C ) :   1.1313
B( 79-C , 80-N ) :   3.0220 B( 81-C , 82-N ) :   2.9865 B( 83-C , 84-N ) :   3.0454
B( 85-C , 86-N ) :   3.0438

-----------------------------------------------------------------------------
         ABSORPTION SPECTRUM VIA TRANSITION ELECTRIC DIPOLE MOMENTS
-----------------------------------------------------------------------------
State   Energy  Wavelength   fosc         T2         TX        TY        TZ
        (cm-1)    (nm)                  (au**2)     (au)      (au)      (au)
-----------------------------------------------------------------------------
   0    9882.4   1011.9   1.176072016  39.17833  -4.90394  -0.71665   3.82310
   1   13071.7    765.0   0.035773515   0.90096   0.78014  -0.08895  -0.53332
   2   14947.5    669.0   0.016480390   0.36297  -0.50345  -0.14444   0.29774
   3   17508.9    571.1   0.030209611   0.56802   0.38259   0.03586   0.64835
   4   18876.4    529.8   0.365893612   6.38134   0.93691   0.11808  -2.34299
   5   19139.4    522.5   0.242515231   4.17144   1.39259  -0.02989  -1.49373
   6   20119.8    497.0   0.493219591   8.07034  -2.76777  -0.03368   0.63926
   7   22116.9    452.1   0.126101304   1.87703  -1.35608  -0.17301  -0.09031
   8   22582.1    442.8   0.149319691   2.17685  -1.37675   0.34155   0.40588
   9   23539.8    424.8   0.295558953   4.13349  -1.01897  -0.67815   1.62336
  10   24294.7    411.6   0.001600265   0.02168   0.06235  -0.13243   0.01609
  11   25443.2    393.0   0.068578423   0.88734  -0.73717  -0.03636  -0.58532
  12   25575.5    391.0   0.000035375   0.00046   0.01691   0.00854  -0.00983
  13   25901.9    386.1   0.015616127   0.19848  -0.29495   0.21404   0.25626
  14   26424.9    378.4   0.000724981   0.00903   0.01970  -0.09272  -0.00678
  15   26823.9    372.8   0.012585114   0.15446  -0.09205   0.17536   0.33946
  16   27223.3    367.3   0.052994226   0.64086   0.43697   0.30467  -0.59758
  17   27814.4    359.5   0.007353951   0.08704   0.19740  -0.18726   0.11405
  18   27962.6    357.6   0.182973365   2.15420  -1.26786  -0.54759  -0.49687
  19   28313.2    353.2   0.069415972   0.80714  -0.10369   0.07374  -0.88935
  20   28468.3    351.3   0.084386042   0.97585   0.76473  -0.21078   0.58874
  21   29326.6    341.0   0.012814356   0.14385   0.16815  -0.01613  -0.33958
  22   29495.0    339.0   0.039066815   0.43605   0.24022   0.20681  -0.57929
  23   30004.2    333.3   0.143008507   1.56912  -0.66063  -0.28826   1.02450
  24   30303.0    330.0   0.000167680   0.00182  -0.02860  -0.02056   0.02410
  25   30502.1    327.8   0.160432050   1.73156   1.29388  -0.09696  -0.21916
  26   30729.9    325.4   0.065121497   0.69765  -0.41554  -0.22643  -0.68826
  27   30839.5    324.3   0.028811330   0.30756   0.45351   0.02061  -0.31853
  28   31071.2    321.8   0.064182659   0.68004  -0.45813  -0.53985   0.42276
  29   31367.7    318.8   0.176417350   1.85155   0.01641   0.59456  -1.22384
  30   31804.5    314.4   0.019848713   0.20546  -0.42953   0.11326  -0.09020
  31   31879.7    313.7   0.206071089   2.12803   0.07638   0.44967  -1.38564
  32   32136.0    311.2   0.396995550   4.06696   1.21393  -0.50953   1.52765
  33   32446.8    308.2   0.446539019   4.53068  -2.08261  -0.38395   0.21447
  34   32797.5    304.9   0.441730734   4.43397   1.02080  -0.65750   1.72036
  35   32997.4    303.1   0.101278846   1.01045  -0.28046  -0.08184  -0.96182
  36   33463.8    298.8   0.007854935   0.07728  -0.21757  -0.07069   0.15793
  37   33541.5    298.1   0.016991943   0.16678  -0.17720  -0.15751   0.33252
  38   33755.0    296.3   0.040658075   0.39654   0.29215  -0.37228   0.41544
  39   33854.1    295.4   0.001252932   0.01218   0.02576  -0.03269   0.10224
  40   34087.5    293.4   0.007869905   0.07601  -0.19677  -0.03748  -0.18942
  41   34171.9    292.6   0.164589187   1.58565  -0.33964   0.38972  -1.14822
  42   34279.5    291.7   0.428229536   4.11261  -1.08765   0.11165  -1.70797
  43   34705.1    288.1   0.468203411   4.44137   1.09538  -0.58625   1.70230
  44   34764.0    287.7   0.311793990   2.95266   1.30675   0.04771   1.11481
  45   35138.2    284.6   0.188321379   1.76439   0.65333   1.15572  -0.04329
  46   35398.2    282.5   0.056635007   0.52672   0.10223   0.43262  -0.57368
  47   35425.2    282.3   0.176869704   1.64368   0.09435   0.75898  -1.02895
  48   35690.1    280.2   0.130419245   1.20301   0.21792   0.04886   1.07384
  49   35764.4    279.6   0.041213080   0.37937   0.21520  -0.20003   0.54134
  50   35914.6    278.4   0.003964969   0.03634  -0.18621   0.03767  -0.01582
  51   36212.9    276.1   0.157382025   1.43076   1.04083   0.05493   0.58686
  52   36288.6    275.6   0.026474420   0.24018   0.20163   0.20646  -0.39610
  53   36736.8    272.2   0.072463904   0.64938  -0.43675  -0.53176   0.41935
  54   36788.1    271.8   0.003520126   0.03150  -0.04458   0.12791  -0.11468
  55   36854.5    271.3   0.221613359   1.97962  -0.88494  -0.42312   1.00870
  56   36990.9    270.3   0.020864043   0.18569  -0.13506  -0.31052  -0.26650
  57   37076.0    269.7   0.066645589   0.59177   0.08134   0.49620  -0.58219
  58   37185.0    268.9   0.013708051   0.12136   0.16080   0.04121  -0.30628
  59   37240.6    268.5   0.004732729   0.04184  -0.02232  -0.09315  -0.18073
  60   37419.1    267.2   0.100776439   0.88663  -0.68484   0.48657   0.42528
  61   37562.4    266.2   0.013256768   0.11619   0.15511  -0.24681  -0.17667
  62   37907.7    263.8   0.204325038   1.77447  -0.94309   0.06268  -0.93869
  63   38011.3    263.1   0.000779487   0.00675   0.02580  -0.05317   0.05709
  64   38086.3    262.6   0.095956440   0.82943   0.53362   0.05134   0.73624
  65   38286.8    261.2   0.030388528   0.26130   0.43833   0.26241   0.01750
  66   38327.3    260.9   0.003680941   0.03162  -0.03142   0.06806  -0.16124
  67   38384.5    260.5   0.101858836   0.87361   0.92461   0.13647  -0.00895
  68   38646.8    258.8   0.002183053   0.01860  -0.01251   0.11376  -0.07415
  69   38726.0    258.2   0.001758519   0.01495   0.05986   0.06389   0.08535
  70   39034.0    256.2   0.002498364   0.02107   0.01975   0.00114   0.14380
  71   39075.6    255.9   0.005523694   0.04654   0.16350  -0.05412   0.12991
  72   39359.1    254.1   0.060811223   0.50864   0.66650   0.04638  -0.24954
  73   39428.7    253.6   0.025241430   0.21075   0.33283  -0.01098  -0.31600
  74   39461.7    253.4   0.007180842   0.05991  -0.12971  -0.00690   0.20745
  75   39754.0    251.5   0.007469320   0.06186   0.21585  -0.04419  -0.11537
  76   39800.8    251.3   0.020486452   0.16945   0.33373   0.08861  -0.22412
  77   40109.4    249.3   0.063613417   0.52213   0.53890   0.43292  -0.21047
  78   40162.6    249.0   0.029143821   0.23889   0.38630  -0.28129  -0.10266
  79   40194.7    248.8   0.012522352   0.10256  -0.28405   0.14230  -0.04037
  80   40286.3    248.2   0.148502387   1.21353   0.36161  -0.28522   1.00071

FINAL SINGLE POINT ENERGY     -5499.081512988160

DIPOLE MOMENT
-------------
                                X             Y             Z
Electronic contribution:      1.80748      -2.57863       3.47253
Nuclear contribution   :     -0.63773       2.66411      -3.90480
                        -----------------------------------------
Total Dipole Moment    :      1.16975       0.08548      -0.43228
                        -----------------------------------------
Magnitude (a.u.)       :      1.24999
Magnitude (Debye)      :      3.17723

Rotational constants in cm-1:     0.001242     0.000171     0.000153
Rotational constants in MHz :    37.243197     5.130499     4.594068

                             ****ORCA TERMINATED NORMALLY****
TOTAL RUN TIME: 0 days 0 hours 23 minutes 3 seconds 559 msec
