                         Program Version 4.2.0 -  RELEASE  -
|  1> # ORCA input file
|  2> # SCF done       -164.498255752517          0.000959605651
|  3> ! CAM-B3LYP def2-SVP def2/J RIJCOSX Grid4 TightSCF
|  4> %maxcore 5000
|  5> %tddft
|  6>     Mode sTDDFT
|  7>     Ethresh 5.0
|  8>     maxcore 5000
|  9> end
| 10>
| 11> %pal
| 12>   nprocs 6
| 13>   end
| 14> * xyz 0 1
| 15>    C       -4.10398        -1.12974        -0.59883
| 16>    C       -4.44204        -0.14504        -1.48944
| 17>    C       -3.95516         1.16300        -1.36589
| 18>    C       -3.10414         1.55468        -0.34650
| 19>    C       -2.73656         0.55269         0.59307
| 20>    C       -3.24424        -0.78815         0.45639
| 21>    N       -2.79706        -1.59116         1.42470
| 22>    S       -1.84278        -0.74842         2.39905
| 23>    N       -1.94125         0.67226         1.65495
| 24>    C       -2.61174         2.89855        -0.23237
| 25>    C       -1.74259         3.40217         0.71334
| 26>    C       -1.48384         4.76065         0.52331
| 27>    C       -2.16472         5.29633        -0.58432
| 28>    S       -3.11635         4.12803        -1.38618
| 29>    C       -1.84820         6.67026        -0.69044
| 30>    C       -0.96450         7.01109         0.35419
| 31>    C       -0.67998         5.80915         1.12822
| 32>    C        0.20558         5.67875         2.15584
| 33>    C        1.04754         6.73095         2.57989
| 34>    N        1.78049         7.54937         2.90576
| 35>    C        0.39521         4.45430         2.83286
| 36>    N        0.55034         3.46776         3.39606
| 37>    C       -0.63120         8.35904         0.37132
| 38>    C       -1.23839         9.05117        -0.67074
| 39>    S       -2.23615         8.00708        -1.67845
| 40>    C       -1.12176        10.42640        -0.93959
| 41>    C       -0.52453        11.39605        -0.12141
| 42>    C       -0.55525        12.71560        -0.69501
| 43>    N        0.04529        13.74119        -0.08778
| 44>    C        0.59908        13.50654         1.08103
| 45>    C        1.35020        14.62153         1.71175
| 46>    O        1.57420        15.66551         1.13846
| 47>    C        1.83843        14.34547         3.07476
| 48>    C        1.68264        13.17185         3.69599
| 49>    C        0.98745        12.01652         3.10082
| 50>    O        0.79002        10.98895         3.71246
| 51>    C        0.51176        12.22421         1.70962
| 52>    N       -0.01711        11.18928         1.09548
| 53>    C       -1.21230        12.76224        -1.93288
| 54>    S       -1.74076        11.16978        -2.38234
| 55>    C       -1.43855        13.90129        -2.72578
| 56>    C       -1.21629        15.22263        -2.35408
| 57>    C       -1.55534        16.10522        -3.37118
| 58>    C       -2.01527        15.45931        -4.53711
| 59>    S       -2.06839        13.76187        -4.36420
| 60>    C       -2.28929        16.43953        -5.51855
| 61>    C       -2.01052        17.70803        -4.97956
| 62>    C       -1.57104        17.54398        -3.60431
| 63>    C       -1.29978        18.52954        -2.70299
| 64>    C       -1.34912        19.89751        -3.04860
| 65>    N       -1.37843        21.01141        -3.31797
| 66>    C       -1.01244        18.26800        -1.34476
| 67>    N       -0.82986        18.08744        -0.22798
| 68>    C       -2.25407        18.74544        -5.88137
| 69>    C       -2.70915        18.28324        -7.09897
| 70>    S       -2.84512        16.52882        -7.12982
| 71>    C       -3.05668        19.05531        -8.25858
| 72>    C       -3.48771        18.46810        -9.43583
| 73>    C       -3.83045        19.20939       -10.57439
| 74>    C       -3.76074        20.57737       -10.59458
| 75>    C       -3.33094        21.22618        -9.42682
| 76>    C       -2.97451        20.47470        -8.25106
| 77>    N       -2.59372        21.27141        -7.25414
| 78>    S       -2.67563        22.79966        -7.74361
| 79>    N       -3.19486        22.54063        -9.23797
| 80>    H       -4.47242        -2.13855        -0.68425
| 81>    H       -5.10131        -0.37240        -2.31353
| 82>    H       -4.25683         1.89716        -2.09949
| 83>    H       -1.33565         2.78838         1.49579
| 84>    H        0.00005         8.85260         1.08824
| 85>    H        2.35294        15.16984         3.54997
| 86>    H        2.06097        13.00996         4.69638
| 87>    H       -0.81836        15.48126        -1.38934
| 88>    H       -2.11278        19.79279        -5.68747
| 89>    H       -3.56326        17.39093        -9.47986
| 90>    H       -4.15673        18.67720       -11.45519
| 91>    H       -4.02177        21.15713       -11.46424
| 92> *
| 93>
| 94>                          ****END OF INPUT****

CARTESIAN COORDINATES (ANGSTROEM)
---------------------------------
  C     -4.103980   -1.129740   -0.598830
  C     -4.442040   -0.145040   -1.489440
  C     -3.955160    1.163000   -1.365890
  C     -3.104140    1.554680   -0.346500
  C     -2.736560    0.552690    0.593070
  C     -3.244240   -0.788150    0.456390
  N     -2.797060   -1.591160    1.424700
  S     -1.842780   -0.748420    2.399050
  N     -1.941250    0.672260    1.654950
  C     -2.611740    2.898550   -0.232370
  C     -1.742590    3.402170    0.713340
  C     -1.483840    4.760650    0.523310
  C     -2.164720    5.296330   -0.584320
  S     -3.116350    4.128030   -1.386180
  C     -1.848200    6.670260   -0.690440
  C     -0.964500    7.011090    0.354190
  C     -0.679980    5.809150    1.128220
  C      0.205580    5.678750    2.155840
  C      1.047540    6.730950    2.579890
  N      1.780490    7.549370    2.905760
  C      0.395210    4.454300    2.832860
  N      0.550340    3.467760    3.396060
  C     -0.631200    8.359040    0.371320
  C     -1.238390    9.051170   -0.670740
  S     -2.236150    8.007080   -1.678450
  C     -1.121760   10.426400   -0.939590
  C     -0.524530   11.396050   -0.121410
  C     -0.555250   12.715600   -0.695010
  N      0.045290   13.741190   -0.087780
  C      0.599080   13.506540    1.081030
  C      1.350200   14.621530    1.711750
  O      1.574200   15.665510    1.138460
  C      1.838430   14.345470    3.074760
  C      1.682640   13.171850    3.695990
  C      0.987450   12.016520    3.100820
  O      0.790020   10.988950    3.712460
  C      0.511760   12.224210    1.709620
  N     -0.017110   11.189280    1.095480
  C     -1.212300   12.762240   -1.932880
  S     -1.740760   11.169780   -2.382340
  C     -1.438550   13.901290   -2.725780
  C     -1.216290   15.222630   -2.354080
  C     -1.555340   16.105220   -3.371180
  C     -2.015270   15.459310   -4.537110
  S     -2.068390   13.761870   -4.364200
  C     -2.289290   16.439530   -5.518550
  C     -2.010520   17.708030   -4.979560
  C     -1.571040   17.543980   -3.604310
  C     -1.299780   18.529540   -2.702990
  C     -1.349120   19.897510   -3.048600
  N     -1.378430   21.011410   -3.317970
  C     -1.012440   18.268000   -1.344760
  N     -0.829860   18.087440   -0.227980
  C     -2.254070   18.745440   -5.881370
  C     -2.709150   18.283240   -7.098970
  S     -2.845120   16.528820   -7.129820
  C     -3.056680   19.055310   -8.258580
  C     -3.487710   18.468100   -9.435830
  C     -3.830450   19.209390  -10.574390
  C     -3.760740   20.577370  -10.594580
  C     -3.330940   21.226180   -9.426820
  C     -2.974510   20.474700   -8.251060
  N     -2.593720   21.271410   -7.254140
  S     -2.675630   22.799660   -7.743610
  N     -3.194860   22.540630   -9.237970
  H     -4.472420   -2.138550   -0.684250
  H     -5.101310   -0.372400   -2.313530
  H     -4.256830    1.897160   -2.099490
  H     -1.335650    2.788380    1.495790
  H      0.000050    8.852600    1.088240
  H      2.352940   15.169840    3.549970
  H      2.060970   13.009960    4.696380
  H     -0.818360   15.481260   -1.389340
  H     -2.112780   19.792790   -5.687470
  H     -3.563260   17.390930   -9.479860
  H     -4.156730   18.677200  -11.455190
  H     -4.021770   21.157130  -11.464240

 Total Charge           Charge          ....    0
 Multiplicity           Mult            ....    1
 Number of Electrons    NEL             ....  486
 Basis Dimension        Dim             ....  998

ORBITAL ENERGIES
----------------

  NO   OCC          E(Eh)            E(eV)
   0   2.0000     -89.023635     -2422.4563
   1   2.0000     -89.023587     -2422.4550
   2   2.0000     -88.998869     -2421.7823
   3   2.0000     -88.989954     -2421.5397
   4   2.0000     -88.989921     -2421.5389
   5   2.0000     -88.983760     -2421.3712
   6   2.0000     -88.983749     -2421.3709
   7   2.0000     -19.221029      -523.0308
   8   2.0000     -19.220989      -523.0297
   9   2.0000     -14.446116      -393.0988
  10   2.0000     -14.445991      -393.0954
  11   2.0000     -14.438047      -392.8792
  12   2.0000     -14.438043      -392.8791
  13   2.0000     -14.436267      -392.8308
  14   2.0000     -14.436199      -392.8289
  15   2.0000     -14.423068      -392.4716
  16   2.0000     -14.423028      -392.4706
  17   2.0000     -14.420662      -392.4062
  18   2.0000     -14.420581      -392.4040
  19   2.0000     -10.370032      -282.1829
  20   2.0000     -10.369934      -282.1802
  21   2.0000     -10.359155      -281.8869
  22   2.0000     -10.359105      -281.8856
  23   2.0000     -10.344698      -281.4936
  24   2.0000     -10.344564      -281.4899
  25   2.0000     -10.337532      -281.2985
  26   2.0000     -10.337253      -281.2910
  27   2.0000     -10.335492      -281.2430
  28   2.0000     -10.335387      -281.2402
  29   2.0000     -10.332383      -281.1584
  30   2.0000     -10.332106      -281.1509
  31   2.0000     -10.330884      -281.1176
  32   2.0000     -10.330780      -281.1148
  33   2.0000     -10.328276      -281.0467
  34   2.0000     -10.328165      -281.0436
  35   2.0000     -10.327965      -281.0382
  36   2.0000     -10.327957      -281.0380
  37   2.0000     -10.325064      -280.9593
  38   2.0000     -10.325028      -280.9583
  39   2.0000     -10.322957      -280.9019
  40   2.0000     -10.322953      -280.9018
  41   2.0000     -10.321262      -280.8558
  42   2.0000     -10.321234      -280.8551
  43   2.0000     -10.319835      -280.8170
  44   2.0000     -10.319779      -280.8155
  45   2.0000     -10.317530      -280.7543
  46   2.0000     -10.317480      -280.7529
  47   2.0000     -10.307697      -280.4867
  48   2.0000     -10.307651      -280.4854
  49   2.0000     -10.303378      -280.3692
  50   2.0000     -10.302670      -280.3499
  51   2.0000     -10.300069      -280.2791
  52   2.0000     -10.300017      -280.2777
  53   2.0000     -10.296093      -280.1709
  54   2.0000     -10.296085      -280.1707
  55   2.0000     -10.295415      -280.1525
  56   2.0000     -10.295376      -280.1514
  57   2.0000     -10.292726      -280.0793
  58   2.0000     -10.292700      -280.0786
  59   2.0000     -10.290718      -280.0247
  60   2.0000     -10.290713      -280.0245
  61   2.0000     -10.287672      -279.9418
  62   2.0000     -10.287554      -279.9386
  63   2.0000     -10.286825      -279.9187
  64   2.0000     -10.286820      -279.9186
  65   2.0000      -8.115430      -220.8321
  66   2.0000      -8.115394      -220.8311
  67   2.0000      -8.093589      -220.2378
  68   2.0000      -8.084759      -219.9975
  69   2.0000      -8.084698      -219.9958
  70   2.0000      -8.078334      -219.8226
  71   2.0000      -8.078309      -219.8220
  72   2.0000      -6.086572      -165.6241
  73   2.0000      -6.086565      -165.6238
  74   2.0000      -6.078795      -165.4124
  75   2.0000      -6.078735      -165.4108
  76   2.0000      -6.077970      -165.3900
  77   2.0000      -6.077932      -165.3889
  78   2.0000      -6.062670      -164.9736
  79   2.0000      -6.058589      -164.8626
  80   2.0000      -6.056227      -164.7983
  81   2.0000      -6.054038      -164.7387
  82   2.0000      -6.054004      -164.7378
  83   2.0000      -6.049937      -164.6272
  84   2.0000      -6.049859      -164.6250
  85   2.0000      -6.047589      -164.5633
  86   2.0000      -6.047532      -164.5617
  87   2.0000      -6.046993      -164.5471
  88   2.0000      -6.046930      -164.5453
  89   2.0000      -6.043426      -164.4500
  90   2.0000      -6.043412      -164.4496
  91   2.0000      -6.040724      -164.3765
  92   2.0000      -6.040707      -164.3760
  93   2.0000      -1.138477       -30.9795
  94   2.0000      -1.133691       -30.8493
  95   2.0000      -1.123781       -30.5796
  96   2.0000      -1.123716       -30.5779
  97   2.0000      -1.097664       -29.8690
  98   2.0000      -1.040184       -28.3048
  99   2.0000      -1.039892       -28.2969
 100   2.0000      -1.024582       -27.8803
 101   2.0000      -1.015821       -27.6419
 102   2.0000      -1.014139       -27.5961
 103   2.0000      -1.010294       -27.4915
 104   2.0000      -0.999088       -27.1866
 105   2.0000      -0.998729       -27.1768
 106   2.0000      -0.996146       -27.1065
 107   2.0000      -0.989269       -26.9194
 108   2.0000      -0.977030       -26.5863
 109   2.0000      -0.975528       -26.5455
 110   2.0000      -0.965252       -26.2658
 111   2.0000      -0.962688       -26.1961
 112   2.0000      -0.948938       -25.8219
 113   2.0000      -0.947326       -25.7780
 114   2.0000      -0.934184       -25.4205
 115   2.0000      -0.913680       -24.8625
 116   2.0000      -0.904811       -24.6212
 117   2.0000      -0.878446       -23.9037
 118   2.0000      -0.873975       -23.7821
 119   2.0000      -0.868171       -23.6241
 120   2.0000      -0.866166       -23.5696
 121   2.0000      -0.861767       -23.4499
 122   2.0000      -0.861318       -23.4376
 123   2.0000      -0.856186       -23.2980
 124   2.0000      -0.848081       -23.0775
 125   2.0000      -0.846789       -23.0423
 126   2.0000      -0.842289       -22.9198
 127   2.0000      -0.804413       -21.8892
 128   2.0000      -0.797572       -21.7030
 129   2.0000      -0.788943       -21.4682
 130   2.0000      -0.774013       -21.0620
 131   2.0000      -0.771881       -21.0039
 132   2.0000      -0.771175       -20.9847
 133   2.0000      -0.754104       -20.5202
 134   2.0000      -0.747626       -20.3439
 135   2.0000      -0.735111       -20.0034
 136   2.0000      -0.729428       -19.8487
 137   2.0000      -0.709811       -19.3150
 138   2.0000      -0.708902       -19.2902
 139   2.0000      -0.702898       -19.1268
 140   2.0000      -0.697217       -18.9722
 141   2.0000      -0.689704       -18.7678
 142   2.0000      -0.683016       -18.5858
 143   2.0000      -0.677057       -18.4236
 144   2.0000      -0.676519       -18.4090
 145   2.0000      -0.673537       -18.3279
 146   2.0000      -0.661525       -18.0010
 147   2.0000      -0.656137       -17.8544
 148   2.0000      -0.643933       -17.5223
 149   2.0000      -0.637620       -17.3505
 150   2.0000      -0.627150       -17.0656
 151   2.0000      -0.621482       -16.9114
 152   2.0000      -0.618153       -16.8208
 153   2.0000      -0.611916       -16.6511
 154   2.0000      -0.607769       -16.5382
 155   2.0000      -0.604090       -16.4381
 156   2.0000      -0.597741       -16.2654
 157   2.0000      -0.596697       -16.2370
 158   2.0000      -0.593227       -16.1425
 159   2.0000      -0.584289       -15.8993
 160   2.0000      -0.582706       -15.8562
 161   2.0000      -0.571652       -15.5555
 162   2.0000      -0.568492       -15.4695
 163   2.0000      -0.564695       -15.3661
 164   2.0000      -0.558439       -15.1959
 165   2.0000      -0.555645       -15.1199
 166   2.0000      -0.554268       -15.0824
 167   2.0000      -0.551945       -15.0192
 168   2.0000      -0.548636       -14.9291
 169   2.0000      -0.548561       -14.9271
 170   2.0000      -0.544889       -14.8272
 171   2.0000      -0.540907       -14.7188
 172   2.0000      -0.540764       -14.7149
 173   2.0000      -0.523258       -14.2386
 174   2.0000      -0.520976       -14.1765
 175   2.0000      -0.519015       -14.1231
 176   2.0000      -0.518745       -14.1158
 177   2.0000      -0.513053       -13.9609
 178   2.0000      -0.502619       -13.6769
 179   2.0000      -0.500384       -13.6161
 180   2.0000      -0.498187       -13.5564
 181   2.0000      -0.497253       -13.5310
 182   2.0000      -0.493073       -13.4172
 183   2.0000      -0.492850       -13.4111
 184   2.0000      -0.489323       -13.3152
 185   2.0000      -0.488658       -13.2971
 186   2.0000      -0.486857       -13.2481
 187   2.0000      -0.484712       -13.1897
 188   2.0000      -0.480252       -13.0683
 189   2.0000      -0.478490       -13.0204
 190   2.0000      -0.477341       -12.9891
 191   2.0000      -0.475449       -12.9376
 192   2.0000      -0.474651       -12.9159
 193   2.0000      -0.474238       -12.9047
 194   2.0000      -0.463839       -12.6217
 195   2.0000      -0.463164       -12.6033
 196   2.0000      -0.461967       -12.5708
 197   2.0000      -0.461688       -12.5632
 198   2.0000      -0.457098       -12.4383
 199   2.0000      -0.454005       -12.3541
 200   2.0000      -0.453483       -12.3399
 201   2.0000      -0.452798       -12.3213
 202   2.0000      -0.449211       -12.2237
 203   2.0000      -0.446894       -12.1606
 204   2.0000      -0.445932       -12.1344
 205   2.0000      -0.441130       -12.0037
 206   2.0000      -0.438595       -11.9348
 207   2.0000      -0.435762       -11.8577
 208   2.0000      -0.434043       -11.8109
 209   2.0000      -0.431635       -11.7454
 210   2.0000      -0.431466       -11.7408
 211   2.0000      -0.431253       -11.7350
 212   2.0000      -0.430152       -11.7050
 213   2.0000      -0.430041       -11.7020
 214   2.0000      -0.418722       -11.3940
 215   2.0000      -0.417784       -11.3685
 216   2.0000      -0.417401       -11.3580
 217   2.0000      -0.417076       -11.3492
 218   2.0000      -0.403833       -10.9889
 219   2.0000      -0.403141       -10.9700
 220   2.0000      -0.400800       -10.9063
 221   2.0000      -0.394774       -10.7423
 222   2.0000      -0.394715       -10.7407
 223   2.0000      -0.381736       -10.3876
 224   2.0000      -0.368225       -10.0199
 225   2.0000      -0.366869        -9.9830
 226   2.0000      -0.366186        -9.9644
 227   2.0000      -0.366116        -9.9625
 228   2.0000      -0.359412        -9.7801
 229   2.0000      -0.349659        -9.5147
 230   2.0000      -0.345613        -9.4046
 231   2.0000      -0.342952        -9.3322
 232   2.0000      -0.340738        -9.2719
 233   2.0000      -0.340724        -9.2716
 234   2.0000      -0.334688        -9.1073
 235   2.0000      -0.334341        -9.0979
 236   2.0000      -0.332162        -9.0386
 237   2.0000      -0.321034        -8.7358
 238   2.0000      -0.317106        -8.6289
 239   2.0000      -0.315015        -8.5720
 240   2.0000      -0.290511        -7.9052
 241   2.0000      -0.263846        -7.1796
 242   2.0000      -0.229760        -6.2521
 243   0.0000      -0.112392        -3.0583
 244   0.0000      -0.098573        -2.6823
 245   0.0000      -0.085752        -2.3334
 246   0.0000      -0.081299        -2.2123
 247   0.0000      -0.063539        -1.7290

MULLIKEN ATOMIC CHARGES
-----------------------
   0 C :   -0.022412
   1 C :    0.041433
   2 C :   -0.074083
   3 C :    0.160095
   4 C :   -0.014198
   5 C :    0.054022
   6 N :   -0.267186
   7 S :    0.521736
   8 N :   -0.287899
   9 C :   -0.116864
  10 C :   -0.052115
  11 C :    0.027558
  12 C :   -0.088067
  13 S :    0.154273
  14 C :   -0.096095
  15 C :    0.022159
  16 C :    0.307779
  17 C :   -0.294260
  18 C :   -0.194851
  19 N :    0.189148
  20 C :   -0.187227
  21 N :    0.172225
  22 C :   -0.053900
  23 C :   -0.091313
  24 S :    0.172818
  25 C :   -0.116703
  26 C :    0.021759
  27 C :    0.025545
  28 N :    0.064472
  29 C :   -0.118435
  30 C :    0.139736
  31 O :   -0.098991
  32 C :   -0.011497
  33 C :   -0.010487
  34 C :    0.140825
  35 O :   -0.099635
  36 C :   -0.118830
  37 N :    0.063109
  38 C :   -0.119123
  39 S :    0.194358
  40 C :   -0.091937
  41 C :   -0.055160
  42 C :    0.023855
  43 C :   -0.096347
  44 S :    0.172328
  45 C :   -0.086653
  46 C :    0.027773
  47 C :    0.307615
  48 C :   -0.296588
  49 C :   -0.188079
  50 N :    0.172776
  51 C :   -0.192137
  52 N :    0.189993
  53 C :   -0.054885
  54 C :   -0.115469
  55 S :    0.153210
  56 C :    0.162039
  57 C :   -0.077557
  58 C :    0.041645
  59 C :   -0.022134
  60 C :    0.051262
  61 C :   -0.011618
  62 N :   -0.288146
  63 S :    0.522147
  64 N :   -0.265625
  65 H :   -0.016082
  66 H :   -0.003810
  67 H :   -0.010695
  68 H :    0.022726
  69 H :    0.028496
  70 H :    0.019906
  71 H :    0.019195
  72 H :    0.027490
  73 H :    0.022213
  74 H :   -0.009711
  75 H :   -0.004487
  76 H :   -0.016429
Sum of atomic charges:   -0.0000000

LOEWDIN ATOMIC CHARGES
----------------------
   0 C :   -0.019519
   1 C :   -0.014001
   2 C :   -0.027197
   3 C :   -0.038570
   4 C :   -0.042122
   5 C :   -0.051496
   6 N :   -0.283841
   7 S :    0.654891
   8 N :   -0.282383
   9 C :   -0.158435
  10 C :   -0.019366
  11 C :   -0.069240
  12 C :   -0.179669
  13 S :    0.465419
  14 C :   -0.178265
  15 C :   -0.065056
  16 C :    0.077504
  17 C :   -0.092923
  18 C :   -0.022247
  19 N :   -0.018252
  20 C :   -0.016088
  21 N :   -0.029661
  22 C :   -0.007108
  23 C :   -0.186085
  24 S :    0.455623
  25 C :   -0.192183
  26 C :   -0.044336
  27 C :   -0.044391
  28 N :    0.008483
  29 C :   -0.039140
  30 C :    0.055050
  31 O :   -0.093303
  32 C :   -0.012325
  33 C :   -0.012096
  34 C :    0.055081
  35 O :   -0.093503
  36 C :   -0.039272
  37 N :    0.008601
  38 C :   -0.192179
  39 S :    0.482534
  40 C :   -0.185926
  41 C :   -0.006990
  42 C :   -0.065084
  43 C :   -0.178362
  44 S :    0.455726
  45 C :   -0.179379
  46 C :   -0.069346
  47 C :    0.077665
  48 C :   -0.093091
  49 C :   -0.016180
  50 N :   -0.029633
  51 C :   -0.022013
  52 N :   -0.018666
  53 C :   -0.019519
  54 C :   -0.158406
  55 S :    0.465403
  56 C :   -0.038599
  57 C :   -0.027368
  58 C :   -0.013909
  59 C :   -0.019593
  60 C :   -0.051612
  61 C :   -0.042176
  62 N :   -0.282152
  63 S :    0.655016
  64 N :   -0.283829
  65 H :    0.038190
  66 H :    0.034599
  67 H :    0.022233
  68 H :    0.039364
  69 H :    0.044235
  70 H :    0.046117
  71 H :    0.046031
  72 H :    0.044064
  73 H :    0.039292
  74 H :    0.022288
  75 H :    0.034523
  76 H :    0.038153

  Mayer bond orders larger than 0.100000
B(  0-C ,  1-C ) :   1.4894 B(  0-C ,  3-C ) :   0.1080 B(  0-C ,  5-C ) :   1.2095
B(  0-C , 65-H ) :   1.0193 B(  1-C ,  2-C ) :   1.2282 B(  1-C , 66-H ) :   0.9821
B(  2-C ,  3-C ) :   1.4849 B(  2-C , 67-H ) :   0.9861 B(  3-C ,  4-C ) :   1.1870
B(  3-C ,  9-C ) :   1.1039 B(  4-C ,  5-C ) :   1.1681 B(  4-C ,  8-N ) :   1.5234
B(  5-C ,  6-N ) :   1.5046 B(  6-N ,  7-S ) :   1.2859 B(  6-N ,  8-N ) :   0.1492
B(  7-S ,  8-N ) :   1.2571 B(  9-C , 10-C ) :   1.4967 B(  9-C , 13-S ) :   1.0854
B( 10-C , 11-C ) :   1.2346 B( 10-C , 68-H ) :   0.9812 B( 11-C , 12-C ) :   1.4361
B( 11-C , 16-C ) :   1.0013 B( 12-C , 13-S ) :   1.1204 B( 12-C , 14-C ) :   1.1973
B( 14-C , 15-C ) :   1.4253 B( 14-C , 24-S ) :   1.1182 B( 15-C , 16-C ) :   0.9816
B( 15-C , 22-C ) :   1.2759 B( 16-C , 17-C ) :   1.7149 B( 17-C , 18-C ) :   1.1306
B( 17-C , 20-C ) :   1.1379 B( 18-C , 19-N ) :   3.0009 B( 20-C , 21-N ) :   2.9871
B( 22-C , 23-C ) :   1.4516 B( 22-C , 69-H ) :   0.9876 B( 23-C , 24-S ) :   1.0792
B( 23-C , 25-C ) :   1.1896 B( 25-C , 26-C ) :   1.3692 B( 25-C , 38-C ) :   0.1500
B( 25-C , 39-S ) :   1.1471 B( 26-C , 27-C ) :   1.1820 B( 26-C , 37-N ) :   1.4379
B( 27-C , 28-N ) :   1.4397 B( 27-C , 38-C ) :   1.3688 B( 28-N , 29-C ) :   1.7149
B( 29-C , 30-C ) :   0.8900 B( 29-C , 36-C ) :   1.0910 B( 30-C , 31-O ) :   2.2408
B( 30-C , 32-C ) :   1.0248 B( 32-C , 33-C ) :   1.6901 B( 32-C , 70-H ) :   0.9937
B( 33-C , 34-C ) :   1.0227 B( 33-C , 71-H ) :   0.9940 B( 34-C , 35-O ) :   2.2398
B( 34-C , 36-C ) :   0.8912 B( 36-C , 37-N ) :   1.7169 B( 38-C , 39-S ) :   1.1477
B( 38-C , 40-C ) :   1.1905 B( 40-C , 41-C ) :   1.4520 B( 40-C , 44-S ) :   1.0787
B( 41-C , 42-C ) :   1.2780 B( 41-C , 72-H ) :   0.9868 B( 42-C , 43-C ) :   1.4245
B( 42-C , 47-C ) :   0.9821 B( 43-C , 44-S ) :   1.1185 B( 43-C , 45-C ) :   1.1982
B( 45-C , 46-C ) :   1.4370 B( 45-C , 55-S ) :   1.1196 B( 46-C , 47-C ) :   0.9996
B( 46-C , 53-C ) :   1.2335 B( 47-C , 48-C ) :   1.7166 B( 48-C , 49-C ) :   1.1382
B( 48-C , 51-C ) :   1.1305 B( 49-C , 50-N ) :   2.9877 B( 51-C , 52-N ) :   3.0009
B( 53-C , 54-C ) :   1.4969 B( 53-C , 73-H ) :   0.9816 B( 54-C , 55-S ) :   1.0857
B( 54-C , 56-C ) :   1.1034 B( 56-C , 57-C ) :   1.4845 B( 56-C , 59-C ) :   0.1082
B( 56-C , 61-C ) :   1.1868 B( 57-C , 58-C ) :   1.2283 B( 57-C , 74-H ) :   0.9871
B( 58-C , 59-C ) :   1.4895 B( 58-C , 75-H ) :   0.9816 B( 59-C , 60-C ) :   1.2095
B( 59-C , 76-H ) :   1.0195 B( 60-C , 61-C ) :   1.1660 B( 60-C , 64-N ) :   1.5076
B( 61-C , 62-N ) :   1.5234 B( 62-N , 63-S ) :   1.2579 B( 62-N , 64-N ) :   0.1492
B( 63-S , 64-N ) :   1.2856

-----------------------------------------------------------------------------
         ABSORPTION SPECTRUM VIA TRANSITION ELECTRIC DIPOLE MOMENTS
-----------------------------------------------------------------------------
State   Energy  Wavelength   fosc         T2         TX        TY        TZ
        (cm-1)    (nm)                  (au**2)     (au)      (au)      (au)
-----------------------------------------------------------------------------
   0   10112.0    988.9   0.698653099  22.74566  -0.11523   4.37231  -1.90139
   1   12007.0    832.9   0.040302465   1.10503  -0.54098  -0.38887  -0.81311
   2   14070.1    710.7   0.158147777   3.70034  -0.09940   1.77458  -0.73574
   3   17359.4    576.1   0.140420498   2.66300  -0.81223  -0.57738  -1.29225
   4   19107.0    523.4   0.043107544   0.74274  -0.44934  -0.30248  -0.67033
   5   21316.4    469.1   0.144093205   2.22539   0.02924  -1.36596   0.59889
   6   23084.7    433.2   0.789630720  11.26094   0.11946   3.03342  -1.43004
   7   23240.1    430.3   0.260934092   3.69631  -0.99571  -0.65673  -1.50784
   8   24740.5    404.2   0.003171006   0.04220  -0.15988   0.11196   0.06401
   9   24842.1    402.5   0.009039865   0.11980  -0.17197  -0.11653  -0.27684
  10   25770.7    388.0   0.000143820   0.00184   0.02015   0.00313   0.03770
  11   26028.5    384.2   0.201904121   2.55371  -0.07561   1.47404  -0.61252
  12   26568.2    376.4   0.002516973   0.03119  -0.13364  -0.05024   0.10394
  13   27530.2    363.2   0.062801802   0.75100   0.07653  -0.80342   0.31569
  14   28668.1    348.8   0.042360078   0.48644   0.34835   0.29654   0.52646
  15   28910.3    345.9   0.337598332   3.84435  -0.21718   1.81874  -0.69954
  16   29637.7    337.4   0.043675962   0.48515  -0.43518   0.54325   0.02549
  17   29773.4    335.9   0.242284658   2.67900   0.78040   0.59205   1.31128
  18   30696.8    325.8   0.000400007   0.00429   0.01486   0.06178   0.01586
  19   31054.0    322.0   0.169085240   1.79252   0.27447  -1.25951   0.36167
  20   31105.5    321.5   0.172319508   1.82378   0.68550   0.39547   1.09429
  21   31599.8    316.5   0.216932510   2.26004   0.20689   1.31771  -0.69345
  22   31746.3    315.0   0.065106424   0.67516  -0.41228  -0.34771  -0.61990
  23   32000.9    312.5   0.052682023   0.54197  -0.07010   0.65777  -0.32311
  24   32567.4    307.1   0.114917802   1.16166   0.50919   0.39050   0.86597
  25   32787.7    305.0   0.017380285   0.17451  -0.36542  -0.07246   0.18902
  26   33305.4    300.3   0.116673810   1.15328   0.50865   0.37201   0.86958
  27   33782.2    296.0   0.006821457   0.06648  -0.12184  -0.10225  -0.20292
  28   33895.2    295.0   0.034338676   0.33352  -0.32663  -0.19129  -0.43617
  29   33971.9    294.4   0.020389178   0.19759  -0.31020   0.29491   0.11996
  30   34479.1    290.0   0.294252328   2.80957   0.87588   0.53337   1.32586
  31   34524.8    289.6   0.015120103   0.14418   0.05668   0.33746   0.16459
  32   34751.2    287.8   0.118480212   1.12241   0.25148  -0.99754   0.25316
  33   35262.7    283.6   0.404444766   3.77589  -0.95575  -0.66814  -1.55435
  34   35383.5    282.6   0.014960319   0.13919   0.16313  -0.33553   0.00120
  35   35472.4    281.9   0.032547277   0.30206   0.22306  -0.46441   0.19139
  36   35526.6    281.5   0.208598370   1.93300   0.64478   0.53480   1.10961
  37   35956.4    278.1   0.031179782   0.28548  -0.26213  -0.18766  -0.42609
  38   36833.3    271.5   0.036200850   0.32356  -0.07732   0.52287  -0.21022
  39   36972.1    270.5   0.002792925   0.02487   0.07979   0.09141   0.10073
  40   37186.0    268.9   0.028205188   0.24970  -0.24871  -0.18933  -0.38988
  41   37227.3    268.6   0.046064222   0.40736   0.06422   0.55399  -0.31037
  42   37721.3    265.1   0.118867255   1.03741   0.48298   0.36318   0.81990
  43   37864.1    264.1   0.012161469   0.10574  -0.08282   0.30520  -0.07572
  44   38057.3    262.8   0.028448968   0.24610  -0.17314  -0.42111   0.19694
  45   38162.5    262.0   0.050342488   0.43428   0.33025   0.25530   0.50994
  46   38483.0    259.9   0.171598839   1.46798  -0.06289  -1.07226   0.56061
  47   38504.6    259.7   0.028283070   0.24182   0.00551   0.43029  -0.23799
  48   38570.9    259.3   0.041735959   0.35623   0.00189  -0.53735   0.25976
  49   38679.2    258.5   0.005036103   0.04286   0.12276   0.09074   0.13986
  50   38776.3    257.9   0.029128704   0.24730   0.08256   0.41848  -0.25565
  51   39080.3    255.9   0.005127177   0.04319   0.08701   0.06628   0.17671
  52   39165.3    255.3   0.001561265   0.01312   0.01146   0.11265  -0.01739
  53   39450.7    253.5   0.020173405   0.16835  -0.21966  -0.13009  -0.32120
  54   39616.7    252.4   0.046383540   0.38544   0.27497   0.22356   0.50976
  55   39761.8    251.5   0.217995585   1.80492   0.09641  -1.24757   0.48907
  56   39971.2    250.2   0.036124782   0.29753   0.05412  -0.47943   0.25447
  57   40084.1    249.5   0.032698053   0.26855  -0.25806  -0.22878  -0.38680

FINAL SINGLE POINT ENERGY     -5241.335376359256

DIPOLE MOMENT
-------------
                                X             Y             Z
Electronic contribution:      3.83487       2.75176       6.18988
Nuclear contribution   :     -5.84080      -4.22433      -9.49723
                        -----------------------------------------
Total Dipole Moment    :     -2.00593      -1.47257      -3.30734
                        -----------------------------------------
Magnitude (a.u.)       :      4.13893
Magnitude (Debye)      :     10.52033

Rotational constants in cm-1:     0.001946     0.000301     0.000262
Rotational constants in MHz :    58.342640     9.018793     7.856510

                             ****ORCA TERMINATED NORMALLY****
TOTAL RUN TIME: 0 days 0 hours 6 minutes 46 seconds 414 msec
