                         Program Version 4.2.0 -  RELEASE  -
|  1> # ORCA input file
|  2> # SCF done       -188.047615506063          0.000585235696
|  3> ! CAM-B3LYP def2-SVP def2/J RIJCOSX Grid4 TightSCF
|  4> %maxcore 5000
|  5> %tddft
|  6>     Mode sTDDFT
|  7>     Ethresh 5.0
|  8>     maxcore 5000
|  9> end
| 10>
| 11> %pal
| 12>   nprocs 6
| 13>   end
| 14> * xyz 0 1
| 15>    C       -1.11351         2.76770         0.05752
| 16>    C       -0.34188         3.43507        -0.85164
| 17>    F       -0.19810         4.76418        -0.76622
| 18>    C        0.31169         2.73776        -1.88786
| 19>    F        1.06305         3.41843        -2.76395
| 20>    C        0.18293         1.38194        -2.00144
| 21>    C       -0.60619         0.66591        -1.08041
| 22>    C       -1.26563         1.36898        -0.03071
| 23>    C       -2.05879         0.67142         0.90863
| 24>    C       -2.19124        -0.68888         0.80153
| 25>    C       -1.53580        -1.37859        -0.25358
| 26>    C       -0.76018        -0.73460        -1.17390
| 27>    C       -1.83447        -2.82108        -0.16474
| 28>    O       -1.39782        -3.67382        -0.90763
| 29>    C       -2.73828        -2.97477         1.00108
| 30>    C       -2.92165        -1.66364         1.60786
| 31>    C       -3.62939        -1.35828         2.74174
| 32>    C       -4.32084        -2.25956         3.57980
| 33>    N       -4.90524        -2.90291         4.33119
| 34>    C       -3.75996        -0.05200         3.26187
| 35>    N       -3.91029         0.97909         3.74383
| 36>    C       -3.34790        -4.11105         1.45967
| 37>    C       -3.34368        -5.44055         0.99050
| 38>    C       -2.65087        -6.09853        -0.00801
| 39>    C       -2.97306        -7.45352        -0.10835
| 40>    S       -2.02464        -8.46669        -1.17976
| 41>    C       -1.75673        -9.95582        -0.16811
| 42>    C       -3.97015        -7.85702         0.78795
| 43>    S       -4.37284        -6.56153         1.86820
| 44>    C       -4.70903        -9.07084         0.87628
| 45>    C       -5.34552        -9.42795         2.09423
| 46>    C       -6.12602       -10.61996         2.25585
| 47>    N       -6.66398       -10.89085         3.46335
| 48>    C       -6.48753       -10.04594         4.44096
| 49>    C       -5.74276        -8.86199         4.27440
| 50>    N       -5.18456        -8.58636         3.13051
| 51>    C       -6.35592       -11.49917         1.16598
| 52>    C       -5.78321       -11.10694        -0.06078
| 53>    C       -4.98062        -9.91892        -0.21562
| 54>    N       -4.63008        -9.73299        -1.49143
| 55>    S       -5.22391       -10.91218        -2.39113
| 56>    N       -5.95502       -11.73709        -1.22575
| 57>    C       -7.17096       -12.66485         1.22453
| 58>    C       -7.90589       -13.15627         2.28818
| 59>    C       -8.62256       -14.31145         1.97905
| 60>    S       -9.67221       -15.18960         3.05339
| 61>    C       -9.47660       -14.27795         4.61120
| 62>    C       -8.46687       -14.71468         0.64412
| 63>    S       -7.36442       -13.65086        -0.19036
| 64>    C       -9.03216       -15.85719         0.05798
| 65>    C       -9.11995       -16.17764        -1.26957
| 66>    C       -9.25900       -17.59523        -1.68343
| 67>    O       -9.54486       -18.53858        -0.98177
| 68>    C       -8.90740       -17.61116        -3.12161
| 69>    C       -8.77265       -18.67862        -3.96067
| 70>    C       -8.39716       -18.45347        -5.30483
| 71>    C       -8.16585       -17.12064        -5.75301
| 72>    C       -7.78577       -16.90464        -7.09272
| 73>    C       -7.64432       -17.96109        -7.94798
| 74>    C       -7.87468       -19.27828        -7.50438
| 75>    C       -8.24373       -19.52072        -6.21086
| 76>    F       -7.72702       -20.29597        -8.36465
| 77>    F       -7.28265       -17.75241        -9.22175
| 78>    C       -8.32292       -16.03316        -4.86301
| 79>    C       -8.69214       -16.27571        -3.56783
| 80>    C       -8.97262       -15.37018        -2.45666
| 81>    C       -9.30353       -14.04379        -2.58174
| 82>    C       -9.91144       -13.30204        -1.54789
| 83>    N      -10.46895       -12.68712        -0.75449
| 84>    C       -9.13793       -13.29908        -3.76345
| 85>    N       -8.97868       -12.63611        -4.68796
| 86>    H       -1.60599         3.31685         0.84489
| 87>    H        0.68887         0.86238        -2.80013
| 88>    H       -2.54229         1.23611         1.68873
| 89>    H       -0.27260        -1.28832        -1.96186
| 90>    H       -3.98354        -3.98864         2.32891
| 91>    H       -1.91661        -5.62844        -0.63606
| 92>    H       -2.54096       -10.68746        -0.33424
| 93>    H       -1.71323        -9.67332         0.87855
| 94>    H       -0.80190       -10.36316        -0.48541
| 95>    H       -6.93708       -10.30281         5.39049
| 96>    H       -5.59781        -8.15208         5.07568
| 97>    H       -7.90073       -12.65802         3.23778
| 98>    H      -10.08397       -14.80630         5.33953
| 99>    H       -9.84304       -13.26340         4.48939
|100>    H       -8.43529       -14.28884         4.91773
|101>    H       -9.37158       -16.62410         0.74941
|102>    H       -8.95036       -19.68234        -3.60570
|103>    H       -7.60949       -15.90192        -7.44961
|104>    H       -8.41669       -20.53510        -5.88702
|105>    H       -8.13937       -15.03384        -5.22474
|106> *
|107>
|108>                          ****END OF INPUT****

CARTESIAN COORDINATES (ANGSTROEM)
---------------------------------
  C     -1.113510    2.767700    0.057520
  C     -0.341880    3.435070   -0.851640
  F     -0.198100    4.764180   -0.766220
  C      0.311690    2.737760   -1.887860
  F      1.063050    3.418430   -2.763950
  C      0.182930    1.381940   -2.001440
  C     -0.606190    0.665910   -1.080410
  C     -1.265630    1.368980   -0.030710
  C     -2.058790    0.671420    0.908630
  C     -2.191240   -0.688880    0.801530
  C     -1.535800   -1.378590   -0.253580
  C     -0.760180   -0.734600   -1.173900
  C     -1.834470   -2.821080   -0.164740
  O     -1.397820   -3.673820   -0.907630
  C     -2.738280   -2.974770    1.001080
  C     -2.921650   -1.663640    1.607860
  C     -3.629390   -1.358280    2.741740
  C     -4.320840   -2.259560    3.579800
  N     -4.905240   -2.902910    4.331190
  C     -3.759960   -0.052000    3.261870
  N     -3.910290    0.979090    3.743830
  C     -3.347900   -4.111050    1.459670
  C     -3.343680   -5.440550    0.990500
  C     -2.650870   -6.098530   -0.008010
  C     -2.973060   -7.453520   -0.108350
  S     -2.024640   -8.466690   -1.179760
  C     -1.756730   -9.955820   -0.168110
  C     -3.970150   -7.857020    0.787950
  S     -4.372840   -6.561530    1.868200
  C     -4.709030   -9.070840    0.876280
  C     -5.345520   -9.427950    2.094230
  C     -6.126020  -10.619960    2.255850
  N     -6.663980  -10.890850    3.463350
  C     -6.487530  -10.045940    4.440960
  C     -5.742760   -8.861990    4.274400
  N     -5.184560   -8.586360    3.130510
  C     -6.355920  -11.499170    1.165980
  C     -5.783210  -11.106940   -0.060780
  C     -4.980620   -9.918920   -0.215620
  N     -4.630080   -9.732990   -1.491430
  S     -5.223910  -10.912180   -2.391130
  N     -5.955020  -11.737090   -1.225750
  C     -7.170960  -12.664850    1.224530
  C     -7.905890  -13.156270    2.288180
  C     -8.622560  -14.311450    1.979050
  S     -9.672210  -15.189600    3.053390
  C     -9.476600  -14.277950    4.611200
  C     -8.466870  -14.714680    0.644120
  S     -7.364420  -13.650860   -0.190360
  C     -9.032160  -15.857190    0.057980
  C     -9.119950  -16.177640   -1.269570
  C     -9.259000  -17.595230   -1.683430
  O     -9.544860  -18.538580   -0.981770
  C     -8.907400  -17.611160   -3.121610
  C     -8.772650  -18.678620   -3.960670
  C     -8.397160  -18.453470   -5.304830
  C     -8.165850  -17.120640   -5.753010
  C     -7.785770  -16.904640   -7.092720
  C     -7.644320  -17.961090   -7.947980
  C     -7.874680  -19.278280   -7.504380
  C     -8.243730  -19.520720   -6.210860
  F     -7.727020  -20.295970   -8.364650
  F     -7.282650  -17.752410   -9.221750
  C     -8.322920  -16.033160   -4.863010
  C     -8.692140  -16.275710   -3.567830
  C     -8.972620  -15.370180   -2.456660
  C     -9.303530  -14.043790   -2.581740
  C     -9.911440  -13.302040   -1.547890
  N    -10.468950  -12.687120   -0.754490
  C     -9.137930  -13.299080   -3.763450
  N     -8.978680  -12.636110   -4.687960
  H     -1.605990    3.316850    0.844890
  H      0.688870    0.862380   -2.800130
  H     -2.542290    1.236110    1.688730
  H     -0.272600   -1.288320   -1.961860
  H     -3.983540   -3.988640    2.328910
  H     -1.916610   -5.628440   -0.636060
  H     -2.540960  -10.687460   -0.334240
  H     -1.713230   -9.673320    0.878550
  H     -0.801900  -10.363160   -0.485410
  H     -6.937080  -10.302810    5.390490
  H     -5.597810   -8.152080    5.075680
  H     -7.900730  -12.658020    3.237780
  H    -10.083970  -14.806300    5.339530
  H     -9.843040  -13.263400    4.489390
  H     -8.435290  -14.288840    4.917730
  H     -9.371580  -16.624100    0.749410
  H     -8.950360  -19.682340   -3.605700
  H     -7.609490  -15.901920   -7.449610
  H     -8.416690  -20.535100   -5.887020
  H     -8.139370  -15.033840   -5.224740

 Total Charge           Charge          ....    0
 Multiplicity           Mult            ....    1
 Number of Electrons    NEL             ....  520
 Basis Dimension        Dim             .... 1114

ORBITAL ENERGIES
----------------

  NO   OCC          E(Eh)            E(eV)
   0   2.0000     -89.053100     -2423.2580
   1   2.0000     -88.966490     -2420.9013
   2   2.0000     -88.962976     -2420.8057
   3   2.0000     -88.942402     -2420.2458
   4   2.0000     -88.928631     -2419.8711
   5   2.0000     -24.798432      -674.7996
   6   2.0000     -24.797495      -674.7741
   7   2.0000     -24.794284      -674.6868
   8   2.0000     -24.793889      -674.6760
   9   2.0000     -19.220644      -523.0203
  10   2.0000     -19.207142      -522.6529
  11   2.0000     -14.457628      -393.4120
  12   2.0000     -14.455887      -393.3647
  13   2.0000     -14.453496      -393.2996
  14   2.0000     -14.452065      -393.2607
  15   2.0000     -14.419593      -392.3771
  16   2.0000     -14.416115      -392.2824
  17   2.0000     -14.411947      -392.1690
  18   2.0000     -14.405261      -391.9871
  19   2.0000     -10.381735      -282.5014
  20   2.0000     -10.380861      -282.4776
  21   2.0000     -10.376830      -282.3679
  22   2.0000     -10.376500      -282.3589
  23   2.0000     -10.371725      -282.2290
  24   2.0000     -10.359363      -281.8926
  25   2.0000     -10.350470      -281.6506
  26   2.0000     -10.348164      -281.5879
  27   2.0000     -10.348044      -281.5846
  28   2.0000     -10.347769      -281.5771
  29   2.0000     -10.347535      -281.5707
  30   2.0000     -10.347176      -281.5610
  31   2.0000     -10.344200      -281.4800
  32   2.0000     -10.343619      -281.4642
  33   2.0000     -10.335020      -281.2302
  34   2.0000     -10.334410      -281.2136
  35   2.0000     -10.327351      -281.0215
  36   2.0000     -10.327104      -281.0148
  37   2.0000     -10.326788      -281.0062
  38   2.0000     -10.325017      -280.9580
  39   2.0000     -10.324811      -280.9524
  40   2.0000     -10.322621      -280.8928
  41   2.0000     -10.320389      -280.8321
  42   2.0000     -10.319448      -280.8065
  43   2.0000     -10.315348      -280.6949
  44   2.0000     -10.314842      -280.6811
  45   2.0000     -10.313605      -280.6475
  46   2.0000     -10.311651      -280.5943
  47   2.0000     -10.310692      -280.5682
  48   2.0000     -10.310389      -280.5600
  49   2.0000     -10.308230      -280.5012
  50   2.0000     -10.307593      -280.4839
  51   2.0000     -10.306840      -280.4634
  52   2.0000     -10.306434      -280.4523
  53   2.0000     -10.305719      -280.4329
  54   2.0000     -10.305223      -280.4194
  55   2.0000     -10.303141      -280.3627
  56   2.0000     -10.302512      -280.3456
  57   2.0000     -10.302181      -280.3366
  58   2.0000     -10.302128      -280.3352
  59   2.0000     -10.301234      -280.3108
  60   2.0000     -10.300531      -280.2917
  61   2.0000     -10.298359      -280.2326
  62   2.0000     -10.296937      -280.1939
  63   2.0000     -10.296876      -280.1923
  64   2.0000     -10.296596      -280.1846
  65   2.0000     -10.296302      -280.1766
  66   2.0000     -10.292819      -280.0819
  67   2.0000     -10.288642      -279.9682
  68   2.0000     -10.287816      -279.9457
  69   2.0000     -10.285039      -279.8701
  70   2.0000     -10.283608      -279.8312
  71   2.0000      -8.143874      -221.6061
  72   2.0000      -8.060329      -219.3327
  73   2.0000      -8.056725      -219.2346
  74   2.0000      -8.037919      -218.7229
  75   2.0000      -8.023652      -218.3347
  76   2.0000      -6.114827      -166.3929
  77   2.0000      -6.107058      -166.1815
  78   2.0000      -6.106972      -166.1791
  79   2.0000      -6.029750      -164.0778
  80   2.0000      -6.026267      -163.9831
  81   2.0000      -6.025323      -163.9574
  82   2.0000      -6.022505      -163.8807
  83   2.0000      -6.021822      -163.8621
  84   2.0000      -6.018573      -163.7737
  85   2.0000      -6.008243      -163.4926
  86   2.0000      -6.003969      -163.3763
  87   2.0000      -5.997958      -163.2127
  88   2.0000      -5.994240      -163.1116
  89   2.0000      -5.990260      -163.0033
  90   2.0000      -5.982913      -162.8033
  91   2.0000      -1.320859       -35.9424
  92   2.0000      -1.316706       -35.8294
  93   2.0000      -1.305976       -35.5374
  94   2.0000      -1.301916       -35.4269
  95   2.0000      -1.148317       -31.2473
  96   2.0000      -1.135952       -30.9108
  97   2.0000      -1.122465       -30.5438
  98   2.0000      -1.111065       -30.2336
  99   2.0000      -1.037323       -28.2270
 100   2.0000      -1.021818       -27.8051
 101   2.0000      -1.015678       -27.6380
 102   2.0000      -1.008834       -27.4518
 103   2.0000      -1.005848       -27.3705
 104   2.0000      -1.005210       -27.3531
 105   2.0000      -0.998379       -27.1673
 106   2.0000      -0.996254       -27.1095
 107   2.0000      -0.992868       -27.0173
 108   2.0000      -0.986227       -26.8366
 109   2.0000      -0.982009       -26.7218
 110   2.0000      -0.975847       -26.5542
 111   2.0000      -0.972599       -26.4658
 112   2.0000      -0.933807       -25.4102
 113   2.0000      -0.926949       -25.2236
 114   2.0000      -0.918715       -24.9995
 115   2.0000      -0.912390       -24.8274
 116   2.0000      -0.901724       -24.5371
 117   2.0000      -0.899223       -24.4691
 118   2.0000      -0.894734       -24.3470
 119   2.0000      -0.891714       -24.2648
 120   2.0000      -0.890769       -24.2390
 121   2.0000      -0.887420       -24.1479
 122   2.0000      -0.878568       -23.9071
 123   2.0000      -0.869341       -23.6560
 124   2.0000      -0.841751       -22.9052
 125   2.0000      -0.840289       -22.8654
 126   2.0000      -0.835413       -22.7328
 127   2.0000      -0.830955       -22.6114
 128   2.0000      -0.830075       -22.5875
 129   2.0000      -0.820744       -22.3336
 130   2.0000      -0.811963       -22.0946
 131   2.0000      -0.791359       -21.5340
 132   2.0000      -0.782127       -21.2828
 133   2.0000      -0.771793       -21.0015
 134   2.0000      -0.769164       -20.9300
 135   2.0000      -0.759697       -20.6724
 136   2.0000      -0.753164       -20.4946
 137   2.0000      -0.743781       -20.2393
 138   2.0000      -0.740624       -20.1534
 139   2.0000      -0.728483       -19.8230
 140   2.0000      -0.725465       -19.7409
 141   2.0000      -0.719345       -19.5744
 142   2.0000      -0.714422       -19.4404
 143   2.0000      -0.710865       -19.3436
 144   2.0000      -0.705774       -19.2051
 145   2.0000      -0.692878       -18.8542
 146   2.0000      -0.685415       -18.6511
 147   2.0000      -0.680604       -18.5202
 148   2.0000      -0.676503       -18.4086
 149   2.0000      -0.669576       -18.2201
 150   2.0000      -0.659912       -17.9571
 151   2.0000      -0.655750       -17.8439
 152   2.0000      -0.653964       -17.7953
 153   2.0000      -0.650787       -17.7088
 154   2.0000      -0.642828       -17.4922
 155   2.0000      -0.641707       -17.4617
 156   2.0000      -0.637880       -17.3576
 157   2.0000      -0.635699       -17.2983
 158   2.0000      -0.626618       -17.0511
 159   2.0000      -0.620596       -16.8873
 160   2.0000      -0.611046       -16.6274
 161   2.0000      -0.609746       -16.5920
 162   2.0000      -0.607032       -16.5182
 163   2.0000      -0.597448       -16.2574
 164   2.0000      -0.587583       -15.9890
 165   2.0000      -0.586998       -15.9730
 166   2.0000      -0.585421       -15.9301
 167   2.0000      -0.582111       -15.8400
 168   2.0000      -0.581401       -15.8207
 169   2.0000      -0.580763       -15.8034
 170   2.0000      -0.577385       -15.7114
 171   2.0000      -0.575891       -15.6708
 172   2.0000      -0.571819       -15.5600
 173   2.0000      -0.567993       -15.4559
 174   2.0000      -0.555729       -15.1221
 175   2.0000      -0.553557       -15.0631
 176   2.0000      -0.550474       -14.9792
 177   2.0000      -0.549497       -14.9526
 178   2.0000      -0.547866       -14.9082
 179   2.0000      -0.547046       -14.8859
 180   2.0000      -0.543189       -14.7809
 181   2.0000      -0.540809       -14.7162
 182   2.0000      -0.539074       -14.6690
 183   2.0000      -0.533634       -14.5209
 184   2.0000      -0.532584       -14.4923
 185   2.0000      -0.530029       -14.4228
 186   2.0000      -0.529152       -14.3989
 187   2.0000      -0.528016       -14.3681
 188   2.0000      -0.527557       -14.3556
 189   2.0000      -0.523665       -14.2497
 190   2.0000      -0.522193       -14.2096
 191   2.0000      -0.518864       -14.1190
 192   2.0000      -0.514844       -14.0096
 193   2.0000      -0.514118       -13.9899
 194   2.0000      -0.513915       -13.9843
 195   2.0000      -0.512245       -13.9389
 196   2.0000      -0.508202       -13.8289
 197   2.0000      -0.506829       -13.7915
 198   2.0000      -0.500481       -13.6188
 199   2.0000      -0.499518       -13.5926
 200   2.0000      -0.498209       -13.5570
 201   2.0000      -0.496612       -13.5135
 202   2.0000      -0.492521       -13.4022
 203   2.0000      -0.492447       -13.4002
 204   2.0000      -0.488461       -13.2917
 205   2.0000      -0.485508       -13.2113
 206   2.0000      -0.484641       -13.1878
 207   2.0000      -0.479525       -13.0485
 208   2.0000      -0.476959       -12.9787
 209   2.0000      -0.470031       -12.7902
 210   2.0000      -0.466778       -12.7017
 211   2.0000      -0.466400       -12.6914
 212   2.0000      -0.462292       -12.5796
 213   2.0000      -0.459728       -12.5098
 214   2.0000      -0.457505       -12.4494
 215   2.0000      -0.457245       -12.4423
 216   2.0000      -0.451173       -12.2770
 217   2.0000      -0.450548       -12.2600
 218   2.0000      -0.448198       -12.1961
 219   2.0000      -0.447038       -12.1645
 220   2.0000      -0.445458       -12.1215
 221   2.0000      -0.445046       -12.1103
 222   2.0000      -0.443783       -12.0760
 223   2.0000      -0.441261       -12.0073
 224   2.0000      -0.436463       -11.8768
 225   2.0000      -0.432752       -11.7758
 226   2.0000      -0.429045       -11.6749
 227   2.0000      -0.425360       -11.5746
 228   2.0000      -0.424831       -11.5602
 229   2.0000      -0.422323       -11.4920
 230   2.0000      -0.421538       -11.4706
 231   2.0000      -0.417008       -11.3474
 232   2.0000      -0.415726       -11.3125
 233   2.0000      -0.408649       -11.1199
 234   2.0000      -0.408287       -11.1101
 235   2.0000      -0.408104       -11.1051
 236   2.0000      -0.404938       -11.0189
 237   2.0000      -0.399589       -10.8734
 238   2.0000      -0.393639       -10.7115
 239   2.0000      -0.388764       -10.5788
 240   2.0000      -0.386031       -10.5044
 241   2.0000      -0.381488       -10.3808
 242   2.0000      -0.377839       -10.2815
 243   2.0000      -0.366772        -9.9804
 244   2.0000      -0.364473        -9.9178
 245   2.0000      -0.357102        -9.7172
 246   2.0000      -0.354202        -9.6383
 247   2.0000      -0.349526        -9.5111
 248   2.0000      -0.341182        -9.2840
 249   2.0000      -0.336029        -9.1438
 250   2.0000      -0.331091        -9.0095
 251   2.0000      -0.323959        -8.8154
 252   2.0000      -0.317924        -8.6511
 253   2.0000      -0.312102        -8.4927
 254   2.0000      -0.305573        -8.3151
 255   2.0000      -0.298688        -8.1277
 256   2.0000      -0.292870        -7.9694
 257   2.0000      -0.285411        -7.7664
 258   2.0000      -0.275720        -7.5027
 259   2.0000      -0.250566        -6.8182
 260   0.0000      -0.131608        -3.5812
 261   0.0000      -0.091090        -2.4787
 262   0.0000      -0.083049        -2.2599
 263   0.0000      -0.060067        -1.6345
 264   0.0000      -0.050680        -1.3791

MULLIKEN ATOMIC CHARGES
-----------------------
   0 C :   -0.107037
   1 C :    0.240485
   2 F :   -0.171384
   3 C :    0.237356
   4 F :   -0.171770
   5 C :   -0.104460
   6 C :    0.117976
   7 C :    0.114301
   8 C :   -0.084507
   9 C :    0.049081
  10 C :   -0.002160
  11 C :   -0.083146
  12 C :    0.157901
  13 O :   -0.148241
  14 C :   -0.084754
  15 C :    0.328102
  16 C :   -0.364130
  17 C :   -0.182179
  18 N :    0.148468
  19 C :   -0.183220
  20 N :    0.144951
  21 C :    0.052706
  22 C :   -0.070657
  23 C :   -0.000053
  24 C :    0.004032
  25 S :    0.013745
  26 C :   -0.085676
  27 C :   -0.202416
  28 S :    0.178337
  29 C :    0.138152
  30 C :   -0.052504
  31 C :   -0.062766
  32 N :   -0.024133
  33 C :    0.040867
  34 C :    0.048815
  35 N :   -0.061728
  36 C :    0.205435
  37 C :   -0.005941
  38 C :   -0.052709
  39 N :   -0.244236
  40 S :    0.578306
  41 N :   -0.333154
  42 C :   -0.133673
  43 C :   -0.052331
  44 C :    0.085148
  45 S :    0.003473
  46 C :   -0.082861
  47 C :   -0.123900
  48 S :    0.175883
  49 C :    0.032609
  50 C :   -0.140115
  51 C :    0.140530
  52 O :   -0.145324
  53 C :    0.008467
  54 C :   -0.088026
  55 C :    0.114248
  56 C :    0.116105
  57 C :   -0.110420
  58 C :    0.241108
  59 C :    0.238948
  60 C :   -0.107400
  61 F :   -0.174327
  62 F :   -0.173698
  63 C :   -0.089575
  64 C :    0.045595
  65 C :    0.253114
  66 C :   -0.322240
  67 C :   -0.211623
  68 N :    0.168226
  69 C :   -0.172099
  70 N :    0.135805
  71 H :    0.007531
  72 H :    0.000008
  73 H :   -0.006012
  74 H :   -0.010067
  75 H :   -0.000392
  76 H :    0.011880
  77 H :    0.052878
  78 H :    0.067832
  79 H :    0.063864
  80 H :    0.021120
  81 H :    0.031191
  82 H :   -0.012702
  83 H :    0.068301
  84 H :    0.075436
  85 H :    0.070112
  86 H :    0.030026
  87 H :   -0.010883
  88 H :    0.002731
  89 H :   -0.001865
  90 H :   -0.008696
Sum of atomic charges:   -0.0000000

LOEWDIN ATOMIC CHARGES
----------------------
   0 C :   -0.028980
   1 C :    0.066347
   2 F :   -0.049134
   3 C :    0.067863
   4 F :   -0.049432
   5 C :   -0.033539
   6 C :   -0.008290
   7 C :   -0.006737
   8 C :    0.017673
   9 C :   -0.023801
  10 C :   -0.051679
  11 C :    0.029235
  12 C :    0.087216
  13 O :   -0.137404
  14 C :   -0.095172
  15 C :    0.077339
  16 C :   -0.141706
  17 C :   -0.023217
  18 N :   -0.053359
  19 C :   -0.016341
  20 N :   -0.055531
  21 C :    0.052028
  22 C :   -0.182782
  23 C :   -0.023676
  24 C :   -0.182972
  25 S :    0.313532
  26 C :   -0.153937
  27 C :   -0.173291
  28 S :    0.493386
  29 C :   -0.040126
  30 C :   -0.010457
  31 C :   -0.001167
  32 N :   -0.023943
  33 C :    0.020028
  34 C :    0.024635
  35 N :   -0.042259
  36 C :   -0.039861
  37 C :   -0.044671
  38 C :   -0.053195
  39 N :   -0.270197
  40 S :    0.703484
  41 N :   -0.304619
  42 C :   -0.129547
  43 C :   -0.070764
  44 C :   -0.150806
  45 S :    0.325751
  46 C :   -0.149852
  47 C :   -0.214600
  48 S :    0.512097
  49 C :    0.051906
  50 C :   -0.106544
  51 C :    0.080474
  52 O :   -0.147808
  53 C :   -0.051663
  54 C :    0.027208
  55 C :   -0.010483
  56 C :   -0.006694
  57 C :   -0.032092
  58 C :    0.065373
  59 C :    0.065121
  60 C :   -0.033477
  61 F :   -0.051827
  62 F :   -0.051343
  63 C :    0.008725
  64 C :   -0.017365
  65 C :    0.060361
  66 C :   -0.150040
  67 C :   -0.037335
  68 N :   -0.053909
  69 C :   -0.017957
  70 N :   -0.065830
  71 H :    0.047797
  72 H :    0.044893
  73 H :    0.039865
  74 H :    0.040063
  75 H :    0.041113
  76 H :    0.033116
  77 H :    0.012025
  78 H :    0.031042
  79 H :    0.032501
  80 H :    0.030349
  81 H :    0.035097
  82 H :    0.024712
  83 H :    0.036797
  84 H :    0.030809
  85 H :    0.028746
  86 H :    0.044912
  87 H :    0.039746
  88 H :    0.045903
  89 H :    0.044185
  90 H :    0.037962

  Mayer bond orders larger than 0.100000
B(  0-C ,  1-C ) :   1.4425 B(  0-C ,  5-C ) :   0.1084 B(  0-C ,  7-C ) :   1.1880
B(  0-C , 71-H ) :   1.0063 B(  1-C ,  2-F ) :   1.1344 B(  1-C ,  3-C ) :   1.1919
B(  3-C ,  4-F ) :   1.1332 B(  3-C ,  5-C ) :   1.4441 B(  5-C ,  6-C ) :   1.1912
B(  5-C , 72-H ) :   1.0070 B(  6-C ,  7-C ) :   1.2547 B(  6-C , 11-C ) :   1.1886
B(  7-C ,  8-C ) :   1.2198 B(  8-C ,  9-C ) :   1.4480 B(  8-C , 73-H ) :   0.9884
B(  9-C , 10-C ) :   1.2226 B(  9-C , 15-C ) :   0.9794 B( 10-C , 11-C ) :   1.4715
B( 10-C , 12-C ) :   0.9486 B( 11-C , 74-H ) :   1.0160 B( 12-C , 13-O ) :   2.1835
B( 12-C , 14-C ) :   0.9343 B( 14-C , 15-C ) :   1.0862 B( 14-C , 21-C ) :   1.5848
B( 15-C , 16-C ) :   1.6120 B( 16-C , 17-C ) :   1.1405 B( 16-C , 19-C ) :   1.1538
B( 17-C , 18-N ) :   2.9578 B( 19-C , 20-N ) :   2.9562 B( 21-C , 22-C ) :   1.2198
B( 21-C , 75-H ) :   0.9044 B( 22-C , 23-C ) :   1.4267 B( 22-C , 28-S ) :   1.0728
B( 23-C , 24-C ) :   1.2630 B( 23-C , 76-H ) :   0.9839 B( 24-C , 25-S ) :   1.0539
B( 24-C , 27-C ) :   1.4252 B( 25-S , 26-C ) :   1.0174 B( 26-C , 77-H ) :   0.9608
B( 26-C , 78-H ) :   0.9682 B( 26-C , 79-H ) :   0.9716 B( 27-C , 28-S ) :   1.1581
B( 27-C , 29-C ) :   1.1272 B( 29-C , 30-C ) :   1.2720 B( 29-C , 36-C ) :   0.1309
B( 29-C , 38-C ) :   1.2297 B( 30-C , 31-C ) :   1.1381 B( 30-C , 35-N ) :   1.4092
B( 31-C , 32-N ) :   1.4663 B( 31-C , 36-C ) :   1.2632 B( 32-N , 33-C ) :   1.6727
B( 33-C , 34-C ) :   1.1928 B( 33-C , 80-H ) :   0.9740 B( 34-C , 35-N ) :   1.6640
B( 34-C , 81-H ) :   0.9741 B( 36-C , 37-C ) :   1.2015 B( 36-C , 42-C ) :   1.1700
B( 37-C , 38-C ) :   1.1046 B( 37-C , 41-N ) :   1.4600 B( 38-C , 39-N ) :   1.5030
B( 39-N , 40-S ) :   1.3097 B( 39-N , 41-N ) :   0.1553 B( 40-S , 41-N ) :   1.2778
B( 42-C , 43-C ) :   1.4342 B( 42-C , 48-S ) :   1.1522 B( 43-C , 44-C ) :   1.2579
B( 43-C , 82-H ) :   0.9748 B( 44-C , 45-S ) :   1.0591 B( 44-C , 47-C ) :   1.4048
B( 45-S , 46-C ) :   1.0185 B( 46-C , 83-H ) :   0.9694 B( 46-C , 84-H ) :   0.9654
B( 46-C , 85-H ) :   0.9662 B( 47-C , 48-S ) :   1.0665 B( 47-C , 49-C ) :   1.2005
B( 49-C , 50-C ) :   1.5910 B( 49-C , 86-H ) :   0.9372 B( 50-C , 51-C ) :   0.9546
B( 50-C , 65-C ) :   1.0586 B( 51-C , 52-O ) :   2.2701 B( 51-C , 53-C ) :   0.9128
B( 53-C , 54-C ) :   1.4798 B( 53-C , 64-C ) :   1.2209 B( 54-C , 55-C ) :   1.1898
B( 54-C , 87-H ) :   1.0167 B( 55-C , 56-C ) :   1.2601 B( 55-C , 60-C ) :   1.1930
B( 56-C , 57-C ) :   1.1889 B( 56-C , 63-C ) :   1.2087 B( 57-C , 58-C ) :   1.4405
B( 57-C , 60-C ) :   0.1091 B( 57-C , 88-H ) :   1.0076 B( 58-C , 59-C ) :   1.1935
B( 58-C , 62-F ) :   1.1318 B( 59-C , 60-C ) :   1.4420 B( 59-C , 61-F ) :   1.1304
B( 60-C , 89-H ) :   1.0078 B( 63-C , 64-C ) :   1.4608 B( 63-C , 90-H ) :   0.9939
B( 64-C , 65-C ) :   1.0042 B( 65-C , 66-C ) :   1.6332 B( 66-C , 67-C ) :   1.1518
B( 66-C , 69-C ) :   1.1411 B( 67-C , 68-N ) :   3.0251 B( 69-C , 70-N ) :   2.9762

-----------------------------------------------------------------------------
         ABSORPTION SPECTRUM VIA TRANSITION ELECTRIC DIPOLE MOMENTS
-----------------------------------------------------------------------------
State   Energy  Wavelength   fosc         T2         TX        TY        TZ
        (cm-1)    (nm)                  (au**2)     (au)      (au)      (au)
-----------------------------------------------------------------------------
   0   10221.9    978.3   0.653781018  21.05608  -2.23358  -3.92802  -0.79865
   1   14144.0    707.0   0.116480854   2.71118   0.29354   1.15870   1.13245
   2   17366.6    575.8   0.245245816   4.64904  -0.73374  -1.99829   0.34280
   3   19741.9    506.5   0.217531926   3.62751   0.55109   0.00218   1.82313
   4   20072.3    498.2   0.119114621   1.95364   0.04590   0.96333   1.01169
   5   20961.9    477.1   0.402687656   6.32432  -0.50634  -2.46206  -0.07873
   6   22491.3    444.6   0.004226883   0.06187   0.15719   0.17518   0.08046
   7   23091.2    433.1   0.003572319   0.05093  -0.02588  -0.21889  -0.04847
   8   24797.1    403.3   0.053090254   0.70484  -0.17591   0.69614   0.43507
   9   25241.0    396.2   0.062434722   0.81432   0.45242   0.42569  -0.65455
  10   26103.2    383.1   0.021776573   0.27464   0.33266   0.20132  -0.35136
  11   26346.4    379.6   0.083170983   1.03926   0.60782   0.36390  -0.73307
  12   27236.5    367.2   0.012154202   0.14691   0.01815  -0.25721  -0.28359
  13   27369.7    365.4   0.013029926   0.15673   0.00577  -0.09666  -0.38386
  14   27448.9    364.3   0.002564471   0.03076   0.04238   0.14817   0.08371
  15   27592.3    362.4   0.019251584   0.22970  -0.30619  -0.35952   0.08179
  16   27751.5    360.3   0.194982696   2.31305  -0.05268  -1.32074  -0.75227
  17   27879.5    358.7   0.040291201   0.47577  -0.39139  -0.04784   0.56595
  18   28653.0    349.0   0.197306355   2.26698   0.72540   1.24328  -0.44161
  19   28894.0    346.1   0.077743301   0.88579   0.23629  -0.80538  -0.42582
  20   29115.6    343.5   0.009689197   0.10956   0.22686   0.19650  -0.13956
  21   29461.3    339.4   0.099395044   1.11068   0.18640  -0.92475  -0.46986
  22   30223.8    330.9   0.118814806   1.29419   0.02593   0.58881   0.97305
  23   30325.9    329.8   0.045377340   0.49261   0.02872   0.68927  -0.12920
  24   30792.8    324.8   0.261657026   2.79743  -0.36546   0.70593   1.47157
  25   31359.4    318.9   0.033505029   0.35174  -0.00359   0.57130   0.15919
  26   31619.4    316.3   0.330549891   3.44158  -0.84544  -1.35884   0.93828
  27   32111.6    311.4   0.028935743   0.29665   0.10248   0.01845  -0.53461
  28   32223.1    310.3   0.085289087   0.87137  -0.38169  -0.63740   0.56516
  29   32848.1    304.4   0.003034998   0.03042  -0.10466   0.00266   0.13949
  30   33139.6    301.8   0.045993139   0.45690  -0.25153   0.62183   0.08341
  31   33358.3    299.8   0.068967947   0.68064   0.11620   0.31325   0.75433
  32   33503.8    298.5   0.011474863   0.11275  -0.06818  -0.32406  -0.05559
  33   33660.4    297.1   0.068884516   0.67372  -0.10361   0.73790   0.34422
  34   34045.6    293.7   0.164715565   1.59275  -0.39519  -1.09957  -0.47701
  35   34232.1    292.1   0.042236126   0.40619  -0.28365  -0.53212   0.20633
  36   34648.6    288.6   0.010712849   0.10179   0.25895   0.17260  -0.07031
  37   35022.2    285.5   0.036302943   0.34125  -0.38712   0.01707   0.43714
  38   35239.8    283.8   0.229079111   2.14007   0.25474  -0.41847  -1.37843
  39   35396.5    282.5   0.499949494   4.64988   1.12028   1.48934  -1.08477
  40   35474.2    281.9   0.015484369   0.14370  -0.06311  -0.10113   0.35985
  41   35625.0    280.7   0.136054234   1.25728   0.33394  -0.73488  -0.77827
  42   35898.7    278.6   0.040181273   0.36849   0.33001   0.43576  -0.26399
  43   35997.4    277.8   0.388707402   3.55489  -0.71665   1.30113   1.16119
  44   36161.8    276.5   0.157095820   1.43018  -0.53105  -0.78298   0.73151
  45   36648.5    272.9   0.011228652   0.10087   0.07677  -0.16172  -0.26233
  46   37026.5    270.1   0.108474527   0.96448  -0.28168  -0.13593   0.93094
  47   37327.5    267.9   0.200219249   1.76584  -0.41594   0.48448   1.16538
  48   37547.6    266.3   0.021285992   0.18663   0.18796   0.35268   0.16409
  49   37840.2    264.3   0.196573010   1.71020  -0.04982  -0.81880  -1.01847
  50   38179.7    261.9   0.010126103   0.08731   0.21431   0.16432   0.11994
  51   38281.0    261.2   0.018234953   0.15682   0.01902   0.28002   0.27937
  52   38441.4    260.1   0.003584029   0.03069   0.04607  -0.15686  -0.06299
  53   38799.6    257.7   0.027071386   0.22970   0.07046  -0.44826  -0.15427
  54   39128.9    255.6   0.003873729   0.03259  -0.00211   0.08932   0.15688
  55   39269.4    254.7   0.020989678   0.17597   0.05196  -0.40692  -0.08766
  56   39544.9    252.9   0.067160763   0.55911   0.00895   0.40619  -0.62773
  57   39789.5    251.3   0.184520805   1.52669   0.11306   1.22427   0.12276
  58   40042.9    249.7   0.013912704   0.11438  -0.27039   0.01409   0.20267
  59   40210.8    248.7   0.116999250   0.95789   0.53562   0.30090  -0.76188

FINAL SINGLE POINT ENERGY     -4967.969057308462

DIPOLE MOMENT
-------------
                                X             Y             Z
Electronic contribution:      6.49601      15.86096     -34.63169
Nuclear contribution   :     -4.66152     -17.25557      35.91070
                        -----------------------------------------
Total Dipole Moment    :      1.83449      -1.39461       1.27901
                        -----------------------------------------
Magnitude (a.u.)       :      2.63555
Magnitude (Debye)      :      6.69905

Rotational constants in cm-1:     0.001607     0.000279     0.000246
Rotational constants in MHz :    48.181563     8.349934     7.374352

                             ****ORCA TERMINATED NORMALLY****
TOTAL RUN TIME: 0 days 0 hours 10 minutes 35 seconds 321 msec
