                         Program Version 4.2.0 -  RELEASE  -
|  1> # ORCA input file
|  2> # SCF done       -161.222663167765          0.000825477510
|  3> ! CAM-B3LYP def2-SVP def2/J RIJCOSX Grid4 TightSCF
|  4> %maxcore 5000
|  5> %tddft
|  6>     Mode sTDDFT
|  7>     Ethresh 5.0
|  8>     maxcore 5000
|  9> end
| 10>
| 11> %pal
| 12>   nprocs 6
| 13>   end
| 14> * xyz 0 1
| 15>    C       -2.32699        -0.60582        -4.46998
| 16>    N       -1.21482        -0.20447        -5.00705
| 17>    O       -0.42869         0.26184        -4.03111
| 18>    C       -1.05933         0.15539        -2.83858
| 19>    C       -0.31448         0.59847        -1.67488
| 20>    O       -0.70108         0.57426        -0.53323
| 21>    C       -2.31884        -0.40833        -3.05755
| 22>    C       -3.38016        -0.73509        -2.16419
| 23>    C       -3.49649        -0.47796        -0.81188
| 24>    C       -4.70052        -0.95768        -0.29679
| 25>    C       -5.50072        -1.59335        -1.26832
| 26>    S       -4.77989        -1.58459        -2.81073
| 27>    C       -6.68474        -2.06674        -0.65681
| 28>    C       -6.63569        -1.72576         0.71137
| 29>    C       -5.39541        -1.01051         0.97883
| 30>    C       -4.99664        -0.49100         2.17412
| 31>    C       -5.77975        -0.62222         3.34180
| 32>    N       -6.40709        -0.72452         4.29609
| 33>    C       -3.79311         0.22835         2.34461
| 34>    N       -2.83188         0.82835         2.51479
| 35>    C       -7.75599        -2.15015         1.40921
| 36>    C       -8.66021        -2.81461         0.58639
| 37>    S       -8.11168        -2.91098        -1.07881
| 38>    C       -9.90021        -3.37904         0.97515
| 39>    C      -10.73109        -4.03849         0.03830
| 40>    C      -11.99865        -4.63676         0.38049
| 41>    N      -12.68888        -5.28295        -0.57020
| 42>    C      -12.22399        -5.34376        -1.79308
| 43>    C      -10.98733        -4.71025        -2.14234
| 44>    N      -10.28826        -4.09294        -1.22277
| 45>    C      -10.49927        -4.74583        -3.47173
| 46>    N      -10.12107        -4.78558        -4.55184
| 47>    C      -12.94368        -6.06117        -2.78346
| 48>    N      -13.47487        -6.63788        -3.61739
| 49>    C      -12.50630        -4.57075         1.70315
| 50>    C      -11.66914        -3.92013         2.63821
| 51>    C      -10.39656        -3.33613         2.29694
| 52>    N       -9.81108        -2.78739         3.36228
| 53>    S      -10.74418        -2.97839         4.64824
| 54>    N      -11.94713        -3.76751         3.93366
| 55>    C      -13.75377        -5.11176         2.11352
| 56>    C      -14.73459        -5.71691         1.33467
| 57>    C      -15.82012        -6.13269         2.09194
| 58>    C      -15.66994        -5.84775         3.46499
| 59>    S      -14.20085        -5.05151         3.81442
| 60>    C      -16.81307        -6.33044         4.14317
| 61>    C      -17.68660        -6.92310         3.20957
| 62>    C      -17.09993        -6.79787         1.88512
| 63>    C      -17.63452        -7.18245         0.69241
| 64>    C      -18.90011        -7.79819         0.57330
| 65>    N      -19.92739        -8.28879         0.44284
| 66>    C      -16.96046        -6.95806        -0.52893
| 67>    N      -16.42031        -6.76137        -1.52060
| 68>    C      -18.83535        -7.45255         3.79803
| 69>    C      -18.84530        -7.26131         5.16562
| 70>    S      -17.41227        -6.41136         5.73542
| 71>    C      -19.82458        -7.64696         6.12643
| 72>    C      -20.99499        -8.40114         6.01075
| 73>    O      -21.57339        -8.47765         7.23172
| 74>    N      -20.83721        -7.81312         8.12871
| 75>    C      -19.80658        -7.31709         7.51364
| 76>    C      -21.66971        -9.10057         4.93316
| 77>    O      -21.30535        -9.15514         3.78547
| 78>    H       -3.10944        -1.01950        -5.07395
| 79>    H        0.68859         0.96944        -1.94788
| 80>    H       -2.73123         0.02662        -0.24883
| 81>    H       -7.94093        -2.00633         2.45774
| 82>    H      -14.62937        -5.83632         0.27272
| 83>    H      -19.62834        -7.95978         3.27729
| 84>    H      -19.07650        -6.74037         8.04517
| 85>    H      -22.58486        -9.60821         5.28411
| 86> *
| 87>
| 88>                          ****END OF INPUT****

CARTESIAN COORDINATES (ANGSTROEM)
---------------------------------
  C     -2.326990   -0.605820   -4.469980
  N     -1.214820   -0.204470   -5.007050
  O     -0.428690    0.261840   -4.031110
  C     -1.059330    0.155390   -2.838580
  C     -0.314480    0.598470   -1.674880
  O     -0.701080    0.574260   -0.533230
  C     -2.318840   -0.408330   -3.057550
  C     -3.380160   -0.735090   -2.164190
  C     -3.496490   -0.477960   -0.811880
  C     -4.700520   -0.957680   -0.296790
  C     -5.500720   -1.593350   -1.268320
  S     -4.779890   -1.584590   -2.810730
  C     -6.684740   -2.066740   -0.656810
  C     -6.635690   -1.725760    0.711370
  C     -5.395410   -1.010510    0.978830
  C     -4.996640   -0.491000    2.174120
  C     -5.779750   -0.622220    3.341800
  N     -6.407090   -0.724520    4.296090
  C     -3.793110    0.228350    2.344610
  N     -2.831880    0.828350    2.514790
  C     -7.755990   -2.150150    1.409210
  C     -8.660210   -2.814610    0.586390
  S     -8.111680   -2.910980   -1.078810
  C     -9.900210   -3.379040    0.975150
  C    -10.731090   -4.038490    0.038300
  C    -11.998650   -4.636760    0.380490
  N    -12.688880   -5.282950   -0.570200
  C    -12.223990   -5.343760   -1.793080
  C    -10.987330   -4.710250   -2.142340
  N    -10.288260   -4.092940   -1.222770
  C    -10.499270   -4.745830   -3.471730
  N    -10.121070   -4.785580   -4.551840
  C    -12.943680   -6.061170   -2.783460
  N    -13.474870   -6.637880   -3.617390
  C    -12.506300   -4.570750    1.703150
  C    -11.669140   -3.920130    2.638210
  C    -10.396560   -3.336130    2.296940
  N     -9.811080   -2.787390    3.362280
  S    -10.744180   -2.978390    4.648240
  N    -11.947130   -3.767510    3.933660
  C    -13.753770   -5.111760    2.113520
  C    -14.734590   -5.716910    1.334670
  C    -15.820120   -6.132690    2.091940
  C    -15.669940   -5.847750    3.464990
  S    -14.200850   -5.051510    3.814420
  C    -16.813070   -6.330440    4.143170
  C    -17.686600   -6.923100    3.209570
  C    -17.099930   -6.797870    1.885120
  C    -17.634520   -7.182450    0.692410
  C    -18.900110   -7.798190    0.573300
  N    -19.927390   -8.288790    0.442840
  C    -16.960460   -6.958060   -0.528930
  N    -16.420310   -6.761370   -1.520600
  C    -18.835350   -7.452550    3.798030
  C    -18.845300   -7.261310    5.165620
  S    -17.412270   -6.411360    5.735420
  C    -19.824580   -7.646960    6.126430
  C    -20.994990   -8.401140    6.010750
  O    -21.573390   -8.477650    7.231720
  N    -20.837210   -7.813120    8.128710
  C    -19.806580   -7.317090    7.513640
  C    -21.669710   -9.100570    4.933160
  O    -21.305350   -9.155140    3.785470
  H     -3.109440   -1.019500   -5.073950
  H      0.688590    0.969440   -1.947880
  H     -2.731230    0.026620   -0.248830
  H     -7.940930   -2.006330    2.457740
  H    -14.629370   -5.836320    0.272720
  H    -19.628340   -7.959780    3.277290
  H    -19.076500   -6.740370    8.045170
  H    -22.584860   -9.608210    5.284110

 Total Charge           Charge          ....    0
 Multiplicity           Mult            ....    1
 Number of Electrons    NEL             ....  456
 Basis Dimension        Dim             ....  942

ORBITAL ENERGIES
----------------

  NO   OCC          E(Eh)            E(eV)
   0   2.0000     -89.063909     -2423.5522
   1   2.0000     -88.998186     -2421.7638
   2   2.0000     -88.997950     -2421.7573
   3   2.0000     -88.991675     -2421.5866
   4   2.0000     -88.991619     -2421.5851
   5   2.0000     -19.336302      -526.1675
   6   2.0000     -19.335676      -526.1505
   7   2.0000     -19.237980      -523.4920
   8   2.0000     -19.237967      -523.4917
   9   2.0000     -14.486368      -394.1941
  10   2.0000     -14.485485      -394.1701
  11   2.0000     -14.481115      -394.0512
  12   2.0000     -14.475247      -393.8915
  13   2.0000     -14.472137      -393.8069
  14   2.0000     -14.471913      -393.8008
  15   2.0000     -14.442710      -393.0061
  16   2.0000     -14.434561      -392.7844
  17   2.0000     -14.433383      -392.7523
  18   2.0000     -14.429654      -392.6508
  19   2.0000     -14.429144      -392.6370
  20   2.0000     -14.427694      -392.5975
  21   2.0000     -10.397929      -282.9420
  22   2.0000     -10.395288      -282.8702
  23   2.0000     -10.383630      -282.5529
  24   2.0000     -10.383609      -282.5524
  25   2.0000     -10.367917      -282.1254
  26   2.0000     -10.366859      -282.0966
  27   2.0000     -10.364987      -282.0456
  28   2.0000     -10.362982      -281.9911
  29   2.0000     -10.361167      -281.9417
  30   2.0000     -10.360079      -281.9121
  31   2.0000     -10.359712      -281.9021
  32   2.0000     -10.359405      -281.8938
  33   2.0000     -10.354378      -281.7570
  34   2.0000     -10.352686      -281.7109
  35   2.0000     -10.340828      -281.3882
  36   2.0000     -10.340377      -281.3760
  37   2.0000     -10.336905      -281.2815
  38   2.0000     -10.336274      -281.2643
  39   2.0000     -10.336269      -281.2642
  40   2.0000     -10.336255      -281.2638
  41   2.0000     -10.335976      -281.2562
  42   2.0000     -10.333670      -281.1935
  43   2.0000     -10.333427      -281.1868
  44   2.0000     -10.333178      -281.1801
  45   2.0000     -10.331984      -281.1476
  46   2.0000     -10.331630      -281.1380
  47   2.0000     -10.331589      -281.1368
  48   2.0000     -10.330649      -281.1112
  49   2.0000     -10.330011      -281.0939
  50   2.0000     -10.329514      -281.0804
  51   2.0000     -10.329221      -281.0724
  52   2.0000     -10.328340      -281.0484
  53   2.0000     -10.326712      -281.0041
  54   2.0000     -10.326415      -280.9960
  55   2.0000     -10.310063      -280.5511
  56   2.0000     -10.309691      -280.5410
  57   2.0000     -10.306295      -280.4486
  58   2.0000     -10.306068      -280.4424
  59   2.0000     -10.305185      -280.4183
  60   2.0000     -10.303908      -280.3836
  61   2.0000     -10.303774      -280.3799
  62   2.0000     -10.303020      -280.3594
  63   2.0000      -8.154773      -221.9027
  64   2.0000      -8.092999      -220.2217
  65   2.0000      -8.092735      -220.2145
  66   2.0000      -8.084923      -220.0019
  67   2.0000      -8.084188      -219.9819
  68   2.0000      -6.125859      -166.6931
  69   2.0000      -6.118035      -166.4802
  70   2.0000      -6.117609      -166.4686
  71   2.0000      -6.062240      -164.9619
  72   2.0000      -6.061943      -164.9539
  73   2.0000      -6.058069      -164.8484
  74   2.0000      -6.057762      -164.8401
  75   2.0000      -6.055340      -164.7742
  76   2.0000      -6.055137      -164.7687
  77   2.0000      -6.054362      -164.7476
  78   2.0000      -6.053776      -164.7316
  79   2.0000      -6.049773      -164.6227
  80   2.0000      -6.048932      -164.5998
  81   2.0000      -6.047283      -164.5549
  82   2.0000      -6.046594      -164.5362
  83   2.0000      -1.278198       -34.7815
  84   2.0000      -1.277581       -34.7647
  85   2.0000      -1.161296       -31.6005
  86   2.0000      -1.150687       -31.3118
  87   2.0000      -1.150580       -31.3089
  88   2.0000      -1.137937       -30.9648
  89   2.0000      -1.065334       -28.9892
  90   2.0000      -1.048890       -28.5417
  91   2.0000      -1.048451       -28.5298
  92   2.0000      -1.026114       -27.9220
  93   2.0000      -1.023810       -27.8593
  94   2.0000      -1.022213       -27.8158
  95   2.0000      -1.019686       -27.7471
  96   2.0000      -1.011465       -27.5234
  97   2.0000      -1.009078       -27.4584
  98   2.0000      -1.007647       -27.4195
  99   2.0000      -1.005583       -27.3633
 100   2.0000      -1.001117       -27.2418
 101   2.0000      -0.990933       -26.9647
 102   2.0000      -0.983453       -26.7611
 103   2.0000      -0.981736       -26.7144
 104   2.0000      -0.964109       -26.2347
 105   2.0000      -0.959684       -26.1143
 106   2.0000      -0.935545       -25.4575
 107   2.0000      -0.934702       -25.4345
 108   2.0000      -0.924632       -25.1605
 109   2.0000      -0.919424       -25.0188
 110   2.0000      -0.904736       -24.6191
 111   2.0000      -0.891254       -24.2523
 112   2.0000      -0.873180       -23.7604
 113   2.0000      -0.869302       -23.6549
 114   2.0000      -0.859954       -23.4005
 115   2.0000      -0.859691       -23.3934
 116   2.0000      -0.851701       -23.1760
 117   2.0000      -0.827735       -22.5238
 118   2.0000      -0.824495       -22.4357
 119   2.0000      -0.808722       -22.0064
 120   2.0000      -0.795959       -21.6591
 121   2.0000      -0.782654       -21.2971
 122   2.0000      -0.778051       -21.1718
 123   2.0000      -0.769404       -20.9365
 124   2.0000      -0.758920       -20.6513
 125   2.0000      -0.748153       -20.3583
 126   2.0000      -0.735950       -20.0262
 127   2.0000      -0.725679       -19.7467
 128   2.0000      -0.722712       -19.6660
 129   2.0000      -0.720116       -19.5953
 130   2.0000      -0.712920       -19.3995
 131   2.0000      -0.709309       -19.3013
 132   2.0000      -0.701157       -19.0794
 133   2.0000      -0.691789       -18.8245
 134   2.0000      -0.683987       -18.6122
 135   2.0000      -0.679544       -18.4913
 136   2.0000      -0.676876       -18.4187
 137   2.0000      -0.668250       -18.1840
 138   2.0000      -0.652692       -17.7606
 139   2.0000      -0.647434       -17.6176
 140   2.0000      -0.639899       -17.4125
 141   2.0000      -0.636029       -17.3072
 142   2.0000      -0.631231       -17.1767
 143   2.0000      -0.629436       -17.1278
 144   2.0000      -0.628108       -17.0917
 145   2.0000      -0.616954       -16.7882
 146   2.0000      -0.615612       -16.7517
 147   2.0000      -0.609260       -16.5788
 148   2.0000      -0.603978       -16.4351
 149   2.0000      -0.599154       -16.3038
 150   2.0000      -0.598549       -16.2873
 151   2.0000      -0.597190       -16.2504
 152   2.0000      -0.583077       -15.8663
 153   2.0000      -0.581257       -15.8168
 154   2.0000      -0.574617       -15.6361
 155   2.0000      -0.561423       -15.2771
 156   2.0000      -0.558124       -15.1873
 157   2.0000      -0.552913       -15.0455
 158   2.0000      -0.551216       -14.9994
 159   2.0000      -0.549983       -14.9658
 160   2.0000      -0.548111       -14.9148
 161   2.0000      -0.546424       -14.8689
 162   2.0000      -0.536902       -14.6099
 163   2.0000      -0.535603       -14.5745
 164   2.0000      -0.526449       -14.3254
 165   2.0000      -0.523259       -14.2386
 166   2.0000      -0.513260       -13.9665
 167   2.0000      -0.512386       -13.9427
 168   2.0000      -0.509801       -13.8724
 169   2.0000      -0.507728       -13.8160
 170   2.0000      -0.505244       -13.7484
 171   2.0000      -0.503765       -13.7082
 172   2.0000      -0.503196       -13.6927
 173   2.0000      -0.500322       -13.6145
 174   2.0000      -0.499161       -13.5829
 175   2.0000      -0.496669       -13.5150
 176   2.0000      -0.496424       -13.5084
 177   2.0000      -0.495494       -13.4831
 178   2.0000      -0.494348       -13.4519
 179   2.0000      -0.487452       -13.2642
 180   2.0000      -0.480674       -13.0798
 181   2.0000      -0.479276       -13.0418
 182   2.0000      -0.477271       -12.9872
 183   2.0000      -0.474570       -12.9137
 184   2.0000      -0.466194       -12.6858
 185   2.0000      -0.464769       -12.6470
 186   2.0000      -0.463738       -12.6190
 187   2.0000      -0.460956       -12.5432
 188   2.0000      -0.459646       -12.5076
 189   2.0000      -0.456878       -12.4323
 190   2.0000      -0.456403       -12.4193
 191   2.0000      -0.455411       -12.3924
 192   2.0000      -0.453480       -12.3398
 193   2.0000      -0.452197       -12.3049
 194   2.0000      -0.449154       -12.2221
 195   2.0000      -0.441391       -12.0108
 196   2.0000      -0.440669       -11.9912
 197   2.0000      -0.440029       -11.9738
 198   2.0000      -0.438356       -11.9283
 199   2.0000      -0.437833       -11.9140
 200   2.0000      -0.434235       -11.8161
 201   2.0000      -0.431653       -11.7459
 202   2.0000      -0.428016       -11.6469
 203   2.0000      -0.425958       -11.5909
 204   2.0000      -0.424808       -11.5596
 205   2.0000      -0.420560       -11.4440
 206   2.0000      -0.420167       -11.4333
 207   2.0000      -0.407862       -11.0985
 208   2.0000      -0.404845       -11.0164
 209   2.0000      -0.404175       -10.9982
 210   2.0000      -0.399925       -10.8825
 211   2.0000      -0.398977       -10.8567
 212   2.0000      -0.387827       -10.5533
 213   2.0000      -0.387236       -10.5372
 214   2.0000      -0.383524       -10.4362
 215   2.0000      -0.369120       -10.0443
 216   2.0000      -0.366203        -9.9649
 217   2.0000      -0.364424        -9.9165
 218   2.0000      -0.357860        -9.7379
 219   2.0000      -0.357815        -9.7367
 220   2.0000      -0.353496        -9.6191
 221   2.0000      -0.352456        -9.5908
 222   2.0000      -0.351051        -9.5526
 223   2.0000      -0.326287        -8.8787
 224   2.0000      -0.324167        -8.8210
 225   2.0000      -0.316712        -8.6182
 226   2.0000      -0.284406        -7.7391
 227   2.0000      -0.247593        -6.7373
 228   0.0000      -0.143322        -3.9000
 229   0.0000      -0.107297        -2.9197
 230   0.0000      -0.103529        -2.8172
 231   0.0000      -0.068888        -1.8745
 232   0.0000      -0.066262        -1.8031

MULLIKEN ATOMIC CHARGES
-----------------------
   0 C :   -0.007930
   1 N :    0.048838
   2 O :   -0.166878
   3 C :    0.060126
   4 C :    0.165316
   5 O :   -0.152738
   6 C :    0.001486
   7 C :   -0.054972
   8 C :   -0.053756
   9 C :    0.012892
  10 C :   -0.098208
  11 S :    0.181601
  12 C :   -0.056549
  13 C :    0.037088
  14 C :    0.312812
  15 C :   -0.304956
  16 C :   -0.185335
  17 N :    0.166674
  18 C :   -0.199328
  19 N :    0.198808
  20 C :   -0.067631
  21 C :   -0.173570
  22 S :    0.209137
  23 C :    0.184218
  24 C :   -0.055634
  25 C :   -0.078405
  26 N :    0.058641
  27 C :   -0.116232
  28 C :   -0.101950
  29 N :   -0.015557
  30 C :   -0.236617
  31 N :    0.254310
  32 C :   -0.222990
  33 N :    0.258357
  34 C :    0.212067
  35 C :   -0.021581
  36 C :   -0.007115
  37 N :   -0.275090
  38 S :    0.582385
  39 N :   -0.339005
  40 C :   -0.184572
  41 C :   -0.064750
  42 C :    0.044716
  43 C :   -0.065121
  44 S :    0.205063
  45 C :   -0.094887
  46 C :    0.010450
  47 C :    0.309765
  48 C :   -0.297758
  49 C :   -0.196169
  50 N :    0.198276
  51 C :   -0.194577
  52 N :    0.183460
  53 C :   -0.050446
  54 C :   -0.053618
  55 S :    0.170714
  56 C :   -0.000300
  57 C :    0.061811
  58 O :   -0.166245
  59 N :    0.047379
  60 C :   -0.008640
  61 C :    0.163983
  62 O :   -0.151298
  63 H :    0.030290
  64 H :    0.014052
  65 H :    0.024212
  66 H :    0.021755
  67 H :    0.023089
  68 H :    0.024518
  69 H :    0.027615
  70 H :    0.014507
Sum of atomic charges:   -0.0000000

LOEWDIN ATOMIC CHARGES
----------------------
   0 C :   -0.030553
   1 N :    0.002472
   2 O :    0.037568
   3 C :   -0.022794
   4 C :    0.101025
   5 O :   -0.109876
   6 C :   -0.066038
   7 C :   -0.165892
   8 C :   -0.010320
   9 C :   -0.064235
  10 C :   -0.174808
  11 S :    0.480446
  12 C :   -0.178204
  13 C :   -0.070766
  14 C :    0.077051
  15 C :   -0.096296
  16 C :   -0.013974
  17 N :   -0.035130
  18 C :   -0.024631
  19 N :   -0.015712
  20 C :   -0.007026
  21 C :   -0.168023
  22 S :    0.511309
  23 C :   -0.036205
  24 C :   -0.014205
  25 C :   -0.005437
  26 N :    0.011161
  27 C :   -0.018759
  28 C :   -0.020343
  29 N :   -0.019143
  30 C :   -0.039033
  31 N :    0.002626
  32 C :   -0.041506
  33 N :    0.014948
  34 C :   -0.041578
  35 C :   -0.045061
  36 C :   -0.037920
  37 N :   -0.266033
  38 S :    0.698615
  39 N :   -0.303799
  40 C :   -0.164734
  41 C :   -0.008410
  42 C :   -0.067867
  43 C :   -0.181367
  44 S :    0.509659
  45 C :   -0.174930
  46 C :   -0.064053
  47 C :    0.074289
  48 C :   -0.091994
  49 C :   -0.024232
  50 N :   -0.014405
  51 C :   -0.017385
  52 N :   -0.022696
  53 C :   -0.009733
  54 C :   -0.166716
  55 S :    0.472145
  56 C :   -0.065933
  57 C :   -0.022825
  58 O :    0.037688
  59 N :    0.001461
  60 C :   -0.031809
  61 C :    0.100633
  62 O :   -0.108605
  63 H :    0.032381
  64 H :    0.013598
  65 H :    0.040494
  66 H :    0.038219
  67 H :    0.037656
  68 H :    0.040737
  69 H :    0.031199
  70 H :    0.013616

  Mayer bond orders larger than 0.100000
B(  0-C ,  1-N ) :   1.7337 B(  0-C ,  6-C ) :   1.1953 B(  0-C , 63-H ) :   0.9834
B(  1-N ,  2-O ) :   1.0502 B(  2-O ,  3-C ) :   1.1159 B(  3-C ,  4-C ) :   1.0189
B(  3-C ,  6-C ) :   1.4622 B(  4-C ,  5-O ) :   2.1243 B(  4-C , 64-H ) :   0.9463
B(  6-C ,  7-C ) :   1.1086 B(  7-C ,  8-C ) :   1.4773 B(  7-C , 11-S ) :   1.0961
B(  8-C ,  9-C ) :   1.2660 B(  8-C , 65-H ) :   0.9763 B(  9-C , 10-C ) :   1.4186
B(  9-C , 14-C ) :   0.9906 B( 10-C , 11-S ) :   1.1309 B( 10-C , 12-C ) :   1.2011
B( 12-C , 13-C ) :   1.4004 B( 12-C , 22-S ) :   1.0853 B( 13-C , 14-C ) :   0.9874
B( 13-C , 20-C ) :   1.2848 B( 14-C , 15-C ) :   1.7141 B( 15-C , 16-C ) :   1.1401
B( 15-C , 18-C ) :   1.1347 B( 16-C , 17-N ) :   2.9820 B( 18-C , 19-N ) :   3.0030
B( 20-C , 21-C ) :   1.4040 B( 20-C , 66-H ) :   0.9830 B( 21-C , 22-S ) :   1.0846
B( 21-C , 23-C ) :   1.2163 B( 23-C , 24-C ) :   1.2453 B( 23-C , 34-C ) :   0.1231
B( 23-C , 36-C ) :   1.2011 B( 24-C , 25-C ) :   1.1041 B( 24-C , 29-N ) :   1.3970
B( 25-C , 26-N ) :   1.4561 B( 25-C , 34-C ) :   1.2538 B( 26-N , 27-C ) :   1.7284
B( 27-C , 28-C ) :   1.2123 B( 27-C , 32-C ) :   1.1592 B( 28-C , 29-N ) :   1.6924
B( 28-C , 30-C ) :   1.1635 B( 30-C , 31-N ) :   3.0418 B( 32-C , 33-N ) :   3.0273
B( 34-C , 35-C ) :   1.1871 B( 34-C , 40-C ) :   1.1993 B( 35-C , 36-C ) :   1.1101
B( 35-C , 39-N ) :   1.4695 B( 36-C , 37-N ) :   1.5157 B( 37-N , 38-S ) :   1.2916
B( 37-N , 39-N ) :   0.1493 B( 38-S , 39-N ) :   1.2716 B( 40-C , 41-C ) :   1.3987
B( 40-C , 44-S ) :   1.0955 B( 41-C , 42-C ) :   1.2777 B( 41-C , 67-H ) :   0.9851
B( 42-C , 43-C ) :   1.3983 B( 42-C , 47-C ) :   0.9889 B( 43-C , 44-S ) :   1.0993
B( 43-C , 45-C ) :   1.1963 B( 45-C , 46-C ) :   1.4246 B( 45-C , 55-S ) :   1.1270
B( 46-C , 47-C ) :   0.9904 B( 46-C , 53-C ) :   1.2644 B( 47-C , 48-C ) :   1.7185
B( 48-C , 49-C ) :   1.1329 B( 48-C , 51-C ) :   1.1370 B( 49-C , 50-N ) :   3.0016
B( 51-C , 52-N ) :   2.9898 B( 53-C , 54-C ) :   1.4784 B( 53-C , 68-H ) :   0.9761
B( 54-C , 55-S ) :   1.0928 B( 54-C , 56-C ) :   1.1093 B( 56-C , 57-C ) :   1.4631
B( 56-C , 60-C ) :   1.1957 B( 57-C , 58-O ) :   1.1156 B( 57-C , 61-C ) :   1.0164
B( 58-O , 59-N ) :   1.0515 B( 59-N , 60-C ) :   1.7326 B( 60-C , 69-H ) :   0.9835
B( 61-C , 62-O ) :   2.1256 B( 61-C , 70-H ) :   0.9471

-----------------------------------------------------------------------------
         ABSORPTION SPECTRUM VIA TRANSITION ELECTRIC DIPOLE MOMENTS
-----------------------------------------------------------------------------
State   Energy  Wavelength   fosc         T2         TX        TY        TZ
        (cm-1)    (nm)                  (au**2)     (au)      (au)      (au)
-----------------------------------------------------------------------------
   0    7611.3   1313.8   0.582539252  25.19650   4.39308   1.96697  -1.42422
   1   13755.3    727.0   0.001894593   0.04534  -0.04406  -0.00400   0.20829
   2   14180.8    705.2   0.050083712   1.16271   0.87344   0.36031  -0.51961
   3   16674.0    599.7   0.005132026   0.10133   0.09139   0.09867   0.28851
   4   22699.4    440.5   0.195446270   2.83458  -1.22792  -0.40865   1.07694
   5   23108.4    432.7   0.053470380   0.76176   0.66428   0.21461  -0.52387
   6   23537.2    424.9   0.343315297   4.80191  -1.94892  -0.99768   0.09082
   7   23727.8    421.4   0.013471900   0.18692  -0.19109  -0.07554   0.38039
   8   23859.7    419.1   0.166962027   2.30371   1.32299   0.54035  -0.51131
   9   24929.4    401.1   0.099452464   1.31335   0.95870   0.37433  -0.50411
  10   25318.5    395.0   0.154009208   2.00255  -1.08610  -0.55145   0.72031
  11   25361.6    394.3   0.164838706   2.13972   1.20539   0.40686  -0.72197
  12   26312.0    380.1   0.583507276   7.30076  -2.33082  -1.03654   0.89085
  13   26905.2    371.7   0.003533204   0.04323   0.10616  -0.13403   0.11832
  14   29764.7    336.0   0.040622517   0.44931  -0.33275  -0.01653   0.58164
  15   30060.8    332.7   0.198266632   2.17132  -0.41781   0.08780   1.41034
  16   30350.4    329.5   0.107524881   1.16633  -0.45076   0.09633   0.97666
  17   30715.8    325.6   0.016930318   0.18146  -0.42367   0.01088  -0.04294
  18   31105.9    321.5   0.155796144   1.64888  -1.14299  -0.50224   0.30036
  19   31600.6    316.4   0.663994433   6.91743  -1.87063  -1.29862  -1.31596
  20   32144.8    311.1   0.397484817   4.07085   0.97736   0.82122   1.56244
  21   32286.2    309.7   0.002144538   0.02187   0.06236   0.00422   0.13402
  22   32446.4    308.2   0.006927821   0.07029   0.04832   0.11362   0.23462
  23   32628.3    306.5   0.039587574   0.39943  -0.44899  -0.10760   0.43158
  24   32646.2    306.3   0.002748897   0.02772   0.15100  -0.06852   0.01501
  25   33035.3    302.7   0.536514649   5.34661   0.42493   0.63383   2.18273
  26   33651.2    297.2   0.341358060   3.33953  -0.70254  -0.63926  -1.56119
  27   34170.8    292.6   0.103126831   0.99356  -0.67893  -0.24820   0.68630
  28   34584.4    289.1   0.002459266   0.02341   0.01624   0.13725  -0.06564
  29   34752.6    287.7   0.104691819   0.99175   0.08976  -0.17521  -0.97621
  30   34856.4    286.9   0.086602998   0.81795  -0.36435   0.09434   0.82238
  31   35272.5    283.5   0.328898841   3.06974  -1.17164  -0.38972   1.24303
  32   35850.0    278.9   0.030498299   0.28007  -0.08374  -0.01285   0.52239
  33   36475.1    274.2   0.140142193   1.26488  -0.98257  -0.54013  -0.08769
  34   37280.3    268.2   0.001362317   0.01203   0.08100   0.05860  -0.04511
  35   37419.1    267.2   0.002170702   0.01910   0.11866   0.02900  -0.06462
  36   37585.5    266.1   0.004965289   0.04349   0.19267   0.07527  -0.02655
  37   37855.3    264.2   0.005309539   0.04617   0.04316  -0.04002  -0.20667
  38   38226.5    261.6   0.008441563   0.07270   0.02336  -0.03481  -0.26635
  39   38914.2    257.0   0.011568322   0.09787  -0.02597   0.07360   0.30294
  40   38992.6    256.5   0.102868340   0.86851  -0.01028  -0.13037  -0.92272
  41   39141.2    255.5   0.015657265   0.13169  -0.05193   0.10699   0.34285
  42   39247.3    254.8   0.001397355   0.01172  -0.05961   0.09032  -0.00325
  43   39366.3    254.0   0.042696503   0.35706   0.05452   0.17372   0.56913
  44   39626.1    252.4   0.076585497   0.63627   0.50811   0.14197  -0.59828
  45   39668.7    252.1   0.004421638   0.03670   0.11541   0.01878  -0.15174
  46   39747.7    251.6   0.001171307   0.00970   0.06737   0.06174   0.03674
  47   39998.2    250.0   0.011311877   0.09310   0.16421   0.24710   0.07128
  48   40141.9    249.1   0.012797901   0.10496  -0.30824  -0.08989   0.04322

FINAL SINGLE POINT ENERGY     -4550.075663304285

DIPOLE MOMENT
-------------
                                X             Y             Z
Electronic contribution:     -0.14548       0.39251      -0.06248
Nuclear contribution   :      0.53560       0.21220       2.30656
                        -----------------------------------------
Total Dipole Moment    :      0.39012       0.60470       2.24408
                        -----------------------------------------
Magnitude (a.u.)       :      2.35664
Magnitude (Debye)      :      5.99010

Rotational constants in cm-1:     0.002938     0.000362     0.000323
Rotational constants in MHz :    88.088153    10.863643     9.681153

                             ****ORCA TERMINATED NORMALLY****
TOTAL RUN TIME: 0 days 0 hours 12 minutes 38 seconds 705 msec
