                         Program Version 4.2.0 -  RELEASE  -
|  1> # ORCA input file
|  2> # SCF done       -196.107407612839          0.000532334691
|  3> ! CAM-B3LYP def2-SVP def2/J RIJCOSX Grid4 TightSCF
|  4> %maxcore 5000
|  5> %tddft
|  6>     Mode sTDDFT
|  7>     Ethresh 5.0
|  8>     maxcore 5000
|  9> end
| 10>
| 11> %pal
| 12>   nprocs 6
| 13>   end
| 14> * xyz 0 1
| 15>    C        4.14968        -3.19435         2.52814
| 16>    O        3.53341        -4.16340         2.93331
| 17>    C        5.11312        -2.38791         3.30009
| 18>    C        5.59696        -1.34188         2.49400
| 19>    C        6.52793        -0.45673         3.01127
| 20>    C        6.95759        -0.63141         4.32262
| 21>    C        6.46763        -1.67208         5.11499
| 22>    C        5.53402        -2.56314         4.60172
| 23>   Br        7.06901        -1.88447         6.89337
| 24>   Br        8.23227         0.57390         5.02582
| 25>    C        4.96040        -1.42508         1.17946
| 26>    C        5.13134        -0.52475         0.16249
| 27>    C        5.97871         0.60235         0.24170
| 28>    N        6.65295         1.53053         0.24820
| 29>    C        4.48176        -0.56631        -1.09062
| 30>    N        3.98489        -0.52268        -2.12455
| 31>    C        4.10278        -2.59705         1.19033
| 32>    C        3.41373        -3.10187         0.11626
| 33>    C        2.56473        -4.21429         0.02321
| 34>    C        1.99234        -4.60156        -1.19673
| 35>    C        1.17979        -5.70992        -1.07026
| 36>    C        1.11205        -6.17584         0.26596
| 37>    S        2.06309        -5.26872         1.34550
| 38>    C        0.25354        -7.30297         0.29585
| 39>    C       -0.21488        -7.55069        -1.01223
| 40>    C        0.35067        -6.56118        -1.91175
| 41>    C        0.14976        -6.45631        -3.25627
| 42>    C       -0.68525        -7.34883        -3.96245
| 43>    N       -1.36155        -8.07069        -4.54183
| 44>    C        0.76604        -5.45117        -4.03234
| 45>    N        1.26662        -4.63923        -4.66783
| 46>    C       -1.07020        -8.64797        -1.07917
| 47>    C       -1.25072        -9.21934         0.16658
| 48>    S       -0.36389        -8.41096         1.43794
| 49>    C       -2.05661       -10.34514         0.51003
| 50>    N       -2.11712       -10.68113         1.79035
| 51>    N       -2.82099       -11.67499         2.22821
| 52>    C       -3.54275       -12.45532         1.43703
| 53>    C       -3.55894       -12.20820         0.03475
| 54>    C       -2.78635       -11.10452        -0.44854
| 55>    N       -2.88116       -10.96890        -1.76818
| 56>    S       -3.84728       -12.11832        -2.34020
| 57>    N       -4.19338       -12.84175        -0.94761
| 58>    C       -4.27926       -13.50952         2.05373
| 59>    C       -5.07918       -14.46066         1.44873
| 60>    C       -5.64537       -15.31751         2.38944
| 61>    C       -5.26466       -15.00364         3.71159
| 62>    S       -4.21029       -13.66469         3.79370
| 63>    C       -5.89753       -15.92129         4.58858
| 64>    C       -6.67742       -16.80944         3.81845
| 65>    C       -6.52998       -16.46869         2.41293
| 66>    C       -7.08067       -17.12713         1.35295
| 67>    C       -7.89796       -18.26154         1.54437
| 68>    N       -8.56109       -19.17941         1.72494
| 69>    C       -6.86599       -16.72304         0.01811
| 70>    N       -6.69832       -16.39257        -1.06657
| 71>    C       -7.33240       -17.76070         4.58562
| 72>    C       -7.06025       -17.62015         5.94088
| 73>    S       -5.99288       -16.25514         6.25261
| 74>    C       -7.56378       -18.36690         7.02575
| 75>    C       -8.16940       -19.58870         7.01796
| 76>    C       -9.00648       -19.97277         8.18912
| 77>    O       -9.04854       -19.42068         9.26206
| 78>    C       -9.80403       -21.12875         7.72658
| 79>    C       -9.38722       -21.49903         6.43465
| 80>    C       -8.26553       -20.64867         6.03617
| 81>    C       -7.34455       -20.97566         5.07657
| 82>    C       -6.14430       -20.26832         4.86578
| 83>    N       -5.14596       -19.73434         4.67709
| 84>    C       -7.44173       -22.11745         4.25158
| 85>    N       -7.47207       -23.03629         3.56618
| 86>    C      -10.02445       -22.53437         5.77330
| 87>    C      -11.06412       -23.19416         6.41963
| 88>    C      -11.45987       -22.83322         7.71021
| 89>    C      -10.82818       -21.78874         8.37350
| 90>   Br      -12.86655       -23.75509         8.57086
| 91>   Br      -11.94570       -24.59925         5.51563
| 92>    H        6.93159         0.35759         2.43205
| 93>    H        5.14820        -3.37206         5.20247
| 94>    H        3.53646        -2.58611        -0.82862
| 95>    H        2.18517        -4.07223        -2.11321
| 96>    H       -1.54703        -9.02939        -1.96396
| 97>    H       -5.22444       -14.50133         0.38426
| 98>    H       -8.01608       -18.49337         4.19786
| 99>    H       -7.53657       -17.88133         7.99665
|100>    H       -9.74909       -22.83143         4.77403
|101>    H      -11.13047       -21.49908         9.36789
|102> *
|103>
|104>                          ****END OF INPUT****

CARTESIAN COORDINATES (ANGSTROEM)
---------------------------------
  C      4.149680   -3.194350    2.528140
  O      3.533410   -4.163400    2.933310
  C      5.113120   -2.387910    3.300090
  C      5.596960   -1.341880    2.494000
  C      6.527930   -0.456730    3.011270
  C      6.957590   -0.631410    4.322620
  C      6.467630   -1.672080    5.114990
  C      5.534020   -2.563140    4.601720
  Br     7.069010   -1.884470    6.893370
  Br     8.232270    0.573900    5.025820
  C      4.960400   -1.425080    1.179460
  C      5.131340   -0.524750    0.162490
  C      5.978710    0.602350    0.241700
  N      6.652950    1.530530    0.248200
  C      4.481760   -0.566310   -1.090620
  N      3.984890   -0.522680   -2.124550
  C      4.102780   -2.597050    1.190330
  C      3.413730   -3.101870    0.116260
  C      2.564730   -4.214290    0.023210
  C      1.992340   -4.601560   -1.196730
  C      1.179790   -5.709920   -1.070260
  C      1.112050   -6.175840    0.265960
  S      2.063090   -5.268720    1.345500
  C      0.253540   -7.302970    0.295850
  C     -0.214880   -7.550690   -1.012230
  C      0.350670   -6.561180   -1.911750
  C      0.149760   -6.456310   -3.256270
  C     -0.685250   -7.348830   -3.962450
  N     -1.361550   -8.070690   -4.541830
  C      0.766040   -5.451170   -4.032340
  N      1.266620   -4.639230   -4.667830
  C     -1.070200   -8.647970   -1.079170
  C     -1.250720   -9.219340    0.166580
  S     -0.363890   -8.410960    1.437940
  C     -2.056610  -10.345140    0.510030
  N     -2.117120  -10.681130    1.790350
  N     -2.820990  -11.674990    2.228210
  C     -3.542750  -12.455320    1.437030
  C     -3.558940  -12.208200    0.034750
  C     -2.786350  -11.104520   -0.448540
  N     -2.881160  -10.968900   -1.768180
  S     -3.847280  -12.118320   -2.340200
  N     -4.193380  -12.841750   -0.947610
  C     -4.279260  -13.509520    2.053730
  C     -5.079180  -14.460660    1.448730
  C     -5.645370  -15.317510    2.389440
  C     -5.264660  -15.003640    3.711590
  S     -4.210290  -13.664690    3.793700
  C     -5.897530  -15.921290    4.588580
  C     -6.677420  -16.809440    3.818450
  C     -6.529980  -16.468690    2.412930
  C     -7.080670  -17.127130    1.352950
  C     -7.897960  -18.261540    1.544370
  N     -8.561090  -19.179410    1.724940
  C     -6.865990  -16.723040    0.018110
  N     -6.698320  -16.392570   -1.066570
  C     -7.332400  -17.760700    4.585620
  C     -7.060250  -17.620150    5.940880
  S     -5.992880  -16.255140    6.252610
  C     -7.563780  -18.366900    7.025750
  C     -8.169400  -19.588700    7.017960
  C     -9.006480  -19.972770    8.189120
  O     -9.048540  -19.420680    9.262060
  C     -9.804030  -21.128750    7.726580
  C     -9.387220  -21.499030    6.434650
  C     -8.265530  -20.648670    6.036170
  C     -7.344550  -20.975660    5.076570
  C     -6.144300  -20.268320    4.865780
  N     -5.145960  -19.734340    4.677090
  C     -7.441730  -22.117450    4.251580
  N     -7.472070  -23.036290    3.566180
  C    -10.024450  -22.534370    5.773300
  C    -11.064120  -23.194160    6.419630
  C    -11.459870  -22.833220    7.710210
  C    -10.828180  -21.788740    8.373500
  Br   -12.866550  -23.755090    8.570860
  Br   -11.945700  -24.599250    5.515630
  H      6.931590    0.357590    2.432050
  H      5.148200   -3.372060    5.202470
  H      3.536460   -2.586110   -0.828620
  H      2.185170   -4.072230   -2.113210
  H     -1.547030   -9.029390   -1.963960
  H     -5.224440  -14.501330    0.384260
  H     -8.016080  -18.493370    4.197860
  H     -7.536570  -17.881330    7.996650
  H     -9.749090  -22.831430    4.774030
  H    -11.130470  -21.499080    9.367890

 Total Charge           Charge          ....    0
 Multiplicity           Mult            ....    1
 Number of Electrons    NEL             ....  654
 Basis Dimension        Dim             .... 1220

ORBITAL ENERGIES
----------------

  NO   OCC          E(Eh)            E(eV)
   0   2.0000    -482.882762    -13139.9080
   1   2.0000    -482.880720    -13139.8524
   2   2.0000    -482.880048    -13139.8341
   3   2.0000    -482.878478    -13139.7914
   4   2.0000     -89.064199     -2423.5601
   5   2.0000     -89.006179     -2421.9813
   6   2.0000     -89.001456     -2421.8527
   7   2.0000     -89.000480     -2421.8262
   8   2.0000     -89.000372     -2421.8232
   9   2.0000     -62.560368     -1702.3542
  10   2.0000     -62.558338     -1702.2989
  11   2.0000     -62.557668     -1702.2807
  12   2.0000     -62.556110     -1702.2383
  13   2.0000     -56.394321     -1534.5675
  14   2.0000     -56.392306     -1534.5127
  15   2.0000     -56.391666     -1534.4952
  16   2.0000     -56.391618     -1534.4939
  17   2.0000     -56.391562     -1534.4924
  18   2.0000     -56.390076     -1534.4520
  19   2.0000     -56.389627     -1534.4398
  20   2.0000     -56.389526     -1534.4370
  21   2.0000     -56.388959     -1534.4216
  22   2.0000     -56.388870     -1534.4192
  23   2.0000     -56.387396     -1534.3791
  24   2.0000     -56.387300     -1534.3764
  25   2.0000     -19.239008      -523.5200
  26   2.0000     -19.228559      -523.2357
  27   2.0000     -14.478719      -393.9860
  28   2.0000     -14.478525      -393.9807
  29   2.0000     -14.466733      -393.6598
  30   2.0000     -14.466269      -393.6472
  31   2.0000     -14.440577      -392.9481
  32   2.0000     -14.438771      -392.8989
  33   2.0000     -14.437638      -392.8681
  34   2.0000     -14.436949      -392.8494
  35   2.0000     -14.428515      -392.6199
  36   2.0000     -14.428386      -392.6163
  37   2.0000     -14.424801      -392.5188
  38   2.0000     -14.422836      -392.4653
  39   2.0000     -10.386998      -282.6446
  40   2.0000     -10.380019      -282.4547
  41   2.0000     -10.375377      -282.3284
  42   2.0000     -10.373509      -282.2775
  43   2.0000     -10.363106      -281.9944
  44   2.0000     -10.362801      -281.9861
  45   2.0000     -10.362589      -281.9804
  46   2.0000     -10.361526      -281.9515
  47   2.0000     -10.360777      -281.9311
  48   2.0000     -10.360342      -281.9192
  49   2.0000     -10.360328      -281.9189
  50   2.0000     -10.359954      -281.9087
  51   2.0000     -10.357951      -281.8542
  52   2.0000     -10.357337      -281.8375
  53   2.0000     -10.356721      -281.8207
  54   2.0000     -10.356535      -281.8156
  55   2.0000     -10.355033      -281.7748
  56   2.0000     -10.354989      -281.7736
  57   2.0000     -10.352502      -281.7059
  58   2.0000     -10.346372      -281.5391
  59   2.0000     -10.344391      -281.4852
  60   2.0000     -10.344036      -281.4755
  61   2.0000     -10.340789      -281.3872
  62   2.0000     -10.339118      -281.3417
  63   2.0000     -10.338635      -281.3286
  64   2.0000     -10.338629      -281.3284
  65   2.0000     -10.337734      -281.3040
  66   2.0000     -10.337629      -281.3012
  67   2.0000     -10.336649      -281.2745
  68   2.0000     -10.336372      -281.2670
  69   2.0000     -10.336232      -281.2632
  70   2.0000     -10.335468      -281.2424
  71   2.0000     -10.330143      -281.0975
  72   2.0000     -10.329146      -281.0704
  73   2.0000     -10.327038      -281.0130
  74   2.0000     -10.325282      -280.9652
  75   2.0000     -10.324557      -280.9455
  76   2.0000     -10.323440      -280.9151
  77   2.0000     -10.323190      -280.9083
  78   2.0000     -10.322513      -280.8899
  79   2.0000     -10.319288      -280.8021
  80   2.0000     -10.318240      -280.7736
  81   2.0000     -10.317803      -280.7617
  82   2.0000     -10.317687      -280.7585
  83   2.0000     -10.317174      -280.7446
  84   2.0000     -10.316622      -280.7296
  85   2.0000     -10.316070      -280.7145
  86   2.0000     -10.315798      -280.7071
  87   2.0000     -10.314145      -280.6622
  88   2.0000     -10.313514      -280.6450
  89   2.0000     -10.312116      -280.6069
  90   2.0000     -10.312008      -280.6040
  91   2.0000     -10.311400      -280.5875
  92   2.0000     -10.309100      -280.5249
  93   2.0000      -8.789692      -239.1797
  94   2.0000      -8.787663      -239.1245
  95   2.0000      -8.786998      -239.1064
  96   2.0000      -8.785445      -239.0641
  97   2.0000      -8.155580      -221.9246
  98   2.0000      -8.100843      -220.4352
  99   2.0000      -8.095238      -220.2826
 100   2.0000      -8.094313      -220.2575
 101   2.0000      -8.092745      -220.2148
 102   2.0000      -6.625836      -180.2982
 103   2.0000      -6.623863      -180.2445
 104   2.0000      -6.623142      -180.2248
 105   2.0000      -6.621643      -180.1841
 106   2.0000      -6.611817      -179.9167
 107   2.0000      -6.611017      -179.8949
 108   2.0000      -6.609766      -179.8609
 109   2.0000      -6.609096      -179.8426
 110   2.0000      -6.608954      -179.8388
 111   2.0000      -6.608343      -179.8221
 112   2.0000      -6.607525      -179.7999
 113   2.0000      -6.606749      -179.7788
 114   2.0000      -6.126706      -166.7162
 115   2.0000      -6.118773      -166.5003
 116   2.0000      -6.118276      -166.4867
 117   2.0000      -6.069974      -165.1724
 118   2.0000      -6.065824      -165.0595
 119   2.0000      -6.064517      -165.0239
 120   2.0000      -6.063577      -164.9983
 121   2.0000      -6.063379      -164.9929
 122   2.0000      -6.062135      -164.9591
 123   2.0000      -6.060139      -164.9048
 124   2.0000      -6.059176      -164.8786
 125   2.0000      -6.057795      -164.8410
 126   2.0000      -6.057386      -164.8299
 127   2.0000      -6.056880      -164.8161
 128   2.0000      -6.055363      -164.7748
 129   2.0000      -2.741731       -74.6063
 130   2.0000      -2.739740       -74.5521
 131   2.0000      -2.739061       -74.5336
 132   2.0000      -2.737979       -74.5042
 133   2.0000      -2.737556       -74.4927
 134   2.0000      -2.737363       -74.4874
 135   2.0000      -2.735957       -74.4492
 136   2.0000      -2.735362       -74.4330
 137   2.0000      -2.735296       -74.4312
 138   2.0000      -2.734634       -74.4132
 139   2.0000      -2.733773       -74.3898
 140   2.0000      -2.733089       -74.3711
 141   2.0000      -2.726205       -74.1838
 142   2.0000      -2.726192       -74.1834
 143   2.0000      -2.724140       -74.1276
 144   2.0000      -2.724121       -74.1271
 145   2.0000      -2.723512       -74.1105
 146   2.0000      -2.723500       -74.1102
 147   2.0000      -2.721913       -74.0670
 148   2.0000      -2.721901       -74.0667
 149   2.0000      -1.168579       -31.7986
 150   2.0000      -1.154878       -31.4258
 151   2.0000      -1.144707       -31.1490
 152   2.0000      -1.143688       -31.1213
 153   2.0000      -1.059052       -28.8183
 154   2.0000      -1.056133       -28.7388
 155   2.0000      -1.033649       -28.1270
 156   2.0000      -1.032930       -28.1075
 157   2.0000      -1.031920       -28.0800
 158   2.0000      -1.029914       -28.0254
 159   2.0000      -1.025223       -27.8977
 160   2.0000      -1.017302       -27.6822
 161   2.0000      -1.017261       -27.6811
 162   2.0000      -1.015475       -27.6325
 163   2.0000      -1.014858       -27.6157
 164   2.0000      -1.011278       -27.5183
 165   2.0000      -1.008596       -27.4453
 166   2.0000      -1.004794       -27.3418
 167   2.0000      -1.002939       -27.2914
 168   2.0000      -0.986223       -26.8365
 169   2.0000      -0.984352       -26.7856
 170   2.0000      -0.977240       -26.5921
 171   2.0000      -0.970977       -26.4216
 172   2.0000      -0.953379       -25.9428
 173   2.0000      -0.943590       -25.6764
 174   2.0000      -0.931409       -25.3449
 175   2.0000      -0.930209       -25.3123
 176   2.0000      -0.926125       -25.2011
 177   2.0000      -0.924709       -25.1626
 178   2.0000      -0.918146       -24.9840
 179   2.0000      -0.916008       -24.9258
 180   2.0000      -0.905897       -24.6507
 181   2.0000      -0.902194       -24.5499
 182   2.0000      -0.883705       -24.0468
 183   2.0000      -0.883351       -24.0372
 184   2.0000      -0.872593       -23.7444
 185   2.0000      -0.868972       -23.6459
 186   2.0000      -0.867314       -23.6008
 187   2.0000      -0.865837       -23.5606
 188   2.0000      -0.859973       -23.4011
 189   2.0000      -0.857683       -23.3387
 190   2.0000      -0.841215       -22.8906
 191   2.0000      -0.816003       -22.2046
 192   2.0000      -0.807355       -21.9692
 193   2.0000      -0.789534       -21.4843
 194   2.0000      -0.789192       -21.4750
 195   2.0000      -0.785819       -21.3832
 196   2.0000      -0.781273       -21.2595
 197   2.0000      -0.776641       -21.1335
 198   2.0000      -0.772808       -21.0292
 199   2.0000      -0.758806       -20.6482
 200   2.0000      -0.748787       -20.3755
 201   2.0000      -0.733252       -19.9528
 202   2.0000      -0.725904       -19.7529
 203   2.0000      -0.714886       -19.4530
 204   2.0000      -0.711650       -19.3650
 205   2.0000      -0.707434       -19.2503
 206   2.0000      -0.703919       -19.1546
 207   2.0000      -0.700417       -19.0593
 208   2.0000      -0.696546       -18.9540
 209   2.0000      -0.694270       -18.8921
 210   2.0000      -0.688656       -18.7393
 211   2.0000      -0.682644       -18.5757
 212   2.0000      -0.676119       -18.3981
 213   2.0000      -0.663664       -18.0592
 214   2.0000      -0.659665       -17.9504
 215   2.0000      -0.654389       -17.8068
 216   2.0000      -0.644799       -17.5459
 217   2.0000      -0.638685       -17.3795
 218   2.0000      -0.632524       -17.2119
 219   2.0000      -0.630479       -17.1562
 220   2.0000      -0.627441       -17.0735
 221   2.0000      -0.626697       -17.0533
 222   2.0000      -0.626313       -17.0429
 223   2.0000      -0.624334       -16.9890
 224   2.0000      -0.609974       -16.5982
 225   2.0000      -0.603008       -16.4087
 226   2.0000      -0.596788       -16.2394
 227   2.0000      -0.595004       -16.1909
 228   2.0000      -0.587981       -15.9998
 229   2.0000      -0.580825       -15.8051
 230   2.0000      -0.579134       -15.7590
 231   2.0000      -0.572614       -15.5816
 232   2.0000      -0.563065       -15.3218
 233   2.0000      -0.562107       -15.2957
 234   2.0000      -0.560515       -15.2524
 235   2.0000      -0.559472       -15.2240
 236   2.0000      -0.554871       -15.0988
 237   2.0000      -0.554723       -15.0948
 238   2.0000      -0.550371       -14.9764
 239   2.0000      -0.549683       -14.9576
 240   2.0000      -0.547073       -14.8866
 241   2.0000      -0.542384       -14.7590
 242   2.0000      -0.538338       -14.6489
 243   2.0000      -0.536474       -14.5982
 244   2.0000      -0.531747       -14.4696
 245   2.0000      -0.527867       -14.3640
 246   2.0000      -0.525449       -14.2982
 247   2.0000      -0.518635       -14.1128
 248   2.0000      -0.516480       -14.0541
 249   2.0000      -0.515536       -14.0285
 250   2.0000      -0.514585       -14.0026
 251   2.0000      -0.514011       -13.9869
 252   2.0000      -0.511000       -13.9050
 253   2.0000      -0.510062       -13.8795
 254   2.0000      -0.509464       -13.8632
 255   2.0000      -0.505976       -13.7683
 256   2.0000      -0.504467       -13.7272
 257   2.0000      -0.501215       -13.6388
 258   2.0000      -0.498985       -13.5781
 259   2.0000      -0.496891       -13.5211
 260   2.0000      -0.493473       -13.4281
 261   2.0000      -0.490594       -13.3498
 262   2.0000      -0.487712       -13.2713
 263   2.0000      -0.485628       -13.2146
 264   2.0000      -0.471371       -12.8267
 265   2.0000      -0.470597       -12.8056
 266   2.0000      -0.469721       -12.7817
 267   2.0000      -0.468374       -12.7451
 268   2.0000      -0.468119       -12.7382
 269   2.0000      -0.467808       -12.7297
 270   2.0000      -0.466262       -12.6876
 271   2.0000      -0.464892       -12.6504
 272   2.0000      -0.464329       -12.6350
 273   2.0000      -0.463386       -12.6094
 274   2.0000      -0.460058       -12.5188
 275   2.0000      -0.459827       -12.5125
 276   2.0000      -0.458742       -12.4830
 277   2.0000      -0.456840       -12.4312
 278   2.0000      -0.452899       -12.3240
 279   2.0000      -0.452293       -12.3075
 280   2.0000      -0.450490       -12.2585
 281   2.0000      -0.449463       -12.2305
 282   2.0000      -0.447665       -12.1816
 283   2.0000      -0.447254       -12.1704
 284   2.0000      -0.445995       -12.1362
 285   2.0000      -0.444761       -12.1026
 286   2.0000      -0.442423       -12.0389
 287   2.0000      -0.439436       -11.9577
 288   2.0000      -0.438227       -11.9248
 289   2.0000      -0.437833       -11.9140
 290   2.0000      -0.436266       -11.8714
 291   2.0000      -0.435205       -11.8425
 292   2.0000      -0.434181       -11.8147
 293   2.0000      -0.428953       -11.6724
 294   2.0000      -0.428509       -11.6603
 295   2.0000      -0.426878       -11.6159
 296   2.0000      -0.419924       -11.4267
 297   2.0000      -0.418331       -11.3834
 298   2.0000      -0.415024       -11.2934
 299   2.0000      -0.409302       -11.1377
 300   2.0000      -0.406729       -11.0677
 301   2.0000      -0.406218       -11.0538
 302   2.0000      -0.406184       -11.0528
 303   2.0000      -0.403046       -10.9675
 304   2.0000      -0.395891       -10.7728
 305   2.0000      -0.395466       -10.7612
 306   2.0000      -0.393605       -10.7105
 307   2.0000      -0.392875       -10.6907
 308   2.0000      -0.380816       -10.3625
 309   2.0000      -0.371765       -10.1162
 310   2.0000      -0.360116        -9.7992
 311   2.0000      -0.359914        -9.7938
 312   2.0000      -0.356235        -9.6937
 313   2.0000      -0.355094        -9.6626
 314   2.0000      -0.351284        -9.5589
 315   2.0000      -0.350888        -9.5481
 316   2.0000      -0.347497        -9.4559
 317   2.0000      -0.343323        -9.3423
 318   2.0000      -0.338464        -9.2101
 319   2.0000      -0.335019        -9.1163
 320   2.0000      -0.330921        -9.0048
 321   2.0000      -0.329207        -8.9582
 322   2.0000      -0.322848        -8.7851
 323   2.0000      -0.318588        -8.6692
 324   2.0000      -0.316212        -8.6046
 325   2.0000      -0.287564        -7.8250
 326   2.0000      -0.266855        -7.2615
 327   0.0000      -0.130266        -3.5447
 328   0.0000      -0.118338        -3.2201
 329   0.0000      -0.102779        -2.7968
 330   0.0000      -0.096420        -2.6237
 331   0.0000      -0.094306        -2.5662

MULLIKEN ATOMIC CHARGES
-----------------------
   0 C :    0.169823
   1 O :   -0.180477
   2 C :   -0.014163
   3 C :    0.033190
   4 C :   -0.008304
   5 C :   -0.026505
   6 C :   -0.015323
   7 C :   -0.019875
   8 Br:    0.018034
   9 Br:    0.026521
  10 C :    0.316920
  11 C :   -0.340513
  12 C :   -0.184402
  13 N :    0.160461
  14 C :   -0.192266
  15 N :    0.159374
  16 C :   -0.094279
  17 C :   -0.025941
  18 C :   -0.053800
  19 C :   -0.059394
  20 C :    0.051214
  21 C :   -0.076488
  22 S :    0.250146
  23 C :   -0.090353
  24 C :    0.015504
  25 C :    0.306210
  26 C :   -0.296099
  27 C :   -0.187646
  28 N :    0.177064
  29 C :   -0.195011
  30 N :    0.186105
  31 C :   -0.051944
  32 C :   -0.125294
  33 S :    0.257879
  34 C :    0.014156
  35 N :   -0.058573
  36 N :   -0.058815
  37 C :    0.015918
  38 C :    0.030534
  39 C :    0.026497
  40 N :   -0.253024
  41 S :    0.578093
  42 N :   -0.250577
  43 C :   -0.130988
  44 C :   -0.051244
  45 C :    0.014888
  46 C :   -0.090031
  47 S :    0.255454
  48 C :   -0.077624
  49 C :   -0.000140
  50 C :    0.307585
  51 C :   -0.284743
  52 C :   -0.184839
  53 N :    0.168638
  54 C :   -0.187101
  55 N :    0.179908
  56 C :   -0.002433
  57 C :   -0.108426
  58 S :    0.223598
  59 C :    0.079138
  60 C :   -0.134033
  61 C :    0.136777
  62 O :   -0.135670
  63 C :    0.002988
  64 C :    0.013000
  65 C :    0.264104
  66 C :   -0.320061
  67 C :   -0.200310
  68 N :    0.170955
  69 C :   -0.173256
  70 N :    0.170144
  71 C :   -0.004087
  72 C :   -0.024176
  73 C :   -0.017922
  74 C :   -0.018086
  75 Br:    0.016456
  76 Br:    0.025408
  77 H :    0.008801
  78 H :    0.006294
  79 H :    0.020156
  80 H :    0.029472
  81 H :    0.020459
  82 H :    0.021408
  83 H :    0.025950
  84 H :    0.023999
  85 H :    0.016833
  86 H :    0.008178
Sum of atomic charges:   -0.0000000

LOEWDIN ATOMIC CHARGES
----------------------
   0 C :    0.085883
   1 O :   -0.166754
   2 C :   -0.042989
   3 C :   -0.010291
   4 C :   -0.005877
   5 C :   -0.117807
   6 C :   -0.123016
   7 C :    0.006926
   8 Br:    0.140365
   9 Br:    0.145023
  10 C :    0.074081
  11 C :   -0.131190
  12 C :   -0.019662
  13 N :   -0.041620
  14 C :   -0.023398
  15 N :   -0.039669
  16 C :   -0.111789
  17 C :    0.058756
  18 C :   -0.182769
  19 C :    0.013793
  20 C :   -0.073173
  21 C :   -0.166892
  22 S :    0.552571
  23 C :   -0.178246
  24 C :   -0.060808
  25 C :    0.075977
  26 C :   -0.098483
  27 C :   -0.017168
  28 N :   -0.028676
  29 C :   -0.020274
  30 N :   -0.023059
  31 C :   -0.011821
  32 C :   -0.172411
  33 S :    0.528214
  34 C :   -0.027261
  35 N :   -0.061478
  36 N :   -0.063573
  37 C :   -0.025205
  38 C :   -0.054239
  39 C :   -0.053948
  40 N :   -0.262212
  41 S :    0.700329
  42 N :   -0.262308
  43 C :   -0.175700
  44 C :   -0.008844
  45 C :   -0.063898
  46 C :   -0.174475
  47 S :    0.527541
  48 C :   -0.160839
  49 C :   -0.061226
  50 C :    0.080320
  51 C :   -0.095851
  52 C :   -0.012416
  53 N :   -0.031547
  54 C :   -0.017648
  55 N :   -0.025938
  56 C :    0.009872
  57 C :   -0.179715
  58 S :    0.506877
  59 C :    0.044896
  60 C :   -0.091620
  61 C :    0.084007
  62 O :   -0.134881
  63 C :   -0.045125
  64 C :   -0.008760
  65 C :    0.063017
  66 C :   -0.128651
  67 C :   -0.015471
  68 N :   -0.040277
  69 C :   -0.021028
  70 N :   -0.035400
  71 C :   -0.006163
  72 C :   -0.117265
  73 C :   -0.123414
  74 C :    0.007758
  75 Br:    0.139498
  76 Br:    0.145573
  77 H :    0.045254
  78 H :    0.046354
  79 H :    0.054577
  80 H :    0.048750
  81 H :    0.041941
  82 H :    0.042445
  83 H :    0.042730
  84 H :    0.047268
  85 H :    0.046746
  86 H :    0.046876

  Mayer bond orders larger than 0.100000
B(  0-C ,  1-O ) :   2.1241 B(  0-C ,  2-C ) :   0.9635 B(  0-C , 16-C ) :   0.9843
B(  2-C ,  3-C ) :   1.3292 B(  2-C ,  7-C ) :   1.3671 B(  3-C ,  4-C ) :   1.3685
B(  3-C , 10-C ) :   0.9865 B(  4-C ,  5-C ) :   1.3651 B(  4-C , 77-H ) :   0.9799
B(  5-C ,  6-C ) :   1.4233 B(  5-C ,  9-Br) :   1.0611 B(  6-C ,  7-C ) :   1.3490
B(  6-C ,  8-Br) :   1.0352 B(  7-C , 78-H ) :   1.0092 B( 10-C , 11-C ) :   1.6441
B( 10-C , 16-C ) :   1.0783 B( 11-C , 12-C ) :   1.1398 B( 11-C , 14-C ) :   1.1406
B( 12-C , 13-N ) :   2.9708 B( 14-C , 15-N ) :   2.9676 B( 16-C , 17-C ) :   1.4916
B( 17-C , 18-C ) :   1.2731 B( 17-C , 79-H ) :   0.9406 B( 18-C , 19-C ) :   1.3227
B( 18-C , 22-S ) :   1.0718 B( 19-C , 20-C ) :   1.3372 B( 19-C , 80-H ) :   1.0077
B( 20-C , 21-C ) :   1.3578 B( 20-C , 25-C ) :   0.9827 B( 21-C , 22-S ) :   1.1329
B( 21-C , 23-C ) :   1.2044 B( 23-C , 24-C ) :   1.4198 B( 23-C , 33-S ) :   1.1210
B( 24-C , 25-C ) :   0.9997 B( 24-C , 31-C ) :   1.2668 B( 25-C , 26-C ) :   1.7173
B( 26-C , 27-C ) :   1.1368 B( 26-C , 29-C ) :   1.1339 B( 27-C , 28-N ) :   2.9887
B( 29-C , 30-N ) :   2.9947 B( 31-C , 32-C ) :   1.4813 B( 31-C , 81-H ) :   0.9827
B( 32-C , 33-S ) :   1.0969 B( 32-C , 34-C ) :   1.1606 B( 34-C , 35-N ) :   1.7126
B( 34-C , 37-C ) :   0.1200 B( 34-C , 39-C ) :   1.1249 B( 35-N , 36-N ) :   1.2364
B( 36-N , 37-C ) :   1.7107 B( 37-C , 38-C ) :   1.1272 B( 37-C , 43-C ) :   1.1644
B( 38-C , 39-C ) :   1.1919 B( 38-C , 42-N ) :   1.5488 B( 39-C , 40-N ) :   1.5479
B( 40-N , 41-S ) :   1.2812 B( 40-N , 42-N ) :   0.1412 B( 41-S , 42-N ) :   1.2808
B( 43-C , 44-C ) :   1.4823 B( 43-C , 47-S ) :   1.0922 B( 44-C , 45-C ) :   1.2713
B( 44-C , 82-H ) :   0.9824 B( 45-C , 46-C ) :   1.4245 B( 45-C , 50-C ) :   0.9977
B( 46-C , 47-S ) :   1.1248 B( 46-C , 48-C ) :   1.1965 B( 48-C , 49-C ) :   1.4111
B( 48-C , 58-S ) :   1.1563 B( 49-C , 50-C ) :   0.9962 B( 49-C , 56-C ) :   1.3661
B( 50-C , 51-C ) :   1.7162 B( 51-C , 52-C ) :   1.1337 B( 51-C , 54-C ) :   1.1357
B( 52-C , 53-N ) :   2.9801 B( 54-C , 55-N ) :   2.9913 B( 56-C , 57-C ) :   1.3853
B( 56-C , 83-H ) :   0.9784 B( 57-C , 58-S ) :   1.0940 B( 57-C , 59-C ) :   1.1412
B( 59-C , 60-C ) :   1.6676 B( 59-C , 84-H ) :   0.9291 B( 60-C , 61-C ) :   0.9468
B( 60-C , 65-C ) :   1.0369 B( 61-C , 62-O ) :   2.2704 B( 61-C , 63-C ) :   0.9215
B( 63-C , 64-C ) :   1.3264 B( 63-C , 74-C ) :   1.3752 B( 64-C , 65-C ) :   1.0007
B( 64-C , 71-C ) :   1.3751 B( 65-C , 66-C ) :   1.6606 B( 66-C , 67-C ) :   1.1713
B( 66-C , 69-C ) :   1.1231 B( 67-C , 68-N ) :   2.9953 B( 69-C , 70-N ) :   2.9960
B( 71-C , 72-C ) :   1.3691 B( 71-C , 85-H ) :   0.9817 B( 72-C , 73-C ) :   1.4189
B( 72-C , 76-Br) :   1.0542 B( 73-C , 74-C ) :   1.3578 B( 73-C , 75-Br) :   1.0343
B( 74-C , 86-H ) :   1.0066

-----------------------------------------------------------------------------
         ABSORPTION SPECTRUM VIA TRANSITION ELECTRIC DIPOLE MOMENTS
-----------------------------------------------------------------------------
State   Energy  Wavelength   fosc         T2         TX        TY        TZ
        (cm-1)    (nm)                  (au**2)     (au)      (au)      (au)
-----------------------------------------------------------------------------
   0   13880.1    720.5   1.143044356  27.11105   2.85536   4.14372  -1.33698
   1   15403.0    649.2   0.160336140   3.42691  -1.17996  -1.31071  -0.56271
   2   18334.8    545.4   0.889552231  15.97239   2.14086   3.19889  -1.07527
   3   20690.2    483.3   0.000291246   0.00463   0.03495   0.05839  -0.00185
   4   21315.2    469.1   0.150103727   2.31834  -0.67277   0.26774  -1.33941
   5   22191.3    450.6   0.089050719   1.32108   0.49744   0.95570   0.40034
   6   23092.3    433.0   0.434108581   6.18881  -1.42012  -1.88237  -0.79293
   7   24955.7    400.7   0.022232850   0.29329   0.10242   0.45517   0.27499
   8   25987.5    384.8   0.112767225   1.42855  -0.59046  -0.51066  -0.90505
   9   26879.8    372.0   0.026047443   0.31902  -0.03160   0.53062  -0.19096
  10   27332.0    365.9   0.094747164   1.14122   0.75801   0.58347  -0.47560
  11   28253.9    353.9   0.103272563   1.20332   0.62984   0.37834  -0.81454
  12   28528.0    350.5   0.048844009   0.56366  -0.12817  -0.27916   0.68506
  13   28705.3    348.4   0.210761792   2.41716   0.02799  -0.41559   1.49788
  14   29111.8    343.5   0.020602410   0.23298  -0.17005  -0.06532   0.44699
  15   29171.4    342.8   0.124740469   1.40775   0.54875   0.73489   0.75270
  16   29313.5    341.1   0.081113937   0.91097   0.51699   0.65563  -0.46243
  17   29530.7    338.6   0.173451311   1.93366   0.98438   0.70684   0.68194
  18   29841.7    335.1   0.032162205   0.35481  -0.22503  -0.11295  -0.53983
  19   30595.5    326.8   0.106423511   1.14513  -0.58690  -0.68862   0.57138
  20   30810.1    324.6   0.000194091   0.00207   0.02876   0.03480  -0.00594
  21   31092.0    321.6   0.040000656   0.42354   0.64613  -0.01095   0.07705
  22   31415.1    318.3   0.140135085   1.46853  -0.58124  -0.24805  -1.03401
  23   31830.6    314.2   0.024488976   0.25328  -0.24233  -0.22831   0.37739
  24   32325.4    309.4   0.402722511   4.10146   0.99307   1.46912  -0.97824
  25   32490.4    307.8   0.119962007   1.21553  -0.64542  -0.47893  -0.75471
  26   32705.1    305.8   0.307083312   3.09113  -0.54625  -0.69947  -1.51772
  27   32797.5    304.9   0.073919746   0.74199   0.70342   0.31781  -0.38234
  28   32838.3    304.5   0.074873715   0.75063  -0.32039  -0.80368  -0.04558
  29   33244.3    300.8   0.081038801   0.80251  -0.75278  -0.26238   0.40864
  30   33407.7    299.3   0.138129370   1.36118  -0.87949  -0.75536  -0.13077
  31   33697.6    296.8   0.135141048   1.32027   0.18386  -0.09396   1.13033
  32   34401.0    290.7   0.689951674   6.60273  -0.69392  -1.58488   1.89983
  33   34424.0    290.5   0.112755668   1.07833   0.26045  -0.34177   0.94535
  34   34675.4    288.4   0.310118240   2.94429  -1.14619  -0.26338   1.24947
  35   34766.2    287.6   0.074664292   0.70702  -0.50213  -0.44706  -0.50500
  36   35059.0    285.2   0.397871876   3.73610   1.10197   0.11428   1.58389
  37   35140.3    284.6   0.187247034   1.75422  -0.16246   0.41894   1.24592
  38   35374.0    282.7   0.141810386   1.31977  -0.38635  -0.59632   0.90272
  39   35534.0    281.4   0.119629676   1.10833  -0.03481   0.44602   0.95299
  40   35645.2    280.5   0.050769663   0.46890   0.44792   0.49710  -0.14546
  41   35961.9    278.1   0.018749800   0.17164  -0.01321   0.08022  -0.40624
  42   36455.0    274.3   0.045284205   0.40894  -0.23317  -0.36281   0.47217
  43   36692.2    272.5   0.039487258   0.35429   0.35030   0.25365  -0.40895
  44   36886.4    271.1   0.022650909   0.20216   0.15801   0.14612  -0.39477
  45   37079.0    269.7   0.001232377   0.01094  -0.03733   0.02257   0.09508
  46   37258.0    268.4   0.009186683   0.08117  -0.07323  -0.17249   0.21461
  47   37331.8    267.9   0.139674628   1.23173   0.84636   0.70527  -0.13415
  48   37403.5    267.4   0.005990430   0.05273  -0.20762   0.03650   0.09103
  49   37503.3    266.6   0.052776264   0.46328   0.40954   0.54279  -0.03060
  50   37807.1    264.5   0.113437316   0.98778   0.33337   0.44701   0.82269
  51   37858.2    264.1   0.054845292   0.47693  -0.51647  -0.30776  -0.33981
  52   38065.5    262.7   0.078573865   0.67955  -0.52187  -0.58276  -0.26000
  53   38205.4    261.7   0.022193780   0.19124  -0.03010  -0.18879  -0.39331
  54   38241.7    261.5   0.008718915   0.07506  -0.17402   0.03637  -0.20845
  55   38504.6    259.7   0.026955767   0.23047   0.13821   0.12458   0.44255
  56   38716.7    258.3   0.006099708   0.05187   0.04868  -0.12399  -0.18472
  57   38763.1    258.0   0.024856740   0.21111   0.19982  -0.28415  -0.30073
  58   38995.2    256.4   0.020876552   0.17625  -0.17076  -0.00321   0.38351
  59   39482.8    253.3   0.002250953   0.01877   0.01979  -0.05193   0.12522
  60   39578.2    252.7   0.040180209   0.33422  -0.07360  -0.54799   0.16885
  61   39706.8    251.8   0.033354221   0.27654   0.33474   0.26994   0.30269
  62   39821.6    251.1   0.001393023   0.01152   0.00244   0.09670  -0.04648
  63   39885.8    250.7   0.006071858   0.05012   0.08494  -0.11159   0.17450
  64   40110.4    249.3   0.016342277   0.13413  -0.06194  -0.18092  -0.31235
  65   40164.8    249.0   0.004040889   0.03312  -0.02098  -0.12376  -0.13178
  66   40298.9    248.1   0.009087170   0.07424  -0.08954  -0.25436  -0.03900

FINAL SINGLE POINT ENERGY    -15153.572469475377

DIPOLE MOMENT
-------------
                                X             Y             Z
Electronic contribution:      1.99551     -32.07256     129.31178
Nuclear contribution   :     -2.88144      31.92404    -126.79086
                        -----------------------------------------
Total Dipole Moment    :     -0.88592      -0.14852       2.52092
                        -----------------------------------------
Magnitude (a.u.)       :      2.67618
Magnitude (Debye)      :      6.80231

Rotational constants in cm-1:     0.001147     0.000107     0.000099
Rotational constants in MHz :    34.376021     3.207526     2.959385

                             ****ORCA TERMINATED NORMALLY****
TOTAL RUN TIME: 0 days 0 hours 20 minutes 35 seconds 355 msec
