                         Program Version 4.2.0 -  RELEASE  -
|  1> # ORCA input file
|  2> # SCF done       -189.832596560827          0.000743000729
|  3> ! CAM-B3LYP def2-SVP def2/J RIJCOSX Grid4 TightSCF
|  4> %maxcore 5000
|  5> %tddft
|  6>     Mode sTDDFT
|  7>     Ethresh 5.0
|  8>     maxcore 5000
|  9> end
| 10>
| 11> %pal
| 12>   nprocs 6
| 13>   end
| 14> * xyz 0 1
| 15>    C       -2.08264        -9.19024         7.37664
| 16>    O       -1.92350        -9.33643         6.17989
| 17>    C       -2.04296       -10.24901         8.40406
| 18>    C       -2.23826        -9.67407         9.67283
| 19>    C       -2.22418       -10.48172        10.79731
| 20>    C       -2.01638       -11.84760        10.63417
| 21>    C       -1.82893       -12.40783         9.36923
| 22>    C       -1.84183       -11.60264         8.23719
| 23>   Br       -1.54835       -14.26620         9.17918
| 24>   Br       -1.98651       -12.94753        12.17082
| 25>    C       -2.42288        -8.23059         9.51500
| 26>    C       -2.67607        -7.34919        10.53402
| 27>    C       -2.77339        -7.72082        11.89215
| 28>    N       -2.85925        -7.96116        13.01095
| 29>    C       -2.88058        -5.96105        10.38423
| 30>    N       -3.06096        -4.82763        10.34483
| 31>    C       -2.30647        -7.93604         8.10247
| 32>    C       -2.31911        -6.68969         7.52443
| 33>    C       -2.21416        -6.33465         6.17602
| 34>    C       -2.16143        -4.99881         5.75828
| 35>    C       -2.04145        -4.80503         4.37110
| 36>    C       -2.01047        -3.41808         4.06214
| 37>    C       -2.09525        -2.59831         5.14353
| 38>    S       -2.21693        -3.51047         6.63192
| 39>    C       -2.10140        -1.11480         5.15768
| 40>    F       -1.91835        -2.94109         2.80775
| 41>    C       -2.04216        -6.02455         3.68017
| 42>    S       -2.15213        -7.38278         4.77199
| 43>    C       -1.93728        -6.27767         2.30561
| 44>    C       -2.26872        -7.50157         1.69839
| 45>    C       -1.99964        -7.50784         0.29548
| 46>    N       -2.27957        -8.55741        -0.46754
| 47>    C       -2.82803        -9.59949         0.12348
| 48>    C       -3.16253       -10.75932        -0.73849
| 49>    O       -2.90102       -10.78192        -1.92515
| 50>    C       -3.82840       -11.87349        -0.05020
| 51>    C       -4.10659       -11.86819         1.25802
| 52>    C       -3.79062       -10.74952         2.16681
| 53>    O       -4.07773       -10.77197         3.34262
| 54>    C       -3.11284        -9.59044         1.52489
| 55>    N       -2.83290        -8.55459         2.28858
| 56>    C       -1.45985        -6.30190        -0.17937
| 57>    S       -1.32478        -5.15939         1.11290
| 58>    C       -1.15505        -6.11216        -1.53083
| 59>    C       -0.76803        -4.99334        -2.25373
| 60>    C       -0.66441        -5.21292        -3.64719
| 61>    C       -0.29688        -4.01395        -4.31365
| 62>    C       -0.11816        -2.94395        -3.49428
| 63>    S       -0.41615        -3.35864        -1.81665
| 64>    C        0.27808        -1.56672        -3.87540
| 65>    F       -0.12036        -3.94810        -5.64109
| 66>    C       -0.99966        -6.51524        -4.02020
| 67>    S       -1.34865        -7.47563        -2.60154
| 68>    C       -1.03972        -7.07714        -5.31214
| 69>    C       -1.68943        -8.22390        -5.66678
| 70>    C       -1.26808        -8.99243        -6.86917
| 71>    O       -0.57693        -8.60756        -7.78081
| 72>    C       -1.81911       -10.35193        -6.65375
| 73>    C       -2.62629       -10.35562        -5.50099
| 74>    C       -2.70663        -8.99704        -4.97836
| 75>    C       -3.73611        -8.51062        -4.21984
| 76>    C       -3.91646        -7.13676        -3.95200
| 77>    N       -4.11347        -6.02491        -3.74529
| 78>    C       -4.75194        -9.30998        -3.65825
| 79>    N       -5.60268        -9.90224        -3.16614
| 80>    C       -3.19869       -11.53085        -5.05037
| 81>    C       -2.96867       -12.69324        -5.77518
| 82>    C       -2.19395       -12.68170        -6.93741
| 83>    C       -1.60572       -11.50404        -7.38273
| 84>   Br       -1.92002       -14.27606        -7.91578
| 85>   Br       -3.72098       -14.30942        -5.15397
| 86>    H       -2.36444       -10.08801        11.79081
| 87>    H       -1.69993       -12.02091         7.25288
| 88>    H       -2.40081        -5.83402         8.18516
| 89>    H       -2.01798        -0.73675         4.14145
| 90>    H       -1.26990        -0.73438         5.74979
| 91>    H       -3.02399        -0.74243         5.60175
| 92>    H       -4.08862       -12.71534        -0.67741
| 93>    H       -4.60040       -12.70812         1.72781
| 94>    H        0.43455        -1.51387        -4.95027
| 95>    H        1.19700        -1.27864        -3.36575
| 96>    H       -0.49729        -0.85514        -3.59334
| 97>    H       -0.44127        -6.60015        -6.08147
| 98>    H       -3.77714       -11.56274        -4.14149
| 99>    H       -0.99556       -11.49182        -8.27256
|100> *
|101>
|102>                          ****END OF INPUT****

CARTESIAN COORDINATES (ANGSTROEM)
---------------------------------
  C     -2.082640   -9.190240    7.376640
  O     -1.923500   -9.336430    6.179890
  C     -2.042960  -10.249010    8.404060
  C     -2.238260   -9.674070    9.672830
  C     -2.224180  -10.481720   10.797310
  C     -2.016380  -11.847600   10.634170
  C     -1.828930  -12.407830    9.369230
  C     -1.841830  -11.602640    8.237190
  Br    -1.548350  -14.266200    9.179180
  Br    -1.986510  -12.947530   12.170820
  C     -2.422880   -8.230590    9.515000
  C     -2.676070   -7.349190   10.534020
  C     -2.773390   -7.720820   11.892150
  N     -2.859250   -7.961160   13.010950
  C     -2.880580   -5.961050   10.384230
  N     -3.060960   -4.827630   10.344830
  C     -2.306470   -7.936040    8.102470
  C     -2.319110   -6.689690    7.524430
  C     -2.214160   -6.334650    6.176020
  C     -2.161430   -4.998810    5.758280
  C     -2.041450   -4.805030    4.371100
  C     -2.010470   -3.418080    4.062140
  C     -2.095250   -2.598310    5.143530
  S     -2.216930   -3.510470    6.631920
  C     -2.101400   -1.114800    5.157680
  F     -1.918350   -2.941090    2.807750
  C     -2.042160   -6.024550    3.680170
  S     -2.152130   -7.382780    4.771990
  C     -1.937280   -6.277670    2.305610
  C     -2.268720   -7.501570    1.698390
  C     -1.999640   -7.507840    0.295480
  N     -2.279570   -8.557410   -0.467540
  C     -2.828030   -9.599490    0.123480
  C     -3.162530  -10.759320   -0.738490
  O     -2.901020  -10.781920   -1.925150
  C     -3.828400  -11.873490   -0.050200
  C     -4.106590  -11.868190    1.258020
  C     -3.790620  -10.749520    2.166810
  O     -4.077730  -10.771970    3.342620
  C     -3.112840   -9.590440    1.524890
  N     -2.832900   -8.554590    2.288580
  C     -1.459850   -6.301900   -0.179370
  S     -1.324780   -5.159390    1.112900
  C     -1.155050   -6.112160   -1.530830
  C     -0.768030   -4.993340   -2.253730
  C     -0.664410   -5.212920   -3.647190
  C     -0.296880   -4.013950   -4.313650
  C     -0.118160   -2.943950   -3.494280
  S     -0.416150   -3.358640   -1.816650
  C      0.278080   -1.566720   -3.875400
  F     -0.120360   -3.948100   -5.641090
  C     -0.999660   -6.515240   -4.020200
  S     -1.348650   -7.475630   -2.601540
  C     -1.039720   -7.077140   -5.312140
  C     -1.689430   -8.223900   -5.666780
  C     -1.268080   -8.992430   -6.869170
  O     -0.576930   -8.607560   -7.780810
  C     -1.819110  -10.351930   -6.653750
  C     -2.626290  -10.355620   -5.500990
  C     -2.706630   -8.997040   -4.978360
  C     -3.736110   -8.510620   -4.219840
  C     -3.916460   -7.136760   -3.952000
  N     -4.113470   -6.024910   -3.745290
  C     -4.751940   -9.309980   -3.658250
  N     -5.602680   -9.902240   -3.166140
  C     -3.198690  -11.530850   -5.050370
  C     -2.968670  -12.693240   -5.775180
  C     -2.193950  -12.681700   -6.937410
  C     -1.605720  -11.504040   -7.382730
  Br    -1.920020  -14.276060   -7.915780
  Br    -3.720980  -14.309420   -5.153970
  H     -2.364440  -10.088010   11.790810
  H     -1.699930  -12.020910    7.252880
  H     -2.400810   -5.834020    8.185160
  H     -2.017980   -0.736750    4.141450
  H     -1.269900   -0.734380    5.749790
  H     -3.023990   -0.742430    5.601750
  H     -4.088620  -12.715340   -0.677410
  H     -4.600400  -12.708120    1.727810
  H      0.434550   -1.513870   -4.950270
  H      1.197000   -1.278640   -3.365750
  H     -0.497290   -0.855140   -3.593340
  H     -0.441270   -6.600150   -6.081470
  H     -3.777140  -11.562740   -4.141490
  H     -0.995560  -11.491820   -8.272560

 Total Charge           Charge          ....    0
 Multiplicity           Mult            ....    1
 Number of Electrons    NEL             ....  626
 Basis Dimension        Dim             .... 1156

ORBITAL ENERGIES
----------------

  NO   OCC          E(Eh)            E(eV)
   0   2.0000    -482.876766    -13139.7448
   1   2.0000    -482.874807    -13139.6915
   2   2.0000    -482.873462    -13139.6549
   3   2.0000    -482.873368    -13139.6524
   4   2.0000     -89.012396     -2422.1504
   5   2.0000     -88.977699     -2421.2063
   6   2.0000     -88.976525     -2421.1743
   7   2.0000     -88.976024     -2421.1607
   8   2.0000     -88.974016     -2421.1061
   9   2.0000     -62.554359     -1702.1906
  10   2.0000     -62.552404     -1702.1375
  11   2.0000     -62.551093     -1702.1018
  12   2.0000     -62.550990     -1702.0990
  13   2.0000     -56.388301     -1534.4037
  14   2.0000     -56.386362     -1534.3509
  15   2.0000     -56.385665     -1534.3319
  16   2.0000     -56.385561     -1534.3291
  17   2.0000     -56.385035     -1534.3148
  18   2.0000     -56.384926     -1534.3118
  19   2.0000     -56.383698     -1534.2784
  20   2.0000     -56.383605     -1534.2759
  21   2.0000     -56.382392     -1534.2429
  22   2.0000     -56.382302     -1534.2404
  23   2.0000     -56.382294     -1534.2402
  24   2.0000     -56.382201     -1534.2377
  25   2.0000     -24.807463      -675.0454
  26   2.0000     -24.801532      -674.8840
  27   2.0000     -19.241751      -523.5947
  28   2.0000     -19.235250      -523.4178
  29   2.0000     -19.227642      -523.2107
  30   2.0000     -19.217923      -522.9463
  31   2.0000     -14.464258      -393.5925
  32   2.0000     -14.460710      -393.4959
  33   2.0000     -14.421860      -392.4388
  34   2.0000     -14.417400      -392.3174
  35   2.0000     -14.414344      -392.2342
  36   2.0000     -14.414183      -392.2299
  37   2.0000     -10.389601      -282.7154
  38   2.0000     -10.384439      -282.5749
  39   2.0000     -10.375402      -282.3291
  40   2.0000     -10.373195      -282.2690
  41   2.0000     -10.371654      -282.2271
  42   2.0000     -10.370352      -282.1916
  43   2.0000     -10.355525      -281.7882
  44   2.0000     -10.354510      -281.7605
  45   2.0000     -10.353042      -281.7206
  46   2.0000     -10.352662      -281.7103
  47   2.0000     -10.349522      -281.6248
  48   2.0000     -10.349121      -281.6139
  49   2.0000     -10.348612      -281.6000
  50   2.0000     -10.347806      -281.5781
  51   2.0000     -10.347449      -281.5684
  52   2.0000     -10.346647      -281.5466
  53   2.0000     -10.345802      -281.5236
  54   2.0000     -10.345656      -281.5196
  55   2.0000     -10.343020      -281.4479
  56   2.0000     -10.342490      -281.4334
  57   2.0000     -10.341503      -281.4066
  58   2.0000     -10.339491      -281.3519
  59   2.0000     -10.329190      -281.0715
  60   2.0000     -10.328799      -281.0609
  61   2.0000     -10.328743      -281.0594
  62   2.0000     -10.325990      -280.9845
  63   2.0000     -10.325954      -280.9835
  64   2.0000     -10.324333      -280.9394
  65   2.0000     -10.323387      -280.9136
  66   2.0000     -10.322423      -280.8874
  67   2.0000     -10.322102      -280.8787
  68   2.0000     -10.320191      -280.8267
  69   2.0000     -10.317412      -280.7511
  70   2.0000     -10.317175      -280.7446
  71   2.0000     -10.317162      -280.7443
  72   2.0000     -10.316633      -280.7298
  73   2.0000     -10.316187      -280.7177
  74   2.0000     -10.312349      -280.6133
  75   2.0000     -10.312198      -280.6092
  76   2.0000     -10.311108      -280.5795
  77   2.0000     -10.310368      -280.5594
  78   2.0000     -10.310022      -280.5500
  79   2.0000     -10.307618      -280.4845
  80   2.0000     -10.304080      -280.3883
  81   2.0000     -10.302952      -280.3576
  82   2.0000     -10.301673      -280.3228
  83   2.0000     -10.300762      -280.2980
  84   2.0000     -10.299922      -280.2751
  85   2.0000     -10.292861      -280.0830
  86   2.0000     -10.291495      -280.0458
  87   2.0000      -8.783673      -239.0159
  88   2.0000      -8.781711      -238.9625
  89   2.0000      -8.780425      -238.9275
  90   2.0000      -8.780320      -238.9247
  91   2.0000      -8.106100      -220.5782
  92   2.0000      -8.071659      -219.6410
  93   2.0000      -8.069683      -219.5872
  94   2.0000      -8.069595      -219.5849
  95   2.0000      -8.069578      -219.5844
  96   2.0000      -6.619773      -180.1332
  97   2.0000      -6.617853      -180.0809
  98   2.0000      -6.616519      -180.0446
  99   2.0000      -6.616369      -180.0405
 100   2.0000      -6.605813      -179.7533
 101   2.0000      -6.605029      -179.7320
 102   2.0000      -6.603827      -179.6993
 103   2.0000      -6.603046      -179.6780
 104   2.0000      -6.602535      -179.6641
 105   2.0000      -6.602477      -179.6625
 106   2.0000      -6.601816      -179.6446
 107   2.0000      -6.601727      -179.6421
 108   2.0000      -6.075195      -165.3144
 109   2.0000      -6.070956      -165.1991
 110   2.0000      -6.068839      -165.1415
 111   2.0000      -6.041466      -164.3966
 112   2.0000      -6.039329      -164.3385
 113   2.0000      -6.039281      -164.3372
 114   2.0000      -6.039267      -164.3368
 115   2.0000      -6.037292      -164.2831
 116   2.0000      -6.035110      -164.2237
 117   2.0000      -6.034625      -164.2105
 118   2.0000      -6.034538      -164.2081
 119   2.0000      -6.032680      -164.1576
 120   2.0000      -6.031621      -164.1288
 121   2.0000      -6.031358      -164.1216
 122   2.0000      -6.030775      -164.1057
 123   2.0000      -2.735691       -74.4419
 124   2.0000      -2.733791       -74.3902
 125   2.0000      -2.732408       -74.3526
 126   2.0000      -2.732331       -74.3505
 127   2.0000      -2.731920       -74.3393
 128   2.0000      -2.731342       -74.3236
 129   2.0000      -2.729962       -74.2860
 130   2.0000      -2.729381       -74.2702
 131   2.0000      -2.728703       -74.2518
 132   2.0000      -2.728532       -74.2471
 133   2.0000      -2.728077       -74.2347
 134   2.0000      -2.727970       -74.2318
 135   2.0000      -2.720218       -74.0209
 136   2.0000      -2.720210       -74.0207
 137   2.0000      -2.718231       -73.9668
 138   2.0000      -2.718202       -73.9660
 139   2.0000      -2.716979       -73.9328
 140   2.0000      -2.716971       -73.9326
 141   2.0000      -2.716913       -73.9310
 142   2.0000      -2.716890       -73.9303
 143   2.0000      -1.319286       -35.8996
 144   2.0000      -1.314148       -35.7598
 145   2.0000      -1.156312       -31.4648
 146   2.0000      -1.149811       -31.2879
 147   2.0000      -1.143955       -31.1286
 148   2.0000      -1.133886       -30.8546
 149   2.0000      -1.116019       -30.3684
 150   2.0000      -1.045461       -28.4484
 151   2.0000      -1.035711       -28.1831
 152   2.0000      -1.029302       -28.0087
 153   2.0000      -1.025493       -27.9051
 154   2.0000      -1.021024       -27.7835
 155   2.0000      -1.012169       -27.5425
 156   2.0000      -1.010123       -27.4868
 157   2.0000      -1.004672       -27.3385
 158   2.0000      -0.998004       -27.1571
 159   2.0000      -0.992984       -27.0205
 160   2.0000      -0.978569       -26.6282
 161   2.0000      -0.976789       -26.5798
 162   2.0000      -0.969113       -26.3709
 163   2.0000      -0.964484       -26.2449
 164   2.0000      -0.949199       -25.8290
 165   2.0000      -0.929220       -25.2854
 166   2.0000      -0.920932       -25.0598
 167   2.0000      -0.917491       -24.9662
 168   2.0000      -0.913796       -24.8656
 169   2.0000      -0.910559       -24.7776
 170   2.0000      -0.907004       -24.6808
 171   2.0000      -0.892687       -24.2912
 172   2.0000      -0.887325       -24.1453
 173   2.0000      -0.880771       -23.9670
 174   2.0000      -0.872318       -23.7370
 175   2.0000      -0.869000       -23.6467
 176   2.0000      -0.855180       -23.2706
 177   2.0000      -0.852786       -23.2055
 178   2.0000      -0.849667       -23.1206
 179   2.0000      -0.848405       -23.0863
 180   2.0000      -0.846504       -23.0346
 181   2.0000      -0.815583       -22.1931
 182   2.0000      -0.812524       -22.1099
 183   2.0000      -0.803636       -21.8680
 184   2.0000      -0.798397       -21.7255
 185   2.0000      -0.795204       -21.6386
 186   2.0000      -0.790347       -21.5064
 187   2.0000      -0.781702       -21.2712
 188   2.0000      -0.770080       -20.9549
 189   2.0000      -0.767174       -20.8759
 190   2.0000      -0.762227       -20.7413
 191   2.0000      -0.743273       -20.2255
 192   2.0000      -0.734914       -19.9980
 193   2.0000      -0.711043       -19.3485
 194   2.0000      -0.708519       -19.2798
 195   2.0000      -0.698168       -18.9981
 196   2.0000      -0.696315       -18.9477
 197   2.0000      -0.692430       -18.8420
 198   2.0000      -0.685998       -18.6670
 199   2.0000      -0.682439       -18.5701
 200   2.0000      -0.676475       -18.4078
 201   2.0000      -0.675383       -18.3781
 202   2.0000      -0.671647       -18.2765
 203   2.0000      -0.665476       -18.1085
 204   2.0000      -0.663949       -18.0670
 205   2.0000      -0.655243       -17.8301
 206   2.0000      -0.643318       -17.5056
 207   2.0000      -0.641005       -17.4426
 208   2.0000      -0.632074       -17.1996
 209   2.0000      -0.624045       -16.9811
 210   2.0000      -0.620400       -16.8819
 211   2.0000      -0.617745       -16.8097
 212   2.0000      -0.613629       -16.6977
 213   2.0000      -0.599717       -16.3191
 214   2.0000      -0.593618       -16.1532
 215   2.0000      -0.590748       -16.0751
 216   2.0000      -0.584990       -15.9184
 217   2.0000      -0.583422       -15.8757
 218   2.0000      -0.579361       -15.7652
 219   2.0000      -0.578303       -15.7364
 220   2.0000      -0.575249       -15.6533
 221   2.0000      -0.574519       -15.6334
 222   2.0000      -0.571782       -15.5590
 223   2.0000      -0.569642       -15.5008
 224   2.0000      -0.557752       -15.1772
 225   2.0000      -0.552367       -15.0307
 226   2.0000      -0.550383       -14.9767
 227   2.0000      -0.549635       -14.9563
 228   2.0000      -0.548235       -14.9182
 229   2.0000      -0.545969       -14.8566
 230   2.0000      -0.542033       -14.7495
 231   2.0000      -0.540523       -14.7084
 232   2.0000      -0.537259       -14.6196
 233   2.0000      -0.535280       -14.5657
 234   2.0000      -0.533277       -14.5112
 235   2.0000      -0.530425       -14.4336
 236   2.0000      -0.528624       -14.3846
 237   2.0000      -0.524606       -14.2753
 238   2.0000      -0.523023       -14.2322
 239   2.0000      -0.521593       -14.1933
 240   2.0000      -0.519571       -14.1383
 241   2.0000      -0.517979       -14.0949
 242   2.0000      -0.516087       -14.0435
 243   2.0000      -0.514924       -14.0118
 244   2.0000      -0.510001       -13.8778
 245   2.0000      -0.508189       -13.8285
 246   2.0000      -0.506707       -13.7882
 247   2.0000      -0.503533       -13.7018
 248   2.0000      -0.502748       -13.6805
 249   2.0000      -0.501071       -13.6348
 250   2.0000      -0.498515       -13.5653
 251   2.0000      -0.495231       -13.4759
 252   2.0000      -0.492403       -13.3990
 253   2.0000      -0.492104       -13.3908
 254   2.0000      -0.486745       -13.2450
 255   2.0000      -0.485455       -13.2099
 256   2.0000      -0.483414       -13.1544
 257   2.0000      -0.476312       -12.9611
 258   2.0000      -0.472002       -12.8438
 259   2.0000      -0.469321       -12.7709
 260   2.0000      -0.464080       -12.6283
 261   2.0000      -0.462262       -12.5788
 262   2.0000      -0.461961       -12.5706
 263   2.0000      -0.459862       -12.5135
 264   2.0000      -0.456674       -12.4267
 265   2.0000      -0.455835       -12.4039
 266   2.0000      -0.453754       -12.3473
 267   2.0000      -0.449952       -12.2438
 268   2.0000      -0.449053       -12.2194
 269   2.0000      -0.446735       -12.1563
 270   2.0000      -0.442785       -12.0488
 271   2.0000      -0.440201       -11.9785
 272   2.0000      -0.438593       -11.9347
 273   2.0000      -0.435283       -11.8447
 274   2.0000      -0.433487       -11.7958
 275   2.0000      -0.431679       -11.7466
 276   2.0000      -0.430122       -11.7042
 277   2.0000      -0.426511       -11.6059
 278   2.0000      -0.425357       -11.5746
 279   2.0000      -0.423101       -11.5132
 280   2.0000      -0.420253       -11.4357
 281   2.0000      -0.417503       -11.3608
 282   2.0000      -0.413237       -11.2447
 283   2.0000      -0.412538       -11.2257
 284   2.0000      -0.405276       -11.0281
 285   2.0000      -0.399430       -10.8690
 286   2.0000      -0.397342       -10.8122
 287   2.0000      -0.394494       -10.7347
 288   2.0000      -0.393195       -10.6994
 289   2.0000      -0.389370       -10.5953
 290   2.0000      -0.387514       -10.5448
 291   2.0000      -0.380650       -10.3580
 292   2.0000      -0.378334       -10.2950
 293   2.0000      -0.375510       -10.2181
 294   2.0000      -0.369489       -10.0543
 295   2.0000      -0.361148        -9.8273
 296   2.0000      -0.358191        -9.7469
 297   2.0000      -0.350166        -9.5285
 298   2.0000      -0.347145        -9.4463
 299   2.0000      -0.346447        -9.4273
 300   2.0000      -0.343308        -9.3419
 301   2.0000      -0.342085        -9.3086
 302   2.0000      -0.336330        -9.1520
 303   2.0000      -0.335647        -9.1334
 304   2.0000      -0.330959        -9.0059
 305   2.0000      -0.328737        -8.9454
 306   2.0000      -0.324157        -8.8208
 307   2.0000      -0.316758        -8.6194
 308   2.0000      -0.314580        -8.5601
 309   2.0000      -0.309851        -8.4315
 310   2.0000      -0.304405        -8.2833
 311   2.0000      -0.280281        -7.6268
 312   2.0000      -0.243073        -6.6144
 313   0.0000      -0.129445        -3.5224
 314   0.0000      -0.104445        -2.8421
 315   0.0000      -0.085453        -2.3253
 316   0.0000      -0.082428        -2.2430
 317   0.0000      -0.067979        -1.8498

MULLIKEN ATOMIC CHARGES
-----------------------
   0 C :    0.171333
   1 O :   -0.167516
   2 C :   -0.016387
   3 C :    0.033692
   4 C :   -0.010692
   5 C :   -0.026160
   6 C :   -0.015203
   7 C :   -0.017202
   8 Br:    0.012216
   9 Br:    0.020672
  10 C :    0.316911
  11 C :   -0.346278
  12 C :   -0.187427
  13 N :    0.155717
  14 C :   -0.185804
  15 N :    0.145850
  16 C :   -0.097134
  17 C :   -0.049266
  18 C :   -0.091031
  19 C :   -0.057034
  20 C :    0.080859
  21 C :    0.230820
  22 C :   -0.302985
  23 S :    0.166457
  24 C :    0.118744
  25 F :   -0.187791
  26 C :   -0.105417
  27 S :    0.265798
  28 C :   -0.183109
  29 C :    0.053076
  30 C :    0.021948
  31 N :    0.028252
  32 C :   -0.101112
  33 C :    0.172065
  34 O :   -0.126301
  35 C :   -0.010525
  36 C :   -0.014431
  37 C :    0.140247
  38 O :   -0.089837
  39 C :   -0.119037
  40 N :    0.066221
  41 C :   -0.120272
  42 S :    0.259278
  43 C :   -0.129154
  44 C :   -0.057219
  45 C :    0.158574
  46 C :    0.236764
  47 C :   -0.301516
  48 S :    0.146676
  49 C :    0.114414
  50 F :   -0.178736
  51 C :   -0.159352
  52 S :    0.198023
  53 C :    0.049114
  54 C :   -0.139296
  55 C :    0.141844
  56 O :   -0.134787
  57 C :    0.003896
  58 C :    0.011608
  59 C :    0.242428
  60 C :   -0.302873
  61 C :   -0.204291
  62 N :    0.168651
  63 C :   -0.176419
  64 N :    0.158081
  65 C :    0.008766
  66 C :   -0.019257
  67 C :   -0.017036
  68 C :   -0.027018
  69 Br:    0.007786
  70 Br:    0.009347
  71 H :    0.007165
  72 H :    0.006483
  73 H :    0.008677
  74 H :    0.034899
  75 H :    0.042316
  76 H :    0.044841
  77 H :    0.022070
  78 H :    0.022257
  79 H :    0.040899
  80 H :    0.041229
  81 H :    0.045966
  82 H :    0.028087
  83 H :    0.007562
  84 H :    0.006324
Sum of atomic charges:   -0.0000000

LOEWDIN ATOMIC CHARGES
----------------------
   0 C :    0.084745
   1 O :   -0.153217
   2 C :   -0.040467
   3 C :   -0.010453
   4 C :   -0.007474
   5 C :   -0.119566
   6 C :   -0.123875
   7 C :    0.006800
   8 Br:    0.136344
   9 Br:    0.140704
  10 C :    0.073920
  11 C :   -0.138394
  12 C :   -0.020194
  13 N :   -0.047917
  14 C :   -0.020834
  15 N :   -0.051035
  16 C :   -0.109614
  17 C :    0.049062
  18 C :   -0.206828
  19 C :   -0.159554
  20 C :   -0.105217
  21 C :    0.026849
  22 C :   -0.188065
  23 S :    0.436860
  24 C :   -0.055249
  25 F :   -0.066193
  26 C :   -0.167124
  27 S :    0.567279
  28 C :   -0.198640
  29 C :   -0.039381
  30 C :   -0.047683
  31 N :   -0.010934
  32 C :   -0.033101
  33 C :    0.070139
  34 O :   -0.106248
  35 C :   -0.009018
  36 C :   -0.005477
  37 C :    0.056464
  38 O :   -0.087096
  39 C :   -0.031604
  40 N :    0.000943
  41 C :   -0.193066
  42 S :    0.537705
  43 C :   -0.181283
  44 C :   -0.185602
  45 C :   -0.062355
  46 C :    0.037198
  47 C :   -0.178583
  48 S :    0.407116
  49 C :   -0.055507
  50 F :   -0.055615
  51 C :   -0.179744
  52 S :    0.545617
  53 C :    0.046641
  54 C :   -0.091885
  55 C :    0.082720
  56 O :   -0.135677
  57 C :   -0.043927
  58 C :   -0.004428
  59 C :    0.059379
  60 C :   -0.134424
  61 C :   -0.033967
  62 N :   -0.051718
  63 C :   -0.016882
  64 N :   -0.058471
  65 C :   -0.001500
  66 C :   -0.119974
  67 C :   -0.125061
  68 C :    0.003861
  69 Br:    0.132350
  70 Br:    0.134481
  71 H :    0.044536
  72 H :    0.046579
  73 H :    0.044619
  74 H :    0.043196
  75 H :    0.042702
  76 H :    0.043775
  77 H :    0.048832
  78 H :    0.047955
  79 H :    0.045880
  80 H :    0.042358
  81 H :    0.044320
  82 H :    0.051449
  83 H :    0.041035
  84 H :    0.045707

  Mayer bond orders larger than 0.100000
B(  0-C ,  1-O ) :   2.1313 B(  0-C ,  2-C ) :   0.9562 B(  0-C , 16-C ) :   0.9828
B(  2-C ,  3-C ) :   1.3287 B(  2-C ,  7-C ) :   1.3758 B(  3-C ,  4-C ) :   1.3712
B(  3-C , 10-C ) :   0.9861 B(  4-C ,  5-C ) :   1.3635 B(  4-C , 71-H ) :   0.9798
B(  5-C ,  6-C ) :   1.4271 B(  5-C ,  9-Br) :   1.0576 B(  6-C ,  7-C ) :   1.3443
B(  6-C ,  8-Br) :   1.0315 B(  7-C , 72-H ) :   1.0088 B( 10-C , 11-C ) :   1.6257
B( 10-C , 16-C ) :   1.0942 B( 11-C , 12-C ) :   1.1422 B( 11-C , 14-C ) :   1.1464
B( 12-C , 13-N ) :   2.9685 B( 14-C , 15-N ) :   2.9590 B( 16-C , 17-C ) :   1.4893
B( 17-C , 18-C ) :   1.2959 B( 17-C , 73-H ) :   0.9420 B( 18-C , 19-C ) :   1.3585
B( 18-C , 27-S ) :   1.0801 B( 19-C , 20-C ) :   1.3014 B( 19-C , 23-S ) :   1.0975
B( 20-C , 21-C ) :   1.0865 B( 20-C , 26-C ) :   1.2786 B( 21-C , 22-C ) :   1.6504
B( 21-C , 25-F ) :   1.1317 B( 22-C , 23-S ) :   1.0670 B( 22-C , 24-C ) :   1.0653
B( 24-C , 74-H ) :   0.9556 B( 24-C , 75-H ) :   0.9476 B( 24-C , 76-H ) :   0.9482
B( 26-C , 27-S ) :   1.1463 B( 26-C , 28-C ) :   1.2679 B( 28-C , 29-C ) :   1.2830
B( 28-C , 41-C ) :   0.1144 B( 28-C , 42-S ) :   1.1582 B( 29-C , 30-C ) :   1.2109
B( 29-C , 40-N ) :   1.4419 B( 30-C , 31-N ) :   1.4199 B( 30-C , 41-C ) :   1.2762
B( 31-N , 32-C ) :   1.6860 B( 32-C , 33-C ) :   0.9109 B( 32-C , 39-C ) :   1.1209
B( 33-C , 34-O ) :   2.1534 B( 33-C , 35-C ) :   1.0334 B( 35-C , 36-C ) :   1.6746
B( 35-C , 77-H ) :   1.0000 B( 36-C , 37-C ) :   1.0196 B( 36-C , 78-H ) :   0.9971
B( 37-C , 38-O ) :   2.2594 B( 37-C , 39-C ) :   0.8907 B( 39-C , 40-N ) :   1.6974
B( 41-C , 42-S ) :   1.1533 B( 41-C , 43-C ) :   1.2736 B( 43-C , 44-C ) :   1.4352
B( 43-C , 52-S ) :   1.1623 B( 44-C , 45-C ) :   1.2724 B( 44-C , 48-S ) :   1.0515
B( 45-C , 46-C ) :   1.0975 B( 45-C , 51-C ) :   1.3399 B( 46-C , 47-C ) :   1.6388
B( 46-C , 50-F ) :   1.1459 B( 47-C , 48-S ) :   1.0607 B( 47-C , 49-C ) :   1.0672
B( 49-C , 79-H ) :   0.9548 B( 49-C , 80-H ) :   0.9477 B( 49-C , 81-H ) :   0.9474
B( 51-C , 52-S ) :   1.0851 B( 51-C , 53-C ) :   1.1676 B( 53-C , 54-C ) :   1.6177
B( 53-C , 82-H ) :   0.9524 B( 54-C , 55-C ) :   0.9462 B( 54-C , 59-C ) :   1.0345
B( 55-C , 56-O ) :   2.2797 B( 55-C , 57-C ) :   0.9159 B( 57-C , 58-C ) :   1.3265
B( 57-C , 68-C ) :   1.3737 B( 58-C , 59-C ) :   1.0094 B( 58-C , 65-C ) :   1.3839
B( 59-C , 60-C ) :   1.6697 B( 60-C , 61-C ) :   1.1494 B( 60-C , 63-C ) :   1.1479
B( 61-C , 62-N ) :   3.0200 B( 63-C , 64-N ) :   2.9793 B( 65-C , 66-C ) :   1.3634
B( 65-C , 83-H ) :   0.9762 B( 66-C , 67-C ) :   1.4218 B( 66-C , 70-Br) :   1.0441
B( 67-C , 68-C ) :   1.3578 B( 67-C , 69-Br) :   1.0294 B( 68-C , 84-H ) :   1.0076

-----------------------------------------------------------------------------
         ABSORPTION SPECTRUM VIA TRANSITION ELECTRIC DIPOLE MOMENTS
-----------------------------------------------------------------------------
State   Energy  Wavelength   fosc         T2         TX        TY        TZ
        (cm-1)    (nm)                  (au**2)     (au)      (au)      (au)
-----------------------------------------------------------------------------
   0    9390.6   1064.9   0.706646016  24.77341   0.12922  -0.12494  -4.97404
   1   14741.9    678.3   0.074623799   1.66648   0.00282   0.13156   1.28420
   2   17461.3    572.7   0.015422946   0.29078  -0.33340  -0.41329   0.09390
   3   18315.9    546.0   0.282419220   5.07624  -0.52938  -0.48941  -2.13459
   4   19655.6    508.8   0.298250226   4.99539  -0.66359  -1.61468   1.39566
   5   21332.7    468.8   0.030473353   0.47027  -0.15143   0.65741  -0.12312
   6   22539.7    443.7   0.035084735   0.51244  -0.02115   0.56508  -0.43895
   7   23048.7    433.9   0.051348640   0.73343   0.38072   0.51348  -0.56993
   8   23720.5    421.6   0.006412682   0.08900   0.29187  -0.06144  -0.00600
   9   24250.7    412.4   0.044039338   0.59785  -0.10762   0.03864  -0.76471
  10   24460.6    408.8   0.083571460   1.12478  -0.23691  -0.90402   0.50139
  11   24702.9    404.8   0.123574780   1.64687  -0.30154   0.85526   0.90800
  12   25063.4    399.0   0.005875924   0.07718   0.11119   0.10163  -0.23343
  13   26063.7    383.7   0.011772889   0.14870   0.16653  -0.13719  -0.31961
  14   26520.1    377.1   0.010859490   0.13481  -0.02310  -0.11166   0.34900
  15   26866.9    372.2   0.024097552   0.29528  -0.16116   0.51259   0.08096
  16   27360.6    365.5   0.111935805   1.34685   0.05907   1.06331   0.46122
  17   27615.2    362.1   0.047079364   0.56125   0.36823  -0.46074  -0.46193
  18   28120.1    355.6   0.099526835   1.16519   0.56155   0.81534  -0.43020
  19   28368.8    352.5   0.022299683   0.25878   0.06293   0.43440   0.25713
  20   28809.7    347.1   0.035011859   0.40008  -0.14977   0.49640   0.36227
  21   29112.2    343.5   0.046899053   0.53035  -0.46957  -0.49395  -0.25665
  22   29254.6    341.8   0.089503331   1.00721  -0.25419  -0.78682   0.56878
  23   29918.5    334.2   0.008131607   0.08948  -0.25967  -0.14760   0.01625
  24   30280.0    330.3   0.090067649   0.97924   0.00780  -0.88467   0.44332
  25   30703.2    325.7   0.196560480   2.10760   0.19417   1.32847   0.55233
  26   30890.2    323.7   0.014414172   0.15362  -0.05948   0.33016   0.20268
  27   31027.6    322.3   0.029064562   0.30838   0.36266   0.17292  -0.38335
  28   31734.6    315.1   0.049803235   0.51665  -0.31402   0.13120   0.63311
  29   31939.2    313.1   0.000769950   0.00794  -0.00925   0.05572  -0.06889
  30   32275.0    309.8   0.008300444   0.08467   0.05029  -0.19070   0.21394
  31   32323.4    309.4   0.012191759   0.12417   0.14386  -0.30254  -0.10930
  32   32414.7    308.5   0.004958588   0.05036   0.06120  -0.05469  -0.20887
  33   32538.1    307.3   0.044330269   0.44852   0.31321   0.40620   0.43061
  34   32839.8    304.5   0.004389224   0.04400  -0.02897   0.20476   0.03513
  35   32947.0    303.5   0.065087400   0.65036   0.43799   0.09278  -0.67076
  36   33006.8    303.0   0.066615029   0.66442   0.38682  -0.70920  -0.10880
  37   33368.0    299.7   0.093061213   0.91815   0.02075  -0.89186  -0.34974
  38   33649.0    297.2   0.217697271   2.12989  -0.43468   1.29988   0.50125
  39   33766.4    296.2   0.073709990   0.71865   0.28123   0.69222  -0.40048
  40   34216.5    292.3   0.174041692   1.67453  -0.78348   0.30722   0.98301
  41   34313.2    291.4   0.161824488   1.55260   0.45205   1.14098  -0.21544
  42   34409.6    290.6   0.808904542   7.73915   0.02246   2.45568   1.30701
  43   34531.3    289.6   0.084466313   0.80528   0.62590   0.49527  -0.41016
  44   34862.4    286.8   0.037240699   0.35167   0.35822  -0.20140  -0.42754
  45   34970.8    286.0   0.001561125   0.01470   0.09455  -0.00799  -0.07546
  46   35084.9    285.0   0.309083979   2.90023   0.31261  -1.48280  -0.77705
  47   35203.1    284.1   0.038956619   0.36431  -0.13383   0.58810   0.02320
  48   35375.4    282.7   0.055322304   0.51484  -0.09754   0.53836   0.46422
  49   35776.9    279.5   0.037426587   0.34439   0.20901   0.10008  -0.53916
  50   35937.8    278.3   0.008228298   0.07538  -0.07037   0.26331   0.03301
  51   36206.4    276.2   0.006917111   0.06289  -0.15839   0.05020   0.18785
  52   36259.8    275.8   0.002263348   0.02055  -0.00490  -0.13883  -0.03537
  53   36375.3    274.9   0.004561164   0.04128  -0.04771  -0.07666   0.18201
  54   36460.5    274.3   0.058963928   0.53240   0.04916   0.52040  -0.50909
  55   36907.3    270.9   0.006942411   0.06193  -0.01226  -0.10814   0.22379
  56   36985.5    270.4   0.060935953   0.54240  -0.13874  -0.42730   0.58358
  57   37279.3    268.2   0.049109014   0.43368  -0.14764   0.64098   0.03208
  58   37309.9    268.0   0.035328827   0.31173  -0.03683  -0.28093   0.48110
  59   37586.5    266.1   0.026163440   0.22916   0.17686   0.39532  -0.20397
  60   37786.7    264.6   0.006909232   0.06020   0.20742   0.12989  -0.01736
  61   37992.7    263.2   0.005314574   0.04605  -0.10079   0.17682   0.06804
  62   38250.8    261.4   0.111559860   0.96016  -0.25221  -0.87839   0.35353
  63   38285.5    261.2   0.030791732   0.26477  -0.03480  -0.45898  -0.22999
  64   38475.9    259.9   0.125814169   1.07651   0.57648   0.81562  -0.28095
  65   38668.9    258.6   0.030838945   0.26255   0.00328   0.05312  -0.50963
  66   38858.7    257.3   0.032800089   0.27788   0.17738  -0.21992  -0.44503
  67   38999.3    256.4   0.030448968   0.25703  -0.09183   0.20481   0.45460
  68   39011.1    256.3   0.053409630   0.45072  -0.27900   0.51546  -0.32739
  69   39278.6    254.6   0.050175147   0.42054  -0.32829  -0.44221   0.34237
  70   39435.0    253.6   0.024589203   0.20528  -0.34587  -0.24654   0.15770
  71   39653.0    252.2   0.020281895   0.16839  -0.21699  -0.32153  -0.13388
  72   39806.4    251.2   0.021169247   0.17508  -0.20247  -0.21586   0.29579
  73   39884.2    250.7   0.119139518   0.98340  -0.08584  -0.92668  -0.34247
  74   40131.7    249.2   0.061309866   0.50294  -0.18238  -0.68300   0.05650
  75   40240.1    248.5   0.000234809   0.00192  -0.00187  -0.02392  -0.03668
  76   40284.8    248.2   0.021267582   0.17380  -0.02062   0.11979  -0.39878

FINAL SINGLE POINT ENERGY    -15025.531335944286

DIPOLE MOMENT
-------------
                                X             Y             Z
Electronic contribution:     -4.57837    -205.19824      20.86774
Nuclear contribution   :      6.40801     206.08597     -21.87451
                        -----------------------------------------
Total Dipole Moment    :      1.82964       0.88773      -1.00677
                        -----------------------------------------
Magnitude (a.u.)       :      2.26919
Magnitude (Debye)      :      5.76782

Rotational constants in cm-1:     0.000841     0.000300     0.000229
Rotational constants in MHz :    25.224506     8.991537     6.854401

                             ****ORCA TERMINATED NORMALLY****
TOTAL RUN TIME: 0 days 0 hours 11 minutes 55 seconds 791 msec
