                         Program Version 4.2.0 -  RELEASE  -
|  1> # ORCA input file
|  2> # SCF done       -198.765615585943          0.000475976718
|  3> ! CAM-B3LYP def2-SVP def2/J RIJCOSX Grid4 TightSCF
|  4> %maxcore 5000
|  5> %tddft
|  6>     Mode sTDDFT
|  7>     Ethresh 5.0
|  8>     maxcore 5000
|  9> end
| 10>
| 11> %pal
| 12>   nprocs 6
| 13>   end
| 14> * xyz 0 1
| 15>    C        0.68723         0.85196        -0.48116
| 16>    C        0.10953         1.34442         0.66017
| 17>    C        0.49785         0.96173         1.96158
| 18>    N        0.77110         0.67868         3.03936
| 19>    C       -0.99677         2.21513         0.66361
| 20>    N       -1.90848         2.91225         0.70269
| 21>    C        1.67982        -0.21656        -0.52016
| 22>    C        1.65449        -0.81342        -1.81495
| 23>    C        2.45995        -1.86912        -2.13249
| 24>    C        3.35401        -2.37023        -1.15945
| 25>    C        3.40204        -1.75983         0.12770
| 26>    C        2.54677        -0.67623         0.43364
| 27>    C        4.31175        -2.25795         1.08221
| 28>    C        5.13241        -3.31151         0.78377
| 29>    C        5.08134        -3.91488        -0.48171
| 30>    C        4.21084        -3.45478        -1.43229
| 31>    C        0.69051        -0.09309        -2.66282
| 32>    O        0.35423        -0.33963        -3.79777
| 33>    C        0.24810         1.07655        -1.84341
| 34>    C       -0.34881         2.12345        -2.47444
| 35>    C       -0.49816         3.45555        -2.02584
| 36>    C        0.18564         4.11372        -1.01431
| 37>    C       -0.21422         5.43694        -0.88393
| 38>    C       -1.20663         5.80539        -1.81344
| 39>    S       -1.63200         4.52155        -2.84652
| 40>    C       -1.54416         7.16352        -1.58727
| 41>    C       -0.77668         7.64751        -0.51174
| 42>    C        0.07577         6.57340        -0.02636
| 43>    C        0.94373         6.59781         1.02443
| 44>    C        1.15173         7.74755         1.81621
| 45>    N        1.33087         8.67823         2.46047
| 46>    C        1.69435         5.45652         1.38075
| 47>    N        2.30412         4.52451         1.65322
| 48>    C       -1.02852         8.98644        -0.21868
| 49>    C       -1.97845         9.52627        -1.06970
| 50>    S       -2.57519         8.35797        -2.23746
| 51>    C       -2.46291        10.86109        -1.09168
| 52>    C       -2.11802        11.91359        -0.26252
| 53>    F       -1.24525        11.80391         0.74139
| 54>    C       -2.76508        13.11716        -0.57215
| 55>    F       -2.55760        14.24251         0.11462
| 56>    C       -3.62830        13.02926        -1.64977
| 57>    S       -3.62219        11.40385        -2.26834
| 58>    C       -4.41926        14.05481        -2.23249
| 59>    C       -4.48525        15.38667        -1.85736
| 60>    C       -5.35864        16.10792        -2.66924
| 61>    C       -5.96273        15.31887        -3.66484
| 62>    S       -5.45429        13.68933        -3.60245
| 63>    C       -6.82434        16.13759        -4.43320
| 64>    C       -6.76245        17.45421        -3.92470
| 65>    C       -5.84839        17.47385        -2.79340
| 66>    C       -5.52641        18.53715        -2.00504
| 67>    C       -6.08739        19.82294        -2.17446
| 68>    N       -6.53476        20.87363        -2.26865
| 69>    C       -4.61132        18.43144        -0.93418
| 70>    N       -3.86657        18.36086        -0.06584
| 71>    C       -7.55899        18.34901        -4.62648
| 72>    C       -8.24003        17.73674        -5.67093
| 73>    S       -7.87824        16.00526        -5.75869
| 74>    C       -9.17553        18.21367        -6.61274
| 75>    C       -9.57437        19.48536        -6.91691
| 76>    C      -10.63075        19.79649        -7.86898
| 77>    C      -11.52926        18.91883        -8.41972
| 78>    C      -12.54061        19.29320        -9.33015
| 79>    N      -13.38109        19.52314       -10.07748
| 80>    C      -11.61172        17.53583        -8.15395
| 81>    N      -11.76209        16.40988        -7.98124
| 82>    C      -10.62506        21.23713        -8.09074
| 83>    C       -9.63278        21.81838        -7.25277
| 84>    C       -8.95782        20.76522        -6.47876
| 85>    O       -8.05544        20.93279        -5.68594
| 86>    C       -9.39938        23.16321        -7.22960
| 87>    C      -10.16499        24.00772        -8.06366
| 88>    C      -11.15674        23.43467        -8.91150
| 89>    C      -11.37443        22.03773        -8.91253
| 90>    C      -11.91314        24.28616        -9.74243
| 91>    C      -11.70251        25.63823        -9.73631
| 92>    C      -10.72622        26.20109        -8.90066
| 93>    C       -9.97387        25.40322        -8.08184
| 94>    H        2.41972        -2.31457        -3.11539
| 95>    H        2.60992        -0.22367         1.41098
| 96>    H        4.34475        -1.79215         2.05604
| 97>    H        5.82560        -3.68622         1.52183
| 98>    H        5.73588        -4.74532        -0.70016
| 99>    H        4.16800        -3.91489        -2.40867
|100>    H       -0.68837         1.91555        -3.48464
|101>    H        0.96729         3.65273        -0.43909
|102>    H       -0.54919         9.54495         0.56392
|103>    H       -3.92255        15.79825        -1.04013
|104>    H       -7.64698        19.39982        -4.41730
|105>    H       -9.63604        17.41799        -7.18705
|106>    H       -8.64132        23.57545        -6.58035
|107>    H      -12.12933        21.63718        -9.56998
|108>    H      -12.66462        23.84858       -10.38315
|109>    H      -12.28781        26.28199       -10.37562
|110>    H      -10.57331        27.26989        -8.90904
|111>    H       -9.22084        25.83036        -7.43596
|112> *
|113>
|114>                          ****END OF INPUT****

CARTESIAN COORDINATES (ANGSTROEM)
---------------------------------
  C      0.687230    0.851960   -0.481160
  C      0.109530    1.344420    0.660170
  C      0.497850    0.961730    1.961580
  N      0.771100    0.678680    3.039360
  C     -0.996770    2.215130    0.663610
  N     -1.908480    2.912250    0.702690
  C      1.679820   -0.216560   -0.520160
  C      1.654490   -0.813420   -1.814950
  C      2.459950   -1.869120   -2.132490
  C      3.354010   -2.370230   -1.159450
  C      3.402040   -1.759830    0.127700
  C      2.546770   -0.676230    0.433640
  C      4.311750   -2.257950    1.082210
  C      5.132410   -3.311510    0.783770
  C      5.081340   -3.914880   -0.481710
  C      4.210840   -3.454780   -1.432290
  C      0.690510   -0.093090   -2.662820
  O      0.354230   -0.339630   -3.797770
  C      0.248100    1.076550   -1.843410
  C     -0.348810    2.123450   -2.474440
  C     -0.498160    3.455550   -2.025840
  C      0.185640    4.113720   -1.014310
  C     -0.214220    5.436940   -0.883930
  C     -1.206630    5.805390   -1.813440
  S     -1.632000    4.521550   -2.846520
  C     -1.544160    7.163520   -1.587270
  C     -0.776680    7.647510   -0.511740
  C      0.075770    6.573400   -0.026360
  C      0.943730    6.597810    1.024430
  C      1.151730    7.747550    1.816210
  N      1.330870    8.678230    2.460470
  C      1.694350    5.456520    1.380750
  N      2.304120    4.524510    1.653220
  C     -1.028520    8.986440   -0.218680
  C     -1.978450    9.526270   -1.069700
  S     -2.575190    8.357970   -2.237460
  C     -2.462910   10.861090   -1.091680
  C     -2.118020   11.913590   -0.262520
  F     -1.245250   11.803910    0.741390
  C     -2.765080   13.117160   -0.572150
  F     -2.557600   14.242510    0.114620
  C     -3.628300   13.029260   -1.649770
  S     -3.622190   11.403850   -2.268340
  C     -4.419260   14.054810   -2.232490
  C     -4.485250   15.386670   -1.857360
  C     -5.358640   16.107920   -2.669240
  C     -5.962730   15.318870   -3.664840
  S     -5.454290   13.689330   -3.602450
  C     -6.824340   16.137590   -4.433200
  C     -6.762450   17.454210   -3.924700
  C     -5.848390   17.473850   -2.793400
  C     -5.526410   18.537150   -2.005040
  C     -6.087390   19.822940   -2.174460
  N     -6.534760   20.873630   -2.268650
  C     -4.611320   18.431440   -0.934180
  N     -3.866570   18.360860   -0.065840
  C     -7.558990   18.349010   -4.626480
  C     -8.240030   17.736740   -5.670930
  S     -7.878240   16.005260   -5.758690
  C     -9.175530   18.213670   -6.612740
  C     -9.574370   19.485360   -6.916910
  C    -10.630750   19.796490   -7.868980
  C    -11.529260   18.918830   -8.419720
  C    -12.540610   19.293200   -9.330150
  N    -13.381090   19.523140  -10.077480
  C    -11.611720   17.535830   -8.153950
  N    -11.762090   16.409880   -7.981240
  C    -10.625060   21.237130   -8.090740
  C     -9.632780   21.818380   -7.252770
  C     -8.957820   20.765220   -6.478760
  O     -8.055440   20.932790   -5.685940
  C     -9.399380   23.163210   -7.229600
  C    -10.164990   24.007720   -8.063660
  C    -11.156740   23.434670   -8.911500
  C    -11.374430   22.037730   -8.912530
  C    -11.913140   24.286160   -9.742430
  C    -11.702510   25.638230   -9.736310
  C    -10.726220   26.201090   -8.900660
  C     -9.973870   25.403220   -8.081840
  H      2.419720   -2.314570   -3.115390
  H      2.609920   -0.223670    1.410980
  H      4.344750   -1.792150    2.056040
  H      5.825600   -3.686220    1.521830
  H      5.735880   -4.745320   -0.700160
  H      4.168000   -3.914890   -2.408670
  H     -0.688370    1.915550   -3.484640
  H      0.967290    3.652730   -0.439090
  H     -0.549190    9.544950    0.563920
  H     -3.922550   15.798250   -1.040130
  H     -7.646980   19.399820   -4.417300
  H     -9.636040   17.417990   -7.187050
  H     -8.641320   23.575450   -6.580350
  H    -12.129330   21.637180   -9.569980
  H    -12.664620   23.848580  -10.383150
  H    -12.287810   26.281990  -10.375620
  H    -10.573310   27.269890   -8.909040
  H     -9.220840   25.830360   -7.435960

 Total Charge           Charge          ....    0
 Multiplicity           Mult            ....    1
 Number of Electrons    NEL             ....  560
 Basis Dimension        Dim             .... 1216

ORBITAL ENERGIES
----------------

  NO   OCC          E(Eh)            E(eV)
   0   2.0000     -89.005323     -2421.9580
   1   2.0000     -89.004569     -2421.9374
   2   2.0000     -89.000555     -2421.8282
   3   2.0000     -89.000020     -2421.8137
   4   2.0000     -88.998945     -2421.7844
   5   2.0000     -24.820312      -675.3950
   6   2.0000     -24.819572      -675.3749
   7   2.0000     -19.219286      -522.9834
   8   2.0000     -19.216645      -522.9115
   9   2.0000     -14.437851      -392.8739
  10   2.0000     -14.436082      -392.8258
  11   2.0000     -14.436067      -392.8253
  12   2.0000     -14.433104      -392.7447
  13   2.0000     -14.419668      -392.3791
  14   2.0000     -14.418740      -392.3539
  15   2.0000     -14.414610      -392.2415
  16   2.0000     -14.414104      -392.2277
  17   2.0000     -10.394525      -282.8494
  18   2.0000     -10.393583      -282.8238
  19   2.0000     -10.373615      -282.2804
  20   2.0000     -10.373516      -282.2777
  21   2.0000     -10.370585      -282.1980
  22   2.0000     -10.368146      -282.1316
  23   2.0000     -10.359794      -281.9043
  24   2.0000     -10.359330      -281.8917
  25   2.0000     -10.350864      -281.6613
  26   2.0000     -10.349385      -281.6211
  27   2.0000     -10.347878      -281.5801
  28   2.0000     -10.347777      -281.5773
  29   2.0000     -10.347200      -281.5616
  30   2.0000     -10.347148      -281.5602
  31   2.0000     -10.345126      -281.5052
  32   2.0000     -10.344615      -281.4913
  33   2.0000     -10.344163      -281.4790
  34   2.0000     -10.343893      -281.4716
  35   2.0000     -10.342735      -281.4401
  36   2.0000     -10.342164      -281.4246
  37   2.0000     -10.337794      -281.3057
  38   2.0000     -10.335668      -281.2478
  39   2.0000     -10.335601      -281.2460
  40   2.0000     -10.332366      -281.1580
  41   2.0000     -10.331981      -281.1475
  42   2.0000     -10.331925      -281.1460
  43   2.0000     -10.330011      -281.0939
  44   2.0000     -10.327443      -281.0240
  45   2.0000     -10.321913      -280.8735
  46   2.0000     -10.320770      -280.8424
  47   2.0000     -10.319430      -280.8060
  48   2.0000     -10.317838      -280.7627
  49   2.0000     -10.317207      -280.7455
  50   2.0000     -10.316446      -280.7248
  51   2.0000     -10.315909      -280.7101
  52   2.0000     -10.313403      -280.6420
  53   2.0000     -10.313150      -280.6351
  54   2.0000     -10.312744      -280.6240
  55   2.0000     -10.312423      -280.6153
  56   2.0000     -10.309746      -280.5424
  57   2.0000     -10.304227      -280.3923
  58   2.0000     -10.303992      -280.3859
  59   2.0000     -10.303091      -280.3614
  60   2.0000     -10.302943      -280.3573
  61   2.0000     -10.298413      -280.2341
  62   2.0000     -10.298283      -280.2305
  63   2.0000     -10.298015      -280.2232
  64   2.0000     -10.297754      -280.2161
  65   2.0000     -10.297509      -280.2095
  66   2.0000     -10.297162      -280.2000
  67   2.0000     -10.296955      -280.1944
  68   2.0000     -10.296349      -280.1779
  69   2.0000     -10.290671      -280.0234
  70   2.0000     -10.288436      -279.9626
  71   2.0000     -10.286971      -279.9227
  72   2.0000     -10.286591      -279.9124
  73   2.0000     -10.286480      -279.9094
  74   2.0000     -10.286088      -279.8987
  75   2.0000     -10.286076      -279.8984
  76   2.0000     -10.285883      -279.8931
  77   2.0000     -10.285497      -279.8826
  78   2.0000     -10.285435      -279.8809
  79   2.0000      -8.100111      -220.4152
  80   2.0000      -8.099418      -220.3964
  81   2.0000      -8.095300      -220.2843
  82   2.0000      -8.094742      -220.2691
  83   2.0000      -8.094484      -220.2621
  84   2.0000      -6.069460      -165.1584
  85   2.0000      -6.068723      -165.1384
  86   2.0000      -6.065230      -165.0433
  87   2.0000      -6.064543      -165.0246
  88   2.0000      -6.064464      -165.0225
  89   2.0000      -6.064069      -165.0117
  90   2.0000      -6.063859      -165.0060
  91   2.0000      -6.062281      -164.9630
  92   2.0000      -6.061615      -164.9449
  93   2.0000      -6.060297      -164.9091
  94   2.0000      -6.060155      -164.9052
  95   2.0000      -6.059707      -164.8930
  96   2.0000      -6.057779      -164.8405
  97   2.0000      -6.057291      -164.8273
  98   2.0000      -6.055683      -164.7835
  99   2.0000      -1.340007       -36.4634
 100   2.0000      -1.328071       -36.1387
 101   2.0000      -1.134870       -30.8814
 102   2.0000      -1.132180       -30.8082
 103   2.0000      -1.057271       -28.7698
 104   2.0000      -1.056265       -28.7424
 105   2.0000      -1.035172       -28.1685
 106   2.0000      -1.028891       -27.9976
 107   2.0000      -1.027063       -27.9478
 108   2.0000      -1.020991       -27.7826
 109   2.0000      -1.019971       -27.7548
 110   2.0000      -1.014380       -27.6027
 111   2.0000      -1.012096       -27.5405
 112   2.0000      -1.010380       -27.4938
 113   2.0000      -1.003930       -27.3183
 114   2.0000      -1.000302       -27.2196
 115   2.0000      -0.999747       -27.2045
 116   2.0000      -0.994726       -27.0679
 117   2.0000      -0.993936       -27.0464
 118   2.0000      -0.974529       -26.5183
 119   2.0000      -0.973053       -26.4781
 120   2.0000      -0.968798       -26.3623
 121   2.0000      -0.966128       -26.2897
 122   2.0000      -0.933744       -25.4085
 123   2.0000      -0.930414       -25.3178
 124   2.0000      -0.923845       -25.1391
 125   2.0000      -0.921026       -25.0624
 126   2.0000      -0.905438       -24.6382
 127   2.0000      -0.900985       -24.5170
 128   2.0000      -0.890119       -24.2214
 129   2.0000      -0.883577       -24.0434
 130   2.0000      -0.882667       -24.0186
 131   2.0000      -0.881459       -23.9857
 132   2.0000      -0.880120       -23.9493
 133   2.0000      -0.874073       -23.7847
 134   2.0000      -0.870822       -23.6963
 135   2.0000      -0.867496       -23.6058
 136   2.0000      -0.860643       -23.4193
 137   2.0000      -0.858271       -23.3547
 138   2.0000      -0.829043       -22.5594
 139   2.0000      -0.828567       -22.5465
 140   2.0000      -0.826244       -22.4833
 141   2.0000      -0.814783       -22.1714
 142   2.0000      -0.799396       -21.7527
 143   2.0000      -0.788471       -21.4554
 144   2.0000      -0.785953       -21.3869
 145   2.0000      -0.774521       -21.0758
 146   2.0000      -0.763197       -20.7676
 147   2.0000      -0.762208       -20.7407
 148   2.0000      -0.749146       -20.3853
 149   2.0000      -0.735466       -20.0130
 150   2.0000      -0.721774       -19.6405
 151   2.0000      -0.720039       -19.5933
 152   2.0000      -0.710445       -19.3322
 153   2.0000      -0.707446       -19.2506
 154   2.0000      -0.705404       -19.1950
 155   2.0000      -0.702298       -19.1105
 156   2.0000      -0.701045       -19.0764
 157   2.0000      -0.695693       -18.9308
 158   2.0000      -0.692457       -18.8427
 159   2.0000      -0.690483       -18.7890
 160   2.0000      -0.686276       -18.6745
 161   2.0000      -0.679356       -18.4862
 162   2.0000      -0.676785       -18.4163
 163   2.0000      -0.665929       -18.1208
 164   2.0000      -0.659157       -17.9366
 165   2.0000      -0.654035       -17.7972
 166   2.0000      -0.651920       -17.7397
 167   2.0000      -0.642310       -17.4781
 168   2.0000      -0.639792       -17.4096
 169   2.0000      -0.634879       -17.2759
 170   2.0000      -0.633763       -17.2456
 171   2.0000      -0.626722       -17.0540
 172   2.0000      -0.623952       -16.9786
 173   2.0000      -0.617272       -16.7968
 174   2.0000      -0.610143       -16.6028
 175   2.0000      -0.608463       -16.5571
 176   2.0000      -0.606674       -16.5084
 177   2.0000      -0.605825       -16.4853
 178   2.0000      -0.602105       -16.3841
 179   2.0000      -0.595514       -16.2048
 180   2.0000      -0.589571       -16.0430
 181   2.0000      -0.586893       -15.9702
 182   2.0000      -0.571234       -15.5441
 183   2.0000      -0.568500       -15.4697
 184   2.0000      -0.562636       -15.3101
 185   2.0000      -0.558810       -15.2060
 186   2.0000      -0.557740       -15.1769
 187   2.0000      -0.556685       -15.1482
 188   2.0000      -0.556148       -15.1336
 189   2.0000      -0.548218       -14.9178
 190   2.0000      -0.547304       -14.8929
 191   2.0000      -0.546246       -14.8641
 192   2.0000      -0.541636       -14.7387
 193   2.0000      -0.539292       -14.6749
 194   2.0000      -0.538845       -14.6627
 195   2.0000      -0.537810       -14.6346
 196   2.0000      -0.533835       -14.5264
 197   2.0000      -0.531088       -14.4516
 198   2.0000      -0.524157       -14.2630
 199   2.0000      -0.522074       -14.2064
 200   2.0000      -0.521558       -14.1923
 201   2.0000      -0.518871       -14.1192
 202   2.0000      -0.517028       -14.0691
 203   2.0000      -0.514723       -14.0063
 204   2.0000      -0.513218       -13.9654
 205   2.0000      -0.512268       -13.9395
 206   2.0000      -0.510608       -13.8943
 207   2.0000      -0.510487       -13.8911
 208   2.0000      -0.508544       -13.8382
 209   2.0000      -0.507668       -13.8143
 210   2.0000      -0.505584       -13.7576
 211   2.0000      -0.503001       -13.6874
 212   2.0000      -0.498586       -13.5672
 213   2.0000      -0.497985       -13.5509
 214   2.0000      -0.496108       -13.4998
 215   2.0000      -0.494118       -13.4456
 216   2.0000      -0.491704       -13.3799
 217   2.0000      -0.488600       -13.2955
 218   2.0000      -0.487272       -13.2593
 219   2.0000      -0.486140       -13.2286
 220   2.0000      -0.482501       -13.1295
 221   2.0000      -0.478431       -13.0188
 222   2.0000      -0.474992       -12.9252
 223   2.0000      -0.469553       -12.7772
 224   2.0000      -0.467420       -12.7192
 225   2.0000      -0.465680       -12.6718
 226   2.0000      -0.465505       -12.6670
 227   2.0000      -0.465156       -12.6575
 228   2.0000      -0.464699       -12.6451
 229   2.0000      -0.463302       -12.6071
 230   2.0000      -0.458751       -12.4833
 231   2.0000      -0.453811       -12.3488
 232   2.0000      -0.452440       -12.3115
 233   2.0000      -0.452017       -12.3000
 234   2.0000      -0.450723       -12.2648
 235   2.0000      -0.447062       -12.1652
 236   2.0000      -0.446452       -12.1486
 237   2.0000      -0.445328       -12.1180
 238   2.0000      -0.445201       -12.1145
 239   2.0000      -0.443868       -12.0783
 240   2.0000      -0.443622       -12.0716
 241   2.0000      -0.442602       -12.0438
 242   2.0000      -0.440440       -11.9850
 243   2.0000      -0.439977       -11.9724
 244   2.0000      -0.439638       -11.9632
 245   2.0000      -0.434686       -11.8284
 246   2.0000      -0.434421       -11.8212
 247   2.0000      -0.433688       -11.8013
 248   2.0000      -0.432995       -11.7824
 249   2.0000      -0.432587       -11.7713
 250   2.0000      -0.429406       -11.6847
 251   2.0000      -0.428890       -11.6707
 252   2.0000      -0.427220       -11.6252
 253   2.0000      -0.426102       -11.5948
 254   2.0000      -0.420517       -11.4428
 255   2.0000      -0.420098       -11.4315
 256   2.0000      -0.412244       -11.2177
 257   2.0000      -0.410050       -11.1580
 258   2.0000      -0.406726       -11.0676
 259   2.0000      -0.405335       -11.0297
 260   2.0000      -0.399209       -10.8630
 261   2.0000      -0.385624       -10.4934
 262   2.0000      -0.379218       -10.3190
 263   2.0000      -0.374085       -10.1794
 264   2.0000      -0.365299        -9.9403
 265   2.0000      -0.361883        -9.8473
 266   2.0000      -0.359050        -9.7702
 267   2.0000      -0.347945        -9.4681
 268   2.0000      -0.344799        -9.3824
 269   2.0000      -0.340671        -9.2701
 270   2.0000      -0.337068        -9.1721
 271   2.0000      -0.331697        -9.0259
 272   2.0000      -0.329834        -8.9752
 273   2.0000      -0.320176        -8.7124
 274   2.0000      -0.317578        -8.6417
 275   2.0000      -0.312979        -8.5166
 276   2.0000      -0.296420        -8.0660
 277   2.0000      -0.294517        -8.0142
 278   2.0000      -0.280519        -7.6333
 279   2.0000      -0.254834        -6.9344
 280   0.0000      -0.122789        -3.3413
 281   0.0000      -0.114163        -3.1065
 282   0.0000      -0.092981        -2.5301
 283   0.0000      -0.091679        -2.4947
 284   0.0000      -0.064311        -1.7500

MULLIKEN ATOMIC CHARGES
-----------------------
   0 C :    0.263961
   1 C :   -0.333486
   2 C :   -0.171225
   3 N :    0.162498
   4 C :   -0.200485
   5 N :    0.169116
   6 C :    0.024960
   7 C :    0.017408
   8 C :   -0.080425
   9 C :    0.093670
  10 C :    0.090586
  11 C :   -0.072557
  12 C :   -0.013298
  13 C :    0.034618
  14 C :    0.035522
  15 C :   -0.014462
  16 C :    0.134858
  17 O :   -0.142752
  18 C :   -0.135402
  19 C :    0.083481
  20 C :   -0.110799
  21 C :   -0.000150
  22 C :   -0.006829
  23 C :   -0.073905
  24 S :    0.215630
  25 C :   -0.103820
  26 C :    0.020446
  27 C :    0.307046
  28 C :   -0.281909
  29 C :   -0.191136
  30 N :    0.184126
  31 C :   -0.183167
  32 N :    0.170127
  33 C :   -0.059380
  34 C :   -0.038334
  35 S :    0.192625
  36 C :   -0.123306
  37 C :    0.202064
  38 F :   -0.157708
  39 C :    0.203111
  40 F :   -0.156218
  41 C :   -0.122546
  42 S :    0.161447
  43 C :   -0.038122
  44 C :   -0.060692
  45 C :    0.021531
  46 C :   -0.104262
  47 S :    0.193190
  48 C :   -0.080629
  49 C :   -0.010398
  50 C :    0.307794
  51 C :   -0.293492
  52 C :   -0.191370
  53 N :    0.196993
  54 C :   -0.194252
  55 N :    0.183922
  56 C :   -0.001575
  57 C :   -0.113370
  58 S :    0.206266
  59 C :    0.036469
  60 C :   -0.087330
  61 C :    0.313527
  62 C :   -0.354038
  63 C :   -0.181541
  64 N :    0.144674
  65 C :   -0.193204
  66 N :    0.148855
  67 C :    0.048646
  68 C :   -0.005658
  69 C :    0.156391
  70 O :   -0.150688
  71 C :   -0.077994
  72 C :    0.097681
  73 C :    0.093745
  74 C :   -0.082417
  75 C :   -0.019362
  76 C :    0.036446
  77 C :    0.035410
  78 C :   -0.014596
  79 H :   -0.012165
  80 H :    0.000388
  81 H :   -0.009349
  82 H :   -0.003632
  83 H :   -0.004804
  84 H :   -0.017838
  85 H :    0.019469
  86 H :    0.026532
  87 H :    0.020380
  88 H :    0.019912
  89 H :    0.039886
  90 H :    0.009671
  91 H :   -0.008952
  92 H :   -0.007597
  93 H :   -0.009085
  94 H :   -0.004363
  95 H :   -0.003370
  96 H :   -0.015637
Sum of atomic charges:   -0.0000000

LOEWDIN ATOMIC CHARGES
----------------------
   0 C :    0.065355
   1 C :   -0.136543
   2 C :   -0.018816
   3 N :   -0.045370
   4 C :   -0.015830
   5 N :   -0.047638
   6 C :   -0.023099
   7 C :   -0.058115
   8 C :    0.033049
   9 C :   -0.009070
  10 C :   -0.004935
  11 C :    0.019635
  12 C :   -0.004910
  13 C :   -0.012242
  14 C :   -0.012498
  15 C :   -0.009416
  16 C :    0.083613
  17 O :   -0.143864
  18 C :   -0.087102
  19 C :    0.040327
  20 C :   -0.179578
  21 C :    0.008452
  22 C :   -0.064942
  23 C :   -0.162378
  24 S :    0.499710
  25 C :   -0.181730
  26 C :   -0.056547
  27 C :    0.080321
  28 C :   -0.092286
  29 C :   -0.019385
  30 N :   -0.021677
  31 C :   -0.012142
  32 N :   -0.028985
  33 C :   -0.022027
  34 C :   -0.176418
  35 S :    0.474389
  36 C :   -0.213822
  37 C :    0.032064
  38 F :   -0.033019
  39 C :    0.034379
  40 F :   -0.032191
  41 C :   -0.217606
  42 S :    0.442294
  43 C :   -0.171486
  44 C :   -0.025635
  45 C :   -0.051426
  46 C :   -0.188881
  47 S :    0.473220
  48 C :   -0.160718
  49 C :   -0.074288
  50 C :    0.073651
  51 C :   -0.088511
  52 C :   -0.022278
  53 N :   -0.012103
  54 C :   -0.018069
  55 N :   -0.023385
  56 C :    0.018388
  57 C :   -0.175480
  58 S :    0.495838
  59 C :    0.041324
  60 C :   -0.093871
  61 C :    0.077320
  62 C :   -0.143433
  63 C :   -0.017078
  64 N :   -0.054835
  65 C :   -0.024036
  66 N :   -0.055921
  67 C :   -0.026908
  68 C :   -0.055657
  69 C :    0.086460
  70 O :   -0.137719
  71 C :    0.033967
  72 C :   -0.008065
  73 C :   -0.006284
  74 C :    0.019746
  75 C :   -0.005533
  76 C :   -0.013107
  77 C :   -0.012011
  78 C :   -0.008786
  79 H :    0.039309
  80 H :    0.040772
  81 H :    0.035120
  82 H :    0.033581
  83 H :    0.032881
  84 H :    0.031741
  85 H :    0.045563
  86 H :    0.042719
  87 H :    0.042527
  88 H :    0.042133
  89 H :    0.043989
  90 H :    0.042462
  91 H :    0.040482
  92 H :    0.039065
  93 H :    0.034742
  94 H :    0.033297
  95 H :    0.033214
  96 H :    0.032588

  Mayer bond orders larger than 0.100000
B(  0-C ,  1-C ) :   1.6542 B(  0-C ,  6-C ) :   0.9984 B(  0-C , 18-C ) :   1.0306
B(  1-C ,  2-C ) :   1.1286 B(  1-C ,  4-C ) :   1.1733 B(  2-C ,  3-N ) :   2.9957
B(  4-C ,  5-N ) :   2.9974 B(  6-C ,  7-C ) :   1.2128 B(  6-C , 11-C ) :   1.4628
B(  7-C ,  8-C ) :   1.4722 B(  7-C , 16-C ) :   0.9219 B(  8-C ,  9-C ) :   1.1868
B(  8-C , 79-H ) :   1.0158 B(  9-C , 10-C ) :   1.2542 B(  9-C , 15-C ) :   1.2436
B( 10-C , 11-C ) :   1.2030 B( 10-C , 12-C ) :   1.2442 B( 11-C , 80-H ) :   0.9940
B( 12-C , 13-C ) :   1.4872 B( 12-C , 81-H ) :   0.9974 B( 13-C , 14-C ) :   1.2602
B( 13-C , 82-H ) :   0.9893 B( 14-C , 15-C ) :   1.4889 B( 14-C , 83-H ) :   0.9895
B( 15-C , 84-H ) :   0.9977 B( 16-C , 17-O ) :   2.2689 B( 16-C , 18-C ) :   0.9375
B( 18-C , 19-C ) :   1.6810 B( 19-C , 20-C ) :   1.1323 B( 19-C , 85-H ) :   0.9280
B( 20-C , 21-C ) :   1.4007 B( 20-C , 24-S ) :   1.0916 B( 21-C , 22-C ) :   1.3551
B( 21-C , 86-H ) :   0.9793 B( 22-C , 23-C ) :   1.4127 B( 22-C , 27-C ) :   1.0005
B( 23-C , 24-S ) :   1.1517 B( 23-C , 25-C ) :   1.1963 B( 25-C , 26-C ) :   1.4391
B( 25-C , 35-S ) :   1.1207 B( 26-C , 27-C ) :   0.9912 B( 26-C , 33-C ) :   1.2815
B( 27-C , 28-C ) :   1.7203 B( 28-C , 29-C ) :   1.1318 B( 28-C , 31-C ) :   1.1340
B( 29-C , 30-N ) :   2.9956 B( 31-C , 32-N ) :   2.9795 B( 33-C , 34-C ) :   1.4771
B( 33-C , 87-H ) :   0.9967 B( 34-C , 35-S ) :   1.1020 B( 34-C , 36-C ) :   1.1333
B( 36-C , 37-C ) :   1.4818 B( 36-C , 41-C ) :   0.1454 B( 36-C , 42-S ) :   1.0975
B( 37-C , 38-F ) :   1.1501 B( 37-C , 39-C ) :   1.2252 B( 39-C , 40-F ) :   1.1525
B( 39-C , 41-C ) :   1.4810 B( 41-C , 42-S ) :   1.0945 B( 41-C , 43-C ) :   1.1350
B( 43-C , 44-C ) :   1.4737 B( 43-C , 47-S ) :   1.1063 B( 44-C , 45-C ) :   1.2825
B( 44-C , 88-H ) :   0.9962 B( 45-C , 46-C ) :   1.4388 B( 45-C , 50-C ) :   0.9905
B( 46-C , 47-S ) :   1.1119 B( 46-C , 48-C ) :   1.2051 B( 48-C , 49-C ) :   1.3822
B( 48-C , 58-S ) :   1.1645 B( 49-C , 50-C ) :   0.9980 B( 49-C , 56-C ) :   1.3171
B( 50-C , 51-C ) :   1.7205 B( 51-C , 52-C ) :   1.1356 B( 51-C , 54-C ) :   1.1349
B( 52-C , 53-N ) :   2.9962 B( 54-C , 55-N ) :   2.9933 B( 56-C , 57-C ) :   1.4024
B( 56-C , 89-H ) :   0.9699 B( 57-C , 58-S ) :   1.0762 B( 57-C , 59-C ) :   1.2108
B( 59-C , 60-C ) :   1.5968 B( 59-C , 90-H ) :   0.9130 B( 60-C , 61-C ) :   1.0801
B( 60-C , 69-C ) :   0.9357 B( 61-C , 62-C ) :   1.6199 B( 61-C , 67-C ) :   0.9864
B( 62-C , 63-C ) :   1.1481 B( 62-C , 65-C ) :   1.1390 B( 63-C , 64-N ) :   2.9625
B( 65-C , 66-N ) :   2.9741 B( 67-C , 68-C ) :   1.2154 B( 67-C , 74-C ) :   1.4471
B( 68-C , 69-C ) :   0.9535 B( 68-C , 71-C ) :   1.4730 B( 69-C , 70-O ) :   2.1743
B( 71-C , 72-C ) :   1.1758 B( 71-C , 91-H ) :   1.0168 B( 72-C , 73-C ) :   1.2572
B( 72-C , 78-C ) :   1.2450 B( 73-C , 74-C ) :   1.2077 B( 73-C , 75-C ) :   1.2398
B( 74-C , 92-H ) :   0.9898 B( 75-C , 76-C ) :   1.4909 B( 75-C , 93-H ) :   0.9971
B( 76-C , 77-C ) :   1.2601 B( 76-C , 94-H ) :   0.9883 B( 77-C , 78-C ) :   1.4880
B( 77-C , 95-H ) :   0.9884 B( 78-C , 96-H ) :   0.9980

-----------------------------------------------------------------------------
         ABSORPTION SPECTRUM VIA TRANSITION ELECTRIC DIPOLE MOMENTS
-----------------------------------------------------------------------------
State   Energy  Wavelength   fosc         T2         TX        TY        TZ
        (cm-1)    (nm)                  (au**2)     (au)      (au)      (au)
-----------------------------------------------------------------------------
   0   12683.4    788.4   0.759607482  19.71650   2.05313  -3.76143   1.16309
   1   13860.4    721.5   0.084666041   2.01098  -0.92385   0.39583  -1.00040
   2   19549.9    511.5   1.731686306  29.16081   2.39851  -4.55802   1.62248
   3   21259.3    470.4   0.329325190   5.09979   1.65231  -0.24447   1.51984
   4   21669.7    461.5   0.081575428   1.23932   0.81890   0.04609   0.75273
   5   23256.6    430.0   0.089507450   1.26703   0.55647  -0.34454   0.91579
   6   24939.8    401.0   0.009702727   0.12808  -0.35718  -0.00532   0.02178
   7   25206.5    396.7   0.033964700   0.44360  -0.17409   0.45512  -0.45405
   8   26694.0    374.6   0.473159173   5.83537   0.90623  -2.23855  -0.05499
   9   27441.2    364.4   0.029466326   0.35351   0.16574  -0.56522  -0.08101
  10   27621.5    362.0   0.091504407   1.09061   0.17707  -0.95381  -0.38667
  11   28299.1    353.4   0.015345156   0.17851   0.41076  -0.09808  -0.01303
  12   28428.2    351.8   0.099031608   1.14683   0.14365  -0.98028  -0.40651
  13   28563.2    350.1   0.009846568   0.11349  -0.03193  -0.31161   0.12397
  14   29067.0    344.0   0.006072346   0.06878   0.26020  -0.01612   0.02847
  15   29327.1    341.0   0.023980275   0.26919   0.29032   0.15275  -0.40196
  16   29726.7    336.4   0.060563803   0.67072   0.71677  -0.35740   0.17094
  17   29988.1    333.5   0.136182985   1.49503  -0.91669  -0.60795  -0.53394
  18   30182.3    331.3   0.186056227   2.02940  -0.03720  -1.07061  -0.93905
  19   30397.0    329.0   0.203173893   2.20046   0.39283  -0.20341   1.41590
  20   30544.4    327.4   0.475477791   5.12477   1.05308  -1.86563   0.73158
  21   31036.8    322.2   0.134963945   1.43158  -0.78334  -0.30768  -0.85047
  22   31236.9    320.1   0.242401120   2.55472   0.19344   1.44144   0.66298
  23   31812.7    314.3   0.055850361   0.57796   0.62429  -0.06554   0.42888
  24   32337.3    309.2   0.046128949   0.46962  -0.37502   0.55996   0.12418
  25   32441.1    308.3   0.128909478   1.30817  -0.55289  -0.49460  -0.87055
  26   32694.0    305.9   0.420162984   4.23082  -0.74747   1.82069  -0.59767
  27   33008.7    303.0   0.101474120   1.01205   0.86545  -0.05839   0.50955
  28   33169.5    301.5   0.032046053   0.31806  -0.11946   0.54272  -0.09613
  29   33449.3    299.0   0.145136900   1.42845  -0.36748   1.12842  -0.14176
  30   33838.0    295.5   0.078452139   0.76327  -0.62049   0.45816   0.41029
  31   34093.0    293.3   0.001198951   0.01158   0.03240   0.08220   0.06141
  32   34241.5    292.0   0.256503632   2.46613   0.76344  -1.26851  -0.52362
  33   34311.0    291.5   0.061392532   0.58906   0.59455  -0.16977  -0.45469
  34   34547.8    289.5   0.314033401   2.99248  -0.10373   1.72675   0.00629
  35   34927.5    286.3   0.184874924   1.74255  -0.06024  -1.31030   0.14846
  36   34936.0    286.2   0.157715796   1.48620   0.15241   1.16067   0.34032
  37   35102.5    284.9   0.108967242   1.02196  -0.98211   0.11673   0.20925
  38   35202.8    284.1   0.207427554   1.93984  -0.41723  -0.91468  -0.96391
  39   35558.7    281.2   0.154740645   1.43263   0.91586   0.06879   0.76752
  40   35899.4    278.6   0.209031377   1.91690  -0.57782   1.12674   0.55989
  41   36133.0    276.8   0.022455662   0.20460   0.29879  -0.29243   0.17265
  42   36554.3    273.6   0.014732268   0.13268  -0.20905   0.05391  -0.29338
  43   36929.5    270.8   0.017865517   0.15926   0.19114   0.31788   0.14724
  44   37238.3    268.5   0.048672213   0.43030   0.21087  -0.59922   0.16358
  45   37543.9    266.4   0.039872066   0.34963   0.49446  -0.32403  -0.01163
  46   37691.7    265.3   0.221300848   1.93292  -0.71782  -0.91777  -0.75852
  47   37885.1    264.0   0.009900726   0.08603  -0.00110   0.24556   0.16042
  48   38067.4    262.7   0.100178353   0.86636  -0.30958  -0.76485  -0.43072
  49   38110.1    262.4   0.005090653   0.04398   0.04689   0.13105  -0.15685
  50   38187.8    261.9   0.031341980   0.27019   0.38575  -0.12574   0.32493
  51   38826.5    257.6   0.039316328   0.33337   0.55602  -0.12276   0.09560
  52   38999.6    256.4   0.052061798   0.43948   0.47290  -0.18460   0.42634
  53   39238.1    254.9   0.017785420   0.14922   0.25045   0.28785   0.06031
  54   39499.1    253.2   0.118576465   0.98830   0.54249   0.21142   0.80579
  55   39781.1    251.4   0.145005589   1.20001   0.52371   0.12089   0.95453
  56   39824.1    251.1   0.051544378   0.42610  -0.52840  -0.01118  -0.38310

FINAL SINGLE POINT ENERGY     -5147.769795435118

DIPOLE MOMENT
-------------
                                X             Y             Z
Electronic contribution:     -0.95313       4.53670      20.22774
Nuclear contribution   :      2.41919      -4.89389     -22.76164
                        -----------------------------------------
Total Dipole Moment    :      1.46605      -0.35719      -2.53390
                        -----------------------------------------
Magnitude (a.u.)       :      2.94916
Magnitude (Debye)      :      7.49618

Rotational constants in cm-1:     0.002220     0.000152     0.000144
Rotational constants in MHz :    66.542962     4.551537     4.319240

                             ****ORCA TERMINATED NORMALLY****
TOTAL RUN TIME: 0 days 0 hours 10 minutes 49 seconds 282 msec
