                         Program Version 4.2.0 -  RELEASE  -
|  1> # ORCA input file
|  2> # SCF done       -214.424725300502          0.000885235452
|  3> ! CAM-B3LYP def2-SVP def2/J RIJCOSX Grid4 TightSCF
|  4> %maxcore 5000
|  5> %tddft
|  6>     Mode sTDDFT
|  7>     Ethresh 5.0
|  8>     maxcore 5000
|  9> end
| 10>
| 11> %pal
| 12>   nprocs 6
| 13>   end
| 14> * xyz 0 1
| 15>    C       -1.18017         0.80104        -2.31967
| 16>    C       -0.91608         1.58513        -3.41268
| 17>    C       -1.08020         1.15158        -4.74540
| 18>    N       -1.19009         0.84537        -5.84544
| 19>    C       -0.35717         2.87499        -3.33792
| 20>    N        0.11938         3.91972        -3.31808
| 21>    C       -1.52898        -0.61503        -2.37563
| 22>    C       -1.22216        -1.20944        -1.11641
| 23>    C       -1.40490        -2.54331        -0.88948
| 24>    C       -1.92457        -3.35301        -1.92431
| 25>    C       -2.25734        -2.75937        -3.17660
| 26>    C       -2.04988        -1.37653        -3.38649
| 27>    C       -2.78690        -3.57632        -4.19588
| 28>    C       -2.97401        -4.91648        -3.99234
| 29>    C       -2.64274        -5.50071        -2.76066
| 30>    C       -2.12944        -4.73574        -1.74869
| 31>    C       -0.73488        -0.17055        -0.19538
| 32>    O       -0.33009        -0.29794         0.93706
| 33>    C       -0.90052         1.11848        -0.93416
| 34>    C       -0.85386         2.27865        -0.22564
| 35>    C       -1.32543         3.56198        -0.58429
| 36>    C       -2.24454         3.91528        -1.56103
| 37>    C       -2.46965         5.28564        -1.60005
| 38>    C       -1.72405         5.99045        -0.63611
| 39>    S       -0.76623         4.96186         0.32239
| 40>    C       -2.00554         7.37242        -0.78086
| 41>    C       -2.91959         7.54229        -1.83532
| 42>    C       -3.24659         6.23433        -2.38199
| 43>    C       -4.09252         5.93933        -3.40873
| 44>    C       -4.85168         6.92040        -4.08346
| 45>    N       -5.49928         7.70018        -4.61759
| 46>    C       -4.28070         4.60818        -3.83979
| 47>    N       -4.42551         3.52167        -4.17609
| 48>    C       -3.24188         8.87955        -2.07035
| 49>    C       -2.58668         9.72646        -1.19498
| 50>    S       -1.55667         8.85364        -0.06788
| 51>    C       -2.65980        11.14551        -1.10321
| 52>    C       -3.16054        12.04872        -2.03167
| 53>    C       -3.61724        11.66253        -3.30235
| 54>    N       -3.95838        11.33522        -4.34673
| 55>    C       -3.07789        13.39540        -1.57743
| 56>    C       -2.50153        13.46678        -0.31382
| 57>    S       -2.06487        11.93822         0.33951
| 58>    S       -2.33615        15.06289         0.33996
| 59>    C       -3.06107        15.66565        -1.11350
| 60>    C       -3.41271        14.69998        -2.05012
| 61>    C       -4.00624        15.29236        -3.20015
| 62>    C       -4.49031        14.58697        -4.31278
| 63>    N       -4.90481        14.03986        -5.23175
| 64>    C       -4.08231        16.67630        -3.10665
| 65>    S       -3.42743        17.27487        -1.59510
| 66>    C       -4.59574        17.61767        -4.04056
| 67>    C       -4.65124        18.98875        -3.84574
| 68>    C       -5.19267        19.65099        -4.94383
| 69>    C       -5.55144        18.77301        -5.98201
| 70>    S       -5.22808        17.13856        -5.60668
| 71>    C       -6.07951        19.53564        -7.05386
| 72>    C       -6.04975        20.90052        -6.69187
| 73>    C       -5.50895        21.01346        -5.34690
| 74>    C       -5.34958        22.14416        -4.60293
| 75>    C       -5.73110        23.42775        -5.05247
| 76>    N       -6.04817        24.48060        -5.37508
| 77>    C       -4.80567        22.10408        -3.30072
| 78>    N       -4.36235        22.07125        -2.24371
| 79>    C       -6.51764        21.74205        -7.69294
| 80>    C       -6.91153        21.03890        -8.82389
| 81>    S       -6.70818        19.29326        -8.61180
| 82>    C       -7.47133        21.44948       -10.05266
| 83>    C       -7.57997        22.69232       -10.60998
| 84>    C       -8.26399        22.95932       -11.86658
| 85>    C       -9.13886        22.12735       -12.51604
| 86>    C       -9.78576        22.45482       -13.72667
| 87>    N      -10.33869        22.65512       -14.71246
| 88>    C       -9.55626        20.85708       -12.06556
| 89>    N       -9.96240        19.82791       -11.75720
| 90>    C       -7.92975        24.31602       -12.27998
| 91>    C       -7.13130        24.91202       -11.26391
| 92>    C       -6.90730        23.94570       -10.17695
| 93>    O       -6.26142        24.14335        -9.16998
| 94>    C       -6.67606        26.19544       -11.35991
| 95>    C       -7.00328        26.95689       -12.50373
| 96>    C       -7.79216        26.36454       -13.53200
| 97>    C       -8.25008        25.03323       -13.40252
| 98>    C       -8.10728        27.13145       -14.67217
| 99>    C       -7.66846        28.42210       -14.79094
|100>    C       -6.89404        29.00490       -13.77676
|101>    C       -6.56832        28.28786       -12.65753
|102>    H       -1.15714        -2.97617         0.06830
|103>    H       -2.32116        -0.94979        -4.33940
|104>    H       -3.03711        -3.12249        -5.14340
|105>    H       -3.37802        -5.53435        -4.78009
|106>    H       -2.79682        -6.55970        -2.61732
|107>    H       -1.87326        -5.17995        -0.79797
|108>    H       -0.45380         2.18046         0.77942
|109>    H       -2.74868         3.19477        -2.17849
|110>    H       -3.92057         9.22315        -2.82886
|111>    H       -4.30851        19.46397        -2.94384
|112>    H       -6.56633        22.81383        -7.63021
|113>    H       -7.85180        20.62290       -10.64212
|114>    H       -6.07589        26.62338       -10.57079
|115>    H       -8.84051        24.61321       -14.20101
|116>    H       -8.70530        26.67916       -15.44957
|117>    H       -7.91645        29.00168       -15.66745
|118>    H       -6.55676        30.02467       -13.88691
|119>    H       -5.97223        28.73079       -11.87327
|120> *
|121>
|122>                          ****END OF INPUT****

CARTESIAN COORDINATES (ANGSTROEM)
---------------------------------
  C     -1.180170    0.801040   -2.319670
  C     -0.916080    1.585130   -3.412680
  C     -1.080200    1.151580   -4.745400
  N     -1.190090    0.845370   -5.845440
  C     -0.357170    2.874990   -3.337920
  N      0.119380    3.919720   -3.318080
  C     -1.528980   -0.615030   -2.375630
  C     -1.222160   -1.209440   -1.116410
  C     -1.404900   -2.543310   -0.889480
  C     -1.924570   -3.353010   -1.924310
  C     -2.257340   -2.759370   -3.176600
  C     -2.049880   -1.376530   -3.386490
  C     -2.786900   -3.576320   -4.195880
  C     -2.974010   -4.916480   -3.992340
  C     -2.642740   -5.500710   -2.760660
  C     -2.129440   -4.735740   -1.748690
  C     -0.734880   -0.170550   -0.195380
  O     -0.330090   -0.297940    0.937060
  C     -0.900520    1.118480   -0.934160
  C     -0.853860    2.278650   -0.225640
  C     -1.325430    3.561980   -0.584290
  C     -2.244540    3.915280   -1.561030
  C     -2.469650    5.285640   -1.600050
  C     -1.724050    5.990450   -0.636110
  S     -0.766230    4.961860    0.322390
  C     -2.005540    7.372420   -0.780860
  C     -2.919590    7.542290   -1.835320
  C     -3.246590    6.234330   -2.381990
  C     -4.092520    5.939330   -3.408730
  C     -4.851680    6.920400   -4.083460
  N     -5.499280    7.700180   -4.617590
  C     -4.280700    4.608180   -3.839790
  N     -4.425510    3.521670   -4.176090
  C     -3.241880    8.879550   -2.070350
  C     -2.586680    9.726460   -1.194980
  S     -1.556670    8.853640   -0.067880
  C     -2.659800   11.145510   -1.103210
  C     -3.160540   12.048720   -2.031670
  C     -3.617240   11.662530   -3.302350
  N     -3.958380   11.335220   -4.346730
  C     -3.077890   13.395400   -1.577430
  C     -2.501530   13.466780   -0.313820
  S     -2.064870   11.938220    0.339510
  S     -2.336150   15.062890    0.339960
  C     -3.061070   15.665650   -1.113500
  C     -3.412710   14.699980   -2.050120
  C     -4.006240   15.292360   -3.200150
  C     -4.490310   14.586970   -4.312780
  N     -4.904810   14.039860   -5.231750
  C     -4.082310   16.676300   -3.106650
  S     -3.427430   17.274870   -1.595100
  C     -4.595740   17.617670   -4.040560
  C     -4.651240   18.988750   -3.845740
  C     -5.192670   19.650990   -4.943830
  C     -5.551440   18.773010   -5.982010
  S     -5.228080   17.138560   -5.606680
  C     -6.079510   19.535640   -7.053860
  C     -6.049750   20.900520   -6.691870
  C     -5.508950   21.013460   -5.346900
  C     -5.349580   22.144160   -4.602930
  C     -5.731100   23.427750   -5.052470
  N     -6.048170   24.480600   -5.375080
  C     -4.805670   22.104080   -3.300720
  N     -4.362350   22.071250   -2.243710
  C     -6.517640   21.742050   -7.692940
  C     -6.911530   21.038900   -8.823890
  S     -6.708180   19.293260   -8.611800
  C     -7.471330   21.449480  -10.052660
  C     -7.579970   22.692320  -10.609980
  C     -8.263990   22.959320  -11.866580
  C     -9.138860   22.127350  -12.516040
  C     -9.785760   22.454820  -13.726670
  N    -10.338690   22.655120  -14.712460
  C     -9.556260   20.857080  -12.065560
  N     -9.962400   19.827910  -11.757200
  C     -7.929750   24.316020  -12.279980
  C     -7.131300   24.912020  -11.263910
  C     -6.907300   23.945700  -10.176950
  O     -6.261420   24.143350   -9.169980
  C     -6.676060   26.195440  -11.359910
  C     -7.003280   26.956890  -12.503730
  C     -7.792160   26.364540  -13.532000
  C     -8.250080   25.033230  -13.402520
  C     -8.107280   27.131450  -14.672170
  C     -7.668460   28.422100  -14.790940
  C     -6.894040   29.004900  -13.776760
  C     -6.568320   28.287860  -12.657530
  H     -1.157140   -2.976170    0.068300
  H     -2.321160   -0.949790   -4.339400
  H     -3.037110   -3.122490   -5.143400
  H     -3.378020   -5.534350   -4.780090
  H     -2.796820   -6.559700   -2.617320
  H     -1.873260   -5.179950   -0.797970
  H     -0.453800    2.180460    0.779420
  H     -2.748680    3.194770   -2.178490
  H     -3.920570    9.223150   -2.828860
  H     -4.308510   19.463970   -2.943840
  H     -6.566330   22.813830   -7.630210
  H     -7.851800   20.622900  -10.642120
  H     -6.075890   26.623380  -10.570790
  H     -8.840510   24.613210  -14.201010
  H     -8.705300   26.679160  -15.449570
  H     -7.916450   29.001680  -15.667450
  H     -6.556760   30.024670  -13.886910
  H     -5.972230   28.730790  -11.873270

 Total Charge           Charge          ....    0
 Multiplicity           Mult            ....    1
 Number of Electrons    NEL             ....  624
 Basis Dimension        Dim             .... 1336

ORBITAL ENERGIES
----------------

  NO   OCC          E(Eh)            E(eV)
   0   2.0000     -89.003778     -2421.9159
   1   2.0000     -89.002738     -2421.8876
   2   2.0000     -89.002171     -2421.8722
   3   2.0000     -89.002119     -2421.8708
   4   2.0000     -89.001200     -2421.8458
   5   2.0000     -89.000099     -2421.8158
   6   2.0000     -88.998747     -2421.7790
   7   2.0000     -19.218753      -522.9689
   8   2.0000     -19.216636      -522.9113
   9   2.0000     -14.437894      -392.8751
  10   2.0000     -14.435413      -392.8076
  11   2.0000     -14.432601      -392.7310
  12   2.0000     -14.430608      -392.6768
  13   2.0000     -14.420814      -392.4103
  14   2.0000     -14.419564      -392.3763
  15   2.0000     -14.416392      -392.2900
  16   2.0000     -14.415563      -392.2674
  17   2.0000     -14.414165      -392.2294
  18   2.0000     -14.413612      -392.2143
  19   2.0000     -10.372401      -282.2474
  20   2.0000     -10.371350      -282.2188
  21   2.0000     -10.370146      -282.1860
  22   2.0000     -10.367913      -282.1253
  23   2.0000     -10.359433      -281.8945
  24   2.0000     -10.357136      -281.8320
  25   2.0000     -10.356999      -281.8283
  26   2.0000     -10.355999      -281.8011
  27   2.0000     -10.352848      -281.7153
  28   2.0000     -10.352617      -281.7090
  29   2.0000     -10.348983      -281.6101
  30   2.0000     -10.346403      -281.5399
  31   2.0000     -10.346006      -281.5291
  32   2.0000     -10.345344      -281.5111
  33   2.0000     -10.345124      -281.5051
  34   2.0000     -10.343949      -281.4732
  35   2.0000     -10.343939      -281.4729
  36   2.0000     -10.342090      -281.4226
  37   2.0000     -10.341719      -281.4125
  38   2.0000     -10.340892      -281.3900
  39   2.0000     -10.339704      -281.3576
  40   2.0000     -10.338158      -281.3156
  41   2.0000     -10.338077      -281.3134
  42   2.0000     -10.335262      -281.2368
  43   2.0000     -10.332140      -281.1518
  44   2.0000     -10.331666      -281.1389
  45   2.0000     -10.331428      -281.1324
  46   2.0000     -10.329252      -281.0732
  47   2.0000     -10.329250      -281.0732
  48   2.0000     -10.327365      -281.0219
  49   2.0000     -10.325650      -280.9752
  50   2.0000     -10.325381      -280.9679
  51   2.0000     -10.320684      -280.8401
  52   2.0000     -10.319274      -280.8017
  53   2.0000     -10.318622      -280.7840
  54   2.0000     -10.317843      -280.7628
  55   2.0000     -10.317039      -280.7409
  56   2.0000     -10.316592      -280.7287
  57   2.0000     -10.316443      -280.7247
  58   2.0000     -10.315857      -280.7087
  59   2.0000     -10.315459      -280.6979
  60   2.0000     -10.314275      -280.6657
  61   2.0000     -10.313062      -280.6327
  62   2.0000     -10.312314      -280.6123
  63   2.0000     -10.312270      -280.6111
  64   2.0000     -10.309160      -280.5265
  65   2.0000     -10.304001      -280.3861
  66   2.0000     -10.303521      -280.3731
  67   2.0000     -10.303425      -280.3704
  68   2.0000     -10.302182      -280.3366
  69   2.0000     -10.298151      -280.2269
  70   2.0000     -10.298000      -280.2228
  71   2.0000     -10.297709      -280.2149
  72   2.0000     -10.297081      -280.1978
  73   2.0000     -10.296918      -280.1934
  74   2.0000     -10.296844      -280.1914
  75   2.0000     -10.296197      -280.1738
  76   2.0000     -10.295852      -280.1644
  77   2.0000     -10.290319      -280.0138
  78   2.0000     -10.287926      -279.9487
  79   2.0000     -10.286657      -279.9142
  80   2.0000     -10.286157      -279.9006
  81   2.0000     -10.285931      -279.8944
  82   2.0000     -10.285701      -279.8881
  83   2.0000     -10.285403      -279.8800
  84   2.0000     -10.285212      -279.8748
  85   2.0000     -10.285117      -279.8723
  86   2.0000     -10.284742      -279.8621
  87   2.0000      -8.098544      -220.3726
  88   2.0000      -8.097566      -220.3460
  89   2.0000      -8.097228      -220.3368
  90   2.0000      -8.096410      -220.3145
  91   2.0000      -8.096178      -220.3082
  92   2.0000      -8.094736      -220.2690
  93   2.0000      -8.093487      -220.2350
  94   2.0000      -6.067878      -165.1154
  95   2.0000      -6.067227      -165.0976
  96   2.0000      -6.067189      -165.0966
  97   2.0000      -6.065845      -165.0600
  98   2.0000      -6.065750      -165.0574
  99   2.0000      -6.063910      -165.0074
 100   2.0000      -6.063608      -164.9992
 101   2.0000      -6.062960      -164.9815
 102   2.0000      -6.062955      -164.9814
 103   2.0000      -6.062531      -164.9699
 104   2.0000      -6.061582      -164.9440
 105   2.0000      -6.061315      -164.9368
 106   2.0000      -6.060815      -164.9231
 107   2.0000      -6.059747      -164.8941
 108   2.0000      -6.059036      -164.8748
 109   2.0000      -6.058802      -164.8684
 110   2.0000      -6.058435      -164.8584
 111   2.0000      -6.058026      -164.8473
 112   2.0000      -6.057650      -164.8370
 113   2.0000      -6.057242      -164.8259
 114   2.0000      -6.056100      -164.7948
 115   2.0000      -1.134355       -30.8674
 116   2.0000      -1.132157       -30.8076
 117   2.0000      -1.059865       -28.8404
 118   2.0000      -1.055984       -28.7348
 119   2.0000      -1.053312       -28.6621
 120   2.0000      -1.030965       -28.0540
 121   2.0000      -1.027598       -27.9624
 122   2.0000      -1.025436       -27.9035
 123   2.0000      -1.020732       -27.7755
 124   2.0000      -1.018605       -27.7176
 125   2.0000      -1.012553       -27.5530
 126   2.0000      -1.011181       -27.5156
 127   2.0000      -1.009609       -27.4729
 128   2.0000      -1.004863       -27.3437
 129   2.0000      -1.004362       -27.3301
 130   2.0000      -1.000095       -27.2140
 131   2.0000      -0.998530       -27.1714
 132   2.0000      -0.994710       -27.0674
 133   2.0000      -0.993852       -27.0441
 134   2.0000      -0.993333       -27.0300
 135   2.0000      -0.975671       -26.5494
 136   2.0000      -0.972764       -26.4703
 137   2.0000      -0.969958       -26.3939
 138   2.0000      -0.965787       -26.2804
 139   2.0000      -0.955890       -26.0111
 140   2.0000      -0.930375       -25.3168
 141   2.0000      -0.929208       -25.2850
 142   2.0000      -0.921314       -25.0702
 143   2.0000      -0.920356       -25.0442
 144   2.0000      -0.911312       -24.7981
 145   2.0000      -0.901917       -24.5424
 146   2.0000      -0.899340       -24.4723
 147   2.0000      -0.889953       -24.2168
 148   2.0000      -0.882268       -24.0077
 149   2.0000      -0.882222       -24.0065
 150   2.0000      -0.880319       -23.9547
 151   2.0000      -0.880204       -23.9516
 152   2.0000      -0.874488       -23.7960
 153   2.0000      -0.871983       -23.7279
 154   2.0000      -0.866562       -23.5803
 155   2.0000      -0.864634       -23.5279
 156   2.0000      -0.846367       -23.0308
 157   2.0000      -0.845820       -23.0159
 158   2.0000      -0.828827       -22.5535
 159   2.0000      -0.827738       -22.5239
 160   2.0000      -0.819419       -22.2975
 161   2.0000      -0.812716       -22.1151
 162   2.0000      -0.797757       -21.7081
 163   2.0000      -0.785616       -21.3777
 164   2.0000      -0.783431       -21.3182
 165   2.0000      -0.774300       -21.0698
 166   2.0000      -0.762393       -20.7458
 167   2.0000      -0.762049       -20.7364
 168   2.0000      -0.751815       -20.4579
 169   2.0000      -0.738575       -20.0977
 170   2.0000      -0.723988       -19.7007
 171   2.0000      -0.722668       -19.6648
 172   2.0000      -0.711349       -19.3568
 173   2.0000      -0.708680       -19.2842
 174   2.0000      -0.706885       -19.2353
 175   2.0000      -0.704348       -19.1663
 176   2.0000      -0.701875       -19.0990
 177   2.0000      -0.699759       -19.0414
 178   2.0000      -0.695615       -18.9286
 179   2.0000      -0.693543       -18.8723
 180   2.0000      -0.689826       -18.7711
 181   2.0000      -0.686197       -18.6724
 182   2.0000      -0.677844       -18.4451
 183   2.0000      -0.676434       -18.4067
 184   2.0000      -0.664229       -18.0746
 185   2.0000      -0.661511       -18.0006
 186   2.0000      -0.654877       -17.8201
 187   2.0000      -0.648094       -17.6355
 188   2.0000      -0.641667       -17.4607
 189   2.0000      -0.638761       -17.3816
 190   2.0000      -0.638513       -17.3748
 191   2.0000      -0.633150       -17.2289
 192   2.0000      -0.631359       -17.1802
 193   2.0000      -0.625815       -17.0293
 194   2.0000      -0.621851       -16.9214
 195   2.0000      -0.608378       -16.5548
 196   2.0000      -0.607890       -16.5415
 197   2.0000      -0.607754       -16.5378
 198   2.0000      -0.604854       -16.4589
 199   2.0000      -0.601581       -16.3698
 200   2.0000      -0.596258       -16.2250
 201   2.0000      -0.583503       -15.8779
 202   2.0000      -0.572193       -15.5702
 203   2.0000      -0.566487       -15.4149
 204   2.0000      -0.563498       -15.3336
 205   2.0000      -0.561276       -15.2731
 206   2.0000      -0.557901       -15.1813
 207   2.0000      -0.555862       -15.1258
 208   2.0000      -0.552724       -15.0404
 209   2.0000      -0.549743       -14.9593
 210   2.0000      -0.546740       -14.8776
 211   2.0000      -0.546523       -14.8716
 212   2.0000      -0.545328       -14.8391
 213   2.0000      -0.542002       -14.7486
 214   2.0000      -0.538879       -14.6636
 215   2.0000      -0.537611       -14.6291
 216   2.0000      -0.536417       -14.5966
 217   2.0000      -0.534272       -14.5383
 218   2.0000      -0.529921       -14.4199
 219   2.0000      -0.527211       -14.3461
 220   2.0000      -0.525281       -14.2936
 221   2.0000      -0.524268       -14.2661
 222   2.0000      -0.520258       -14.1569
 223   2.0000      -0.518953       -14.1214
 224   2.0000      -0.515788       -14.0353
 225   2.0000      -0.512288       -13.9401
 226   2.0000      -0.511550       -13.9200
 227   2.0000      -0.510582       -13.8936
 228   2.0000      -0.509831       -13.8732
 229   2.0000      -0.509477       -13.8636
 230   2.0000      -0.509260       -13.8577
 231   2.0000      -0.506098       -13.7716
 232   2.0000      -0.505806       -13.7637
 233   2.0000      -0.501639       -13.6503
 234   2.0000      -0.498498       -13.5648
 235   2.0000      -0.496257       -13.5039
 236   2.0000      -0.494528       -13.4568
 237   2.0000      -0.492879       -13.4119
 238   2.0000      -0.489739       -13.3265
 239   2.0000      -0.486883       -13.2488
 240   2.0000      -0.485990       -13.2245
 241   2.0000      -0.485041       -13.1986
 242   2.0000      -0.482545       -13.1307
 243   2.0000      -0.482159       -13.1202
 244   2.0000      -0.478293       -13.0150
 245   2.0000      -0.474292       -12.9061
 246   2.0000      -0.470451       -12.8016
 247   2.0000      -0.468503       -12.7486
 248   2.0000      -0.467205       -12.7133
 249   2.0000      -0.465694       -12.6722
 250   2.0000      -0.464893       -12.6504
 251   2.0000      -0.464126       -12.6295
 252   2.0000      -0.460725       -12.5370
 253   2.0000      -0.460313       -12.5257
 254   2.0000      -0.458622       -12.4797
 255   2.0000      -0.457029       -12.4364
 256   2.0000      -0.452195       -12.3049
 257   2.0000      -0.451582       -12.2882
 258   2.0000      -0.450184       -12.2501
 259   2.0000      -0.448965       -12.2170
 260   2.0000      -0.448600       -12.2070
 261   2.0000      -0.446500       -12.1499
 262   2.0000      -0.445540       -12.1238
 263   2.0000      -0.444800       -12.1036
 264   2.0000      -0.444504       -12.0956
 265   2.0000      -0.443498       -12.0682
 266   2.0000      -0.442864       -12.0509
 267   2.0000      -0.442134       -12.0311
 268   2.0000      -0.440975       -11.9995
 269   2.0000      -0.439546       -11.9607
 270   2.0000      -0.439448       -11.9580
 271   2.0000      -0.436458       -11.8766
 272   2.0000      -0.435461       -11.8495
 273   2.0000      -0.433469       -11.7953
 274   2.0000      -0.433089       -11.7850
 275   2.0000      -0.432832       -11.7780
 276   2.0000      -0.431237       -11.7346
 277   2.0000      -0.430545       -11.7157
 278   2.0000      -0.429086       -11.6760
 279   2.0000      -0.427091       -11.6217
 280   2.0000      -0.425820       -11.5872
 281   2.0000      -0.424685       -11.5563
 282   2.0000      -0.420718       -11.4483
 283   2.0000      -0.419275       -11.4091
 284   2.0000      -0.414504       -11.2792
 285   2.0000      -0.411008       -11.1841
 286   2.0000      -0.409085       -11.1318
 287   2.0000      -0.405217       -11.0265
 288   2.0000      -0.404564       -11.0088
 289   2.0000      -0.396509       -10.7895
 290   2.0000      -0.390711       -10.6318
 291   2.0000      -0.389325       -10.5941
 292   2.0000      -0.383012       -10.4223
 293   2.0000      -0.376892       -10.2557
 294   2.0000      -0.372874       -10.1464
 295   2.0000      -0.362037        -9.8515
 296   2.0000      -0.358617        -9.7585
 297   2.0000      -0.357303        -9.7227
 298   2.0000      -0.349740        -9.5169
 299   2.0000      -0.341331        -9.2881
 300   2.0000      -0.338297        -9.2055
 301   2.0000      -0.334551        -9.1036
 302   2.0000      -0.329508        -8.9664
 303   2.0000      -0.328950        -8.9512
 304   2.0000      -0.318058        -8.6548
 305   2.0000      -0.317997        -8.6531
 306   2.0000      -0.309857        -8.4316
 307   2.0000      -0.308709        -8.4004
 308   2.0000      -0.295102        -8.0301
 309   2.0000      -0.293222        -7.9790
 310   2.0000      -0.266764        -7.2590
 311   2.0000      -0.266203        -7.2438
 312   0.0000      -0.117691        -3.2025
 313   0.0000      -0.116619        -3.1734
 314   0.0000      -0.092070        -2.5054
 315   0.0000      -0.091374        -2.4864
 316   0.0000      -0.062907        -1.7118

MULLIKEN ATOMIC CHARGES
-----------------------
   0 C :    0.269815
   1 C :   -0.327026
   2 C :   -0.169696
   3 N :    0.159223
   4 C :   -0.200487
   5 N :    0.166637
   6 C :    0.028402
   7 C :    0.019697
   8 C :   -0.083771
   9 C :    0.095552
  10 C :    0.092976
  11 C :   -0.077879
  12 C :   -0.015971
  13 C :    0.037907
  14 C :    0.035502
  15 C :   -0.015536
  16 C :    0.133533
  17 O :   -0.143503
  18 C :   -0.134451
  19 C :    0.080221
  20 C :   -0.108791
  21 C :   -0.002009
  22 C :   -0.001269
  23 C :   -0.072502
  24 S :    0.214523
  25 C :   -0.098264
  26 C :    0.018968
  27 C :    0.304227
  28 C :   -0.282136
  29 C :   -0.197636
  30 N :    0.203283
  31 C :   -0.183604
  32 N :    0.170806
  33 C :   -0.038332
  34 C :   -0.097384
  35 S :    0.188568
  36 C :   -0.071127
  37 C :   -0.013726
  38 C :   -0.329707
  39 N :    0.231523
  40 C :    0.137266
  41 C :   -0.233622
  42 S :    0.173873
  43 S :    0.204559
  44 C :   -0.224598
  45 C :    0.141058
  46 C :    0.005580
  47 C :   -0.368005
  48 N :    0.232432
  49 C :   -0.074213
  50 S :    0.179754
  51 C :   -0.087063
  52 C :   -0.072902
  53 C :    0.037620
  54 C :   -0.093546
  55 S :    0.238991
  56 C :   -0.083029
  57 C :   -0.012389
  58 C :    0.310369
  59 C :   -0.298575
  60 C :   -0.188257
  61 N :    0.196500
  62 C :   -0.191282
  63 N :    0.171487
  64 C :    0.004797
  65 C :   -0.114280
  66 S :    0.219135
  67 C :    0.033104
  68 C :   -0.090490
  69 C :    0.310896
  70 C :   -0.352944
  71 C :   -0.182681
  72 N :    0.148366
  73 C :   -0.201677
  74 N :    0.161749
  75 C :    0.052097
  76 C :   -0.004133
  77 C :    0.157609
  78 O :   -0.150357
  79 C :   -0.083164
  80 C :    0.098833
  81 C :    0.099393
  82 C :   -0.086700
  83 C :   -0.020659
  84 C :    0.037816
  85 C :    0.037868
  86 C :   -0.017639
  87 H :   -0.012483
  88 H :    0.000305
  89 H :   -0.008976
  90 H :   -0.003499
  91 H :   -0.004297
  92 H :   -0.018054
  93 H :    0.020684
  94 H :    0.026726
  95 H :    0.031979
  96 H :    0.019123
  97 H :    0.039764
  98 H :    0.016369
  99 H :   -0.009913
 100 H :   -0.008285
 101 H :   -0.008734
 102 H :   -0.004743
 103 H :   -0.005056
 104 H :   -0.016409
Sum of atomic charges:   -0.0000000

LOEWDIN ATOMIC CHARGES
----------------------
   0 C :    0.065762
   1 C :   -0.135145
   2 C :   -0.018494
   3 N :   -0.044626
   4 C :   -0.015770
   5 N :   -0.046658
   6 C :   -0.023176
   7 C :   -0.058184
   8 C :    0.033321
   9 C :   -0.009002
  10 C :   -0.004755
  11 C :    0.019598
  12 C :   -0.004692
  13 C :   -0.012023
  14 C :   -0.012449
  15 C :   -0.009408
  16 C :    0.083634
  17 O :   -0.144003
  18 C :   -0.086426
  19 C :    0.040245
  20 C :   -0.177654
  21 C :    0.007887
  22 C :   -0.060717
  23 C :   -0.165585
  24 S :    0.499377
  25 C :   -0.176563
  26 C :   -0.056983
  27 C :    0.077126
  28 C :   -0.087676
  29 C :   -0.024576
  30 N :   -0.007966
  31 C :   -0.011519
  32 N :   -0.029163
  33 C :   -0.009636
  34 C :   -0.184643
  35 S :    0.472984
  36 C :   -0.146638
  37 C :   -0.095809
  38 C :   -0.042650
  39 N :   -0.018269
  40 C :   -0.059261
  41 C :   -0.333445
  42 S :    0.445279
  43 S :    0.434641
  44 C :   -0.330515
  45 C :   -0.060799
  46 C :   -0.102636
  47 C :   -0.059837
  48 N :   -0.019543
  49 C :   -0.140371
  50 S :    0.466200
  51 C :   -0.182367
  52 C :   -0.032034
  53 C :   -0.056538
  54 C :   -0.184709
  55 S :    0.531957
  56 C :   -0.161122
  57 C :   -0.073159
  58 C :    0.076552
  59 C :   -0.094160
  60 C :   -0.022378
  61 N :   -0.014319
  62 C :   -0.014647
  63 N :   -0.032881
  64 C :    0.018439
  65 C :   -0.174482
  66 S :    0.505572
  67 C :    0.042203
  68 C :   -0.091637
  69 C :    0.076326
  70 C :   -0.141196
  71 C :   -0.017092
  72 N :   -0.053274
  73 C :   -0.025862
  74 N :   -0.051708
  75 C :   -0.026483
  76 C :   -0.055607
  77 C :    0.086421
  78 O :   -0.137777
  79 C :    0.033828
  80 C :   -0.008097
  81 C :   -0.005986
  82 C :    0.019701
  83 C :   -0.005358
  84 C :   -0.013038
  85 C :   -0.011841
  86 C :   -0.009061
  87 H :    0.039246
  88 H :    0.040659
  89 H :    0.035269
  90 H :    0.033651
  91 H :    0.033002
  92 H :    0.031675
  93 H :    0.045723
  94 H :    0.043004
  95 H :    0.049066
  96 H :    0.035265
  97 H :    0.044317
  98 H :    0.043679
  99 H :    0.040144
 100 H :    0.038973
 101 H :    0.034874
 102 H :    0.033263
 103 H :    0.032932
 104 H :    0.032282

  Mayer bond orders larger than 0.100000
B(  0-C ,  1-C ) :   1.6547 B(  0-C ,  6-C ) :   0.9973 B(  0-C , 18-C ) :   1.0306
B(  1-C ,  2-C ) :   1.1267 B(  1-C ,  4-C ) :   1.1696 B(  2-C ,  3-N ) :   2.9928
B(  4-C ,  5-N ) :   2.9947 B(  6-C ,  7-C ) :   1.2135 B(  6-C , 11-C ) :   1.4604
B(  7-C ,  8-C ) :   1.4706 B(  7-C , 16-C ) :   0.9232 B(  8-C ,  9-C ) :   1.1861
B(  8-C , 87-H ) :   1.0162 B(  9-C , 10-C ) :   1.2561 B(  9-C , 15-C ) :   1.2442
B( 10-C , 11-C ) :   1.2037 B( 10-C , 12-C ) :   1.2434 B( 11-C , 88-H ) :   0.9937
B( 12-C , 13-C ) :   1.4900 B( 12-C , 89-H ) :   0.9971 B( 13-C , 14-C ) :   1.2600
B( 13-C , 90-H ) :   0.9880 B( 14-C , 15-C ) :   1.4904 B( 14-C , 91-H ) :   0.9889
B( 15-C , 92-H ) :   0.9972 B( 16-C , 17-O ) :   2.2661 B( 16-C , 18-C ) :   0.9383
B( 18-C , 19-C ) :   1.6854 B( 19-C , 20-C ) :   1.1253 B( 19-C , 93-H ) :   0.9261
B( 20-C , 21-C ) :   1.4024 B( 20-C , 24-S ) :   1.0944 B( 21-C , 22-C ) :   1.3544
B( 21-C , 94-H ) :   0.9793 B( 22-C , 23-C ) :   1.4193 B( 22-C , 27-C ) :   0.9972
B( 23-C , 24-S ) :   1.1476 B( 23-C , 25-C ) :   1.1908 B( 25-C , 26-C ) :   1.4391
B( 25-C , 35-S ) :   1.1247 B( 26-C , 27-C ) :   0.9905 B( 26-C , 33-C ) :   1.2906
B( 27-C , 28-C ) :   1.7237 B( 28-C , 29-C ) :   1.1325 B( 28-C , 31-C ) :   1.1369
B( 29-C , 30-N ) :   2.9966 B( 31-C , 32-N ) :   2.9801 B( 33-C , 34-C ) :   1.4796
B( 33-C , 95-H ) :   0.9847 B( 34-C , 35-S ) :   1.0927 B( 34-C , 36-C ) :   1.1430
B( 36-C , 37-C ) :   1.5401 B( 36-C , 42-S ) :   1.1296 B( 37-C , 38-C ) :   1.1759
B( 37-C , 40-C ) :   1.2557 B( 38-C , 39-N ) :   2.9523 B( 40-C , 41-C ) :   1.4193
B( 40-C , 45-C ) :   1.0667 B( 41-C , 42-S ) :   1.0858 B( 41-C , 43-S ) :   1.0856
B( 43-S , 44-C ) :   1.0883 B( 44-C , 45-C ) :   1.4252 B( 44-C , 50-S ) :   1.0843
B( 45-C , 46-C ) :   1.2513 B( 46-C , 47-C ) :   1.1536 B( 46-C , 49-C ) :   1.4968
B( 47-C , 48-N ) :   2.9650 B( 49-C , 50-S ) :   1.1448 B( 49-C , 51-C ) :   1.1939
B( 51-C , 52-C ) :   1.4292 B( 51-C , 55-S ) :   1.1194 B( 52-C , 53-C ) :   1.3211
B( 52-C , 96-H ) :   0.9818 B( 53-C , 54-C ) :   1.4263 B( 53-C , 58-C ) :   0.9884
B( 54-C , 55-S ) :   1.1221 B( 54-C , 56-C ) :   1.1929 B( 56-C , 57-C ) :   1.3871
B( 56-C , 66-S ) :   1.1689 B( 57-C , 58-C ) :   0.9947 B( 57-C , 64-C ) :   1.3163
B( 58-C , 59-C ) :   1.7195 B( 59-C , 60-C ) :   1.1338 B( 59-C , 62-C ) :   1.1377
B( 60-C , 61-N ) :   2.9982 B( 62-C , 63-N ) :   2.9848 B( 64-C , 65-C ) :   1.4074
B( 64-C , 97-H ) :   0.9715 B( 65-C , 66-S ) :   1.0813 B( 65-C , 67-C ) :   1.1995
B( 67-C , 68-C ) :   1.6036 B( 67-C , 98-H ) :   0.9183 B( 68-C , 69-C ) :   1.0710
B( 68-C , 77-C ) :   0.9379 B( 69-C , 70-C ) :   1.6291 B( 69-C , 75-C ) :   0.9872
B( 70-C , 71-C ) :   1.1494 B( 70-C , 73-C ) :   1.1386 B( 71-C , 72-N ) :   2.9655
B( 73-C , 74-N ) :   2.9876 B( 75-C , 76-C ) :   1.2140 B( 75-C , 82-C ) :   1.4477
B( 76-C , 77-C ) :   0.9517 B( 76-C , 79-C ) :   1.4704 B( 77-C , 78-O ) :   2.1793
B( 79-C , 80-C ) :   1.1763 B( 79-C , 99-H ) :   1.0173 B( 80-C , 81-C ) :   1.2563
B( 80-C , 86-C ) :   1.2455 B( 81-C , 82-C ) :   1.2060 B( 81-C , 83-C ) :   1.2391
B( 82-C ,100-H ) :   0.9906 B( 83-C , 84-C ) :   1.4889 B( 83-C ,101-H ) :   0.9975
B( 84-C , 85-C ) :   1.2606 B( 84-C ,102-H ) :   0.9883 B( 85-C , 86-C ) :   1.4879
B( 85-C ,103-H ) :   0.9884 B( 86-C ,104-H ) :   0.9978

-----------------------------------------------------------------------------
         ABSORPTION SPECTRUM VIA TRANSITION ELECTRIC DIPOLE MOMENTS
-----------------------------------------------------------------------------
State   Energy  Wavelength   fosc         T2         TX        TY        TZ
        (cm-1)    (nm)                  (au**2)     (au)      (au)      (au)
-----------------------------------------------------------------------------
   0   14330.5    697.8   0.533968706  12.26678  -0.97260   3.10394  -1.29861
   1   14704.8    680.0   0.095903650   2.14709  -0.37672  -0.30989  -1.38172
   2   20861.6    479.3   1.330422285  20.99508  -1.27004   4.34555  -0.70587
   3   21659.4    461.7   1.071325901  16.28362   1.29091  -1.33755   3.58164
   4   23207.0    430.9   0.008688820   0.12326   0.15216   0.05241   0.31203
   5   23483.9    425.8   0.001141932   0.01601  -0.02106   0.08471  -0.09159
   6   24681.8    405.2   0.042206455   0.56296   0.30024   0.63161  -0.27182
   7   24732.0    404.3   0.023003508   0.30620   0.03341  -0.53024   0.15471
   8   26158.8    382.3   0.013441981   0.16917   0.07711  -0.29648   0.27445
   9   26249.7    381.0   0.022707223   0.28478  -0.04621  -0.04654  -0.52961
  10   27739.8    360.5   0.361535015   4.29064  -0.09916  -2.06901  -0.00101
  11   27918.6    358.2   0.033668204   0.39701  -0.22707   0.31222  -0.49797
  12   28227.6    354.3   0.547785176   6.38870   0.16501  -2.43392   0.66145
  13   28600.9    349.6   0.396651647   4.56567   0.02823   2.12863  -0.18383
  14   28776.1    347.5   0.028816751   0.32968  -0.45495  -0.32645  -0.12698
  15   29346.5    340.8   0.065733581   0.73741   0.15541   0.77282  -0.34059
  16   29645.2    337.3   0.089394182   0.99273  -0.25695  -0.95708   0.10346
  17   29816.3    335.4   0.112213091   1.23898   0.58349   0.34795   0.88173
  18   30198.8    331.1   0.235184679   2.56387  -0.84846   0.36468  -1.30805
  19   30279.6    330.3   0.057917124   0.62970  -0.62940   0.02217  -0.48276
  20   30360.6    329.4   0.098513650   1.06822   0.43099  -0.59620  -0.72596
  21   30608.5    326.7   0.025046839   0.26939   0.15367   0.43393   0.23975
  22   31017.2    322.4   0.287881438   3.05553  -0.73643  -1.46228  -0.61231
  23   31108.3    321.5   0.146066678   1.54579   0.12047  -1.22642   0.16483
  24   31340.0    319.1   0.085393658   0.89702  -0.30187  -0.22272  -0.86965
  25   31570.0    316.8   0.001707452   0.01781  -0.09608   0.02359   0.08954
  26   31912.0    313.4   0.084594894   0.87270   0.25512   0.85002   0.29168
  27   32150.6    311.0   0.019647037   0.20118   0.04218  -0.44007  -0.07578
  28   32532.0    307.4   0.375625225   3.80119  -0.17775   1.93928  -0.09370
  29   32654.9    306.2   0.241347623   2.43315  -0.01066  -1.05822   1.14595
  30   32992.9    303.1   0.120337858   1.20076  -0.37060  -0.29988  -0.98666
  31   33546.0    298.1   0.329616394   3.23477   1.01829   1.32825   0.65850
  32   33703.5    296.7   0.040331691   0.39395  -0.02585   0.59946   0.18422
  33   33746.2    296.3   0.038188961   0.37255   0.18716   0.51539   0.26813
  34   33884.9    295.1   0.065228903   0.63374  -0.04704  -0.78599  -0.11727
  35   34019.4    293.9   0.004007722   0.03878  -0.10939   0.11980  -0.11165
  36   34169.3    292.7   0.028535162   0.27493  -0.14132  -0.47673  -0.16639
  37   34465.5    290.1   0.361131987   3.44951  -0.00942   1.59275  -0.95529
  38   34579.7    289.2   0.048091221   0.45785  -0.25750  -0.54583   0.30596
  39   34708.7    288.1   0.303989909   2.88335   0.85018   1.46066  -0.16440
  40   35074.6    285.1   0.064433865   0.60478  -0.08854  -0.74915   0.18896
  41   35345.2    282.9   0.190003757   1.76973   0.65941   1.07329   0.42773
  42   35467.2    282.0   0.107452193   0.99739  -0.01586  -0.98379   0.17116
  43   35866.9    278.8   0.165348813   1.51769  -0.49337   0.61939  -0.94373
  44   36429.2    274.5   0.086233993   0.77930   0.43477   0.74603   0.18361
  45   36762.1    272.0   0.183371071   1.64212  -0.35108  -1.04908  -0.64676
  46   37361.7    267.7   0.028992039   0.25546  -0.16114   0.10571  -0.46725
  47   37615.2    265.8   0.005161015   0.04517   0.06091  -0.15256   0.13485
  48   38413.0    260.3   0.004615406   0.03956   0.00433   0.18819  -0.06420
  49   38546.5    259.4   0.008188350   0.06993  -0.13150   0.01916  -0.22864
  50   38639.1    258.8   0.012317104   0.10494  -0.16273   0.17576  -0.21811
  51   38669.6    258.6   0.022895397   0.19492  -0.06556   0.43653   0.00809
  52   38775.3    257.9   0.003206097   0.02722  -0.06871   0.13494  -0.06550
  53   38990.7    256.5   0.006882496   0.05811   0.16089   0.17863   0.01784
  54   39028.5    256.2   0.016102503   0.13583   0.16600  -0.30701   0.11837
  55   39313.0    254.4   0.006383664   0.05346  -0.03651   0.09681  -0.20677
  56   39463.3    253.4   0.067752304   0.56521   0.16657   0.56060   0.47242
  57   39541.8    252.9   0.058338088   0.48570  -0.20927  -0.63918  -0.18264
  58   39713.1    251.8   0.288126301   2.38850  -0.88969  -0.22737  -1.24308
  59   39726.5    251.7   0.045355843   0.37586  -0.16258  -0.00148   0.59113
  60   39758.0    251.5   0.034415032   0.28497   0.42960  -0.07816   0.30709
  61   40029.9    249.8   0.001594100   0.01311  -0.03317  -0.10166  -0.04092
  62   40257.4    248.4   0.011153215   0.09121  -0.12140  -0.15457  -0.22930

FINAL SINGLE POINT ENERGY     -6082.121434130165

DIPOLE MOMENT
-------------
                                X             Y             Z
Electronic contribution:     10.59781      11.99391      38.93601
Nuclear contribution   :     -8.74604     -11.96448     -35.48970
                        -----------------------------------------
Total Dipole Moment    :      1.85177       0.02943       3.44631
                        -----------------------------------------
Magnitude (a.u.)       :      3.91241
Magnitude (Debye)      :      9.94457

Rotational constants in cm-1:     0.001273     0.000127     0.000117
Rotational constants in MHz :    38.150095     3.816351     3.513666

                             ****ORCA TERMINATED NORMALLY****
TOTAL RUN TIME: 0 days 0 hours 12 minutes 11 seconds 339 msec
