                         Program Version 4.2.0 -  RELEASE  -
|  1> # ORCA input file
|  2> # SCF done       -210.061993286860          0.000369237738
|  3> ! CAM-B3LYP def2-SVP def2/J RIJCOSX Grid4 TightSCF
|  4> %maxcore 5000
|  5> %tddft
|  6>     Mode sTDDFT
|  7>     Ethresh 5.0
|  8>     maxcore 5000
|  9> end
| 10>
| 11> %pal
| 12>   nprocs 6
| 13>   end
| 14> * xyz 0 1
| 15>    C       -4.00661         0.35070        -1.30540
| 16>    C       -3.67736         0.65015        -0.00580
| 17>    C       -2.94666        -0.20553         0.84352
| 18>    N       -2.35815        -0.85388         1.58674
| 19>    C       -4.00201         1.84174         0.67357
| 20>    N       -4.21948         2.77839         1.30277
| 21>    C       -3.64368        -0.88234        -1.99900
| 22>    C       -4.11804        -0.81155        -3.33095
| 23>    C       -3.93617        -1.82565        -4.23859
| 24>    C       -3.25616        -2.97084        -3.81065
| 25>    C       -2.78756        -3.03461        -2.47744
| 26>    C       -2.96831        -2.00627        -1.56056
| 27>    S       -1.98102        -4.54040        -2.15498
| 28>    C       -2.28165        -5.05576        -3.79333
| 29>    C       -2.94972        -4.14925        -4.54509
| 30>   Br       -1.68674        -6.74338        -4.35649
| 31>    C       -4.81496         0.47609        -3.53606
| 32>    O       -5.32748         0.85353        -4.56897
| 33>    C       -4.75186         1.17514        -2.23207
| 34>    C       -5.34742         2.38091        -1.95884
| 35>    C       -6.10086         3.13937        -2.87130
| 36>    C       -6.72058         4.29381        -2.48257
| 37>    C       -7.53716         5.07614        -3.31623
| 38>    O       -8.16924         6.16720        -2.80328
| 39>    C       -8.93529         6.72141        -3.77499
| 40>    C       -8.78123         5.98329        -4.95129
| 41>    C       -7.89324         4.93420        -4.66479
| 42>    O       -7.46744         3.98104        -5.50458
| 43>    O       -9.34602         6.17320        -6.17166
| 44>    C       -9.76357         7.83245        -3.50830
| 45>    C       -9.82877         8.46116        -2.29888
| 46>    C      -10.74213         9.49116        -2.00895
| 47>    C      -10.78850        10.11362        -0.79233
| 48>    C      -11.72365        11.05466        -0.32683
| 49>    S      -11.32223        11.94038         1.11474
| 50>    C      -12.84934        12.76835         1.17500
| 51>    C      -13.63452        12.40731         0.05406
| 52>    C      -13.01309        11.42385        -0.77518
| 53>    C      -13.72215        10.91033        -1.87479
| 54>    C      -14.94925        11.42784        -2.18652
| 55>    F      -15.62213        10.94172        -3.24169
| 56>    C      -15.50763        12.47782        -1.43369
| 57>    F      -16.68041        13.00767        -1.81064
| 58>    C      -14.86985        12.95906        -0.32282
| 59>    C      -13.13340        13.59245         2.26952
| 60>    C      -14.39131        13.91488         2.72582
| 61>    C      -14.63889        14.74258         3.81623
| 62>    C      -15.89424        14.91194         4.37205
| 63>    C      -16.25382        15.74117         5.45276
| 64>    C      -17.57081        15.65294         5.81179
| 65>    C      -18.30870        14.73718         5.03804
| 66>    S      -17.29732        14.01911         3.81397
| 67>    C      -19.63744        14.35812         5.18871
| 68>    C      -20.57483        14.82887         6.12688
| 69>    C      -21.78905        14.20536         6.04770
| 70>    C      -21.86083        13.21016         5.05085
| 71>    S      -20.34633        13.11460         4.18695
| 72>    C      -22.94310        12.39264         4.77316
| 73>    C      -22.90992        11.38556         3.81801
| 74>    C      -23.90375        10.49284         3.47228
| 75>    C      -23.51973         9.23593         2.78864
| 76>    O      -22.44390         8.97744         2.29163
| 77>    C      -24.69994         8.35529         2.89531
| 78>    C      -24.83601         7.05081         2.52146
| 79>    C      -26.05884         6.38644         2.76980
| 80>    C      -27.11864         7.09445         3.40620
| 81>    C      -28.32985         6.42387         3.66293
| 82>    C      -28.46288         5.11360         3.29571
| 83>    C      -27.43383         4.40093         2.66696
| 84>    C      -26.25088         5.03727         2.41050
| 85>    F      -29.62047         4.47043         3.54232
| 86>    C      -26.95146         8.45184         3.77235
| 87>    C      -25.76112         9.07439         3.51623
| 88>    C      -25.30912        10.44654         3.75993
| 89>    C      -26.14281        11.51007         4.02320
| 90>    C      -25.75014        12.86144         3.97699
| 91>    N      -25.50072        13.98128         3.91524
| 92>    C      -27.52393        11.38300         4.26509
| 93>    N      -28.64943        11.34294         4.49243
| 94>    H       -4.30998        -1.73950        -5.24685
| 95>    H       -2.59276        -2.10607        -0.55610
| 96>    H       -3.21749        -4.30347        -5.57444
| 97>    H       -5.25936         2.78196        -0.95699
| 98>    H       -6.20568         2.78601        -3.88535
| 99>    H       -6.61945         4.64645        -1.46386
|100>    H       -7.87275         4.11944        -6.37162
|101>    H       -9.92157         6.94512        -6.15497
|102>    H      -10.39668         8.16943        -4.31927
|103>    H       -9.17034         8.12346        -1.51119
|104>    H      -11.41568         9.78378        -2.79968
|105>    H      -10.00043         9.87281        -0.08814
|106>    H      -13.33417        10.10550        -2.47299
|107>    H      -15.31426        13.77275         0.22395
|108>    H      -12.28261        13.92023         2.85423
|109>    H      -15.25119        13.44851         2.26603
|110>    H      -13.81593        15.27908         4.26950
|111>    H      -15.53503        16.37781         5.93774
|112>    H      -18.01644        16.21081         6.61530
|113>    H      -20.33870        15.60403         6.83343
|114>    H      -22.63149        14.42952         6.67716
|115>    H      -23.82540        12.54087         5.37784
|116>    H      -21.95424        11.19305         3.33748
|117>    H      -24.01969         6.52872         2.04510
|118>    H      -29.14543         6.94203         4.14280
|119>    H      -27.59615         3.36869         2.39997
|120>    H      -25.44233         4.50945         1.92727
|121>    H      -27.77032         8.95905         4.25725
|122> *
|123>
|124>                          ****END OF INPUT****

CARTESIAN COORDINATES (ANGSTROEM)
---------------------------------
  C     -4.006610    0.350700   -1.305400
  C     -3.677360    0.650150   -0.005800
  C     -2.946660   -0.205530    0.843520
  N     -2.358150   -0.853880    1.586740
  C     -4.002010    1.841740    0.673570
  N     -4.219480    2.778390    1.302770
  C     -3.643680   -0.882340   -1.999000
  C     -4.118040   -0.811550   -3.330950
  C     -3.936170   -1.825650   -4.238590
  C     -3.256160   -2.970840   -3.810650
  C     -2.787560   -3.034610   -2.477440
  C     -2.968310   -2.006270   -1.560560
  S     -1.981020   -4.540400   -2.154980
  C     -2.281650   -5.055760   -3.793330
  C     -2.949720   -4.149250   -4.545090
  Br    -1.686740   -6.743380   -4.356490
  C     -4.814960    0.476090   -3.536060
  O     -5.327480    0.853530   -4.568970
  C     -4.751860    1.175140   -2.232070
  C     -5.347420    2.380910   -1.958840
  C     -6.100860    3.139370   -2.871300
  C     -6.720580    4.293810   -2.482570
  C     -7.537160    5.076140   -3.316230
  O     -8.169240    6.167200   -2.803280
  C     -8.935290    6.721410   -3.774990
  C     -8.781230    5.983290   -4.951290
  C     -7.893240    4.934200   -4.664790
  O     -7.467440    3.981040   -5.504580
  O     -9.346020    6.173200   -6.171660
  C     -9.763570    7.832450   -3.508300
  C     -9.828770    8.461160   -2.298880
  C    -10.742130    9.491160   -2.008950
  C    -10.788500   10.113620   -0.792330
  C    -11.723650   11.054660   -0.326830
  S    -11.322230   11.940380    1.114740
  C    -12.849340   12.768350    1.175000
  C    -13.634520   12.407310    0.054060
  C    -13.013090   11.423850   -0.775180
  C    -13.722150   10.910330   -1.874790
  C    -14.949250   11.427840   -2.186520
  F    -15.622130   10.941720   -3.241690
  C    -15.507630   12.477820   -1.433690
  F    -16.680410   13.007670   -1.810640
  C    -14.869850   12.959060   -0.322820
  C    -13.133400   13.592450    2.269520
  C    -14.391310   13.914880    2.725820
  C    -14.638890   14.742580    3.816230
  C    -15.894240   14.911940    4.372050
  C    -16.253820   15.741170    5.452760
  C    -17.570810   15.652940    5.811790
  C    -18.308700   14.737180    5.038040
  S    -17.297320   14.019110    3.813970
  C    -19.637440   14.358120    5.188710
  C    -20.574830   14.828870    6.126880
  C    -21.789050   14.205360    6.047700
  C    -21.860830   13.210160    5.050850
  S    -20.346330   13.114600    4.186950
  C    -22.943100   12.392640    4.773160
  C    -22.909920   11.385560    3.818010
  C    -23.903750   10.492840    3.472280
  C    -23.519730    9.235930    2.788640
  O    -22.443900    8.977440    2.291630
  C    -24.699940    8.355290    2.895310
  C    -24.836010    7.050810    2.521460
  C    -26.058840    6.386440    2.769800
  C    -27.118640    7.094450    3.406200
  C    -28.329850    6.423870    3.662930
  C    -28.462880    5.113600    3.295710
  C    -27.433830    4.400930    2.666960
  C    -26.250880    5.037270    2.410500
  F    -29.620470    4.470430    3.542320
  C    -26.951460    8.451840    3.772350
  C    -25.761120    9.074390    3.516230
  C    -25.309120   10.446540    3.759930
  C    -26.142810   11.510070    4.023200
  C    -25.750140   12.861440    3.976990
  N    -25.500720   13.981280    3.915240
  C    -27.523930   11.383000    4.265090
  N    -28.649430   11.342940    4.492430
  H     -4.309980   -1.739500   -5.246850
  H     -2.592760   -2.106070   -0.556100
  H     -3.217490   -4.303470   -5.574440
  H     -5.259360    2.781960   -0.956990
  H     -6.205680    2.786010   -3.885350
  H     -6.619450    4.646450   -1.463860
  H     -7.872750    4.119440   -6.371620
  H     -9.921570    6.945120   -6.154970
  H    -10.396680    8.169430   -4.319270
  H     -9.170340    8.123460   -1.511190
  H    -11.415680    9.783780   -2.799680
  H    -10.000430    9.872810   -0.088140
  H    -13.334170   10.105500   -2.472990
  H    -15.314260   13.772750    0.223950
  H    -12.282610   13.920230    2.854230
  H    -15.251190   13.448510    2.266030
  H    -13.815930   15.279080    4.269500
  H    -15.535030   16.377810    5.937740
  H    -18.016440   16.210810    6.615300
  H    -20.338700   15.604030    6.833430
  H    -22.631490   14.429520    6.677160
  H    -23.825400   12.540870    5.377840
  H    -21.954240   11.193050    3.337480
  H    -24.019690    6.528720    2.045100
  H    -29.145430    6.942030    4.142800
  H    -27.596150    3.368690    2.399970
  H    -25.442330    4.509450    1.927270
  H    -27.770320    8.959050    4.257250

 Total Charge           Charge          ....    0
 Multiplicity           Mult            ....    1
 Number of Electrons    NEL             ....  594
 Basis Dimension        Dim             .... 1280

ORBITAL ENERGIES
----------------

  NO   OCC          E(Eh)            E(eV)
   0   2.0000    -482.881841    -13139.8829
   1   2.0000     -88.984862     -2421.4012
   2   2.0000     -88.970148     -2421.0008
   3   2.0000     -88.966571     -2420.9035
   4   2.0000     -88.960492     -2420.7380
   5   2.0000     -62.559526     -1702.3313
   6   2.0000     -56.393470     -1534.5443
   7   2.0000     -56.390767     -1534.4708
   8   2.0000     -56.390733     -1534.4699
   9   2.0000     -24.799246      -674.8218
  10   2.0000     -24.798248      -674.7946
  11   2.0000     -24.774203      -674.1403
  12   2.0000     -19.304292      -525.2965
  13   2.0000     -19.285260      -524.7786
  14   2.0000     -19.278057      -524.5826
  15   2.0000     -19.207053      -522.6505
  16   2.0000     -19.193399      -522.2789
  17   2.0000     -14.408438      -392.0735
  18   2.0000     -14.406146      -392.0112
  19   2.0000     -14.397434      -391.7741
  20   2.0000     -14.395926      -391.7331
  21   2.0000     -10.381951      -282.5073
  22   2.0000     -10.381617      -282.4982
  23   2.0000     -10.360176      -281.9147
  24   2.0000     -10.357514      -281.8423
  25   2.0000     -10.357509      -281.8421
  26   2.0000     -10.356654      -281.8189
  27   2.0000     -10.355109      -281.7768
  28   2.0000     -10.354047      -281.7480
  29   2.0000     -10.345483      -281.5149
  30   2.0000     -10.344602      -281.4909
  31   2.0000     -10.336887      -281.2810
  32   2.0000     -10.332350      -281.1575
  33   2.0000     -10.331153      -281.1250
  34   2.0000     -10.330239      -281.1001
  35   2.0000     -10.327256      -281.0189
  36   2.0000     -10.326752      -281.0052
  37   2.0000     -10.325538      -280.9722
  38   2.0000     -10.323160      -280.9075
  39   2.0000     -10.321971      -280.8751
  40   2.0000     -10.321420      -280.8601
  41   2.0000     -10.319209      -280.8000
  42   2.0000     -10.312201      -280.6093
  43   2.0000     -10.312008      -280.6040
  44   2.0000     -10.311874      -280.6003
  45   2.0000     -10.311394      -280.5873
  46   2.0000     -10.309849      -280.5452
  47   2.0000     -10.307901      -280.4922
  48   2.0000     -10.307585      -280.4836
  49   2.0000     -10.307504      -280.4814
  50   2.0000     -10.306585      -280.4564
  51   2.0000     -10.305583      -280.4292
  52   2.0000     -10.304799      -280.4078
  53   2.0000     -10.304636      -280.4034
  54   2.0000     -10.304514      -280.4001
  55   2.0000     -10.304275      -280.3936
  56   2.0000     -10.303260      -280.3659
  57   2.0000     -10.301485      -280.3177
  58   2.0000     -10.301231      -280.3108
  59   2.0000     -10.300613      -280.2939
  60   2.0000     -10.299439      -280.2620
  61   2.0000     -10.299310      -280.2585
  62   2.0000     -10.299068      -280.2519
  63   2.0000     -10.298780      -280.2440
  64   2.0000     -10.298468      -280.2355
  65   2.0000     -10.296407      -280.1795
  66   2.0000     -10.294045      -280.1152
  67   2.0000     -10.291943      -280.0580
  68   2.0000     -10.291917      -280.0573
  69   2.0000     -10.291567      -280.0478
  70   2.0000     -10.289444      -279.9900
  71   2.0000     -10.286624      -279.9133
  72   2.0000     -10.285130      -279.8726
  73   2.0000     -10.284904      -279.8665
  74   2.0000     -10.284306      -279.8502
  75   2.0000     -10.283916      -279.8396
  76   2.0000     -10.281993      -279.7873
  77   2.0000     -10.281751      -279.7807
  78   2.0000     -10.279710      -279.7251
  79   2.0000     -10.276353      -279.6338
  80   2.0000     -10.276197      -279.6295
  81   2.0000     -10.273761      -279.5633
  82   2.0000     -10.273059      -279.5441
  83   2.0000      -8.788942      -239.1593
  84   2.0000      -8.080344      -219.8773
  85   2.0000      -8.066163      -219.4915
  86   2.0000      -8.062931      -219.4035
  87   2.0000      -8.056846      -219.2379
  88   2.0000      -6.625184      -180.2804
  89   2.0000      -6.610701      -179.8863
  90   2.0000      -6.610511      -179.8811
  91   2.0000      -6.049271      -164.6090
  92   2.0000      -6.045307      -164.5012
  93   2.0000      -6.043031      -164.4392
  94   2.0000      -6.035849      -164.2438
  95   2.0000      -6.032542      -164.1538
  96   2.0000      -6.031597      -164.1281
  97   2.0000      -6.028535      -164.0448
  98   2.0000      -6.027367      -164.0130
  99   2.0000      -6.026419      -163.9872
 100   2.0000      -6.024017      -163.9218
 101   2.0000      -6.022404      -163.8780
 102   2.0000      -6.018006      -163.7583
 103   2.0000      -2.741103       -74.5892
 104   2.0000      -2.736986       -74.4772
 105   2.0000      -2.736835       -74.4731
 106   2.0000      -2.725330       -74.1600
 107   2.0000      -2.725313       -74.1595
 108   2.0000      -1.320919       -35.9440
 109   2.0000      -1.306253       -35.5450
 110   2.0000      -1.288620       -35.0651
 111   2.0000      -1.225464       -33.3466
 112   2.0000      -1.181018       -32.1371
 113   2.0000      -1.164712       -31.6934
 114   2.0000      -1.121497       -30.5175
 115   2.0000      -1.107908       -30.1477
 116   2.0000      -1.020319       -27.7643
 117   2.0000      -1.015785       -27.6409
 118   2.0000      -1.014526       -27.6067
 119   2.0000      -1.006207       -27.3803
 120   2.0000      -1.000202       -27.2169
 121   2.0000      -0.991358       -26.9762
 122   2.0000      -0.986278       -26.8380
 123   2.0000      -0.984110       -26.7790
 124   2.0000      -0.981368       -26.7044
 125   2.0000      -0.975563       -26.5464
 126   2.0000      -0.960275       -26.1304
 127   2.0000      -0.960012       -26.1232
 128   2.0000      -0.945442       -25.7268
 129   2.0000      -0.938557       -25.5394
 130   2.0000      -0.933805       -25.4101
 131   2.0000      -0.922975       -25.1154
 132   2.0000      -0.916184       -24.9306
 133   2.0000      -0.910022       -24.7630
 134   2.0000      -0.904939       -24.6246
 135   2.0000      -0.901566       -24.5329
 136   2.0000      -0.898807       -24.4578
 137   2.0000      -0.887720       -24.1561
 138   2.0000      -0.879637       -23.9361
 139   2.0000      -0.879197       -23.9242
 140   2.0000      -0.873205       -23.7611
 141   2.0000      -0.871023       -23.7017
 142   2.0000      -0.866827       -23.5876
 143   2.0000      -0.861687       -23.4477
 144   2.0000      -0.853590       -23.2274
 145   2.0000      -0.849826       -23.1250
 146   2.0000      -0.842355       -22.9216
 147   2.0000      -0.836613       -22.7654
 148   2.0000      -0.824692       -22.4410
 149   2.0000      -0.822402       -22.3787
 150   2.0000      -0.819259       -22.2932
 151   2.0000      -0.808387       -21.9973
 152   2.0000      -0.793567       -21.5940
 153   2.0000      -0.778757       -21.1911
 154   2.0000      -0.764249       -20.7963
 155   2.0000      -0.753213       -20.4960
 156   2.0000      -0.750785       -20.4299
 157   2.0000      -0.748771       -20.3751
 158   2.0000      -0.744622       -20.2622
 159   2.0000      -0.738785       -20.1034
 160   2.0000      -0.734950       -19.9990
 161   2.0000      -0.721786       -19.6408
 162   2.0000      -0.717442       -19.5226
 163   2.0000      -0.705277       -19.1916
 164   2.0000      -0.703227       -19.1358
 165   2.0000      -0.695836       -18.9347
 166   2.0000      -0.694168       -18.8893
 167   2.0000      -0.685422       -18.6513
 168   2.0000      -0.683529       -18.5998
 169   2.0000      -0.681774       -18.5520
 170   2.0000      -0.672859       -18.3094
 171   2.0000      -0.671688       -18.2776
 172   2.0000      -0.663211       -18.0469
 173   2.0000      -0.660648       -17.9771
 174   2.0000      -0.654104       -17.7991
 175   2.0000      -0.651200       -17.7200
 176   2.0000      -0.650187       -17.6925
 177   2.0000      -0.644688       -17.5428
 178   2.0000      -0.639354       -17.3977
 179   2.0000      -0.635252       -17.2861
 180   2.0000      -0.629666       -17.1341
 181   2.0000      -0.626074       -17.0363
 182   2.0000      -0.623628       -16.9698
 183   2.0000      -0.621674       -16.9166
 184   2.0000      -0.617984       -16.8162
 185   2.0000      -0.616144       -16.7661
 186   2.0000      -0.615771       -16.7560
 187   2.0000      -0.612787       -16.6748
 188   2.0000      -0.605223       -16.4690
 189   2.0000      -0.596905       -16.2426
 190   2.0000      -0.588891       -16.0245
 191   2.0000      -0.587029       -15.9739
 192   2.0000      -0.586241       -15.9524
 193   2.0000      -0.585462       -15.9312
 194   2.0000      -0.582457       -15.8495
 195   2.0000      -0.575507       -15.6603
 196   2.0000      -0.571691       -15.5565
 197   2.0000      -0.564564       -15.3626
 198   2.0000      -0.562516       -15.3068
 199   2.0000      -0.559412       -15.2224
 200   2.0000      -0.555120       -15.1056
 201   2.0000      -0.551279       -15.0011
 202   2.0000      -0.547788       -14.9061
 203   2.0000      -0.547160       -14.8890
 204   2.0000      -0.546478       -14.8704
 205   2.0000      -0.545894       -14.8545
 206   2.0000      -0.541965       -14.7476
 207   2.0000      -0.536788       -14.6067
 208   2.0000      -0.532883       -14.5005
 209   2.0000      -0.532199       -14.4819
 210   2.0000      -0.531790       -14.4707
 211   2.0000      -0.530071       -14.4240
 212   2.0000      -0.522839       -14.2272
 213   2.0000      -0.520256       -14.1569
 214   2.0000      -0.518520       -14.1096
 215   2.0000      -0.517178       -14.0731
 216   2.0000      -0.516747       -14.0614
 217   2.0000      -0.514827       -14.0091
 218   2.0000      -0.513537       -13.9740
 219   2.0000      -0.510290       -13.8857
 220   2.0000      -0.509928       -13.8758
 221   2.0000      -0.507879       -13.8201
 222   2.0000      -0.506493       -13.7824
 223   2.0000      -0.502978       -13.6867
 224   2.0000      -0.502457       -13.6725
 225   2.0000      -0.501989       -13.6598
 226   2.0000      -0.501334       -13.6420
 227   2.0000      -0.497140       -13.5279
 228   2.0000      -0.495188       -13.4747
 229   2.0000      -0.493665       -13.4333
 230   2.0000      -0.488161       -13.2835
 231   2.0000      -0.488143       -13.2830
 232   2.0000      -0.486361       -13.2345
 233   2.0000      -0.485380       -13.2079
 234   2.0000      -0.483660       -13.1611
 235   2.0000      -0.482597       -13.1321
 236   2.0000      -0.480679       -13.0799
 237   2.0000      -0.479627       -13.0513
 238   2.0000      -0.474025       -12.8989
 239   2.0000      -0.471669       -12.8348
 240   2.0000      -0.468474       -12.7478
 241   2.0000      -0.466990       -12.7074
 242   2.0000      -0.464968       -12.6524
 243   2.0000      -0.464832       -12.6487
 244   2.0000      -0.461060       -12.5461
 245   2.0000      -0.454055       -12.3555
 246   2.0000      -0.453544       -12.3416
 247   2.0000      -0.451845       -12.2953
 248   2.0000      -0.450293       -12.2531
 249   2.0000      -0.444808       -12.1038
 250   2.0000      -0.442610       -12.0440
 251   2.0000      -0.442207       -12.0331
 252   2.0000      -0.442102       -12.0302
 253   2.0000      -0.439466       -11.9585
 254   2.0000      -0.438101       -11.9213
 255   2.0000      -0.436817       -11.8864
 256   2.0000      -0.436033       -11.8651
 257   2.0000      -0.434423       -11.8212
 258   2.0000      -0.432628       -11.7724
 259   2.0000      -0.432152       -11.7594
 260   2.0000      -0.428103       -11.6493
 261   2.0000      -0.426636       -11.6094
 262   2.0000      -0.425028       -11.5656
 263   2.0000      -0.421281       -11.4637
 264   2.0000      -0.419234       -11.4079
 265   2.0000      -0.415650       -11.3104
 266   2.0000      -0.414834       -11.2882
 267   2.0000      -0.412397       -11.2219
 268   2.0000      -0.411686       -11.2025
 269   2.0000      -0.407222       -11.0811
 270   2.0000      -0.402673       -10.9573
 271   2.0000      -0.399791       -10.8789
 272   2.0000      -0.399595       -10.8735
 273   2.0000      -0.394364       -10.7312
 274   2.0000      -0.387182       -10.5357
 275   2.0000      -0.381384       -10.3780
 276   2.0000      -0.371274       -10.1029
 277   2.0000      -0.371173       -10.1001
 278   2.0000      -0.366181        -9.9643
 279   2.0000      -0.364051        -9.9063
 280   2.0000      -0.353510        -9.6195
 281   2.0000      -0.352273        -9.5858
 282   2.0000      -0.344537        -9.3753
 283   2.0000      -0.336746        -9.1633
 284   2.0000      -0.329983        -8.9793
 285   2.0000      -0.329283        -8.9602
 286   2.0000      -0.326664        -8.8890
 287   2.0000      -0.319407        -8.6915
 288   2.0000      -0.314971        -8.5708
 289   2.0000      -0.309357        -8.4180
 290   2.0000      -0.303219        -8.2510
 291   2.0000      -0.296071        -8.0565
 292   2.0000      -0.288159        -7.8412
 293   2.0000      -0.284044        -7.7292
 294   2.0000      -0.270754        -7.3676
 295   2.0000      -0.244124        -6.6429
 296   2.0000      -0.215883        -5.8745
 297   0.0000      -0.122090        -3.3222
 298   0.0000      -0.094919        -2.5829
 299   0.0000      -0.075057        -2.0424
 300   0.0000      -0.056154        -1.5280
 301   0.0000      -0.049325        -1.3422

MULLIKEN ATOMIC CHARGES
-----------------------
   0 C :    0.335034
   1 C :   -0.363395
   2 C :   -0.184557
   3 N :    0.142096
   4 C :   -0.190420
   5 N :    0.137959
   6 C :    0.010443
   7 C :   -0.009470
   8 C :   -0.076754
   9 C :    0.118436
  10 C :   -0.092125
  11 C :   -0.022355
  12 S :    0.183105
  13 C :   -0.123166
  14 C :    0.038015
  15 Br:    0.019082
  16 C :    0.140027
  17 O :   -0.151486
  18 C :   -0.075428
  19 C :   -0.035641
  20 C :   -0.031253
  21 C :    0.010515
  22 C :    0.122020
  23 O :   -0.214642
  24 C :    0.118166
  25 C :    0.087632
  26 C :    0.077360
  27 O :   -0.142876
  28 O :   -0.192345
  29 C :   -0.071645
  30 C :    0.030042
  31 C :   -0.003700
  32 C :    0.037071
  33 C :   -0.115272
  34 S :    0.173838
  35 C :   -0.120152
  36 C :    0.125209
  37 C :    0.131057
  38 C :   -0.124653
  39 C :    0.229653
  40 F :   -0.175045
  41 C :    0.226835
  42 F :   -0.171079
  43 C :   -0.122591
  44 C :    0.039465
  45 C :   -0.027748
  46 C :    0.012858
  47 C :   -0.035721
  48 C :    0.048205
  49 C :    0.019374
  50 C :   -0.025868
  51 S :    0.092997
  52 C :   -0.057823
  53 C :    0.036799
  54 C :    0.033411
  55 C :   -0.016748
  56 S :    0.110001
  57 C :    0.000978
  58 C :    0.021125
  59 C :   -0.135783
  60 C :    0.138197
  61 O :   -0.158523
  62 C :    0.005710
  63 C :   -0.090132
  64 C :    0.102306
  65 C :    0.104747
  66 C :   -0.100689
  67 C :    0.301039
  68 C :   -0.032173
  69 C :   -0.012789
  70 F :   -0.195009
  71 C :   -0.095425
  72 C :    0.045107
  73 C :    0.296925
  74 C :   -0.348145
  75 C :   -0.219628
  76 N :    0.154426
  77 C :   -0.176805
  78 N :    0.133721
  79 H :   -0.015280
  80 H :   -0.008485
  81 H :   -0.005642
  82 H :    0.005480
  83 H :    0.040935
  84 H :    0.009711
  85 H :    0.200236
  86 H :    0.195081
  87 H :   -0.027339
  88 H :    0.008771
  89 H :   -0.005412
  90 H :   -0.005143
  91 H :   -0.015503
  92 H :   -0.001411
  93 H :   -0.005722
  94 H :    0.018907
  95 H :   -0.005364
  96 H :   -0.003447
  97 H :   -0.005549
  98 H :   -0.004785
  99 H :    0.002730
 100 H :    0.007733
 101 H :    0.013295
 102 H :   -0.018018
 103 H :   -0.004281
 104 H :   -0.001340
 105 H :   -0.013672
 106 H :   -0.008414
Sum of atomic charges:   -0.0000000

LOEWDIN ATOMIC CHARGES
----------------------
   0 C :    0.076256
   1 C :   -0.149956
   2 C :   -0.018267
   3 N :   -0.062303
   4 C :   -0.019678
   5 N :   -0.062588
   6 C :   -0.020092
   7 C :   -0.049140
   8 C :    0.018625
   9 C :   -0.034053
  10 C :   -0.145005
  11 C :   -0.011481
  12 S :    0.429450
  13 C :   -0.273036
  14 C :   -0.071113
  15 Br:    0.133138
  16 C :    0.082145
  17 O :   -0.148223
  18 C :   -0.105710
  19 C :    0.064988
  20 C :   -0.036487
  21 C :    0.019494
  22 C :   -0.004518
  23 O :    0.004570
  24 C :    0.003857
  25 C :   -0.018705
  26 C :    0.019201
  27 O :   -0.016320
  28 O :   -0.055621
  29 C :   -0.054715
  30 C :   -0.006419
  31 C :   -0.025893
  32 C :   -0.042810
  33 C :   -0.166930
  34 S :    0.485156
  35 C :   -0.178247
  36 C :   -0.036572
  37 C :   -0.041266
  38 C :   -0.039282
  39 C :    0.065035
  40 F :   -0.053891
  41 C :    0.065409
  42 F :   -0.050014
  43 C :   -0.037834
  44 C :   -0.024933
  45 C :   -0.044106
  46 C :   -0.026946
  47 C :   -0.155705
  48 C :   -0.016816
  49 C :   -0.037898
  50 C :   -0.150561
  51 S :    0.396403
  52 C :   -0.192503
  53 C :   -0.009904
  54 C :   -0.037912
  55 C :   -0.102192
  56 S :    0.407234
  57 C :   -0.066768
  58 C :    0.048532
  59 C :   -0.106781
  60 C :    0.076616
  61 O :   -0.160931
  62 C :   -0.056137
  63 C :    0.027301
  64 C :   -0.020599
  65 C :    0.001939
  66 C :   -0.043558
  67 C :    0.090014
  68 C :   -0.041974
  69 C :    0.002020
  70 F :   -0.069258
  71 C :    0.005244
  72 C :   -0.013848
  73 C :    0.067298
  74 C :   -0.154414
  75 C :   -0.024161
  76 N :   -0.064451
  77 C :   -0.019407
  78 N :   -0.067154
  79 H :    0.039197
  80 H :    0.040486
  81 H :    0.037911
  82 H :    0.040245
  83 H :    0.034574
  84 H :    0.044268
  85 H :    0.110649
  86 H :    0.101264
  87 H :    0.026588
  88 H :    0.035871
  89 H :    0.025979
  90 H :    0.032592
  91 H :    0.038449
  92 H :    0.042906
  93 H :    0.032887
  94 H :    0.024104
  95 H :    0.037082
  96 H :    0.037495
  97 H :    0.034985
  98 H :    0.035512
  99 H :    0.040272
 100 H :    0.038130
 101 H :    0.033163
 102 H :    0.037078
 103 H :    0.042116
 104 H :    0.039695
 105 H :    0.033786
 106 H :    0.037875

  Mayer bond orders larger than 0.100000
B(  0-C ,  1-C ) :   1.6061 B(  0-C ,  6-C ) :   0.9939 B(  0-C , 18-C ) :   1.0874
B(  1-C ,  2-C ) :   1.1440 B(  1-C ,  4-C ) :   1.1513 B(  2-C ,  3-N ) :   2.9648
B(  4-C ,  5-N ) :   2.9597 B(  6-C ,  7-C ) :   1.2799 B(  6-C , 11-C ) :   1.4128
B(  7-C ,  8-C ) :   1.4251 B(  7-C , 16-C ) :   0.9375 B(  8-C ,  9-C ) :   1.2431
B(  8-C , 79-H ) :   1.0160 B(  9-C , 10-C ) :   1.3122 B(  9-C , 14-C ) :   1.1605
B( 10-C , 11-C ) :   1.3280 B( 10-C , 12-S ) :   1.0836 B( 11-C , 80-H ) :   0.9781
B( 12-S , 13-C ) :   1.0862 B( 13-C , 14-C ) :   1.6194 B( 13-C , 15-Br) :   1.0165
B( 14-C , 81-H ) :   1.0000 B( 16-C , 17-O ) :   2.2034 B( 16-C , 18-C ) :   0.9558
B( 18-C , 19-C ) :   1.4838 B( 19-C , 20-C ) :   1.2013 B( 19-C , 82-H ) :   0.9624
B( 20-C , 21-C ) :   1.4896 B( 20-C , 83-H ) :   0.9758 B( 21-C , 22-C ) :   1.1795
B( 21-C , 84-H ) :   0.9729 B( 22-C , 23-O ) :   1.0937 B( 22-C , 24-C ) :   0.1052
B( 22-C , 26-C ) :   1.3563 B( 23-O , 24-C ) :   1.1355 B( 24-C , 25-C ) :   1.2805
B( 24-C , 29-C ) :   1.1559 B( 25-C , 26-C ) :   1.2649 B( 25-C , 28-O ) :   1.2393
B( 26-C , 27-O ) :   1.2813 B( 27-O , 85-H ) :   0.9435 B( 28-O , 86-H ) :   0.9554
B( 29-C , 30-C ) :   1.5910 B( 29-C , 87-H ) :   0.9647 B( 30-C , 31-C ) :   1.1634
B( 30-C , 88-H ) :   0.9977 B( 31-C , 32-C ) :   1.5887 B( 31-C , 89-H ) :   0.9802
B( 32-C , 33-C ) :   1.1762 B( 32-C , 90-H ) :   0.9545 B( 33-C , 34-S ) :   1.1586
B( 33-C , 37-C ) :   1.3012 B( 34-S , 35-C ) :   1.1364 B( 35-C , 36-C ) :   1.2888
B( 35-C , 44-C ) :   1.2086 B( 36-C , 37-C ) :   1.2387 B( 36-C , 43-C ) :   1.1825
B( 37-C , 38-C ) :   1.1739 B( 38-C , 39-C ) :   1.4859 B( 38-C , 43-C ) :   0.1081
B( 38-C , 91-H ) :   0.9969 B( 39-C , 40-F ) :   1.1342 B( 39-C , 41-C ) :   1.1696
B( 41-C , 42-F ) :   1.1362 B( 41-C , 43-C ) :   1.4796 B( 43-C , 92-H ) :   0.9957
B( 44-C , 45-C ) :   1.5511 B( 44-C , 93-H ) :   0.9597 B( 45-C , 46-C ) :   1.2242
B( 45-C , 94-H ) :   0.9661 B( 46-C , 47-C ) :   1.4969 B( 46-C , 95-H ) :   0.9851
B( 47-C , 48-C ) :   1.1793 B( 47-C , 51-S ) :   1.0360 B( 48-C , 49-C ) :   1.5446
B( 48-C , 96-H ) :   1.0002 B( 49-C , 50-C ) :   1.2236 B( 49-C , 97-H ) :   0.9957
B( 50-C , 51-S ) :   1.0831 B( 50-C , 52-C ) :   1.4331 B( 52-C , 53-C ) :   1.2346
B( 52-C , 56-S ) :   1.0507 B( 53-C , 54-C ) :   1.5262 B( 53-C , 98-H ) :   0.9958
B( 54-C , 55-C ) :   1.1940 B( 54-C , 99-H ) :   1.0012 B( 55-C , 56-S ) :   1.0867
B( 55-C , 57-C ) :   1.4790 B( 57-C , 58-C ) :   1.2400 B( 57-C ,100-H ) :   0.9635
B( 58-C , 59-C ) :   1.5125 B( 58-C ,101-H ) :   0.9363 B( 59-C , 60-C ) :   0.9679
B( 59-C , 73-C ) :   1.0917 B( 60-C , 61-O ) :   2.2419 B( 60-C , 62-C ) :   0.9180
B( 62-C , 63-C ) :   1.4834 B( 62-C , 72-C ) :   1.2174 B( 63-C , 64-C ) :   1.1801
B( 63-C ,102-H ) :   1.0148 B( 64-C , 65-C ) :   1.2619 B( 64-C , 69-C ) :   1.2402
B( 65-C , 66-C ) :   1.2042 B( 65-C , 71-C ) :   1.1958 B( 66-C , 67-C ) :   1.4395
B( 66-C ,103-H ) :   1.0060 B( 67-C , 68-C ) :   1.2592 B( 67-C , 70-F ) :   1.0839
B( 68-C , 69-C ) :   1.4557 B( 68-C ,104-H ) :   0.9924 B( 69-C ,105-H ) :   0.9959
B( 71-C , 72-C ) :   1.4699 B( 71-C ,106-H ) :   0.9920 B( 72-C , 73-C ) :   0.9874
B( 73-C , 74-C ) :   1.5941 B( 74-C , 75-C ) :   1.1686 B( 74-C , 77-C ) :   1.1366
B( 75-C , 76-N ) :   3.0068 B( 77-C , 78-N ) :   2.9704

-----------------------------------------------------------------------------
         ABSORPTION SPECTRUM VIA TRANSITION ELECTRIC DIPOLE MOMENTS
-----------------------------------------------------------------------------
State   Energy  Wavelength   fosc         T2         TX        TY        TZ
        (cm-1)    (nm)                  (au**2)     (au)      (au)      (au)
-----------------------------------------------------------------------------
   0    8261.7   1210.4   1.623303678  64.68534  -7.40870   1.65099   2.65909
   1   14985.7    667.3   0.515551211  11.32587  -0.65753   3.27512   0.40880
   2   15237.7    656.3   1.136916326  24.56313   0.42899  -4.82789  -1.03468
   3   18957.0    527.5   0.351608301   6.10611   1.52548   0.09596   1.94160
   4   20714.8    482.7   0.467414329   7.42844   1.64393  -0.04263   2.17350
   5   22362.9    447.2   0.008301386   0.12221  -0.03333   0.17363   0.30158
   6   22825.3    438.1   0.036608429   0.52801  -0.32616   0.64065   0.10580
   7   23996.1    416.7   0.035935818   0.49302  -0.06333  -0.56238  -0.41561
   8   24720.9    404.5   0.042524768   0.56631  -0.49054  -0.49877  -0.27733
   9   24938.3    401.0   0.097783084   1.29084   0.21144  -0.78260  -0.79604
  10   25465.6    392.7   0.003917789   0.05065   0.18096  -0.13290   0.01548
  11   25754.4    388.3   0.051203783   0.65453   0.02616   0.73647  -0.33385
  12   26760.9    373.7   0.112624683   1.38551  -0.44106   0.95641   0.52560
  13   27055.1    369.6   0.012481633   0.15188   0.27791  -0.01291  -0.27291
  14   27550.4    363.0   0.258369973   3.08737  -0.43527   1.61376   0.54193
  15   28029.1    356.8   0.013020799   0.15293   0.08909  -0.04869  -0.37766
  16   28138.2    355.4   0.000345639   0.00404   0.00037  -0.05323   0.03480
  17   28238.6    354.1   0.037381174   0.43580   0.14025   0.53338   0.36281
  18   29515.6    338.8   0.017321635   0.19320  -0.29454  -0.32184   0.05358
  19   29724.6    336.4   0.005527256   0.06122  -0.11563   0.03538  -0.21586
  20   30072.0    332.5   0.013626254   0.14917  -0.33330   0.10582   0.16397
  21   30325.1    329.8   0.105064440   1.14059  -0.60721  -0.87786  -0.03537
  22   30615.0    326.6   0.063301831   0.68070  -0.42176   0.47142   0.52970
  23   31052.4    322.0   0.129650443   1.37453  -0.79839  -0.33405  -0.79090
  24   31531.4    317.1   0.146900036   1.53375  -0.24358  -0.75653  -0.94978
  25   31731.1    315.1   0.241275195   2.50325   0.30229  -1.33119  -0.79988
  26   32107.0    311.5   0.213740161   2.19160  -0.18694  -1.43877  -0.29425
  27   32273.1    309.9   0.057172586   0.58321  -0.33583   0.59017   0.34947
  28   32460.2    308.1   0.000216396   0.00219  -0.02912  -0.02347  -0.02821
  29   33058.6    302.5   0.061366122   0.61111   0.72637   0.10496  -0.26922
  30   33309.5    300.2   0.064496123   0.63744  -0.24041  -0.56943  -0.50537
  31   33419.6    299.2   0.172803312   1.70226  -0.40220   0.94853   0.80049
  32   33496.7    298.5   0.006248213   0.06141   0.16363  -0.10515   0.15355
  33   33761.6    296.2   0.078298259   0.76349  -0.06624   0.74713   0.44822
  34   33899.2    295.0   0.042612117   0.41383  -0.27193   0.50626   0.28911
  35   34319.0    291.4   0.085404428   0.81926   0.14937  -0.80171  -0.39269
  36   34723.0    288.0   0.006829439   0.06475  -0.11079   0.10770  -0.20218
  37   35191.5    284.2   0.059706305   0.55854   0.09638  -0.73818  -0.06594
  38   35465.8    282.0   0.003583395   0.03326   0.07303   0.15412   0.06463
  39   35707.4    280.1   0.075040977   0.69186  -0.34984  -0.74852  -0.09584
  40   36118.9    276.9   0.079308124   0.72287  -0.07605  -0.58233  -0.61479
  41   36238.9    275.9   0.065988163   0.59947   0.08075  -0.61763   0.45987
  42   36606.5    273.2   0.158109154   1.42192  -0.10119  -1.00604  -0.63211
  43   36633.0    273.0   0.054702270   0.49160  -0.10177   0.20505  -0.66272
  44   36977.5    270.4   0.200281241   1.78311   0.12646  -1.20510  -0.56113
  45   37213.6    268.7   0.011707623   0.10357  -0.09997  -0.22331   0.20906
  46   37386.0    267.5   0.015532553   0.13678   0.04418   0.27809  -0.23977
  47   37916.5    263.7   0.096909556   0.84142  -0.26249   0.63556   0.60711
  48   38117.9    262.3   0.047568735   0.41084   0.06736   0.46214   0.43900
  49   38346.0    260.8   0.050495633   0.43352  -0.31449  -0.50504  -0.28204
  50   38532.0    259.5   0.000802046   0.00685   0.06686  -0.04863   0.00428
  51   38643.6    258.8   0.035949396   0.30626  -0.13523   0.40410   0.35310
  52   38773.1    257.9   0.084982029   0.72156  -0.51491   0.65250  -0.17512
  53   38837.0    257.5   0.101381807   0.85939  -0.42551   0.81429   0.12353
  54   39275.7    254.6   0.030779177   0.25799   0.10832  -0.46272  -0.17931
  55   39428.0    253.6   0.037890356   0.31637  -0.22206   0.24795  -0.45342
  56   39639.6    252.3   0.056503845   0.46927  -0.22761   0.30280  -0.57077
  57   39865.2    250.8   0.145436159   1.20103  -0.47539   0.54258  -0.82501

FINAL SINGLE POINT ENERGY     -7436.124300320095

DIPOLE MOMENT
-------------
                                X             Y             Z
Electronic contribution:    124.28728    -158.64521     -56.52076
Nuclear contribution   :   -121.06127     160.45268      54.70078
                        -----------------------------------------
Total Dipole Moment    :      3.22602       1.80748      -1.81998
                        -----------------------------------------
Magnitude (a.u.)       :      4.12147
Magnitude (Debye)      :     10.47593

Rotational constants in cm-1:     0.000663     0.000121     0.000108
Rotational constants in MHz :    19.864922     3.615942     3.244513

                             ****ORCA TERMINATED NORMALLY****
TOTAL RUN TIME: 0 days 0 hours 13 minutes 10 seconds 680 msec
