                         Program Version 4.2.0 -  RELEASE  -
|  1> # ORCA input file
|  2> # SCF done       -186.472450350726          0.000797145347
|  3> ! CAM-B3LYP def2-SVP def2/J RIJCOSX Grid4 TightSCF
|  4> %maxcore 5000
|  5> %tddft
|  6>     Mode sTDDFT
|  7>     Ethresh 5.0
|  8>     maxcore 5000
|  9> end
| 10>
| 11> %pal
| 12>   nprocs 6
| 13>   end
| 14> * xyz 0 1
| 15>    C       -0.30099        -6.02209        -3.29331
| 16>    C        0.85915        -6.43587        -3.89538
| 17>    C        2.06783        -6.66177        -3.21229
| 18>    N        3.07629        -6.86465        -2.70109
| 19>    C        0.98506        -6.58918        -5.28811
| 20>    N        1.16912        -6.67147        -6.41946
| 21>    C       -0.46716        -5.62917        -1.90548
| 22>    C       -1.71794        -4.97543        -1.76982
| 23>    C       -2.17281        -4.50248        -0.56314
| 24>    C       -1.36794        -4.70744         0.56276
| 25>    C       -0.12399        -5.36833         0.41598
| 26>    C        0.34983        -5.82356        -0.80706
| 27>    S        0.68587        -5.54294         1.94207
| 28>    C       -0.63724        -4.72389         2.73894
| 29>    C       -1.63610        -4.34409         1.91082
| 30>   Br       -0.54557        -4.42959         4.58500
| 31>    C       -2.42034        -4.97224        -3.07083
| 32>    O       -3.50749        -4.49896        -3.30473
| 33>    C       -1.55689        -5.78350        -3.97362
| 34>    C       -2.01325        -6.43141        -5.07733
| 35>    C       -3.25971        -6.12224        -5.71969
| 36>    C       -4.19931        -7.07840        -6.03043
| 37>    O       -4.05132        -8.39227        -5.81853
| 38>    C       -5.15736        -9.21986        -6.10000
| 39>    S       -5.68183        -6.36992        -6.59470
| 40>    C       -4.99074        -4.76115        -6.48216
| 41>    O       -5.65384        -3.66771        -6.88632
| 42>    C       -6.99377        -3.83739        -7.28222
| 43>    C       -3.70840        -4.78765        -6.02213
| 44>    C       -2.81347        -3.64609        -5.97995
| 45>    C       -1.54772        -3.76520        -6.40271
| 46>    C       -0.52923        -2.75230        -6.32346
| 47>    C        0.60651        -2.79110        -7.03276
| 48>    C        0.89341        -3.82714        -8.07907
| 49>    C        1.72810        -1.81824        -6.76459
| 50>    N        2.88115        -2.53633        -6.25954
| 51>    C        3.00791        -2.90625        -4.98188
| 52>    C        3.97174        -3.77037        -4.53599
| 53>    C        4.22274        -4.13156        -3.20661
| 54>    C        3.55497        -3.79957        -2.04802
| 55>    C        3.97949        -4.15737        -0.75049
| 56>    C        3.19802        -3.67555         0.26001
| 57>    C        2.09398        -2.92484        -0.18643
| 58>    S        2.06685        -2.86490        -1.92785
| 59>    C        1.12702        -2.29296         0.58361
| 60>    C        1.08631        -2.17220         1.98134
| 61>    C       -0.01656        -1.50537         2.44428
| 62>    C       -0.88873        -1.06708         1.43222
| 63>    S       -0.27015        -1.51592        -0.13668
| 64>    C       -2.08956        -0.39475         1.61257
| 65>    C       -2.84940         0.13039         0.58473
| 66>    C       -4.06273         0.79272         0.70797
| 67>    C       -5.01259         0.79517         1.77470
| 68>    C       -5.21511        -0.21037         2.70122
| 69>    C       -6.18643        -0.16320         3.71550
| 70>    N       -6.95385        -0.16872         4.57134
| 71>    C       -4.55245        -1.44528         2.64842
| 72>    N       -4.07523        -2.49157         2.61078
| 73>    C       -5.89382         1.94697         1.58023
| 74>    C       -5.60275         2.52254         0.31886
| 75>    C       -4.48142         1.77628        -0.30313
| 76>    O       -3.99043         1.96949        -1.39739
| 77>    C       -6.27774         3.61404        -0.16462
| 78>    C       -7.27944         4.17230         0.64019
| 79>    C       -7.55484         3.59471         1.89933
| 80>    C       -6.87834         2.48051         2.38571
| 81>    S       -8.81883         4.44960         2.73296
| 82>    C       -8.95824         5.55531         1.39229
| 83>    C       -8.10453         5.30020         0.37378
| 84>   Br      -10.21792         6.94519         1.46516
| 85>    H       -3.12314        -3.99969        -0.47792
| 86>    H        1.30108        -6.32645        -0.87453
| 87>    H       -2.52282        -3.81889         2.22629
| 88>    H       -1.46845        -7.28888        -5.45668
| 89>    H       -4.83878       -10.23596        -5.87787
| 90>    H       -5.44716        -9.14228        -7.15265
| 91>    H       -6.01489        -8.95331        -5.47438
| 92>    H       -7.36121        -2.84614        -7.53872
| 93>    H       -7.59627        -4.25583        -6.46928
| 94>    H       -7.06657        -4.49591        -8.15480
| 95>    H       -3.21723        -2.70897        -5.62779
| 96>    H       -1.23149        -4.71248        -6.82034
| 97>    H       -0.70510        -1.94059        -5.62965
| 98>    H        0.02457        -3.97844        -8.71463
| 99>    H        1.14018        -4.78816        -7.62407
|100>    H        1.72537        -3.52053        -8.70937
|101>    H        1.42570        -1.07792        -6.02117
|102>    H        2.02654        -1.29977        -7.68074
|103>    H        3.42832        -3.04357        -6.94200
|104>    H        2.32469        -2.42604        -4.29732
|105>    H        4.63211        -4.20259        -5.27675
|106>    H        5.08224        -4.77106        -3.05114
|107>    H        4.86033        -4.75547        -0.59996
|108>    H        3.38499        -3.84751         1.30419
|109>    H        1.86316        -2.56346         2.61395
|110>    H       -0.22123        -1.31951         3.48359
|111>    H       -2.39882        -0.24565         2.63801
|112>    H       -2.41694         0.13524        -0.41107
|113>    H       -6.04236         4.03039        -1.13161
|114>    H       -7.11979         2.07594         3.35483
|115>    H       -8.05487         5.88244        -0.52830
|116> *
|117>
|118>                          ****END OF INPUT****

CARTESIAN COORDINATES (ANGSTROEM)
---------------------------------
  C     -0.300990   -6.022090   -3.293310
  C      0.859150   -6.435870   -3.895380
  C      2.067830   -6.661770   -3.212290
  N      3.076290   -6.864650   -2.701090
  C      0.985060   -6.589180   -5.288110
  N      1.169120   -6.671470   -6.419460
  C     -0.467160   -5.629170   -1.905480
  C     -1.717940   -4.975430   -1.769820
  C     -2.172810   -4.502480   -0.563140
  C     -1.367940   -4.707440    0.562760
  C     -0.123990   -5.368330    0.415980
  C      0.349830   -5.823560   -0.807060
  S      0.685870   -5.542940    1.942070
  C     -0.637240   -4.723890    2.738940
  C     -1.636100   -4.344090    1.910820
  Br    -0.545570   -4.429590    4.585000
  C     -2.420340   -4.972240   -3.070830
  O     -3.507490   -4.498960   -3.304730
  C     -1.556890   -5.783500   -3.973620
  C     -2.013250   -6.431410   -5.077330
  C     -3.259710   -6.122240   -5.719690
  C     -4.199310   -7.078400   -6.030430
  O     -4.051320   -8.392270   -5.818530
  C     -5.157360   -9.219860   -6.100000
  S     -5.681830   -6.369920   -6.594700
  C     -4.990740   -4.761150   -6.482160
  O     -5.653840   -3.667710   -6.886320
  C     -6.993770   -3.837390   -7.282220
  C     -3.708400   -4.787650   -6.022130
  C     -2.813470   -3.646090   -5.979950
  C     -1.547720   -3.765200   -6.402710
  C     -0.529230   -2.752300   -6.323460
  C      0.606510   -2.791100   -7.032760
  C      0.893410   -3.827140   -8.079070
  C      1.728100   -1.818240   -6.764590
  N      2.881150   -2.536330   -6.259540
  C      3.007910   -2.906250   -4.981880
  C      3.971740   -3.770370   -4.535990
  C      4.222740   -4.131560   -3.206610
  C      3.554970   -3.799570   -2.048020
  C      3.979490   -4.157370   -0.750490
  C      3.198020   -3.675550    0.260010
  C      2.093980   -2.924840   -0.186430
  S      2.066850   -2.864900   -1.927850
  C      1.127020   -2.292960    0.583610
  C      1.086310   -2.172200    1.981340
  C     -0.016560   -1.505370    2.444280
  C     -0.888730   -1.067080    1.432220
  S     -0.270150   -1.515920   -0.136680
  C     -2.089560   -0.394750    1.612570
  C     -2.849400    0.130390    0.584730
  C     -4.062730    0.792720    0.707970
  C     -5.012590    0.795170    1.774700
  C     -5.215110   -0.210370    2.701220
  C     -6.186430   -0.163200    3.715500
  N     -6.953850   -0.168720    4.571340
  C     -4.552450   -1.445280    2.648420
  N     -4.075230   -2.491570    2.610780
  C     -5.893820    1.946970    1.580230
  C     -5.602750    2.522540    0.318860
  C     -4.481420    1.776280   -0.303130
  O     -3.990430    1.969490   -1.397390
  C     -6.277740    3.614040   -0.164620
  C     -7.279440    4.172300    0.640190
  C     -7.554840    3.594710    1.899330
  C     -6.878340    2.480510    2.385710
  S     -8.818830    4.449600    2.732960
  C     -8.958240    5.555310    1.392290
  C     -8.104530    5.300200    0.373780
  Br   -10.217920    6.945190    1.465160
  H     -3.123140   -3.999690   -0.477920
  H      1.301080   -6.326450   -0.874530
  H     -2.522820   -3.818890    2.226290
  H     -1.468450   -7.288880   -5.456680
  H     -4.838780  -10.235960   -5.877870
  H     -5.447160   -9.142280   -7.152650
  H     -6.014890   -8.953310   -5.474380
  H     -7.361210   -2.846140   -7.538720
  H     -7.596270   -4.255830   -6.469280
  H     -7.066570   -4.495910   -8.154800
  H     -3.217230   -2.708970   -5.627790
  H     -1.231490   -4.712480   -6.820340
  H     -0.705100   -1.940590   -5.629650
  H      0.024570   -3.978440   -8.714630
  H      1.140180   -4.788160   -7.624070
  H      1.725370   -3.520530   -8.709370
  H      1.425700   -1.077920   -6.021170
  H      2.026540   -1.299770   -7.680740
  H      3.428320   -3.043570   -6.942000
  H      2.324690   -2.426040   -4.297320
  H      4.632110   -4.202590   -5.276750
  H      5.082240   -4.771060   -3.051140
  H      4.860330   -4.755470   -0.599960
  H      3.384990   -3.847510    1.304190
  H      1.863160   -2.563460    2.613950
  H     -0.221230   -1.319510    3.483590
  H     -2.398820   -0.245650    2.638010
  H     -2.416940    0.135240   -0.411070
  H     -6.042360    4.030390   -1.131610
  H     -7.119790    2.075940    3.354830
  H     -8.054870    5.882440   -0.528300

 Total Charge           Charge          ....    0
 Multiplicity           Mult            ....    1
 Number of Electrons    NEL             ....  572
 Basis Dimension        Dim             .... 1191

ORBITAL ENERGIES
----------------

  NO   OCC          E(Eh)            E(eV)
   0   2.0000    -482.873575    -13139.6580
   1   2.0000    -482.868931    -13139.5316
   2   2.0000     -88.969599     -2420.9859
   3   2.0000     -88.963579     -2420.8221
   4   2.0000     -88.963275     -2420.8138
   5   2.0000     -88.954525     -2420.5757
   6   2.0000     -88.951072     -2420.4817
   7   2.0000     -62.551066     -1702.1010
   8   2.0000     -62.546634     -1701.9804
   9   2.0000     -56.384970     -1534.3130
  10   2.0000     -56.382338     -1534.2414
  11   2.0000     -56.382308     -1534.2406
  12   2.0000     -56.380554     -1534.1929
  13   2.0000     -56.377894     -1534.1205
  14   2.0000     -56.377849     -1534.1193
  15   2.0000     -19.275002      -524.4995
  16   2.0000     -19.258517      -524.0509
  17   2.0000     -19.207062      -522.6507
  18   2.0000     -19.180062      -521.9160
  19   2.0000     -14.467933      -393.6925
  20   2.0000     -14.416997      -392.3064
  21   2.0000     -14.416607      -392.2958
  22   2.0000     -14.391445      -391.6111
  23   2.0000     -14.384504      -391.4222
  24   2.0000     -10.366313      -282.0817
  25   2.0000     -10.358187      -281.8606
  26   2.0000     -10.348163      -281.5878
  27   2.0000     -10.348014      -281.5838
  28   2.0000     -10.341964      -281.4191
  29   2.0000     -10.341641      -281.4103
  30   2.0000     -10.338027      -281.3120
  31   2.0000     -10.337510      -281.2980
  32   2.0000     -10.336797      -281.2785
  33   2.0000     -10.332583      -281.1639
  34   2.0000     -10.331588      -281.1368
  35   2.0000     -10.330668      -281.1118
  36   2.0000     -10.324444      -280.9424
  37   2.0000     -10.322845      -280.8989
  38   2.0000     -10.320419      -280.8329
  39   2.0000     -10.313972      -280.6574
  40   2.0000     -10.313945      -280.6567
  41   2.0000     -10.313615      -280.6477
  42   2.0000     -10.309453      -280.5345
  43   2.0000     -10.308190      -280.5001
  44   2.0000     -10.304866      -280.4096
  45   2.0000     -10.304092      -280.3886
  46   2.0000     -10.303707      -280.3781
  47   2.0000     -10.301230      -280.3107
  48   2.0000     -10.298899      -280.2473
  49   2.0000     -10.298819      -280.2451
  50   2.0000     -10.298532      -280.2373
  51   2.0000     -10.297750      -280.2160
  52   2.0000     -10.293539      -280.1014
  53   2.0000     -10.290530      -280.0195
  54   2.0000     -10.290023      -280.0058
  55   2.0000     -10.289378      -279.9882
  56   2.0000     -10.287122      -279.9268
  57   2.0000     -10.284332      -279.8509
  58   2.0000     -10.282626      -279.8045
  59   2.0000     -10.282352      -279.7970
  60   2.0000     -10.281299      -279.7684
  61   2.0000     -10.280374      -279.7432
  62   2.0000     -10.279355      -279.7155
  63   2.0000     -10.279212      -279.7116
  64   2.0000     -10.278213      -279.6844
  65   2.0000     -10.278136      -279.6823
  66   2.0000     -10.276998      -279.6513
  67   2.0000     -10.275438      -279.6089
  68   2.0000     -10.272008      -279.5156
  69   2.0000     -10.270099      -279.4636
  70   2.0000     -10.269798      -279.4554
  71   2.0000     -10.267167      -279.3838
  72   2.0000     -10.265905      -279.3495
  73   2.0000     -10.264381      -279.3080
  74   2.0000     -10.261442      -279.2280
  75   2.0000     -10.260932      -279.2142
  76   2.0000     -10.260080      -279.1910
  77   2.0000     -10.252685      -278.9897
  78   2.0000      -8.780427      -238.9276
  79   2.0000      -8.776055      -238.8086
  80   2.0000      -8.065905      -219.4844
  81   2.0000      -8.058999      -219.2965
  82   2.0000      -8.058443      -219.2814
  83   2.0000      -8.050522      -219.0658
  84   2.0000      -8.046375      -218.9530
  85   2.0000      -6.616495      -180.0440
  86   2.0000      -6.612206      -179.9273
  87   2.0000      -6.602365      -179.6595
  88   2.0000      -6.602014      -179.6499
  89   2.0000      -6.597828      -179.5360
  90   2.0000      -6.597714      -179.5329
  91   2.0000      -6.035308      -164.2291
  92   2.0000      -6.031375      -164.1221
  93   2.0000      -6.028716      -164.0497
  94   2.0000      -6.027980      -164.0297
  95   2.0000      -6.027409      -164.0141
  96   2.0000      -6.024545      -163.9362
  97   2.0000      -6.024032      -163.9222
  98   2.0000      -6.020223      -163.8186
  99   2.0000      -6.020212      -163.8183
 100   2.0000      -6.019919      -163.8103
 101   2.0000      -6.015963      -163.7027
 102   2.0000      -6.015922      -163.7016
 103   2.0000      -6.011926      -163.5928
 104   2.0000      -6.011737      -163.5877
 105   2.0000      -6.007837      -163.4816
 106   2.0000      -2.732428       -74.3531
 107   2.0000      -2.728494       -74.2461
 108   2.0000      -2.728225       -74.2388
 109   2.0000      -2.728148       -74.2367
 110   2.0000      -2.724031       -74.1246
 111   2.0000      -2.723956       -74.1226
 112   2.0000      -2.716984       -73.9329
 113   2.0000      -2.716974       -73.9326
 114   2.0000      -2.712514       -73.8112
 115   2.0000      -2.712508       -73.8111
 116   2.0000      -1.182399       -32.1747
 117   2.0000      -1.167001       -31.7557
 118   2.0000      -1.123214       -30.5642
 119   2.0000      -1.093702       -29.7612
 120   2.0000      -1.066268       -29.0146
 121   2.0000      -1.018705       -27.7204
 122   2.0000      -1.006392       -27.3853
 123   2.0000      -1.000759       -27.2320
 124   2.0000      -0.997589       -27.1458
 125   2.0000      -0.996338       -27.1117
 126   2.0000      -0.987796       -26.8793
 127   2.0000      -0.984720       -26.7956
 128   2.0000      -0.978910       -26.6375
 129   2.0000      -0.976642       -26.5758
 130   2.0000      -0.968028       -26.3414
 131   2.0000      -0.960874       -26.1467
 132   2.0000      -0.933470       -25.4010
 133   2.0000      -0.923719       -25.1357
 134   2.0000      -0.918363       -24.9899
 135   2.0000      -0.908963       -24.7341
 136   2.0000      -0.902220       -24.5507
 137   2.0000      -0.897390       -24.4192
 138   2.0000      -0.890099       -24.2208
 139   2.0000      -0.882887       -24.0246
 140   2.0000      -0.878094       -23.8941
 141   2.0000      -0.873940       -23.7811
 142   2.0000      -0.863593       -23.4996
 143   2.0000      -0.862407       -23.4673
 144   2.0000      -0.860859       -23.4252
 145   2.0000      -0.850980       -23.1563
 146   2.0000      -0.845502       -23.0073
 147   2.0000      -0.834067       -22.6961
 148   2.0000      -0.827971       -22.5302
 149   2.0000      -0.826100       -22.4793
 150   2.0000      -0.818228       -22.2651
 151   2.0000      -0.815372       -22.1874
 152   2.0000      -0.805982       -21.9319
 153   2.0000      -0.804867       -21.9015
 154   2.0000      -0.792203       -21.5569
 155   2.0000      -0.779844       -21.2206
 156   2.0000      -0.771023       -20.9806
 157   2.0000      -0.758775       -20.6473
 158   2.0000      -0.751371       -20.4458
 159   2.0000      -0.745809       -20.2945
 160   2.0000      -0.737413       -20.0660
 161   2.0000      -0.731845       -19.9145
 162   2.0000      -0.722404       -19.6576
 163   2.0000      -0.700045       -19.0492
 164   2.0000      -0.698454       -19.0059
 165   2.0000      -0.685979       -18.6664
 166   2.0000      -0.685087       -18.6422
 167   2.0000      -0.679565       -18.4919
 168   2.0000      -0.673208       -18.3189
 169   2.0000      -0.665335       -18.1047
 170   2.0000      -0.662524       -18.0282
 171   2.0000      -0.655971       -17.8499
 172   2.0000      -0.651896       -17.7390
 173   2.0000      -0.648811       -17.6551
 174   2.0000      -0.639695       -17.4070
 175   2.0000      -0.634833       -17.2747
 176   2.0000      -0.630576       -17.1588
 177   2.0000      -0.629935       -17.1414
 178   2.0000      -0.621452       -16.9106
 179   2.0000      -0.616972       -16.7887
 180   2.0000      -0.612060       -16.6550
 181   2.0000      -0.606538       -16.5048
 182   2.0000      -0.605725       -16.4826
 183   2.0000      -0.597020       -16.2457
 184   2.0000      -0.596226       -16.2241
 185   2.0000      -0.592002       -16.1092
 186   2.0000      -0.590067       -16.0565
 187   2.0000      -0.581440       -15.8218
 188   2.0000      -0.579197       -15.7607
 189   2.0000      -0.577365       -15.7109
 190   2.0000      -0.571238       -15.5442
 191   2.0000      -0.568190       -15.4612
 192   2.0000      -0.566631       -15.4188
 193   2.0000      -0.564842       -15.3701
 194   2.0000      -0.562863       -15.3163
 195   2.0000      -0.553563       -15.0632
 196   2.0000      -0.546178       -14.8623
 197   2.0000      -0.543570       -14.7913
 198   2.0000      -0.538355       -14.6494
 199   2.0000      -0.535605       -14.5745
 200   2.0000      -0.534575       -14.5465
 201   2.0000      -0.530969       -14.4484
 202   2.0000      -0.523919       -14.2566
 203   2.0000      -0.523244       -14.2382
 204   2.0000      -0.521524       -14.1914
 205   2.0000      -0.517084       -14.0706
 206   2.0000      -0.515555       -14.0290
 207   2.0000      -0.512783       -13.9535
 208   2.0000      -0.512152       -13.9364
 209   2.0000      -0.508962       -13.8496
 210   2.0000      -0.506353       -13.7786
 211   2.0000      -0.504194       -13.7198
 212   2.0000      -0.500305       -13.6140
 213   2.0000      -0.496971       -13.5233
 214   2.0000      -0.495314       -13.4782
 215   2.0000      -0.489932       -13.3317
 216   2.0000      -0.488161       -13.2835
 217   2.0000      -0.486674       -13.2431
 218   2.0000      -0.483525       -13.1574
 219   2.0000      -0.483135       -13.1468
 220   2.0000      -0.480466       -13.0742
 221   2.0000      -0.477791       -13.0013
 222   2.0000      -0.476944       -12.9783
 223   2.0000      -0.475309       -12.9338
 224   2.0000      -0.473421       -12.8824
 225   2.0000      -0.470691       -12.8082
 226   2.0000      -0.469701       -12.7812
 227   2.0000      -0.467952       -12.7336
 228   2.0000      -0.466748       -12.7009
 229   2.0000      -0.465232       -12.6596
 230   2.0000      -0.464055       -12.6276
 231   2.0000      -0.461333       -12.5535
 232   2.0000      -0.456315       -12.4170
 233   2.0000      -0.453669       -12.3450
 234   2.0000      -0.452453       -12.3119
 235   2.0000      -0.450035       -12.2461
 236   2.0000      -0.445954       -12.1350
 237   2.0000      -0.445516       -12.1231
 238   2.0000      -0.443338       -12.0638
 239   2.0000      -0.439017       -11.9463
 240   2.0000      -0.437707       -11.9106
 241   2.0000      -0.436133       -11.8678
 242   2.0000      -0.435042       -11.8381
 243   2.0000      -0.432507       -11.7691
 244   2.0000      -0.430633       -11.7181
 245   2.0000      -0.427169       -11.6239
 246   2.0000      -0.424789       -11.5591
 247   2.0000      -0.422060       -11.4848
 248   2.0000      -0.421837       -11.4788
 249   2.0000      -0.420685       -11.4474
 250   2.0000      -0.418596       -11.3906
 251   2.0000      -0.416841       -11.3428
 252   2.0000      -0.414565       -11.2809
 253   2.0000      -0.411209       -11.1896
 254   2.0000      -0.409716       -11.1489
 255   2.0000      -0.407780       -11.0962
 256   2.0000      -0.403245       -10.9728
 257   2.0000      -0.402657       -10.9569
 258   2.0000      -0.399072       -10.8593
 259   2.0000      -0.393755       -10.7146
 260   2.0000      -0.388987       -10.5849
 261   2.0000      -0.387266       -10.5380
 262   2.0000      -0.383946       -10.4477
 263   2.0000      -0.383475       -10.4349
 264   2.0000      -0.373303       -10.1581
 265   2.0000      -0.367185        -9.9916
 266   2.0000      -0.363787        -9.8991
 267   2.0000      -0.361933        -9.8487
 268   2.0000      -0.358664        -9.7598
 269   2.0000      -0.358543        -9.7565
 270   2.0000      -0.343759        -9.3542
 271   2.0000      -0.341656        -9.2969
 272   2.0000      -0.337768        -9.1911
 273   2.0000      -0.334222        -9.0947
 274   2.0000      -0.325254        -8.8506
 275   2.0000      -0.314752        -8.5648
 276   2.0000      -0.309912        -8.4331
 277   2.0000      -0.304401        -8.2832
 278   2.0000      -0.302062        -8.2195
 279   2.0000      -0.291578        -7.9342
 280   2.0000      -0.279389        -7.6026
 281   2.0000      -0.275398        -7.4939
 282   2.0000      -0.272350        -7.4110
 283   2.0000      -0.266847        -7.2613
 284   2.0000      -0.247925        -6.7464
 285   2.0000      -0.209597        -5.7034
 286   0.0000      -0.093139        -2.5344
 287   0.0000      -0.078958        -2.1485
 288   0.0000      -0.046912        -1.2765
 289   0.0000      -0.043346        -1.1795
 290   0.0000      -0.023856        -0.6492

MULLIKEN ATOMIC CHARGES
-----------------------
   0 C :    0.277864
   1 C :   -0.355258
   2 C :   -0.159910
   3 N :    0.122949
   4 C :   -0.158096
   5 N :    0.124680
   6 C :    0.023688
   7 C :   -0.003958
   8 C :   -0.066538
   9 C :    0.102441
  10 C :   -0.074548
  11 C :   -0.031926
  12 S :    0.146541
  13 C :   -0.145636
  14 C :    0.111636
  15 Br:    0.015781
  16 C :    0.152430
  17 O :   -0.136770
  18 C :   -0.078135
  19 C :   -0.053625
  20 C :    0.020043
  21 C :    0.020072
  22 O :   -0.271718
  23 C :    0.171603
  24 S :    0.012716
  25 C :   -0.011789
  26 O :   -0.273999
  27 C :    0.171489
  28 C :    0.125051
  29 C :   -0.021389
  30 C :    0.002722
  31 C :   -0.005620
  32 C :   -0.192026
  33 C :    0.076937
  34 C :    0.191003
  35 N :   -0.131782
  36 C :    0.094089
  37 C :   -0.057135
  38 C :    0.079952
  39 C :   -0.077545
  40 C :    0.079218
  41 C :   -0.013236
  42 C :    0.001610
  43 S :    0.060811
  44 C :   -0.084057
  45 C :    0.061077
  46 C :    0.014745
  47 C :   -0.013450
  48 S :    0.101521
  49 C :   -0.023440
  50 C :    0.017798
  51 C :   -0.141638
  52 C :    0.283323
  53 C :   -0.366664
  54 C :   -0.179389
  55 N :    0.124100
  56 C :   -0.186729
  57 N :    0.150452
  58 C :    0.006587
  59 C :   -0.005583
  60 C :    0.135542
  61 O :   -0.168752
  62 C :   -0.081006
  63 C :    0.111559
  64 C :   -0.090069
  65 C :   -0.027848
  66 S :    0.170790
  67 C :   -0.126562
  68 C :    0.037598
  69 Br:    0.004747
  70 H :   -0.000860
  71 H :   -0.012305
  72 H :   -0.044168
  73 H :    0.034794
  74 H :    0.052422
  75 H :    0.033074
  76 H :    0.037761
  77 H :    0.050697
  78 H :    0.032308
  79 H :    0.027848
  80 H :    0.005148
  81 H :    0.009589
  82 H :   -0.020871
  83 H :    0.033215
  84 H :    0.048464
  85 H :   -0.011054
  86 H :    0.021319
  87 H :    0.025621
  88 H :    0.132771
  89 H :    0.027989
  90 H :   -0.013550
  91 H :    0.010995
  92 H :   -0.002388
  93 H :   -0.012627
  94 H :   -0.011114
  95 H :   -0.011005
  96 H :    0.002501
  97 H :    0.004985
  98 H :   -0.020286
  99 H :   -0.010752
 100 H :   -0.009861
Sum of atomic charges:   -0.0000000

LOEWDIN ATOMIC CHARGES
----------------------
   0 C :    0.085822
   1 C :   -0.157147
   2 C :   -0.009367
   3 N :   -0.068874
   4 C :   -0.006841
   5 N :   -0.071164
   6 C :   -0.028235
   7 C :   -0.049892
   8 C :    0.028524
   9 C :   -0.028812
  10 C :   -0.144150
  11 C :   -0.015095
  12 S :    0.415968
  13 C :   -0.273873
  14 C :   -0.053266
  15 Br:    0.134673
  16 C :    0.086033
  17 O :   -0.123333
  18 C :   -0.087163
  19 C :    0.085283
  20 C :   -0.106800
  21 C :   -0.086373
  22 O :   -0.088840
  23 C :    0.071780
  24 S :    0.386663
  25 C :   -0.104458
  26 O :   -0.094498
  27 C :    0.068863
  28 C :   -0.077536
  29 C :    0.000429
  30 C :   -0.036665
  31 C :   -0.044662
  32 C :   -0.048143
  33 C :   -0.063433
  34 C :    0.045928
  35 N :    0.042647
  36 C :    0.089931
  37 C :   -0.134545
  38 C :    0.032579
  39 C :   -0.197368
  40 C :    0.013802
  41 C :   -0.078079
  42 C :   -0.129300
  43 S :    0.397999
  44 C :   -0.220651
  45 C :   -0.005689
  46 C :   -0.062261
  47 C :   -0.101118
  48 S :    0.408309
  49 C :   -0.088863
  50 C :    0.044209
  51 C :   -0.131464
  52 C :    0.071171
  53 C :   -0.181556
  54 C :   -0.023191
  55 N :   -0.081913
  56 C :    0.009546
  57 N :   -0.083468
  58 C :   -0.014481
  59 C :   -0.048201
  60 C :    0.075425
  61 O :   -0.171185
  62 C :    0.012964
  63 C :   -0.040539
  64 C :   -0.147827
  65 C :   -0.019569
  66 S :    0.421140
  67 C :   -0.279094
  68 C :   -0.071550
  69 Br:    0.121954
  70 H :    0.045620
  71 H :    0.037208
  72 H :    0.031611
  73 H :    0.043934
  74 H :    0.035004
  75 H :    0.016367
  76 H :    0.018170
  77 H :    0.034424
  78 H :    0.015944
  79 H :    0.012412
  80 H :    0.033539
  81 H :    0.027266
  82 H :    0.025677
  83 H :    0.039320
  84 H :    0.038295
  85 H :    0.018950
  86 H :    0.032851
  87 H :    0.030980
  88 H :    0.086686
  89 H :    0.018093
  90 H :    0.030039
  91 H :    0.047196
  92 H :    0.039551
  93 H :    0.029307
  94 H :    0.031070
  95 H :    0.031728
  96 H :    0.035431
  97 H :    0.030846
  98 H :    0.036775
  99 H :    0.038674
 100 H :    0.035917

  Mayer bond orders larger than 0.100000
B(  0-C ,  1-C ) :   1.6274 B(  0-C ,  6-C ) :   1.0282 B(  0-C , 18-C ) :   1.0481
B(  1-C ,  2-C ) :   1.1440 B(  1-C ,  4-C ) :   1.1666 B(  2-C ,  3-N ) :   2.9249
B(  4-C ,  5-N ) :   2.8865 B(  6-C ,  7-C ) :   1.2730 B(  6-C , 11-C ) :   1.3911
B(  7-C ,  8-C ) :   1.4068 B(  7-C , 16-C ) :   0.9420 B(  8-C ,  9-C ) :   1.2444
B(  8-C , 70-H ) :   1.0232 B(  9-C , 10-C ) :   1.2999 B(  9-C , 14-C ) :   1.1692
B( 10-C , 11-C ) :   1.3243 B( 10-C , 12-S ) :   1.0746 B( 11-C , 71-H ) :   0.9893
B( 12-S , 13-C ) :   1.0636 B( 13-C , 14-C ) :   1.6063 B( 13-C , 15-Br) :   1.0183
B( 14-C , 72-H ) :   0.9584 B( 16-C , 17-O ) :   2.2202 B( 16-C , 18-C ) :   0.9362
B( 18-C , 19-C ) :   1.6540 B( 19-C , 20-C ) :   1.0778 B( 19-C , 73-H ) :   0.9583
B( 20-C , 21-C ) :   1.4838 B( 20-C , 28-C ) :   1.1846 B( 21-C , 22-O ) :   1.2003
B( 21-C , 24-S ) :   1.0918 B( 22-O , 23-C ) :   0.9397 B( 23-C , 74-H ) :   0.9820
B( 23-C , 75-H ) :   0.9662 B( 23-C , 76-H ) :   0.9666 B( 24-S , 25-C ) :   1.0299
B( 25-C , 26-O ) :   1.1807 B( 25-C , 28-C ) :   1.5763 B( 26-O , 27-C ) :   0.9498
B( 27-C , 77-H ) :   0.9820 B( 27-C , 78-H ) :   0.9664 B( 27-C , 79-H ) :   0.9651
B( 28-C , 29-C ) :   1.0218 B( 29-C , 30-C ) :   1.7736 B( 29-C , 80-H ) :   0.9756
B( 30-C , 31-C ) :   1.0975 B( 30-C , 81-H ) :   0.9503 B( 31-C , 32-C ) :   1.8046
B( 31-C , 82-H ) :   0.9770 B( 32-C , 33-C ) :   1.0633 B( 32-C , 34-C ) :   1.0501
B( 33-C , 83-H ) :   0.9410 B( 33-C , 84-H ) :   0.9249 B( 33-C , 85-H ) :   0.9474
B( 34-C , 35-N ) :   0.9874 B( 34-C , 86-H ) :   0.9402 B( 34-C , 87-H ) :   0.9331
B( 35-N , 36-C ) :   1.3385 B( 35-N , 88-H ) :   0.9346 B( 36-C , 37-C ) :   1.4585
B( 36-C , 89-H ) :   0.9497 B( 37-C , 38-C ) :   1.3166 B( 37-C , 90-H ) :   0.9609
B( 38-C , 39-C ) :   1.4816 B( 38-C , 91-H ) :   0.9572 B( 39-C , 40-C ) :   1.2183
B( 39-C , 43-S ) :   1.0121 B( 40-C , 41-C ) :   1.4938 B( 40-C , 92-H ) :   1.0001
B( 41-C , 42-C ) :   1.2536 B( 41-C , 93-H ) :   0.9965 B( 42-C , 43-S ) :   1.1032
B( 42-C , 44-C ) :   1.3749 B( 44-C , 45-C ) :   1.2896 B( 44-C , 48-S ) :   1.0422
B( 45-C , 46-C ) :   1.4537 B( 45-C , 94-H ) :   0.9964 B( 46-C , 47-C ) :   1.2390
B( 46-C , 95-H ) :   1.0044 B( 47-C , 48-S ) :   1.1134 B( 47-C , 49-C ) :   1.3986
B( 49-C , 50-C ) :   1.3283 B( 49-C , 96-H ) :   0.9636 B( 50-C , 51-C ) :   1.4022
B( 50-C , 97-H ) :   0.9474 B( 51-C , 52-C ) :   1.1631 B( 51-C , 60-C ) :   0.9887
B( 52-C , 53-C ) :   1.5323 B( 52-C , 58-C ) :   0.9976 B( 53-C , 54-C ) :   1.1350
B( 53-C , 56-C ) :   1.1925 B( 54-C , 55-N ) :   2.9744 B( 56-C , 57-N ) :   2.9339
B( 57-N , 72-H ) :   0.1568 B( 58-C , 59-C ) :   1.2761 B( 58-C , 65-C ) :   1.4362
B( 59-C , 60-C ) :   0.9091 B( 59-C , 62-C ) :   1.4448 B( 60-C , 61-O ) :   2.2433
B( 62-C , 63-C ) :   1.2361 B( 62-C , 98-H ) :   1.0151 B( 63-C , 64-C ) :   1.3296
B( 63-C , 68-C ) :   1.1597 B( 64-C , 65-C ) :   1.3056 B( 64-C , 66-S ) :   1.0779
B( 65-C , 99-H ) :   0.9822 B( 66-S , 67-C ) :   1.0853 B( 67-C , 68-C ) :   1.6238
B( 67-C , 69-Br) :   1.0081 B( 68-C ,100-H ) :   0.9993

-----------------------------------------------------------------------------
         ABSORPTION SPECTRUM VIA TRANSITION ELECTRIC DIPOLE MOMENTS
-----------------------------------------------------------------------------
State   Energy  Wavelength   fosc         T2         TX        TY        TZ
        (cm-1)    (nm)                  (au**2)     (au)      (au)      (au)
-----------------------------------------------------------------------------
   0   11128.5    898.6   1.017584962  30.10306  -4.02625   2.35686   2.88749
   1   13464.5    742.7   0.056855799   1.39015   1.12458  -0.02160  -0.35355
   2   18567.5    538.6   0.031825066   0.56428   0.53551   0.39243   0.35143
   3   20100.7    497.5   0.005026276   0.08232   0.12422   0.22251  -0.13184
   4   20775.2    481.3   0.024831768   0.39349  -0.54077  -0.29726  -0.11270
   5   21322.2    469.0   0.012817434   0.19790  -0.42274   0.06706  -0.12121
   6   23067.0    433.5   0.028890796   0.41233   0.49329  -0.08157   0.40291
   7   23413.5    427.1   0.191806953   2.69695  -1.15020  -0.32619  -1.12588
   8   23440.0    426.6   0.087569050   1.22990  -0.82227  -0.17393  -0.72355
   9   24486.4    408.4   0.023615964   0.31751   0.46514   0.29101   0.12831
  10   25051.0    399.2   0.189018186   2.48401   1.34721  -0.56568   0.59081
  11   25608.5    390.5   0.003267211   0.04200   0.16488  -0.02722   0.11864
  12   25889.4    386.3   0.031520667   0.40082  -0.11091  -0.05044  -0.62127
  13   26489.7    377.5   0.276942912   3.44183  -1.07591   1.37864   0.61935
  14   27085.8    369.2   0.462715701   5.62404  -0.81263   0.75020  -2.09782
  15   28347.3    352.8   0.057540130   0.66824  -0.66375   0.09950  -0.46667
  16   28620.0    349.4   0.060736396   0.69864  -0.08350  -0.29645  -0.77704
  17   28890.6    346.1   0.044796459   0.51046  -0.03450  -0.23983  -0.67213
  18   29607.1    337.8   0.132445821   1.47271   0.02569   0.26895   1.18310
  19   29981.5    333.5   0.005944770   0.06528  -0.24904   0.05417  -0.01785
  20   30267.3    330.4   0.045963869   0.49994   0.00729  -0.18468  -0.68248
  21   30282.9    330.2   0.088285982   0.95978   0.59485  -0.39457  -0.67101
  22   31434.5    318.1   0.055429386   0.58051   0.26921  -0.63710   0.31959
  23   31574.7    316.7   0.021193253   0.22097   0.19993  -0.07261   0.41920
  24   31597.1    316.5   0.052575152   0.54778   0.26145  -0.51195   0.46619
  25   31826.7    314.2   0.061963445   0.64094   0.60071  -0.32019   0.42139
  26   32284.6    309.7   0.091436217   0.93239   0.46980  -0.82580  -0.17245
  27   32411.2    308.5   0.022086716   0.22434  -0.17059   0.36935  -0.24254
  28   32570.1    307.0   0.029934558   0.30257   0.12195   0.00628  -0.53634
  29   32828.5    304.6   0.321620902   3.22529  -0.93736   1.23711   0.90344
  30   32974.8    303.3   0.193366368   1.93052   0.11026  -0.14527   1.37741
  31   33111.5    302.0   0.021407864   0.21285   0.45492  -0.02815   0.07144
  32   33230.1    300.9   0.072626073   0.71951   0.46821  -0.62778   0.32586
  33   33418.9    299.2   0.108174781   1.06564  -0.99944   0.13190  -0.22215
  34   33927.4    294.7   0.331611277   3.21777  -0.35821   1.46261  -0.97480
  35   34512.6    289.7   0.207861999   1.98277   1.33946   0.19059  -0.39025
  36   34799.7    287.4   0.044580894   0.42174  -0.53276   0.33263   0.16513
  37   35371.2    282.7   0.042616878   0.39665   0.56341   0.18104   0.21552
  38   35508.5    281.6   0.069222758   0.64179   0.74529  -0.02445   0.29281
  39   36000.2    277.8   0.083869556   0.76696   0.84189   0.04698   0.23658
  40   36273.2    275.7   0.029492284   0.26767   0.24827   0.41727  -0.17866
  41   36766.5    272.0   0.080469205   0.72053   0.15523  -0.51731   0.65485
  42   36899.6    271.0   0.042080108   0.37543   0.01820  -0.38120  -0.47936
  43   37027.8    270.1   0.002832780   0.02519   0.02694  -0.14417   0.06062
  44   37104.5    269.5   0.157683119   1.39905  -0.22165   0.56511  -1.01517
  45   37471.8    266.9   0.054434911   0.47824  -0.06316   0.61719  -0.30550
  46   37637.7    265.7   0.048991298   0.42852  -0.23607   0.51952  -0.32077
  47   37719.0    265.1   0.008526383   0.07442  -0.00280   0.15115  -0.22708
  48   38081.7    262.6   0.027093925   0.23422   0.32221   0.14488  -0.33078
  49   38156.3    262.1   0.022536892   0.19445  -0.38321  -0.14418   0.16374
  50   38347.7    260.8   0.001343977   0.01154  -0.05870   0.03440  -0.08312
  51   38482.0    259.9   0.011565092   0.09894  -0.15373  -0.09659   0.25686
  52   38717.7    258.3   0.220144689   1.87187  -0.82682   0.10942  -1.08455
  53   39510.1    253.1   0.016661433   0.13883   0.35369   0.01183  -0.11657
  54   39722.7    251.7   0.009374855   0.07770  -0.18492  -0.07342  -0.19522
  55   39897.9    250.6   0.062891112   0.51894  -0.71153   0.11099  -0.01834
  56   39984.6    250.1   0.038467980   0.31673  -0.02713   0.17026  -0.53573
  57   40060.8    249.6   0.022454818   0.18453   0.23119   0.13462  -0.33609
  58   40143.1    249.1   0.089384708   0.73304  -0.11245  -0.14693   0.83594

FINAL SINGLE POINT ENERGY     -9785.795798733772

DIPOLE MOMENT
-------------
                                X             Y             Z
Electronic contribution:    -83.44056      93.28068     144.79073
Nuclear contribution   :     85.72467     -94.98411    -148.79586
                        -----------------------------------------
Total Dipole Moment    :      2.28412      -1.70343      -4.00513
                        -----------------------------------------
Magnitude (a.u.)       :      4.91527
Magnitude (Debye)      :     12.49363

Rotational constants in cm-1:     0.000943     0.000424     0.000354
Rotational constants in MHz :    28.270730    12.720319    10.608592

                             ****ORCA TERMINATED NORMALLY****
TOTAL RUN TIME: 0 days 0 hours 12 minutes 39 seconds 530 msec
