                         Program Version 4.2.0 -  RELEASE  -
|  1> # ORCA input file
|  2> # SCF done       -180.843474262458          0.000830625869
|  3> ! CAM-B3LYP def2-SVP def2/J RIJCOSX Grid4 TightSCF
|  4> %maxcore 5000
|  5> %tddft
|  6>     Mode sTDDFT
|  7>     Ethresh 5.0
|  8>     maxcore 5000
|  9> end
| 10>
| 11> %pal
| 12>   nprocs 6
| 13>   end
| 14> * xyz 0 1
| 15>    C       -5.28721        10.30293        -0.40546
| 16>    C       -5.06464        10.20098        -1.75576
| 17>    C       -5.58880         9.19859        -2.58309
| 18>    N       -6.05755         8.49075        -3.36029
| 19>    C       -4.37484        11.17299        -2.51357
| 20>    N       -3.78399        11.91966        -3.15287
| 21>    C       -5.04424        11.48693         0.41039
| 22>    C       -5.59580        11.27566         1.70216
| 23>    C       -5.56132        12.23139         2.68859
| 24>    C       -4.94755        13.45302         2.39171
| 25>    C       -4.39569        13.65360         1.10282
| 26>    C       -4.43661        12.68907         0.10270
| 27>    S       -3.68191        15.22853         0.95171
| 28>    C       -4.12698        15.59386         2.59754
| 29>    C       -4.77856        14.58758         3.22986
| 30>   Br       -3.69142        17.26504         3.32487
| 31>    C       -6.15010         9.92002         1.76628
| 32>    O       -6.67317         9.36620         2.72444
| 33>    C       -5.88788         9.31089         0.45327
| 34>    C       -6.06296         7.96968         0.23456
| 35>    N       -6.60808         7.20474         1.19658
| 36>    C       -6.73623         5.85271         1.29509
| 37>    S       -7.00100         5.21209         2.88851
| 38>    C       -6.96400         3.60618         2.24047
| 39>    N       -7.16374         2.53526         3.12945
| 40>    O       -7.13778         1.41159         2.67194
| 41>    O       -7.34905         2.82825         4.29567
| 42>    C       -6.75621         3.56917         0.88962
| 43>    C       -6.63848         4.85335         0.32051
| 44>    C       -6.50938         5.10023        -1.09224
| 45>    C       -5.96737         4.26055        -1.99122
| 46>    C       -5.87761         4.65905        -3.35998
| 47>    O       -6.36268         5.88627        -3.73156
| 48>    C       -6.05031         5.92823        -5.03260
| 49>    N       -5.44923         4.84621        -5.43986
| 50>    N       -5.34210         4.04310        -4.36925
| 51>    N       -6.40094         7.01283        -5.75701
| 52>    C       -6.12966         7.08725        -7.09224
| 53>    S       -5.10703         5.89673        -7.80637
| 54>    C       -5.26906         6.71652        -9.33679
| 55>    N       -4.59871         6.18418       -10.45327
| 56>    O       -4.72968         6.75793       -11.51595
| 57>    O       -3.93567         5.18313       -10.26595
| 58>    C       -6.08104         7.80962        -9.29042
| 59>    C       -6.61791         8.04147        -7.99956
| 60>    C       -7.60546         9.05467        -7.80604
| 61>    C       -8.32682         9.37014        -6.70057
| 62>    C       -9.38166        10.31352        -6.75306
| 63>    C      -10.10457        10.79323        -5.69950
| 64>    C       -9.84829        10.73881        -4.28130
| 65>    C       -8.60422        10.74301        -3.69772
| 66>    C       -8.37581        10.71311        -2.31288
| 67>    N       -8.11725        10.65294        -1.19409
| 68>    C       -7.42536        10.89089        -4.45793
| 69>    N       -6.45885        11.05970        -5.05356
| 70>    C      -11.11748        10.93923        -3.59570
| 71>    C      -12.08710        11.33585        -4.55191
| 72>    C      -11.47092        11.34535        -5.89833
| 73>    O      -11.97867        11.67748        -6.94296
| 74>    C      -13.38096        11.63453        -4.20261
| 75>    C      -13.73501        11.52697        -2.85239
| 76>    C      -12.75992        11.12362        -1.90845
| 77>    C      -11.44762        10.83105        -2.25894
| 78>    S      -13.41729        11.04900        -0.30227
| 79>    C      -14.97116        11.55711        -0.90917
| 80>    C      -14.99757        11.77077        -2.24655
| 81>   Br      -16.40824        11.75185         0.27894
| 82>    H       -5.99431        12.04438         3.65869
| 83>    H       -4.00158        12.89028        -0.86189
| 84>    H       -5.12467        14.64298         4.24574
| 85>    H       -5.71878         7.49779        -0.67542
| 86>    H       -6.82879         7.75598         2.04884
| 87>    H       -6.72540         2.65201         0.33052
| 88>    H       -6.90485         6.04035        -1.45225
| 89>    H       -5.54039         3.30412        -1.74203
| 90>    H       -6.59133         7.84513        -5.19786
| 91>    H       -6.29826         8.41487       -10.15240
| 92>    H       -7.81867         9.62287        -8.70331
| 93>    H       -8.16506         8.86649        -5.75993
| 94>    H       -9.73535        10.60964        -7.73463
| 95>    H      -14.09982        11.94255        -4.94532
| 96>    H      -10.73579        10.52373        -1.50997
| 97>    H      -15.87209        12.08603        -2.78558
| 98> *
| 99>
|100>                          ****END OF INPUT****

CARTESIAN COORDINATES (ANGSTROEM)
---------------------------------
  C     -5.287210   10.302930   -0.405460
  C     -5.064640   10.200980   -1.755760
  C     -5.588800    9.198590   -2.583090
  N     -6.057550    8.490750   -3.360290
  C     -4.374840   11.172990   -2.513570
  N     -3.783990   11.919660   -3.152870
  C     -5.044240   11.486930    0.410390
  C     -5.595800   11.275660    1.702160
  C     -5.561320   12.231390    2.688590
  C     -4.947550   13.453020    2.391710
  C     -4.395690   13.653600    1.102820
  C     -4.436610   12.689070    0.102700
  S     -3.681910   15.228530    0.951710
  C     -4.126980   15.593860    2.597540
  C     -4.778560   14.587580    3.229860
  Br    -3.691420   17.265040    3.324870
  C     -6.150100    9.920020    1.766280
  O     -6.673170    9.366200    2.724440
  C     -5.887880    9.310890    0.453270
  C     -6.062960    7.969680    0.234560
  N     -6.608080    7.204740    1.196580
  C     -6.736230    5.852710    1.295090
  S     -7.001000    5.212090    2.888510
  C     -6.964000    3.606180    2.240470
  N     -7.163740    2.535260    3.129450
  O     -7.137780    1.411590    2.671940
  O     -7.349050    2.828250    4.295670
  C     -6.756210    3.569170    0.889620
  C     -6.638480    4.853350    0.320510
  C     -6.509380    5.100230   -1.092240
  C     -5.967370    4.260550   -1.991220
  C     -5.877610    4.659050   -3.359980
  O     -6.362680    5.886270   -3.731560
  C     -6.050310    5.928230   -5.032600
  N     -5.449230    4.846210   -5.439860
  N     -5.342100    4.043100   -4.369250
  N     -6.400940    7.012830   -5.757010
  C     -6.129660    7.087250   -7.092240
  S     -5.107030    5.896730   -7.806370
  C     -5.269060    6.716520   -9.336790
  N     -4.598710    6.184180  -10.453270
  O     -4.729680    6.757930  -11.515950
  O     -3.935670    5.183130  -10.265950
  C     -6.081040    7.809620   -9.290420
  C     -6.617910    8.041470   -7.999560
  C     -7.605460    9.054670   -7.806040
  C     -8.326820    9.370140   -6.700570
  C     -9.381660   10.313520   -6.753060
  C    -10.104570   10.793230   -5.699500
  C     -9.848290   10.738810   -4.281300
  C     -8.604220   10.743010   -3.697720
  C     -8.375810   10.713110   -2.312880
  N     -8.117250   10.652940   -1.194090
  C     -7.425360   10.890890   -4.457930
  N     -6.458850   11.059700   -5.053560
  C    -11.117480   10.939230   -3.595700
  C    -12.087100   11.335850   -4.551910
  C    -11.470920   11.345350   -5.898330
  O    -11.978670   11.677480   -6.942960
  C    -13.380960   11.634530   -4.202610
  C    -13.735010   11.526970   -2.852390
  C    -12.759920   11.123620   -1.908450
  C    -11.447620   10.831050   -2.258940
  S    -13.417290   11.049000   -0.302270
  C    -14.971160   11.557110   -0.909170
  C    -14.997570   11.770770   -2.246550
  Br   -16.408240   11.751850    0.278940
  H     -5.994310   12.044380    3.658690
  H     -4.001580   12.890280   -0.861890
  H     -5.124670   14.642980    4.245740
  H     -5.718780    7.497790   -0.675420
  H     -6.828790    7.755980    2.048840
  H     -6.725400    2.652010    0.330520
  H     -6.904850    6.040350   -1.452250
  H     -5.540390    3.304120   -1.742030
  H     -6.591330    7.845130   -5.197860
  H     -6.298260    8.414870  -10.152400
  H     -7.818670    9.622870   -8.703310
  H     -8.165060    8.866490   -5.759930
  H     -9.735350   10.609640   -7.734630
  H    -14.099820   11.942550   -4.945320
  H    -10.735790   10.523730   -1.509970
  H    -15.872090   12.086030   -2.785580

 Total Charge           Charge          ....    0
 Multiplicity           Mult            ....    1
 Number of Electrons    NEL             ....  540
 Basis Dimension        Dim             .... 1070

ORBITAL ENERGIES
----------------

  NO   OCC          E(Eh)            E(eV)
   0   2.0000    -482.892872    -13140.1831
   1   2.0000    -482.892018    -13140.1598
   2   2.0000     -89.001346     -2421.8497
   3   2.0000     -88.984626     -2421.3948
   4   2.0000     -88.983079     -2421.3527
   5   2.0000     -88.982931     -2421.3486
   6   2.0000     -62.570569     -1702.6317
   7   2.0000     -62.569689     -1702.6078
   8   2.0000     -56.404529     -1534.8453
   9   2.0000     -56.403647     -1534.8213
  10   2.0000     -56.401793     -1534.7708
  11   2.0000     -56.401767     -1534.7701
  12   2.0000     -56.400921     -1534.7471
  13   2.0000     -56.400890     -1534.7462
  14   2.0000     -19.327607      -525.9309
  15   2.0000     -19.250829      -523.8417
  16   2.0000     -19.250485      -523.8323
  17   2.0000     -19.242705      -523.6206
  18   2.0000     -19.232512      -523.3433
  19   2.0000     -19.231425      -523.3137
  20   2.0000     -19.219175      -522.9803
  21   2.0000     -14.662622      -398.9902
  22   2.0000     -14.643697      -398.4753
  23   2.0000     -14.506253      -394.7352
  24   2.0000     -14.493731      -394.3945
  25   2.0000     -14.446959      -393.1217
  26   2.0000     -14.442724      -393.0065
  27   2.0000     -14.442483      -392.9999
  28   2.0000     -14.433399      -392.7527
  29   2.0000     -14.419417      -392.3723
  30   2.0000     -14.419004      -392.3611
  31   2.0000     -10.422189      -283.6022
  32   2.0000     -10.388645      -282.6894
  33   2.0000     -10.388478      -282.6849
  34   2.0000     -10.381583      -282.4972
  35   2.0000     -10.379131      -282.4305
  36   2.0000     -10.377709      -282.3918
  37   2.0000     -10.370689      -282.2008
  38   2.0000     -10.367552      -282.1154
  39   2.0000     -10.365750      -282.0664
  40   2.0000     -10.359588      -281.8987
  41   2.0000     -10.357376      -281.8385
  42   2.0000     -10.350341      -281.6471
  43   2.0000     -10.350047      -281.6391
  44   2.0000     -10.349901      -281.6351
  45   2.0000     -10.349444      -281.6227
  46   2.0000     -10.337625      -281.3011
  47   2.0000     -10.335058      -281.2312
  48   2.0000     -10.333360      -281.1850
  49   2.0000     -10.332841      -281.1709
  50   2.0000     -10.324975      -280.9568
  51   2.0000     -10.322235      -280.8823
  52   2.0000     -10.322125      -280.8793
  53   2.0000     -10.321920      -280.8737
  54   2.0000     -10.321373      -280.8588
  55   2.0000     -10.319145      -280.7982
  56   2.0000     -10.318398      -280.7779
  57   2.0000     -10.318295      -280.7751
  58   2.0000     -10.317533      -280.7543
  59   2.0000     -10.315969      -280.7118
  60   2.0000     -10.315752      -280.7059
  61   2.0000     -10.315341      -280.6947
  62   2.0000     -10.314708      -280.6775
  63   2.0000     -10.314704      -280.6774
  64   2.0000     -10.313262      -280.6381
  65   2.0000     -10.307915      -280.4926
  66   2.0000     -10.307897      -280.4921
  67   2.0000     -10.306347      -280.4500
  68   2.0000     -10.305809      -280.4353
  69   2.0000     -10.305304      -280.4216
  70   2.0000     -10.305165      -280.4178
  71   2.0000     -10.303256      -280.3658
  72   2.0000     -10.299650      -280.2677
  73   2.0000     -10.297791      -280.2171
  74   2.0000     -10.297734      -280.2156
  75   2.0000      -8.800002      -239.4602
  76   2.0000      -8.799091      -239.4354
  77   2.0000      -8.097160      -220.3349
  78   2.0000      -8.080599      -219.8843
  79   2.0000      -8.079091      -219.8433
  80   2.0000      -8.077065      -219.7881
  81   2.0000      -6.636329      -180.5837
  82   2.0000      -6.635404      -180.5585
  83   2.0000      -6.621737      -180.1866
  84   2.0000      -6.621502      -180.1802
  85   2.0000      -6.620823      -180.1618
  86   2.0000      -6.620609      -180.1559
  87   2.0000      -6.066792      -165.0858
  88   2.0000      -6.062364      -164.9653
  89   2.0000      -6.058591      -164.8626
  90   2.0000      -6.050262      -164.6360
  91   2.0000      -6.048787      -164.5959
  92   2.0000      -6.046739      -164.5401
  93   2.0000      -6.045976      -164.5194
  94   2.0000      -6.044511      -164.4795
  95   2.0000      -6.041959      -164.4101
  96   2.0000      -6.041874      -164.4077
  97   2.0000      -6.040319      -164.3654
  98   2.0000      -6.038751      -164.3228
  99   2.0000      -2.752213       -74.8915
 100   2.0000      -2.751300       -74.8667
 101   2.0000      -2.748086       -74.7792
 102   2.0000      -2.747940       -74.7753
 103   2.0000      -2.747157       -74.7539
 104   2.0000      -2.747030       -74.7505
 105   2.0000      -2.736316       -74.4589
 106   2.0000      -2.736312       -74.4588
 107   2.0000      -2.735424       -74.4347
 108   2.0000      -2.735414       -74.4344
 109   2.0000      -1.333392       -36.2834
 110   2.0000      -1.314820       -35.7781
 111   2.0000      -1.279693       -34.8222
 112   2.0000      -1.158807       -31.5327
 113   2.0000      -1.153067       -31.3765
 114   2.0000      -1.134756       -30.8783
 115   2.0000      -1.133895       -30.8548
 116   2.0000      -1.111535       -30.2464
 117   2.0000      -1.105736       -30.0886
 118   2.0000      -1.097094       -29.8534
 119   2.0000      -1.039209       -28.2783
 120   2.0000      -1.031567       -28.0704
 121   2.0000      -1.028532       -27.9878
 122   2.0000      -1.024168       -27.8690
 123   2.0000      -1.022824       -27.8324
 124   2.0000      -1.009350       -27.4658
 125   2.0000      -1.006422       -27.3861
 126   2.0000      -1.004355       -27.3299
 127   2.0000      -0.998488       -27.1702
 128   2.0000      -0.996246       -27.1092
 129   2.0000      -0.955949       -26.0127
 130   2.0000      -0.952892       -25.9295
 131   2.0000      -0.951936       -25.9035
 132   2.0000      -0.934022       -25.4160
 133   2.0000      -0.925103       -25.1733
 134   2.0000      -0.920078       -25.0366
 135   2.0000      -0.916086       -24.9280
 136   2.0000      -0.914194       -24.8765
 137   2.0000      -0.900332       -24.4993
 138   2.0000      -0.896615       -24.3981
 139   2.0000      -0.893587       -24.3157
 140   2.0000      -0.890468       -24.2309
 141   2.0000      -0.882893       -24.0247
 142   2.0000      -0.869764       -23.6675
 143   2.0000      -0.864971       -23.5371
 144   2.0000      -0.853113       -23.2144
 145   2.0000      -0.840095       -22.8601
 146   2.0000      -0.837329       -22.7849
 147   2.0000      -0.831117       -22.6159
 148   2.0000      -0.805657       -21.9230
 149   2.0000      -0.801307       -21.8047
 150   2.0000      -0.789516       -21.4838
 151   2.0000      -0.779695       -21.2166
 152   2.0000      -0.774174       -21.0664
 153   2.0000      -0.765738       -20.8368
 154   2.0000      -0.762962       -20.7612
 155   2.0000      -0.739873       -20.1330
 156   2.0000      -0.731566       -19.9069
 157   2.0000      -0.722331       -19.6556
 158   2.0000      -0.719354       -19.5746
 159   2.0000      -0.711320       -19.3560
 160   2.0000      -0.704721       -19.1764
 161   2.0000      -0.702330       -19.1114
 162   2.0000      -0.695664       -18.9300
 163   2.0000      -0.685323       -18.6486
 164   2.0000      -0.676117       -18.3981
 165   2.0000      -0.675205       -18.3733
 166   2.0000      -0.673055       -18.3148
 167   2.0000      -0.668188       -18.1823
 168   2.0000      -0.659836       -17.9551
 169   2.0000      -0.655032       -17.8243
 170   2.0000      -0.645516       -17.5654
 171   2.0000      -0.644000       -17.5241
 172   2.0000      -0.641953       -17.4684
 173   2.0000      -0.634497       -17.2655
 174   2.0000      -0.633196       -17.2302
 175   2.0000      -0.632393       -17.2083
 176   2.0000      -0.628570       -17.1043
 177   2.0000      -0.625277       -17.0147
 178   2.0000      -0.620664       -16.8891
 179   2.0000      -0.610285       -16.6067
 180   2.0000      -0.609299       -16.5799
 181   2.0000      -0.604184       -16.4407
 182   2.0000      -0.601729       -16.3739
 183   2.0000      -0.599885       -16.3237
 184   2.0000      -0.591387       -16.0925
 185   2.0000      -0.586976       -15.9724
 186   2.0000      -0.584745       -15.9117
 187   2.0000      -0.580672       -15.8009
 188   2.0000      -0.570125       -15.5139
 189   2.0000      -0.568874       -15.4798
 190   2.0000      -0.566552       -15.4167
 191   2.0000      -0.559854       -15.2344
 192   2.0000      -0.557999       -15.1839
 193   2.0000      -0.556949       -15.1553
 194   2.0000      -0.551393       -15.0042
 195   2.0000      -0.549096       -14.9417
 196   2.0000      -0.548086       -14.9142
 197   2.0000      -0.545478       -14.8432
 198   2.0000      -0.541533       -14.7359
 199   2.0000      -0.537089       -14.6149
 200   2.0000      -0.535919       -14.5831
 201   2.0000      -0.533942       -14.5293
 202   2.0000      -0.529283       -14.4025
 203   2.0000      -0.525534       -14.3005
 204   2.0000      -0.523485       -14.2448
 205   2.0000      -0.519431       -14.1344
 206   2.0000      -0.516096       -14.0437
 207   2.0000      -0.511860       -13.9284
 208   2.0000      -0.509850       -13.8737
 209   2.0000      -0.506908       -13.7937
 210   2.0000      -0.506069       -13.7708
 211   2.0000      -0.503522       -13.7015
 212   2.0000      -0.502270       -13.6675
 213   2.0000      -0.495299       -13.4778
 214   2.0000      -0.491744       -13.3810
 215   2.0000      -0.488127       -13.2826
 216   2.0000      -0.484702       -13.1894
 217   2.0000      -0.483699       -13.1621
 218   2.0000      -0.479256       -13.0412
 219   2.0000      -0.473555       -12.8861
 220   2.0000      -0.471122       -12.8199
 221   2.0000      -0.468812       -12.7570
 222   2.0000      -0.467071       -12.7096
 223   2.0000      -0.466940       -12.7061
 224   2.0000      -0.464156       -12.6303
 225   2.0000      -0.461059       -12.5460
 226   2.0000      -0.459009       -12.4903
 227   2.0000      -0.454070       -12.3559
 228   2.0000      -0.451789       -12.2938
 229   2.0000      -0.451556       -12.2875
 230   2.0000      -0.449068       -12.2198
 231   2.0000      -0.448516       -12.2048
 232   2.0000      -0.447249       -12.1703
 233   2.0000      -0.444876       -12.1057
 234   2.0000      -0.443929       -12.0799
 235   2.0000      -0.439781       -11.9671
 236   2.0000      -0.433131       -11.7861
 237   2.0000      -0.431996       -11.7552
 238   2.0000      -0.422511       -11.4971
 239   2.0000      -0.420493       -11.4422
 240   2.0000      -0.418367       -11.3843
 241   2.0000      -0.412269       -11.2184
 242   2.0000      -0.409651       -11.1472
 243   2.0000      -0.403981       -10.9929
 244   2.0000      -0.397581       -10.8187
 245   2.0000      -0.397266       -10.8102
 246   2.0000      -0.394253       -10.7282
 247   2.0000      -0.390620       -10.6293
 248   2.0000      -0.382105       -10.3976
 249   2.0000      -0.381291       -10.3755
 250   2.0000      -0.380846       -10.3634
 251   2.0000      -0.379826       -10.3356
 252   2.0000      -0.379286       -10.3209
 253   2.0000      -0.376650       -10.2492
 254   2.0000      -0.371530       -10.1098
 255   2.0000      -0.368457       -10.0262
 256   2.0000      -0.365776        -9.9533
 257   2.0000      -0.361174        -9.8281
 258   2.0000      -0.354525        -9.6471
 259   2.0000      -0.351493        -9.5646
 260   2.0000      -0.350089        -9.5264
 261   2.0000      -0.338427        -9.2091
 262   2.0000      -0.328718        -8.9449
 263   2.0000      -0.326736        -8.8909
 264   2.0000      -0.322721        -8.7817
 265   2.0000      -0.311119        -8.4660
 266   2.0000      -0.303892        -8.2693
 267   2.0000      -0.301439        -8.2026
 268   2.0000      -0.288811        -7.8589
 269   2.0000      -0.271734        -7.3942
 270   0.0000      -0.099257        -2.7009
 271   0.0000      -0.098058        -2.6683
 272   0.0000      -0.077759        -2.1159
 273   0.0000      -0.065789        -1.7902
 274   0.0000      -0.058835        -1.6010

MULLIKEN ATOMIC CHARGES
-----------------------
   0 C :    0.347781
   1 C :   -0.359830
   2 C :   -0.163442
   3 N :    0.109386
   4 C :   -0.189447
   5 N :    0.165145
   6 C :    0.007572
   7 C :    0.002927
   8 C :   -0.066707
   9 C :    0.115475
  10 C :   -0.092048
  11 C :   -0.015958
  12 S :    0.196098
  13 C :   -0.124214
  14 C :    0.040243
  15 Br:    0.030940
  16 C :    0.179563
  17 O :   -0.213398
  18 C :   -0.103406
  19 C :    0.028327
  20 N :   -0.001855
  21 C :   -0.108672
  22 S :    0.199060
  23 C :    0.002672
  24 N :    0.276500
  25 O :   -0.239283
  26 O :   -0.255912
  27 C :   -0.000654
  28 C :    0.112642
  29 C :   -0.050639
  30 C :   -0.016020
  31 C :    0.087316
  32 O :   -0.196282
  33 C :    0.164706
  34 N :   -0.175895
  35 N :   -0.021019
  36 N :   -0.022856
  37 C :   -0.094330
  38 S :    0.242744
  39 C :    0.003388
  40 N :    0.270480
  41 O :   -0.250163
  42 O :   -0.255071
  43 C :   -0.002754
  44 C :    0.135899
  45 C :    0.016971
  46 C :    0.002273
  47 C :    0.024187
  48 C :   -0.121882
  49 C :    0.259928
  50 C :   -0.324342
  51 C :   -0.148294
  52 N :    0.116483
  53 C :   -0.243871
  54 N :    0.183480
  55 C :    0.009168
  56 C :   -0.005417
  57 C :    0.146341
  58 O :   -0.137527
  59 C :   -0.067236
  60 C :    0.109333
  61 C :   -0.086096
  62 C :   -0.025350
  63 S :    0.180281
  64 C :   -0.124993
  65 C :    0.043902
  66 Br:    0.027122
  67 H :   -0.008479
  68 H :   -0.003382
  69 H :   -0.002224
  70 H :    0.038995
  71 H :    0.171677
  72 H :    0.018276
  73 H :    0.032793
  74 H :    0.022013
  75 H :    0.185252
  76 H :    0.011474
  77 H :    0.006065
  78 H :   -0.007673
  79 H :    0.019613
  80 H :   -0.006843
  81 H :   -0.009724
  82 H :   -0.001304
Sum of atomic charges:   -0.0000000

LOEWDIN ATOMIC CHARGES
----------------------
   0 C :    0.095690
   1 C :   -0.156579
   2 C :    0.021846
   3 N :   -0.086050
   4 C :   -0.022762
   5 N :   -0.042633
   6 C :   -0.014958
   7 C :   -0.046746
   8 C :    0.026249
   9 C :   -0.031749
  10 C :   -0.143288
  11 C :   -0.003131
  12 S :    0.440944
  13 C :   -0.270227
  14 C :   -0.069693
  15 Br:    0.142618
  16 C :    0.103615
  17 O :   -0.164829
  18 C :   -0.131572
  19 C :    0.115905
  20 N :    0.066574
  21 C :   -0.104550
  22 S :    0.479710
  23 C :   -0.201394
  24 N :    0.272796
  25 O :   -0.205204
  26 O :   -0.221359
  27 C :    0.004537
  28 C :   -0.096107
  29 C :   -0.013630
  30 C :   -0.030343
  31 C :    0.020351
  32 O :    0.006586
  33 C :    0.056066
  34 N :   -0.143214
  35 N :   -0.065757
  36 N :    0.036134
  37 C :   -0.079704
  38 S :    0.534998
  39 C :   -0.217515
  40 N :    0.272705
  41 O :   -0.215848
  42 O :   -0.221365
  43 C :    0.002390
  44 C :   -0.107295
  45 C :    0.050102
  46 C :   -0.053563
  47 C :    0.079292
  48 C :   -0.104492
  49 C :    0.076362
  50 C :   -0.152846
  51 C :   -0.005888
  52 N :   -0.077596
  53 C :   -0.028280
  54 N :   -0.047832
  55 C :   -0.020279
  56 C :   -0.050119
  57 C :    0.082654
  58 O :   -0.139783
  59 C :    0.023729
  60 C :   -0.032567
  61 C :   -0.144588
  62 C :   -0.015895
  63 S :    0.428657
  64 C :   -0.271641
  65 C :   -0.068740
  66 Br:    0.139546
  67 H :    0.042261
  68 H :    0.042994
  69 H :    0.039533
  70 H :    0.040318
  71 H :    0.081798
  72 H :    0.048466
  73 H :    0.034611
  74 H :    0.048269
  75 H :    0.087377
  76 H :    0.044668
  77 H :    0.042464
  78 H :    0.022108
  79 H :    0.046006
  80 H :    0.042487
  81 H :    0.038399
  82 H :    0.039798

  Mayer bond orders larger than 0.100000
B(  0-C ,  1-C ) :   1.5973 B(  0-C ,  6-C ) :   1.0222 B(  0-C , 18-C ) :   1.0981
B(  1-C ,  2-C ) :   1.1851 B(  1-C ,  4-C ) :   1.1412 B(  2-C ,  3-N ) :   2.8646
B(  3-N , 75-H ) :   0.1101 B(  4-C ,  5-N ) :   2.9637 B(  6-C ,  7-C ) :   1.2721
B(  6-C , 11-C ) :   1.4201 B(  7-C ,  8-C ) :   1.4241 B(  7-C , 16-C ) :   0.9874
B(  8-C ,  9-C ) :   1.2427 B(  8-C , 67-H ) :   1.0169 B(  9-C , 10-C ) :   1.3070
B(  9-C , 14-C ) :   1.1653 B( 10-C , 11-C ) :   1.3202 B( 10-C , 12-S ) :   1.0916
B( 11-C , 68-H ) :   0.9801 B( 12-S , 13-C ) :   1.0904 B( 13-C , 14-C ) :   1.6137
B( 13-C , 15-Br) :   1.0231 B( 14-C , 69-H ) :   1.0000 B( 16-C , 17-O ) :   2.0368
B( 16-C , 18-C ) :   0.9859 B( 17-O , 71-H ) :   0.1591 B( 18-C , 19-C ) :   1.4803
B( 19-C , 20-N ) :   1.3258 B( 19-C , 70-H ) :   0.9403 B( 20-N , 21-C ) :   1.1722
B( 20-N , 71-H ) :   0.8192 B( 21-C , 22-S ) :   1.1529 B( 21-C , 28-C ) :   1.3935
B( 22-S , 23-C ) :   1.0926 B( 23-C , 24-N ) :   0.9556 B( 23-C , 27-C ) :   1.4966
B( 24-N , 25-O ) :   1.5453 B( 24-N , 26-O ) :   1.5176 B( 25-O , 26-O ) :   0.2651
B( 27-C , 28-C ) :   1.2313 B( 27-C , 72-H ) :   1.0049 B( 28-C , 29-C ) :   1.0417
B( 29-C , 30-C ) :   1.7190 B( 29-C , 73-H ) :   0.9579 B( 30-C , 31-C ) :   1.1254
B( 30-C , 74-H ) :   0.9696 B( 31-C , 32-O ) :   1.0952 B( 31-C , 35-N ) :   1.7478
B( 32-O , 33-C ) :   1.1580 B( 33-C , 34-N ) :   1.6155 B( 33-C , 36-N ) :   1.1934
B( 34-N , 35-N ) :   1.1643 B( 36-N , 37-C ) :   1.1824 B( 36-N , 75-H ) :   0.8254
B( 37-C , 38-S ) :   1.2106 B( 37-C , 44-C ) :   1.3362 B( 38-S , 39-C ) :   1.0402
B( 39-C , 40-N ) :   0.9609 B( 39-C , 43-C ) :   1.5148 B( 40-N , 41-O ) :   1.5406
B( 40-N , 42-O ) :   1.5255 B( 41-O , 42-O ) :   0.2621 B( 43-C , 44-C ) :   1.1904
B( 43-C , 76-H ) :   1.0055 B( 44-C , 45-C ) :   1.1278 B( 45-C , 46-C ) :   1.6231
B( 45-C , 77-H ) :   0.9722 B( 46-C , 47-C ) :   1.1741 B( 46-C , 78-H ) :   0.9448
B( 47-C , 48-C ) :   1.5731 B( 47-C , 79-H ) :   0.9612 B( 48-C , 49-C ) :   1.0663
B( 48-C , 57-C ) :   0.9403 B( 49-C , 50-C ) :   1.6104 B( 49-C , 55-C ) :   1.0176
B( 50-C , 51-C ) :   1.1479 B( 50-C , 53-C ) :   1.1816 B( 51-C , 52-N ) :   2.9271
B( 53-C , 54-N ) :   2.9446 B( 55-C , 56-C ) :   1.2737 B( 55-C , 62-C ) :   1.4153
B( 56-C , 57-C ) :   0.9162 B( 56-C , 59-C ) :   1.4321 B( 57-C , 58-O ) :   2.2771
B( 59-C , 60-C ) :   1.2508 B( 59-C , 80-H ) :   1.0145 B( 60-C , 61-C ) :   1.3113
B( 60-C , 65-C ) :   1.1641 B( 61-C , 62-C ) :   1.3253 B( 61-C , 63-S ) :   1.0818
B( 62-C , 81-H ) :   0.9834 B( 63-S , 64-C ) :   1.0865 B( 64-C , 65-C ) :   1.6191
B( 64-C , 66-Br) :   1.0208 B( 65-C , 82-H ) :   0.9998

-----------------------------------------------------------------------------
         ABSORPTION SPECTRUM VIA TRANSITION ELECTRIC DIPOLE MOMENTS
-----------------------------------------------------------------------------
State   Energy  Wavelength   fosc         T2         TX        TY        TZ
        (cm-1)    (nm)                  (au**2)     (au)      (au)      (au)
-----------------------------------------------------------------------------
   0   20343.1    491.6   0.369539012   5.98026   1.82000  -1.15130  -1.15860
   1   22070.8    453.1   0.499492186   7.45051   0.02399   2.67826   0.52620
   2   25255.2    396.0   0.376350823   4.90588  -0.03645   2.02408  -0.89870
   3   26292.2    380.3   0.273303198   3.42211   0.43015  -1.22037  -1.32203
   4   26835.0    372.6   0.101006309   1.23915  -0.40892  -0.19494   1.01682
   5   27622.4    362.0   0.185025765   2.20519  -0.53528  -1.37746   0.14588
   6   28427.3    351.8   0.538974011   6.24177   1.56836   0.98272   1.67817
   7   28826.1    346.9   0.378812372   4.32628  -0.93550   1.84077   0.25036
   8   29522.7    338.7   0.084434589   0.94154  -0.33022  -0.83620   0.36505
   9   29700.0    336.7   0.085835861   0.95146  -0.44225  -0.81259   0.30914
  10   29800.1    335.6   0.720253318   7.95690  -1.13473  -0.06072   2.58178
  11   30158.5    331.6   0.004848953   0.05293   0.10766   0.12459   0.16068
  12   30623.5    326.5   0.216318649   2.32549  -1.18228   0.18284   0.94567
  13   30951.2    323.1   0.172640904   1.83629   0.42900  -0.46316  -1.19905
  14   31184.0    320.7   0.170369573   1.79860  -0.02239   1.23803   0.51516
  15   31668.8    315.8   0.098133890   1.02015   0.12449   0.39247  -0.92229
  16   31818.2    314.3   0.058710130   0.60745  -0.61290   0.19006  -0.44237
  17   32019.5    312.3   0.021084748   0.21678  -0.41348  -0.12757  -0.17189
  18   32396.7    308.7   0.289346193   2.94031  -0.87813   0.47209   1.39511
  19   33353.4    299.8   0.323211656   3.19023  -0.50894  -0.68197  -1.57039
  20   33818.6    295.7   0.007123433   0.06934  -0.09914  -0.08187  -0.22981
  21   34103.5    293.2   0.549154446   5.30116   1.94905  -0.63669  -1.04737
  22   34841.1    287.0   0.164207379   1.55159  -0.99357  -0.03078   0.75064
  23   35076.7    285.1   0.009893570   0.09286   0.22071   0.19167  -0.08604
  24   35230.6    283.8   0.082349744   0.76952   0.55344  -0.41016  -0.54312
  25   35452.5    282.1   0.086890497   0.80687  -0.19877  -0.63712   0.60120
  26   35768.2    279.6   0.017098576   0.15738   0.38314   0.08863  -0.05222
  27   35918.4    278.4   0.016369038   0.15003  -0.35466   0.04019   0.15044
  28   36470.7    274.2   0.029812412   0.26911   0.09033  -0.10463   0.50000
  29   36532.2    273.7   0.021172222   0.19079   0.10589   0.17777  -0.38468
  30   36993.9    270.3   0.059198203   0.52681  -0.27189  -0.58006   0.34120
  31   37378.7    267.5   0.007312962   0.06441   0.01761  -0.25215   0.02274
  32   37962.3    263.4   0.052470619   0.45503  -0.39761   0.32312   0.43878
  33   38122.5    262.3   0.001148066   0.00991   0.00278   0.06595   0.07454
  34   38357.1    260.7   0.022752264   0.19528   0.10159  -0.30090  -0.30727
  35   38506.2    259.7   0.258141681   2.20700   0.81024   0.95961  -0.79351
  36   38842.8    257.4   0.005923477   0.05020   0.11334   0.18283   0.06270
  37   38967.1    256.6   0.010519502   0.08887   0.08973   0.27539  -0.07058
  38   39611.4    252.5   0.083818340   0.69662   0.12053  -0.18889   0.80400
  39   39709.0    251.8   0.007725841   0.06405  -0.03748  -0.09399   0.23198
  40   40290.0    248.2   0.109912571   0.89810  -0.03121  -0.00328  -0.94716

FINAL SINGLE POINT ENERGY     -9496.901469653552

DIPOLE MOMENT
-------------
                                X             Y             Z
Electronic contribution:    -43.14234     100.29843      82.09459
Nuclear contribution   :     41.01519     -97.76098     -78.88055
                        -----------------------------------------
Total Dipole Moment    :     -2.12714       2.53745       3.21404
                        -----------------------------------------
Magnitude (a.u.)       :      4.61448
Magnitude (Debye)      :     11.72908

Rotational constants in cm-1:     0.000620     0.000498     0.000444
Rotational constants in MHz :    18.575402    14.929751    13.301277

                             ****ORCA TERMINATED NORMALLY****
TOTAL RUN TIME: 0 days 0 hours 8 minutes 21 seconds 224 msec
