                         Program Version 4.2.0 -  RELEASE  -
|  1> # ORCA input file
|  2> # SCF done       -173.680713078657          0.000667629741
|  3> ! CAM-B3LYP def2-SVP def2/J RIJCOSX Grid4 TightSCF
|  4> %maxcore 5000
|  5> %tddft
|  6>     Mode sTDDFT
|  7>     Ethresh 5.0
|  8>     maxcore 5000
|  9> end
| 10>
| 11> %pal
| 12>   nprocs 6
| 13>   end
| 14> * xyz 0 1
| 15>    C      -15.44176        -6.60996        -2.22100
| 16>    C      -16.28477        -5.75064        -2.86928
| 17>    F      -17.58845        -6.03371        -2.98309
| 18>    C      -15.79668        -4.55324        -3.43125
| 19>    F      -16.64630        -3.72586        -4.05857
| 20>    C      -14.46945        -4.23566        -3.35277
| 21>    C      -13.57283        -5.10306        -2.69902
| 22>    C      -14.07083        -6.30293        -2.11221
| 23>    C      -13.19503        -7.18286        -1.43655
| 24>    C      -11.85851        -6.89229        -1.39004
| 25>    C      -11.35862        -5.72087        -2.03266
| 26>    C      -12.18877        -4.82657        -2.64645
| 27>    C       -9.89526        -5.72175        -1.94642
| 28>    O       -9.11167        -4.89363        -2.40187
| 29>    C       -9.53225        -6.93443        -1.20218
| 30>    C      -10.73616        -7.63253        -0.82392
| 31>    C      -10.82956        -8.75945        -0.04855
| 32>    C      -12.03749        -9.29814         0.43244
| 33>    N      -12.96745        -9.78622         0.89817
| 34>    C       -9.72625        -9.51728         0.38865
| 35>    N       -8.86889       -10.19332         0.74551
| 36>    C       -8.22575        -7.24313        -0.92130
| 37>    N       -7.23456        -6.45422        -1.35310
| 38>    C       -5.91567        -6.59227        -1.07077
| 39>    S       -5.35038        -7.85063        -0.01519
| 40>    C       -3.73733        -7.24076        -0.18956
| 41>    N       -2.70425        -7.89911         0.48936
| 42>    O       -1.57735        -7.45476         0.36569
| 43>    O       -3.01404        -8.86988         1.15674
| 44>    C       -3.64824        -6.14672        -1.00718
| 45>    C       -4.89339        -5.75265        -1.53457
| 46>    C       -5.10200        -4.67594        -2.46546
| 47>    C       -4.15970        -3.79223        -2.84906
| 48>    C       -4.41495        -2.83272        -3.88163
| 49>    C       -3.54466        -1.96690        -4.42703
| 50>    C       -2.13958        -1.74963        -3.96535
| 51>    C       -3.94169        -1.17008        -5.65568
| 52>    N       -4.85536        -1.90132        -6.50604
| 53>    C       -6.20454        -1.79452        -6.36560
| 54>    C       -7.05480        -2.84853        -6.44245
| 55>    C       -8.45997        -2.76055        -6.37261
| 56>    C       -9.26177        -3.82782        -6.07249
| 57>    C      -10.67661        -3.87559        -6.04288
| 58>    C      -11.18959        -5.06947        -5.64028
| 59>    C      -10.20761        -6.02734        -5.29054
| 60>    S       -8.60962        -5.38567        -5.56222
| 61>    C      -10.41670        -7.26618        -4.72215
| 62>    C      -11.65238        -7.86951        -4.40374
| 63>    C      -11.54843        -9.04724        -3.73063
| 64>    C      -10.21702        -9.46366        -3.48234
| 65>    S       -9.09805        -8.29875        -4.19332
| 66>    C       -9.72109       -10.55042        -2.81263
| 67>    C      -10.43158       -11.52341        -2.07514
| 68>    S       -9.53106       -12.88151        -1.41039
| 69>    C      -10.88335       -13.56566        -0.61127
| 70>    C      -12.00285       -12.79827        -0.82792
| 71>    C      -11.74218       -11.65959        -1.65500
| 72>    O      -12.87150       -10.92444        -1.80761
| 73>    C      -13.82677       -11.56778        -1.08028
| 74>    N      -15.09463       -10.95601        -1.00928
| 75>    O      -15.98179       -11.57453        -0.45944
| 76>    O      -15.21209        -9.84867        -1.50265
| 77>    C      -13.37718       -12.70950        -0.47682
| 78>    H      -15.81499        -7.53527        -1.80953
| 79>    H      -14.11153        -3.32013        -3.79771
| 80>    H      -13.61034        -8.07876        -1.00523
| 81>    H      -11.79297        -3.93308        -3.10478
| 82>    H       -7.95006        -8.11924        -0.34818
| 83>    H       -7.55921        -5.64558        -1.91263
| 84>    H       -2.70822        -5.67051        -1.21504
| 85>    H       -6.08628        -4.60248        -2.90980
| 86>    H       -3.17164        -3.82861        -2.41755
| 87>    H       -5.41984        -2.87364        -4.28248
| 88>    H       -1.44218        -2.28527        -4.61115
| 89>    H       -1.99285        -2.08839        -2.94496
| 90>    H       -1.89135        -0.69068        -4.01844
| 91>    H       -3.04162        -0.93422        -6.23326
| 92>    H       -4.41389        -0.22599        -5.36684
| 93>    H       -4.53868        -2.84613        -6.69284
| 94>    H       -6.57109        -0.79186        -6.18996
| 95>    H       -6.63665        -3.84629        -6.50977
| 96>    H       -8.93064        -1.79961        -6.53017
| 97>    H      -11.26829        -3.02381        -6.33048
| 98>    H      -12.24029        -5.28710        -5.56911
| 99>    H      -12.59031        -7.41473        -4.66857
|100>    H      -12.39371        -9.62398        -3.41243
|101>    H       -8.64825       -10.68604        -2.81952
|102>    H      -10.77690       -14.46057        -0.03504
|103>    H      -13.95381       -13.36318         0.14367
|104> *
|105>
|106>                          ****END OF INPUT****

CARTESIAN COORDINATES (ANGSTROEM)
---------------------------------
  C    -15.441760   -6.609960   -2.221000
  C    -16.284770   -5.750640   -2.869280
  F    -17.588450   -6.033710   -2.983090
  C    -15.796680   -4.553240   -3.431250
  F    -16.646300   -3.725860   -4.058570
  C    -14.469450   -4.235660   -3.352770
  C    -13.572830   -5.103060   -2.699020
  C    -14.070830   -6.302930   -2.112210
  C    -13.195030   -7.182860   -1.436550
  C    -11.858510   -6.892290   -1.390040
  C    -11.358620   -5.720870   -2.032660
  C    -12.188770   -4.826570   -2.646450
  C     -9.895260   -5.721750   -1.946420
  O     -9.111670   -4.893630   -2.401870
  C     -9.532250   -6.934430   -1.202180
  C    -10.736160   -7.632530   -0.823920
  C    -10.829560   -8.759450   -0.048550
  C    -12.037490   -9.298140    0.432440
  N    -12.967450   -9.786220    0.898170
  C     -9.726250   -9.517280    0.388650
  N     -8.868890  -10.193320    0.745510
  C     -8.225750   -7.243130   -0.921300
  N     -7.234560   -6.454220   -1.353100
  C     -5.915670   -6.592270   -1.070770
  S     -5.350380   -7.850630   -0.015190
  C     -3.737330   -7.240760   -0.189560
  N     -2.704250   -7.899110    0.489360
  O     -1.577350   -7.454760    0.365690
  O     -3.014040   -8.869880    1.156740
  C     -3.648240   -6.146720   -1.007180
  C     -4.893390   -5.752650   -1.534570
  C     -5.102000   -4.675940   -2.465460
  C     -4.159700   -3.792230   -2.849060
  C     -4.414950   -2.832720   -3.881630
  C     -3.544660   -1.966900   -4.427030
  C     -2.139580   -1.749630   -3.965350
  C     -3.941690   -1.170080   -5.655680
  N     -4.855360   -1.901320   -6.506040
  C     -6.204540   -1.794520   -6.365600
  C     -7.054800   -2.848530   -6.442450
  C     -8.459970   -2.760550   -6.372610
  C     -9.261770   -3.827820   -6.072490
  C    -10.676610   -3.875590   -6.042880
  C    -11.189590   -5.069470   -5.640280
  C    -10.207610   -6.027340   -5.290540
  S     -8.609620   -5.385670   -5.562220
  C    -10.416700   -7.266180   -4.722150
  C    -11.652380   -7.869510   -4.403740
  C    -11.548430   -9.047240   -3.730630
  C    -10.217020   -9.463660   -3.482340
  S     -9.098050   -8.298750   -4.193320
  C     -9.721090  -10.550420   -2.812630
  C    -10.431580  -11.523410   -2.075140
  S     -9.531060  -12.881510   -1.410390
  C    -10.883350  -13.565660   -0.611270
  C    -12.002850  -12.798270   -0.827920
  C    -11.742180  -11.659590   -1.655000
  O    -12.871500  -10.924440   -1.807610
  C    -13.826770  -11.567780   -1.080280
  N    -15.094630  -10.956010   -1.009280
  O    -15.981790  -11.574530   -0.459440
  O    -15.212090   -9.848670   -1.502650
  C    -13.377180  -12.709500   -0.476820
  H    -15.814990   -7.535270   -1.809530
  H    -14.111530   -3.320130   -3.797710
  H    -13.610340   -8.078760   -1.005230
  H    -11.792970   -3.933080   -3.104780
  H     -7.950060   -8.119240   -0.348180
  H     -7.559210   -5.645580   -1.912630
  H     -2.708220   -5.670510   -1.215040
  H     -6.086280   -4.602480   -2.909800
  H     -3.171640   -3.828610   -2.417550
  H     -5.419840   -2.873640   -4.282480
  H     -1.442180   -2.285270   -4.611150
  H     -1.992850   -2.088390   -2.944960
  H     -1.891350   -0.690680   -4.018440
  H     -3.041620   -0.934220   -6.233260
  H     -4.413890   -0.225990   -5.366840
  H     -4.538680   -2.846130   -6.692840
  H     -6.571090   -0.791860   -6.189960
  H     -6.636650   -3.846290   -6.509770
  H     -8.930640   -1.799610   -6.530170
  H    -11.268290   -3.023810   -6.330480
  H    -12.240290   -5.287100   -5.569110
  H    -12.590310   -7.414730   -4.668570
  H    -12.393710   -9.623980   -3.412430
  H     -8.648250  -10.686040   -2.819520
  H    -10.776900  -14.460570   -0.035040
  H    -13.953810  -13.363180    0.143670

 Total Charge           Charge          ....    0
 Multiplicity           Mult            ....    1
 Number of Electrons    NEL             ....  468
 Basis Dimension        Dim             .... 1028

ORBITAL ENERGIES
----------------

  NO   OCC          E(Eh)            E(eV)
   0   2.0000     -88.987880     -2421.4833
   1   2.0000     -88.966984     -2420.9147
   2   2.0000     -88.941712     -2420.2270
   3   2.0000     -88.940365     -2420.1904
   4   2.0000     -24.793659      -674.6698
   5   2.0000     -24.789041      -674.5441
   6   2.0000     -19.304772      -525.3096
   7   2.0000     -19.246726      -523.7300
   8   2.0000     -19.245572      -523.6986
   9   2.0000     -19.238343      -523.5019
  10   2.0000     -19.237134      -523.4690
  11   2.0000     -19.225420      -523.1503
  12   2.0000     -14.656604      -398.8265
  13   2.0000     -14.649646      -398.6371
  14   2.0000     -14.492032      -394.3482
  15   2.0000     -14.439940      -392.9307
  16   2.0000     -14.414456      -392.2373
  17   2.0000     -14.410532      -392.1305
  18   2.0000     -10.382108      -282.5115
  19   2.0000     -10.375965      -282.3444
  20   2.0000     -10.372443      -282.2485
  21   2.0000     -10.371300      -282.2174
  22   2.0000     -10.370309      -282.1904
  23   2.0000     -10.363198      -281.9970
  24   2.0000     -10.345756      -281.5223
  25   2.0000     -10.341051      -281.3943
  26   2.0000     -10.338868      -281.3349
  27   2.0000     -10.333395      -281.1860
  28   2.0000     -10.324381      -280.9407
  29   2.0000     -10.322438      -280.8878
  30   2.0000     -10.317559      -280.7551
  31   2.0000     -10.316068      -280.7145
  32   2.0000     -10.313334      -280.6401
  33   2.0000     -10.310570      -280.5649
  34   2.0000     -10.309206      -280.5278
  35   2.0000     -10.307907      -280.4924
  36   2.0000     -10.307404      -280.4787
  37   2.0000     -10.305094      -280.4159
  38   2.0000     -10.304880      -280.4100
  39   2.0000     -10.304282      -280.3938
  40   2.0000     -10.301764      -280.3253
  41   2.0000     -10.301574      -280.3201
  42   2.0000     -10.299214      -280.2559
  43   2.0000     -10.297749      -280.2160
  44   2.0000     -10.296255      -280.1753
  45   2.0000     -10.296063      -280.1701
  46   2.0000     -10.292428      -280.0712
  47   2.0000     -10.292326      -280.0684
  48   2.0000     -10.291560      -280.0476
  49   2.0000     -10.291467      -280.0451
  50   2.0000     -10.291300      -280.0405
  51   2.0000     -10.289579      -279.9937
  52   2.0000     -10.289175      -279.9827
  53   2.0000     -10.286934      -279.9217
  54   2.0000     -10.286850      -279.9194
  55   2.0000     -10.286230      -279.9025
  56   2.0000     -10.283544      -279.8295
  57   2.0000     -10.282880      -279.8114
  58   2.0000     -10.282483      -279.8006
  59   2.0000     -10.279930      -279.7311
  60   2.0000     -10.274879      -279.5937
  61   2.0000     -10.271377      -279.4984
  62   2.0000     -10.267453      -279.3916
  63   2.0000      -8.083158      -219.9539
  64   2.0000      -8.061884      -219.3750
  65   2.0000      -8.037576      -218.7136
  66   2.0000      -8.035971      -218.6699
  67   2.0000      -6.052783      -164.7046
  68   2.0000      -6.048459      -164.5869
  69   2.0000      -6.044612      -164.4823
  70   2.0000      -6.031204      -164.1174
  71   2.0000      -6.026849      -163.9989
  72   2.0000      -6.024237      -163.9278
  73   2.0000      -6.007311      -163.4672
  74   2.0000      -6.005849      -163.4275
  75   2.0000      -6.003396      -163.3607
  76   2.0000      -6.001883      -163.3195
  77   2.0000      -5.998490      -163.2272
  78   2.0000      -5.996695      -163.1784
  79   2.0000      -1.327900       -36.1340
  80   2.0000      -1.319090       -35.8943
  81   2.0000      -1.314394       -35.7665
  82   2.0000      -1.299008       -35.3478
  83   2.0000      -1.223330       -33.2885
  84   2.0000      -1.144223       -31.1359
  85   2.0000      -1.139278       -31.0013
  86   2.0000      -1.138126       -30.9700
  87   2.0000      -1.099606       -29.9218
  88   2.0000      -1.045229       -28.4421
  89   2.0000      -1.016892       -27.6710
  90   2.0000      -1.008259       -27.4361
  91   2.0000      -1.000205       -27.2170
  92   2.0000      -0.993180       -27.0258
  93   2.0000      -0.991268       -26.9738
  94   2.0000      -0.987629       -26.8748
  95   2.0000      -0.976119       -26.5615
  96   2.0000      -0.967493       -26.3268
  97   2.0000      -0.932292       -25.3690
  98   2.0000      -0.931563       -25.3491
  99   2.0000      -0.925539       -25.1852
 100   2.0000      -0.914150       -24.8753
 101   2.0000      -0.902312       -24.5532
 102   2.0000      -0.897086       -24.4110
 103   2.0000      -0.891177       -24.2502
 104   2.0000      -0.885989       -24.1090
 105   2.0000      -0.882841       -24.0233
 106   2.0000      -0.872449       -23.7405
 107   2.0000      -0.857592       -23.3363
 108   2.0000      -0.854007       -23.2387
 109   2.0000      -0.845775       -23.0147
 110   2.0000      -0.835587       -22.7375
 111   2.0000      -0.833622       -22.6840
 112   2.0000      -0.824190       -22.4274
 113   2.0000      -0.810290       -22.0491
 114   2.0000      -0.808457       -21.9992
 115   2.0000      -0.791744       -21.5445
 116   2.0000      -0.789429       -21.4815
 117   2.0000      -0.779824       -21.2201
 118   2.0000      -0.764576       -20.8052
 119   2.0000      -0.760703       -20.6998
 120   2.0000      -0.754426       -20.5290
 121   2.0000      -0.734300       -19.9813
 122   2.0000      -0.727343       -19.7920
 123   2.0000      -0.723918       -19.6988
 124   2.0000      -0.711429       -19.3590
 125   2.0000      -0.704174       -19.1616
 126   2.0000      -0.701055       -19.0767
 127   2.0000      -0.694640       -18.9021
 128   2.0000      -0.682359       -18.5679
 129   2.0000      -0.677301       -18.4303
 130   2.0000      -0.674836       -18.3632
 131   2.0000      -0.667215       -18.1558
 132   2.0000      -0.656534       -17.8652
 133   2.0000      -0.652565       -17.7572
 134   2.0000      -0.652027       -17.7426
 135   2.0000      -0.644704       -17.5433
 136   2.0000      -0.640494       -17.4287
 137   2.0000      -0.636201       -17.3119
 138   2.0000      -0.634094       -17.2546
 139   2.0000      -0.631251       -17.1772
 140   2.0000      -0.630805       -17.1651
 141   2.0000      -0.626553       -17.0494
 142   2.0000      -0.620393       -16.8818
 143   2.0000      -0.619269       -16.8512
 144   2.0000      -0.616074       -16.7642
 145   2.0000      -0.613205       -16.6862
 146   2.0000      -0.609319       -16.5804
 147   2.0000      -0.602017       -16.3817
 148   2.0000      -0.595288       -16.1986
 149   2.0000      -0.590401       -16.0656
 150   2.0000      -0.589902       -16.0520
 151   2.0000      -0.581275       -15.8173
 152   2.0000      -0.579175       -15.7601
 153   2.0000      -0.576941       -15.6994
 154   2.0000      -0.570768       -15.5314
 155   2.0000      -0.568134       -15.4597
 156   2.0000      -0.567667       -15.4470
 157   2.0000      -0.562703       -15.3119
 158   2.0000      -0.559564       -15.2265
 159   2.0000      -0.555502       -15.1160
 160   2.0000      -0.554254       -15.0820
 161   2.0000      -0.549808       -14.9610
 162   2.0000      -0.543785       -14.7971
 163   2.0000      -0.543130       -14.7793
 164   2.0000      -0.540480       -14.7072
 165   2.0000      -0.533568       -14.5191
 166   2.0000      -0.532259       -14.4835
 167   2.0000      -0.529800       -14.4166
 168   2.0000      -0.523896       -14.2559
 169   2.0000      -0.523821       -14.2539
 170   2.0000      -0.521336       -14.1863
 171   2.0000      -0.517277       -14.0758
 172   2.0000      -0.515768       -14.0348
 173   2.0000      -0.509099       -13.8533
 174   2.0000      -0.507250       -13.8030
 175   2.0000      -0.505945       -13.7675
 176   2.0000      -0.498688       -13.5700
 177   2.0000      -0.497214       -13.5299
 178   2.0000      -0.495127       -13.4731
 179   2.0000      -0.491615       -13.3775
 180   2.0000      -0.486693       -13.2436
 181   2.0000      -0.485997       -13.2246
 182   2.0000      -0.482639       -13.1333
 183   2.0000      -0.481967       -13.1150
 184   2.0000      -0.473546       -12.8858
 185   2.0000      -0.471581       -12.8324
 186   2.0000      -0.469791       -12.7837
 187   2.0000      -0.468434       -12.7467
 188   2.0000      -0.465319       -12.6620
 189   2.0000      -0.464181       -12.6310
 190   2.0000      -0.462700       -12.5907
 191   2.0000      -0.458623       -12.4798
 192   2.0000      -0.457921       -12.4607
 193   2.0000      -0.457288       -12.4435
 194   2.0000      -0.453201       -12.3322
 195   2.0000      -0.449588       -12.2339
 196   2.0000      -0.443773       -12.0757
 197   2.0000      -0.442413       -12.0387
 198   2.0000      -0.439858       -11.9691
 199   2.0000      -0.432647       -11.7729
 200   2.0000      -0.429264       -11.6809
 201   2.0000      -0.426672       -11.6103
 202   2.0000      -0.425042       -11.5660
 203   2.0000      -0.424651       -11.5553
 204   2.0000      -0.421395       -11.4667
 205   2.0000      -0.419538       -11.4162
 206   2.0000      -0.419479       -11.4146
 207   2.0000      -0.416262       -11.3271
 208   2.0000      -0.409166       -11.1340
 209   2.0000      -0.401967       -10.9381
 210   2.0000      -0.397270       -10.8103
 211   2.0000      -0.393210       -10.6998
 212   2.0000      -0.391711       -10.6590
 213   2.0000      -0.385415       -10.4877
 214   2.0000      -0.383206       -10.4276
 215   2.0000      -0.379525       -10.3274
 216   2.0000      -0.378259       -10.2930
 217   2.0000      -0.375635       -10.2216
 218   2.0000      -0.373859       -10.1732
 219   2.0000      -0.366566        -9.9748
 220   2.0000      -0.359340        -9.7781
 221   2.0000      -0.349067        -9.4986
 222   2.0000      -0.347000        -9.4423
 223   2.0000      -0.344203        -9.3663
 224   2.0000      -0.331785        -9.0283
 225   2.0000      -0.322711        -8.7814
 226   2.0000      -0.316853        -8.6220
 227   2.0000      -0.313835        -8.5399
 228   2.0000      -0.303328        -8.2540
 229   2.0000      -0.295590        -8.0434
 230   2.0000      -0.290641        -7.9088
 231   2.0000      -0.267534        -7.2800
 232   2.0000      -0.256974        -6.9926
 233   2.0000      -0.203037        -5.5249
 234   0.0000      -0.087050        -2.3688
 235   0.0000      -0.074122        -2.0170
 236   0.0000      -0.062284        -1.6948
 237   0.0000      -0.056125        -1.5272
 238   0.0000      -0.045147        -1.2285

MULLIKEN ATOMIC CHARGES
-----------------------
   0 C :   -0.104743
   1 C :    0.240051
   2 F :   -0.170771
   3 C :    0.237204
   4 F :   -0.175242
   5 C :   -0.111038
   6 C :    0.105080
   7 C :    0.101299
   8 C :   -0.082678
   9 C :    0.061227
  10 C :    0.003526
  11 C :   -0.085160
  12 C :    0.190590
  13 O :   -0.213518
  14 C :   -0.116977
  15 C :    0.366668
  16 C :   -0.377421
  17 C :   -0.162354
  18 N :    0.131226
  19 C :   -0.212666
  20 N :    0.149189
  21 C :    0.010523
  22 N :   -0.001256
  23 C :   -0.117557
  24 S :    0.168929
  25 C :    0.001475
  26 N :    0.276747
  27 O :   -0.251447
  28 O :   -0.257171
  29 C :    0.002177
  30 C :    0.144022
  31 C :   -0.051958
  32 C :    0.017830
  33 C :    0.004951
  34 C :   -0.237198
  35 C :    0.091907
  36 C :    0.219909
  37 N :   -0.156424
  38 C :    0.045160
  39 C :   -0.019921
  40 C :   -0.009354
  41 C :   -0.032455
  42 C :    0.042299
  43 C :    0.018486
  44 C :   -0.046010
  45 S :    0.067628
  46 C :   -0.083054
  47 C :    0.038523
  48 C :    0.024344
  49 C :   -0.079500
  50 S :    0.052259
  51 C :    0.089828
  52 C :   -0.242530
  53 S :    0.168501
  54 C :   -0.130746
  55 C :    0.123387
  56 C :    0.193954
  57 O :   -0.226634
  58 C :    0.252236
  59 N :    0.290397
  60 O :   -0.231783
  61 O :   -0.247874
  62 C :   -0.048520
  63 H :    0.013813
  64 H :   -0.009682
  65 H :   -0.015580
  66 H :   -0.019875
  67 H :    0.044036
  68 H :    0.182880
  69 H :    0.007991
  70 H :   -0.003381
  71 H :   -0.021007
  72 H :   -0.019992
  73 H :    0.033548
  74 H :    0.023157
  75 H :    0.023097
  76 H :    0.012932
  77 H :    0.034274
  78 H :    0.116408
  79 H :    0.005360
  80 H :   -0.005175
  81 H :   -0.015249
  82 H :   -0.017682
  83 H :   -0.017884
  84 H :   -0.012623
  85 H :   -0.005817
  86 H :   -0.024069
  87 H :    0.030927
  88 H :    0.012019
Sum of atomic charges:   -0.0000000

LOEWDIN ATOMIC CHARGES
----------------------
   0 C :   -0.020765
   1 C :    0.062215
   2 F :   -0.049171
   3 C :    0.066688
   4 F :   -0.053138
   5 C :   -0.043137
   6 C :   -0.015686
   7 C :   -0.009317
   8 C :    0.027372
   9 C :   -0.019811
  10 C :   -0.050224
  11 C :    0.025610
  12 C :    0.093811
  13 O :   -0.173483
  14 C :   -0.139565
  15 C :    0.085878
  16 C :   -0.154744
  17 C :   -0.011277
  18 N :   -0.073885
  19 C :   -0.019578
  20 N :   -0.065666
  21 C :    0.108587
  22 N :    0.082036
  23 C :   -0.108713
  24 S :    0.470179
  25 C :   -0.203550
  26 N :    0.273667
  27 O :   -0.217929
  28 O :   -0.223613
  29 C :    0.002650
  30 C :   -0.087217
  31 C :   -0.029387
  32 C :   -0.014894
  33 C :   -0.053576
  34 C :   -0.044100
  35 C :   -0.048860
  36 C :    0.043690
  37 N :   -0.008829
  38 C :    0.046638
  39 C :   -0.123948
  40 C :   -0.027853
  41 C :   -0.167786
  42 C :   -0.026438
  43 C :   -0.047049
  44 C :   -0.168709
  45 S :    0.366273
  46 C :   -0.202698
  47 C :   -0.018834
  48 C :   -0.053490
  49 C :   -0.138652
  50 S :    0.353809
  51 C :   -0.103118
  52 C :   -0.193210
  53 S :    0.493235
  54 C :   -0.186169
  55 C :   -0.079657
  56 C :    0.007572
  57 O :   -0.001508
  58 C :    0.023356
  59 N :    0.286683
  60 O :   -0.191119
  61 O :   -0.213444
  62 C :    0.007464
  63 H :    0.048195
  64 H :    0.040925
  65 H :    0.034998
  66 H :    0.037111
  67 H :    0.033482
  68 H :    0.086792
  69 H :    0.043209
  70 H :    0.030600
  71 H :    0.022525
  72 H :    0.030863
  73 H :    0.039471
  74 H :    0.031260
  75 H :    0.034939
  76 H :    0.026048
  77 H :    0.038009
  78 H :    0.076682
  79 H :    0.026315
  80 H :    0.018404
  81 H :    0.032206
  82 H :    0.031404
  83 H :    0.028882
  84 H :    0.031815
  85 H :    0.027939
  86 H :    0.027176
  87 H :    0.029266
  88 H :    0.047873

  Mayer bond orders larger than 0.100000
B(  0-C ,  1-C ) :   1.4265 B(  0-C ,  5-C ) :   0.1100 B(  0-C ,  7-C ) :   1.1949
B(  0-C , 63-H ) :   1.0018 B(  1-C ,  2-F ) :   1.1366 B(  1-C ,  3-C ) :   1.1914
B(  3-C ,  4-F ) :   1.1294 B(  3-C ,  5-C ) :   1.4397 B(  5-C ,  6-C ) :   1.1868
B(  5-C , 64-H ) :   1.0070 B(  6-C ,  7-C ) :   1.2490 B(  6-C , 11-C ) :   1.1872
B(  7-C ,  8-C ) :   1.2188 B(  8-C ,  9-C ) :   1.4333 B(  8-C , 65-H ) :   0.9879
B(  9-C , 10-C ) :   1.2190 B(  9-C , 15-C ) :   0.9898 B( 10-C , 11-C ) :   1.4741
B( 10-C , 12-C ) :   0.9802 B( 11-C , 66-H ) :   1.0024 B( 12-C , 13-O ) :   2.0352
B( 12-C , 14-C ) :   0.9913 B( 13-O , 68-H ) :   0.1400 B( 14-C , 15-C ) :   1.1090
B( 14-C , 21-C ) :   1.4569 B( 15-C , 16-C ) :   1.6115 B( 16-C , 17-C ) :   1.1626
B( 16-C , 19-C ) :   1.1546 B( 17-C , 18-N ) :   2.9045 B( 19-C , 20-N ) :   2.9406
B( 21-C , 22-N ) :   1.3296 B( 21-C , 67-H ) :   0.9269 B( 22-N , 23-C ) :   1.1988
B( 22-N , 68-H ) :   0.8258 B( 23-C , 24-S ) :   1.1352 B( 23-C , 30-C ) :   1.3748
B( 24-S , 25-C ) :   1.0802 B( 25-C , 26-N ) :   0.9683 B( 25-C , 29-C ) :   1.5032
B( 26-N , 27-O ) :   1.5298 B( 26-N , 28-O ) :   1.5154 B( 27-O , 28-O ) :   0.2605
B( 29-C , 30-C ) :   1.2189 B( 29-C , 69-H ) :   0.9999 B( 30-C , 31-C ) :   1.0434
B( 31-C , 32-C ) :   1.7367 B( 31-C , 70-H ) :   0.9795 B( 32-C , 33-C ) :   1.1044
B( 32-C , 71-H ) :   0.9747 B( 33-C , 34-C ) :   1.7690 B( 33-C , 72-H ) :   0.9705
B( 34-C , 35-C ) :   1.0854 B( 34-C , 36-C ) :   0.9930 B( 35-C , 73-H ) :   0.9444
B( 35-C , 74-H ) :   0.9538 B( 35-C , 75-H ) :   0.9506 B( 36-C , 37-N ) :   1.0321
B( 36-C , 76-H ) :   0.9463 B( 36-C , 77-H ) :   0.9241 B( 37-N , 38-C ) :   1.2167
B( 37-N , 78-H ) :   0.9425 B( 38-C , 39-C ) :   1.6098 B( 38-C , 79-H ) :   0.9713
B( 39-C , 40-C ) :   1.1590 B( 39-C , 80-H ) :   0.9540 B( 40-C , 41-C ) :   1.5975
B( 40-C , 81-H ) :   0.9830 B( 41-C , 42-C ) :   1.1451 B( 41-C , 45-S ) :   1.0103
B( 42-C , 43-C ) :   1.5866 B( 42-C , 82-H ) :   0.9985 B( 43-C , 44-C ) :   1.1912
B( 43-C , 83-H ) :   0.9843 B( 44-C , 45-S ) :   1.0650 B( 44-C , 46-C ) :   1.4987
B( 46-C , 47-C ) :   1.1853 B( 46-C , 50-S ) :   1.0306 B( 47-C , 48-C ) :   1.5785
B( 47-C , 84-H ) :   0.9993 B( 48-C , 49-C ) :   1.1466 B( 48-C , 85-H ) :   0.9885
B( 49-C , 50-S ) :   1.0359 B( 49-C , 51-C ) :   1.6003 B( 51-C , 52-C ) :   1.1698
B( 51-C , 86-H ) :   0.9265 B( 52-C , 53-S ) :   1.1465 B( 52-C , 54-C ) :   0.1073
B( 52-C , 56-C ) :   1.4472 B( 53-S , 54-C ) :   1.1923 B( 54-C , 55-C ) :   1.4331
B( 54-C , 87-H ) :   0.9744 B( 55-C , 56-C ) :   1.2240 B( 55-C , 62-C ) :   1.0669
B( 56-C , 57-O ) :   1.0506 B( 57-O , 58-C ) :   1.0903 B( 58-C , 59-N ) :   0.9209
B( 58-C , 62-C ) :   1.5846 B( 59-N , 60-O ) :   1.5555 B( 59-N , 61-O ) :   1.4797
B( 60-O , 61-O ) :   0.2617 B( 62-C , 88-H ) :   1.0227

-----------------------------------------------------------------------------
         ABSORPTION SPECTRUM VIA TRANSITION ELECTRIC DIPOLE MOMENTS
-----------------------------------------------------------------------------
State   Energy  Wavelength   fosc         T2         TX        TY        TZ
        (cm-1)    (nm)                  (au**2)     (au)      (au)      (au)
-----------------------------------------------------------------------------
   0    8640.5   1157.3   0.000937712   0.03573   0.11633   0.13221  -0.06867
   1   12590.1    794.3   0.153363560   4.01022  -0.82048  -1.38720   1.18858
   2   14844.2    673.7   0.472664028  10.48263  -0.73282  -2.89358   1.25413
   3   17197.9    581.5   0.444238903   8.50389   0.96214   2.54371  -1.05248
   4   20551.2    486.6   0.084824987   1.35882   1.16559  -0.00759  -0.01299
   5   20900.8    478.5   0.655707784  10.32816  -2.87995  -1.33318   0.50664
   6   22705.4    440.4   0.180784411   2.62125   1.58079   0.18649   0.29591
   7   23331.2    428.6   0.063921228   0.90195  -0.89272  -0.26332   0.18887
   8   24008.0    416.5   0.090733748   1.24420   1.01772   0.39581  -0.22752
   9   25517.7    391.9   0.046569692   0.60081  -0.57613   0.49824  -0.14369
  10   26324.3    379.9   0.070700229   0.88418   0.30129   0.67182  -0.58486
  11   27488.7    363.8   0.057792976   0.69214   0.77415  -0.07552   0.29518
  12   27998.1    357.2   0.139490624   1.64018   0.75891  -0.80591   0.64401
  13   28581.8    349.9   0.006738007   0.07761   0.19454  -0.09923   0.17297
  14   28809.7    347.1   0.063532765   0.72600   0.80796   0.24209   0.12080
  15   28839.0    346.8   0.086917434   0.99221  -0.97489   0.16140   0.12550
  16   29306.7    341.2   0.035143426   0.39478  -0.31472  -0.43417   0.32746
  17   29757.6    336.0   0.166775595   1.84506  -0.90377   0.36821  -0.94482
  18   30286.2    330.2   0.056552560   0.61473  -0.16251  -0.55860   0.52563
  19   30550.5    327.3   0.080902522   0.87181  -0.13649   0.84296  -0.37761
  20   31036.4    322.2   0.086430418   0.91679  -0.18549   0.84779  -0.40452
  21   31310.7    319.4   0.016064660   0.16891  -0.22453   0.28153  -0.19808
  22   31724.0    315.2   0.007504949   0.07788   0.20680  -0.08509   0.16696
  23   32002.1    312.5   0.045337161   0.46639   0.04410  -0.29295   0.61533
  24   32824.7    304.6   0.001721008   0.01726   0.04984  -0.08937   0.08239
  25   32933.0    303.6   0.056234271   0.56214  -0.65222   0.28837  -0.23150
  26   33308.4    300.2   0.498730312   4.92933  -1.34909   1.36946  -1.11080
  27   33573.3    297.9   0.031063895   0.30461  -0.51274   0.14731  -0.14142
  28   33653.4    297.1   0.096134435   0.94043  -0.87050  -0.42738  -0.00142
  29   34047.1    293.7   0.039847469   0.38530  -0.33583  -0.41919   0.31111
  30   34284.3    291.7   0.047138539   0.45264   0.27416   0.40176  -0.46483
  31   34687.9    288.3   0.095555026   0.90688   0.93356  -0.03910   0.18390
  32   34968.7    286.0   0.047724607   0.44930  -0.16140  -0.23591   0.60630
  33   35089.8    285.0   0.482139951   4.52343   0.89477  -1.61305   1.05872
  34   35147.1    284.5   0.201599907   1.88833   1.35011  -0.17873  -0.18325
  35   35698.0    280.1   0.032619257   0.30082  -0.38028   0.37379  -0.12840
  36   35751.5    279.7   0.085916446   0.79115  -0.66297   0.47787  -0.35107
  37   36046.7    277.4   0.030547907   0.27899  -0.44252  -0.21198   0.19554
  38   36147.4    276.6   0.033581901   0.30585   0.18378   0.45802  -0.24958
  39   36318.3    275.3   0.121387165   1.10033  -1.01208   0.01925   0.27507
  40   36466.6    274.2   0.092943098   0.83907   0.86876  -0.09815  -0.27331
  41   36865.6    271.3   0.185881633   1.65993   0.91709   0.83171  -0.35656
  42   37160.6    269.1   0.024441077   0.21653  -0.28913   0.32507  -0.16511
  43   37205.6    268.8   0.413165952   3.65588   0.38465  -1.62043   0.93921
  44   37591.5    266.0   0.086068990   0.75376  -0.79996   0.30585  -0.14239
  45   37679.2    265.4   0.000874726   0.00764  -0.05937  -0.02441   0.05934
  46   37975.7    263.3   0.031361028   0.27187  -0.02844   0.41800  -0.31038
  47   38209.3    261.7   0.087585487   0.75464  -0.82333   0.01892  -0.27643
  48   38304.0    261.1   0.081136406   0.69734   0.67817   0.45546  -0.17317
  49   38382.3    260.5   0.016710003   0.14332  -0.10282  -0.35395   0.08647
  50   38759.9    258.0   0.078417824   0.66605   0.71607  -0.39148   0.00594
  51   39015.8    256.3   0.011771628   0.09933  -0.18948   0.13693   0.21137
  52   39105.1    255.7   0.013145293   0.11067  -0.28053   0.16446  -0.07016
  53   39521.1    253.0   0.040007530   0.33326  -0.48331  -0.15308   0.27611
  54   39646.5    252.2   0.002669002   0.02216  -0.04829   0.01955  -0.13946
  55   40275.8    248.3   0.012040791   0.09842   0.17121  -0.24067   0.10576

FINAL SINGLE POINT ENERGY     -4298.604326884732

DIPOLE MOMENT
-------------
                                X             Y             Z
Electronic contribution:    -51.43676     -42.44663      24.35005
Nuclear contribution   :     53.10293      45.37148     -26.70468
                        -----------------------------------------
Total Dipole Moment    :      1.66617       2.92485      -2.35463
                        -----------------------------------------
Magnitude (a.u.)       :      4.10794
Magnitude (Debye)      :     10.44154

Rotational constants in cm-1:     0.001516     0.000894     0.000632
Rotational constants in MHz :    45.446968    26.803277    18.953068

                             ****ORCA TERMINATED NORMALLY****
TOTAL RUN TIME: 0 days 0 hours 15 minutes 42 seconds 96 msec
