                         Program Version 4.2.0 -  RELEASE  -
|  1> # ORCA input file
|  2> # SCF done       -149.649217725125          0.000485410239
|  3> ! CAM-B3LYP def2-SVP def2/J RIJCOSX Grid4 TightSCF
|  4> %maxcore 5000
|  5> %tddft
|  6>     Mode sTDDFT
|  7>     Ethresh 5.0
|  8>     maxcore 5000
|  9> end
| 10>
| 11> %pal
| 12>   nprocs 6
| 13>   end
| 14> * xyz 0 1
| 15>    C        3.67963         5.78337        -3.88181
| 16>    C        4.80413         5.16695        -3.48248
| 17>    C        5.99731         5.75980        -2.96261
| 18>    C        6.97118         4.86883        -2.64652
| 19>    C        6.62820         3.51787        -2.88889
| 20>    S        5.00746         3.40888        -3.53916
| 21>    C        7.41373         2.39691        -2.66681
| 22>    C        8.72197         2.34374        -2.15807
| 23>    C        9.22447         1.07037        -2.06074
| 24>    C        8.34178         0.06898        -2.48393
| 25>    S        6.83594         0.78225        -3.01810
| 26>    C        8.58021        -1.30582        -2.49684
| 27>    C        7.68322        -2.25398        -2.91757
| 28>    C        7.92566        -3.63105        -2.92925
| 29>    C        7.05155        -4.63673        -3.34314
| 30>    C        7.57060        -5.91069        -3.24140
| 31>    C        8.87243        -5.94613        -2.74369
| 32>    S        9.43819        -4.33225        -2.39995
| 33>    C        9.68386        -7.06969        -2.52420
| 34>    C        9.37598        -8.40988        -2.75214
| 35>    C       10.40438        -9.27485        -2.43856
| 36>    C       11.55058        -8.64494        -1.95499
| 37>    S       11.30430        -6.91453        -1.89781
| 38>    C       12.75197        -9.25072        -1.56898
| 39>    C       13.84828        -8.57331        -1.10528
| 40>    C       15.06296        -9.16023        -0.74016
| 41>    C       16.20009        -8.49255        -0.27307
| 42>    C       17.26520        -9.31848        -0.00640
| 43>    C       17.00574       -10.67366        -0.25534
| 44>    S       15.36870       -10.87978        -0.83136
| 45>    C       17.86882       -11.75461        -0.10606
| 46>    C       19.20809       -11.70351         0.32820
| 47>    C       19.81498       -12.92411         0.35802
| 48>    C       18.97697       -13.99146        -0.04995
| 49>    S       17.38404       -13.40431        -0.47017
| 50>    C       19.29824       -15.31697        -0.13428
| 51>    C       18.33496       -16.27527        -0.56483
| 52>    N       17.11574       -15.79688        -0.86246
| 53>    C       16.20080       -16.66162        -1.25591
| 54>    C       16.47069       -18.01241        -1.36594
| 55>    C       17.77575       -18.43542        -1.04441
| 56>    N       18.69276       -17.55572        -0.64472
| 57>    C       18.15119       -19.82356        -1.14171
| 58>    C       19.40234       -20.25091        -0.86644
| 59>    C       19.83615       -21.59645        -0.94834
| 60>    S       21.48700       -21.99412        -0.57396
| 61>    C       21.26898       -23.68257        -0.88113
| 62>    C       19.95345       -23.92779        -1.26036
| 63>    C       19.14106       -22.75244        -1.30390
| 64>    N       17.84209       -22.81782        -1.68744
| 65>    C       17.37413       -23.99985        -1.98161
| 66>    N       16.05454       -24.10467        -2.33957
| 67>    C       18.18473       -25.20014        -1.87488
| 68>    N       17.64079       -26.41750        -2.20062
| 69>    N       19.44349       -25.15366        -1.53975
| 70>    C       22.30669       -24.65634        -0.74962
| 71>    C       23.55952       -24.39672        -0.37590
| 72>    H        3.59528         6.85452        -3.83306
| 73>    H        2.83788         5.23375        -4.26065
| 74>    H        6.07793         6.82592        -2.84681
| 75>    H        7.93096         5.14098        -2.24399
| 76>    H        9.26459         3.22818        -1.87704
| 77>    H       10.20864         0.83616        -1.69400
| 78>    H        9.55160        -1.63050        -2.14424
| 79>    H        6.71105        -1.93132        -3.26917
| 80>    H        6.06341        -4.41574        -3.70672
| 81>    H        7.03428        -6.80084        -3.51681
| 82>    H        8.42330        -8.72517        -3.13781
| 83>    H       10.34816       -10.34324        -2.55089
| 84>    H       12.80193       -10.32871        -1.65582
| 85>    H       13.79018        -7.49524        -1.01490
| 86>    H       16.21638        -7.42433        -0.14442
| 87>    H       18.21634        -8.97386         0.35720
| 88>    H       19.69374       -10.78368         0.60336
| 89>    H       20.83397       -13.09605         0.65703
| 90>    H       20.28517       -15.66661         0.12123
| 91>    H       15.22634       -16.24859        -1.48686
| 92>    H       15.72089       -18.71762        -1.68576
| 93>    H       17.39472       -20.52816        -1.45103
| 94>    H       20.13787       -19.51819        -0.56217
| 95>    H       15.60869       -23.21412        -2.50326
| 96>    H       15.82038       -24.82439        -3.00450
| 97>    H       16.67370       -26.56074        -1.95576
| 98>    H       18.24899       -27.19468        -1.98749
| 99>    H       21.98863       -25.66312        -0.98632
|100>    H       23.87747       -23.39413        -0.14053
|101>    H       24.29816       -25.17410        -0.29715
|102> *
|103>
|104>                          ****END OF INPUT****

CARTESIAN COORDINATES (ANGSTROEM)
---------------------------------
  C      3.679630    5.783370   -3.881810
  C      4.804130    5.166950   -3.482480
  C      5.997310    5.759800   -2.962610
  C      6.971180    4.868830   -2.646520
  C      6.628200    3.517870   -2.888890
  S      5.007460    3.408880   -3.539160
  C      7.413730    2.396910   -2.666810
  C      8.721970    2.343740   -2.158070
  C      9.224470    1.070370   -2.060740
  C      8.341780    0.068980   -2.483930
  S      6.835940    0.782250   -3.018100
  C      8.580210   -1.305820   -2.496840
  C      7.683220   -2.253980   -2.917570
  C      7.925660   -3.631050   -2.929250
  C      7.051550   -4.636730   -3.343140
  C      7.570600   -5.910690   -3.241400
  C      8.872430   -5.946130   -2.743690
  S      9.438190   -4.332250   -2.399950
  C      9.683860   -7.069690   -2.524200
  C      9.375980   -8.409880   -2.752140
  C     10.404380   -9.274850   -2.438560
  C     11.550580   -8.644940   -1.954990
  S     11.304300   -6.914530   -1.897810
  C     12.751970   -9.250720   -1.568980
  C     13.848280   -8.573310   -1.105280
  C     15.062960   -9.160230   -0.740160
  C     16.200090   -8.492550   -0.273070
  C     17.265200   -9.318480   -0.006400
  C     17.005740  -10.673660   -0.255340
  S     15.368700  -10.879780   -0.831360
  C     17.868820  -11.754610   -0.106060
  C     19.208090  -11.703510    0.328200
  C     19.814980  -12.924110    0.358020
  C     18.976970  -13.991460   -0.049950
  S     17.384040  -13.404310   -0.470170
  C     19.298240  -15.316970   -0.134280
  C     18.334960  -16.275270   -0.564830
  N     17.115740  -15.796880   -0.862460
  C     16.200800  -16.661620   -1.255910
  C     16.470690  -18.012410   -1.365940
  C     17.775750  -18.435420   -1.044410
  N     18.692760  -17.555720   -0.644720
  C     18.151190  -19.823560   -1.141710
  C     19.402340  -20.250910   -0.866440
  C     19.836150  -21.596450   -0.948340
  S     21.487000  -21.994120   -0.573960
  C     21.268980  -23.682570   -0.881130
  C     19.953450  -23.927790   -1.260360
  C     19.141060  -22.752440   -1.303900
  N     17.842090  -22.817820   -1.687440
  C     17.374130  -23.999850   -1.981610
  N     16.054540  -24.104670   -2.339570
  C     18.184730  -25.200140   -1.874880
  N     17.640790  -26.417500   -2.200620
  N     19.443490  -25.153660   -1.539750
  C     22.306690  -24.656340   -0.749620
  C     23.559520  -24.396720   -0.375900
  H      3.595280    6.854520   -3.833060
  H      2.837880    5.233750   -4.260650
  H      6.077930    6.825920   -2.846810
  H      7.930960    5.140980   -2.243990
  H      9.264590    3.228180   -1.877040
  H     10.208640    0.836160   -1.694000
  H      9.551600   -1.630500   -2.144240
  H      6.711050   -1.931320   -3.269170
  H      6.063410   -4.415740   -3.706720
  H      7.034280   -6.800840   -3.516810
  H      8.423300   -8.725170   -3.137810
  H     10.348160  -10.343240   -2.550890
  H     12.801930  -10.328710   -1.655820
  H     13.790180   -7.495240   -1.014900
  H     16.216380   -7.424330   -0.144420
  H     18.216340   -8.973860    0.357200
  H     19.693740  -10.783680    0.603360
  H     20.833970  -13.096050    0.657030
  H     20.285170  -15.666610    0.121230
  H     15.226340  -16.248590   -1.486860
  H     15.720890  -18.717620   -1.685760
  H     17.394720  -20.528160   -1.451030
  H     20.137870  -19.518190   -0.562170
  H     15.608690  -23.214120   -2.503260
  H     15.820380  -24.824390   -3.004500
  H     16.673700  -26.560740   -1.955760
  H     18.248990  -27.194680   -1.987490
  H     21.988630  -25.663120   -0.986320
  H     23.877470  -23.394130   -0.140530
  H     24.298160  -25.174100   -0.297150

 Total Charge           Charge          ....    0
 Multiplicity           Mult            ....    1
 Number of Electrons    NEL             ....  448
 Basis Dimension        Dim             ....  976

ORBITAL ENERGIES
----------------

  NO   OCC          E(Eh)            E(eV)
   0   2.0000     -88.949217     -2420.4313
   1   2.0000     -88.940361     -2420.1903
   2   2.0000     -88.940019     -2420.1809
   3   2.0000     -88.938119     -2420.1293
   4   2.0000     -88.935139     -2420.0482
   5   2.0000     -88.932937     -2419.9882
   6   2.0000     -88.924721     -2419.7647
   7   2.0000     -14.435127      -392.7998
   8   2.0000     -14.432822      -392.7370
   9   2.0000     -14.405177      -391.9848
  10   2.0000     -14.404998      -391.9799
  11   2.0000     -14.387910      -391.5149
  12   2.0000     -14.382628      -391.3712
  13   2.0000     -10.356791      -281.8226
  14   2.0000     -10.354951      -281.7726
  15   2.0000     -10.319136      -280.7980
  16   2.0000     -10.304770      -280.4070
  17   2.0000     -10.303091      -280.3614
  18   2.0000     -10.302490      -280.3450
  19   2.0000     -10.302024      -280.3323
  20   2.0000     -10.301959      -280.3306
  21   2.0000     -10.301699      -280.3235
  22   2.0000     -10.299984      -280.2768
  23   2.0000     -10.298233      -280.2292
  24   2.0000     -10.297450      -280.2079
  25   2.0000     -10.296993      -280.1954
  26   2.0000     -10.296615      -280.1851
  27   2.0000     -10.295298      -280.1493
  28   2.0000     -10.295215      -280.1470
  29   2.0000     -10.294240      -280.1205
  30   2.0000     -10.290401      -280.0160
  31   2.0000     -10.287086      -279.9259
  32   2.0000     -10.286400      -279.9072
  33   2.0000     -10.282359      -279.7972
  34   2.0000     -10.282128      -279.7909
  35   2.0000     -10.277268      -279.6587
  36   2.0000     -10.276545      -279.6390
  37   2.0000     -10.275586      -279.6129
  38   2.0000     -10.275336      -279.6061
  39   2.0000     -10.275050      -279.5983
  40   2.0000     -10.273624      -279.5595
  41   2.0000     -10.273025      -279.5432
  42   2.0000     -10.272898      -279.5398
  43   2.0000     -10.272785      -279.5367
  44   2.0000     -10.272612      -279.5320
  45   2.0000     -10.272264      -279.5225
  46   2.0000     -10.272262      -279.5225
  47   2.0000     -10.271630      -279.5052
  48   2.0000     -10.271072      -279.4901
  49   2.0000     -10.268246      -279.4132
  50   2.0000     -10.267449      -279.3915
  51   2.0000     -10.266503      -279.3657
  52   2.0000     -10.263627      -279.2875
  53   2.0000     -10.260230      -279.1951
  54   2.0000     -10.254268      -279.0328
  55   2.0000     -10.250696      -278.9356
  56   2.0000     -10.247910      -278.8598
  57   2.0000      -8.044391      -218.8990
  58   2.0000      -8.036490      -218.6840
  59   2.0000      -8.036289      -218.6785
  60   2.0000      -8.034285      -218.6240
  61   2.0000      -8.031392      -218.5453
  62   2.0000      -8.029682      -218.4988
  63   2.0000      -8.018041      -218.1820
  64   2.0000      -6.013334      -163.6311
  65   2.0000      -6.009489      -163.5265
  66   2.0000      -6.007025      -163.4595
  67   2.0000      -6.006005      -163.4317
  68   2.0000      -6.005785      -163.4257
  69   2.0000      -6.003891      -163.3742
  70   2.0000      -6.002054      -163.3242
  71   2.0000      -6.001846      -163.3185
  72   2.0000      -6.000929      -163.2936
  73   2.0000      -5.999968      -163.2674
  74   2.0000      -5.999432      -163.2528
  75   2.0000      -5.997855      -163.2099
  76   2.0000      -5.997637      -163.2040
  77   2.0000      -5.996957      -163.1855
  78   2.0000      -5.995546      -163.1471
  79   2.0000      -5.995422      -163.1437
  80   2.0000      -5.992661      -163.0686
  81   2.0000      -5.990332      -163.0052
  82   2.0000      -5.988136      -162.9455
  83   2.0000      -5.983400      -162.8166
  84   2.0000      -5.979225      -162.7030
  85   2.0000      -1.089572       -29.6488
  86   2.0000      -1.059937       -28.8424
  87   2.0000      -1.028643       -27.9908
  88   2.0000      -1.011068       -27.5125
  89   2.0000      -0.988117       -26.8880
  90   2.0000      -0.985394       -26.8139
  91   2.0000      -0.980068       -26.6690
  92   2.0000      -0.966989       -26.3131
  93   2.0000      -0.963774       -26.2256
  94   2.0000      -0.962069       -26.1792
  95   2.0000      -0.956444       -26.0262
  96   2.0000      -0.955090       -25.9893
  97   2.0000      -0.952525       -25.9195
  98   2.0000      -0.899935       -24.4885
  99   2.0000      -0.893760       -24.3204
 100   2.0000      -0.888086       -24.1660
 101   2.0000      -0.876255       -23.8441
 102   2.0000      -0.866188       -23.5702
 103   2.0000      -0.855178       -23.2706
 104   2.0000      -0.846311       -23.0293
 105   2.0000      -0.839117       -22.8335
 106   2.0000      -0.836418       -22.7601
 107   2.0000      -0.830729       -22.6053
 108   2.0000      -0.826254       -22.4835
 109   2.0000      -0.821387       -22.3511
 110   2.0000      -0.815873       -22.2010
 111   2.0000      -0.811627       -22.0855
 112   2.0000      -0.809657       -22.0319
 113   2.0000      -0.803604       -21.8672
 114   2.0000      -0.792475       -21.5643
 115   2.0000      -0.783955       -21.3325
 116   2.0000      -0.774152       -21.0657
 117   2.0000      -0.752988       -20.4898
 118   2.0000      -0.749140       -20.3851
 119   2.0000      -0.737421       -20.0662
 120   2.0000      -0.735925       -20.0255
 121   2.0000      -0.714933       -19.4543
 122   2.0000      -0.701001       -19.0752
 123   2.0000      -0.698600       -19.0099
 124   2.0000      -0.687194       -18.6995
 125   2.0000      -0.677834       -18.4448
 126   2.0000      -0.668701       -18.1963
 127   2.0000      -0.666586       -18.1387
 128   2.0000      -0.664764       -18.0891
 129   2.0000      -0.661177       -17.9916
 130   2.0000      -0.636943       -17.3321
 131   2.0000      -0.632313       -17.2061
 132   2.0000      -0.628596       -17.1050
 133   2.0000      -0.621497       -16.9118
 134   2.0000      -0.617536       -16.8040
 135   2.0000      -0.614503       -16.7215
 136   2.0000      -0.611514       -16.6401
 137   2.0000      -0.609874       -16.5955
 138   2.0000      -0.604222       -16.4417
 139   2.0000      -0.600069       -16.3287
 140   2.0000      -0.597906       -16.2698
 141   2.0000      -0.590742       -16.0749
 142   2.0000      -0.590321       -16.0635
 143   2.0000      -0.589354       -16.0371
 144   2.0000      -0.586604       -15.9623
 145   2.0000      -0.582337       -15.8462
 146   2.0000      -0.580465       -15.7953
 147   2.0000      -0.574891       -15.6436
 148   2.0000      -0.564823       -15.3696
 149   2.0000      -0.555075       -15.1044
 150   2.0000      -0.551451       -15.0057
 151   2.0000      -0.544272       -14.8104
 152   2.0000      -0.541742       -14.7416
 153   2.0000      -0.535094       -14.5606
 154   2.0000      -0.528837       -14.3904
 155   2.0000      -0.517358       -14.0780
 156   2.0000      -0.514115       -13.9898
 157   2.0000      -0.513443       -13.9715
 158   2.0000      -0.510564       -13.8932
 159   2.0000      -0.505385       -13.7522
 160   2.0000      -0.504412       -13.7257
 161   2.0000      -0.501596       -13.6491
 162   2.0000      -0.494276       -13.4499
 163   2.0000      -0.490402       -13.3445
 164   2.0000      -0.489844       -13.3293
 165   2.0000      -0.488216       -13.2850
 166   2.0000      -0.486923       -13.2499
 167   2.0000      -0.486188       -13.2298
 168   2.0000      -0.483205       -13.1487
 169   2.0000      -0.482846       -13.1389
 170   2.0000      -0.480302       -13.0697
 171   2.0000      -0.474532       -12.9127
 172   2.0000      -0.473836       -12.8937
 173   2.0000      -0.468704       -12.7541
 174   2.0000      -0.466251       -12.6873
 175   2.0000      -0.462268       -12.5789
 176   2.0000      -0.460103       -12.5200
 177   2.0000      -0.458079       -12.4650
 178   2.0000      -0.455305       -12.3895
 179   2.0000      -0.452968       -12.3259
 180   2.0000      -0.451651       -12.2900
 181   2.0000      -0.447773       -12.1845
 182   2.0000      -0.447345       -12.1729
 183   2.0000      -0.445772       -12.1301
 184   2.0000      -0.444617       -12.0987
 185   2.0000      -0.435832       -11.8596
 186   2.0000      -0.429802       -11.6955
 187   2.0000      -0.428831       -11.6691
 188   2.0000      -0.425132       -11.5684
 189   2.0000      -0.423152       -11.5146
 190   2.0000      -0.417926       -11.3724
 191   2.0000      -0.413042       -11.2395
 192   2.0000      -0.410509       -11.1705
 193   2.0000      -0.409537       -11.1441
 194   2.0000      -0.404991       -11.0204
 195   2.0000      -0.403718       -10.9857
 196   2.0000      -0.398959       -10.8562
 197   2.0000      -0.392166       -10.6714
 198   2.0000      -0.389880       -10.6092
 199   2.0000      -0.387071       -10.5327
 200   2.0000      -0.386829       -10.5262
 201   2.0000      -0.379241       -10.3197
 202   2.0000      -0.373906       -10.1745
 203   2.0000      -0.371891       -10.1197
 204   2.0000      -0.356908        -9.7120
 205   2.0000      -0.343636        -9.3508
 206   2.0000      -0.341137        -9.2828
 207   2.0000      -0.337030        -9.1710
 208   2.0000      -0.328988        -8.9522
 209   2.0000      -0.326612        -8.8876
 210   2.0000      -0.322010        -8.7623
 211   2.0000      -0.321737        -8.7549
 212   2.0000      -0.319742        -8.7006
 213   2.0000      -0.315777        -8.5927
 214   2.0000      -0.312755        -8.5105
 215   2.0000      -0.303775        -8.2661
 216   2.0000      -0.301981        -8.2173
 217   2.0000      -0.293330        -7.9819
 218   2.0000      -0.281098        -7.6491
 219   2.0000      -0.273038        -7.4297
 220   2.0000      -0.248312        -6.7569
 221   2.0000      -0.230817        -6.2809
 222   2.0000      -0.214835        -5.8460
 223   2.0000      -0.165779        -4.5111
 224   0.0000      -0.104279        -2.8376
 225   0.0000      -0.055981        -1.5233
 226   0.0000      -0.049947        -1.3591
 227   0.0000      -0.022900        -0.6231
 228   0.0000       0.000998         0.0272

MULLIKEN ATOMIC CHARGES
-----------------------
   0 C :   -0.030245
   1 C :   -0.066241
   2 C :    0.045018
   3 C :    0.028878
   4 C :   -0.066180
   5 S :    0.079909
   6 C :   -0.042400
   7 C :    0.013203
   8 C :    0.028421
   9 C :   -0.030559
  10 S :    0.080006
  11 C :   -0.007538
  12 C :   -0.005843
  13 C :   -0.029854
  14 C :    0.023728
  15 C :    0.010791
  16 C :   -0.040583
  17 S :    0.083551
  18 C :   -0.038410
  19 C :    0.011208
  20 C :    0.021180
  21 C :   -0.029150
  22 S :    0.082324
  23 C :   -0.003805
  24 C :   -0.009703
  25 C :   -0.028849
  26 C :    0.024496
  27 C :    0.015271
  28 C :   -0.049604
  29 S :    0.090652
  30 C :   -0.036624
  31 C :    0.024581
  32 C :    0.033807
  33 C :    0.014918
  34 S :    0.122874
  35 C :   -0.023241
  36 C :    0.007937
  37 N :   -0.167719
  38 C :    0.106861
  39 C :   -0.065546
  40 C :    0.065365
  41 N :   -0.063121
  42 C :   -0.034182
  43 C :    0.062992
  44 C :   -0.167668
  45 S :    0.146215
  46 C :   -0.176730
  47 C :    0.034657
  48 C :    0.075295
  49 N :   -0.009789
  50 C :   -0.093852
  51 N :   -0.059769
  52 C :   -0.105091
  53 N :   -0.063272
  54 N :   -0.013767
  55 C :    0.013688
  56 C :   -0.027725
  57 H :    0.018938
  58 H :    0.020023
  59 H :   -0.013535
  60 H :   -0.014577
  61 H :   -0.018104
  62 H :   -0.016616
  63 H :   -0.009050
  64 H :   -0.008013
  65 H :   -0.017122
  66 H :   -0.018203
  67 H :   -0.019173
  68 H :   -0.015714
  69 H :   -0.007473
  70 H :   -0.008067
  71 H :   -0.015484
  72 H :   -0.018483
  73 H :   -0.022216
  74 H :   -0.018620
  75 H :   -0.025869
  76 H :   -0.006141
  77 H :   -0.019916
  78 H :   -0.027671
  79 H :   -0.011112
  80 H :    0.130110
  81 H :    0.120616
  82 H :    0.119866
  83 H :    0.128178
  84 H :   -0.005653
  85 H :    0.016585
  86 H :    0.021727
Sum of atomic charges:    0.0000000

LOEWDIN ATOMIC CHARGES
----------------------
   0 C :   -0.080654
   1 C :   -0.139703
   2 C :   -0.038372
   3 C :   -0.028210
   4 C :   -0.180968
   5 S :    0.355105
   6 C :   -0.179451
   7 C :   -0.041779
   8 C :   -0.039385
   9 C :   -0.150828
  10 S :    0.378924
  11 C :   -0.062129
  12 C :   -0.059502
  13 C :   -0.152123
  14 C :   -0.043386
  15 C :   -0.042554
  16 C :   -0.180691
  17 S :    0.387940
  18 C :   -0.180319
  19 C :   -0.043161
  20 C :   -0.043723
  21 C :   -0.152314
  22 S :    0.388894
  23 C :   -0.057833
  24 C :   -0.060464
  25 C :   -0.151774
  26 C :   -0.039493
  27 C :   -0.040744
  28 C :   -0.170681
  29 S :    0.388006
  30 C :   -0.194992
  31 C :   -0.029712
  32 C :   -0.040926
  33 C :   -0.120698
  34 S :    0.421256
  35 C :   -0.082595
  36 C :    0.025407
  37 N :   -0.124051
  38 C :    0.052541
  39 C :   -0.084319
  40 C :    0.038692
  41 N :   -0.098527
  42 C :   -0.051468
  43 C :   -0.000051
  44 C :   -0.193493
  45 S :    0.470246
  46 C :   -0.191702
  47 C :   -0.052356
  48 C :   -0.044680
  49 N :   -0.091922
  50 C :    0.020436
  51 N :   -0.019286
  52 C :    0.014459
  53 N :   -0.023818
  54 N :   -0.095893
  55 C :   -0.032291
  56 C :   -0.055652
  57 H :    0.027790
  58 H :    0.025165
  59 H :    0.032104
  60 H :    0.031643
  61 H :    0.029494
  62 H :    0.032351
  63 H :    0.027412
  64 H :    0.028084
  65 H :    0.031869
  66 H :    0.030046
  67 H :    0.029723
  68 H :    0.032084
  69 H :    0.028787
  70 H :    0.027181
  71 H :    0.032163
  72 H :    0.029740
  73 H :    0.026737
  74 H :    0.030724
  75 H :    0.032602
  76 H :    0.023043
  77 H :    0.027484
  78 H :    0.020871
  79 H :    0.030572
  80 H :    0.080718
  81 H :    0.070909
  82 H :    0.070204
  83 H :    0.080710
  84 H :    0.035803
  85 H :    0.016103
  86 H :    0.024646

  Mayer bond orders larger than 0.100000
B(  0-C ,  1-C ) :   1.8428 B(  0-C , 57-H ) :   0.9508 B(  0-C , 58-H ) :   0.9410
B(  1-C ,  2-C ) :   1.0955 B(  1-C ,  5-S ) :   1.0110 B(  2-C ,  3-C ) :   1.6243
B(  2-C , 59-H ) :   0.9937 B(  3-C ,  4-C ) :   1.1887 B(  3-C , 60-H ) :   0.9919
B(  4-C ,  5-S ) :   1.0525 B(  4-C ,  6-C ) :   1.4728 B(  6-C ,  7-C ) :   1.2328
B(  6-C , 10-S ) :   1.0520 B(  7-C ,  8-C ) :   1.5117 B(  7-C , 61-H ) :   0.9944
B(  8-C ,  9-C ) :   1.2257 B(  8-C , 62-H ) :   0.9994 B(  9-C , 10-S ) :   1.0531
B(  9-C , 11-C ) :   1.4379 B( 11-C , 12-C ) :   1.3048 B( 11-C , 63-H ) :   0.9710
B( 12-C , 13-C ) :   1.4134 B( 12-C , 64-H ) :   0.9722 B( 13-C , 14-C ) :   1.2601
B( 13-C , 17-S ) :   1.0594 B( 14-C , 15-C ) :   1.4555 B( 14-C , 65-H ) :   1.0000
B( 15-C , 16-C ) :   1.3042 B( 15-C , 66-H ) :   0.9957 B( 16-C , 17-S ) :   1.0708
B( 16-C , 18-C ) :   1.3412 B( 18-C , 19-C ) :   1.3070 B( 18-C , 22-S ) :   1.0717
B( 19-C , 20-C ) :   1.4514 B( 19-C , 67-H ) :   0.9952 B( 20-C , 21-C ) :   1.2648
B( 20-C , 68-H ) :   1.0010 B( 21-C , 22-S ) :   1.0605 B( 21-C , 23-C ) :   1.4018
B( 23-C , 24-C ) :   1.3178 B( 23-C , 69-H ) :   0.9746 B( 24-C , 25-C ) :   1.4200
B( 24-C , 70-H ) :   0.9716 B( 25-C , 26-C ) :   1.2355 B( 25-C , 29-S ) :   1.0579
B( 26-C , 27-C ) :   1.4923 B( 26-C , 71-H ) :   1.0006 B( 27-C , 28-C ) :   1.2502
B( 27-C , 72-H ) :   0.9942 B( 28-C , 29-S ) :   1.0613 B( 28-C , 30-C ) :   1.4455
B( 30-C , 31-C ) :   1.2125 B( 30-C , 34-S ) :   0.9921 B( 31-C , 32-C ) :   1.5645
B( 31-C , 73-H ) :   0.9951 B( 32-C , 33-C ) :   1.1463 B( 32-C , 74-H ) :   1.0005
B( 33-C , 34-S ) :   1.0654 B( 33-C , 35-C ) :   1.5334 B( 34-S , 37-N ) :   0.1071
B( 35-C , 36-C ) :   1.1096 B( 35-C , 75-H ) :   0.9810 B( 36-C , 37-N ) :   1.4025
B( 36-C , 41-N ) :   1.5020 B( 37-N , 38-C ) :   1.5135 B( 38-C , 39-C ) :   1.3935
B( 38-C , 76-H ) :   0.9768 B( 39-C , 40-C ) :   1.2976 B( 39-C , 77-H ) :   0.9741
B( 40-C , 41-N ) :   1.5290 B( 40-C , 42-C ) :   1.0684 B( 42-C , 43-C ) :   1.6974
B( 42-C , 78-H ) :   0.9630 B( 43-C , 44-C ) :   1.1259 B( 43-C , 79-H ) :   0.9510
B( 44-C , 45-S ) :   1.1416 B( 44-C , 46-C ) :   0.1235 B( 44-C , 48-C ) :   1.3616
B( 45-S , 46-C ) :   1.1318 B( 46-C , 47-C ) :   1.3839 B( 46-C , 55-C ) :   1.1550
B( 47-C , 48-C ) :   1.2257 B( 47-C , 54-N ) :   1.3459 B( 48-C , 49-N ) :   1.3355
B( 49-N , 50-C ) :   1.7228 B( 50-C , 51-N ) :   1.2606 B( 50-C , 52-C ) :   1.0373
B( 51-N , 80-H ) :   0.9327 B( 51-N , 81-H ) :   0.9281 B( 52-C , 53-N ) :   1.2516
B( 52-C , 54-N ) :   1.7394 B( 53-N , 82-H ) :   0.9290 B( 53-N , 83-H ) :   0.9318
B( 55-C , 56-C ) :   1.8845 B( 55-C , 84-H ) :   0.9619 B( 56-C , 85-H ) :   0.9561
B( 56-C , 86-H ) :   0.9519

-----------------------------------------------------------------------------
         ABSORPTION SPECTRUM VIA TRANSITION ELECTRIC DIPOLE MOMENTS
-----------------------------------------------------------------------------
State   Energy  Wavelength   fosc         T2         TX        TY        TZ
        (cm-1)    (nm)                  (au**2)     (au)      (au)      (au)
-----------------------------------------------------------------------------
   0    2566.8   3895.9   0.347997800  44.63301  -3.77829   5.44120  -0.86653
   1   10795.7    926.3   0.000128775   0.00393  -0.04459  -0.04240  -0.01186
   2   15188.8    658.4   0.106923802   2.31754   1.41581   0.47171   0.30083
   3   16873.0    592.7   0.035493863   0.69253  -0.44518  -0.67827  -0.18518
   4   17645.8    566.7   0.000796181   0.01485  -0.11648   0.01268  -0.03355
   5   19588.6    510.5   0.015415803   0.25908  -0.33007   0.38569  -0.03713
   6   21909.4    456.4   1.073647172  16.13266   1.24882  -3.81706  -0.05613
   7   23027.7    434.3   0.254384336   3.63677   0.65586  -1.78387  -0.15622
   8   23707.4    421.8   0.008330236   0.11568   0.22257  -0.25388   0.04104
   9   24070.4    415.4   0.060758082   0.83099   0.51817   0.71193   0.23587
  10   26459.7    377.9   0.000002968   0.00004   0.00320   0.00279  -0.00435
  11   26626.1    375.6   0.002704008   0.03343  -0.16686   0.05702  -0.04839
  12   27671.8    361.4   0.109371472   1.30120  -0.90977  -0.54791  -0.41630
  13   28246.5    354.0   0.015424569   0.17977   0.40145   0.01637   0.13542
  14   28720.0    348.2   0.033616072   0.38533   0.37515   0.44900   0.20735
  15   29037.1    344.4   0.014297042   0.16209   0.30527   0.23018   0.12618
  16   29895.7    334.5   0.040474587   0.44571   0.63886   0.05975   0.18436
  17   29947.9    333.9   0.039047506   0.42924  -0.46650  -0.38427  -0.25289
  18   30111.1    332.1   0.000201061   0.00220   0.03495   0.02149   0.02269
  19   30246.4    330.6   0.084551604   0.92029   0.88581  -0.31145   0.19655
  20   30415.8    328.8   0.473304085   5.12291  -1.26415  -1.73241  -0.72359
  21   30538.3    327.5   0.003062026   0.03301   0.12722  -0.12351   0.03965
  22   30570.4    327.1   0.148519947   1.59941  -0.37501   1.20652   0.05545
  23   30724.6    325.5   0.487440394   5.22288  -1.72938  -1.33077  -0.67908
  24   31386.7    318.6   0.145565642   1.52682   0.78581  -0.94338   0.13909
  25   31933.4    313.2   0.000063863   0.00066  -0.01736   0.00277  -0.01869
  26   32004.8    312.5   0.075115042   0.77266  -0.79734  -0.20812  -0.30594
  27   32633.7    306.4   0.004024238   0.04060   0.04773   0.02331  -0.19436
  28   32735.4    305.5   0.016240244   0.16332  -0.14272  -0.36761  -0.08843
  29   33202.8    301.2   0.001358204   0.01347  -0.07482  -0.08195  -0.03396
  30   33696.9    296.8   0.002697772   0.02636  -0.08249  -0.00244   0.13981
  31   34712.3    288.1   0.001460632   0.01385   0.08520  -0.07556   0.02974
  32   34873.1    286.8   0.010220258   0.09648   0.15841  -0.26676   0.01516
  33   35211.2    284.0   0.002127487   0.01989  -0.10249   0.09675  -0.00520
  34   35407.3    282.4   0.000095913   0.00089  -0.02978  -0.00211  -0.00086
  35   36008.8    277.7   0.003558640   0.03253   0.10746  -0.13312   0.05715
  36   36243.7    275.9   0.026665784   0.24221   0.32114  -0.35731   0.10680
  37   36567.2    273.5   0.002811136   0.02531   0.01001  -0.15804   0.01526
  38   37275.9    268.3   0.041904978   0.37009  -0.37457   0.47061  -0.09124
  39   37397.2    267.4   0.000790362   0.00696  -0.04243   0.06125   0.03750
  40   37441.7    267.1   0.053852990   0.47351  -0.07334   0.68420   0.00229
  41   37979.6    263.3   0.000492864   0.00427  -0.01184  -0.02503   0.05921
  42   38194.6    261.8   0.042401095   0.36547  -0.47065   0.36437  -0.10579
  43   38485.6    259.8   0.004805888   0.04111  -0.18840  -0.00968  -0.07431
  44   39071.1    255.9   0.076405778   0.64379   0.66978  -0.42570   0.11815
  45   39243.5    254.8   0.080964097   0.67920   0.59959  -0.56129   0.06817
  46   39520.1    253.0   0.041158609   0.34286   0.52572   0.16255   0.20013

FINAL SINGLE POINT ENERGY     -4807.036737883201

DIPOLE MOMENT
-------------
                                X             Y             Z
Electronic contribution:     -2.02764       9.07234       1.33454
Nuclear contribution   :      1.04650     -10.61482      -1.81841
                        -----------------------------------------
Total Dipole Moment    :     -0.98114      -1.54248      -0.48388
                        -----------------------------------------
Magnitude (a.u.)       :      1.89104
Magnitude (Debye)      :      4.80664

Rotational constants in cm-1:     0.004192     0.000164     0.000158
Rotational constants in MHz :   125.660542     4.929031     4.747151

                             ****ORCA TERMINATED NORMALLY****
TOTAL RUN TIME: 0 days 0 hours 7 minutes 39 seconds 615 msec
