                         Program Version 4.2.0 -  RELEASE  -
|  1> # ORCA input file
|  2> # SCF done       -174.902544331086          0.000386044201
|  3> ! CAM-B3LYP def2-SVP def2/J RIJCOSX Grid4 TightSCF
|  4> %maxcore 5000
|  5> %tddft
|  6>     Mode sTDDFT
|  7>     Ethresh 5.0
|  8>     maxcore 5000
|  9> end
| 10>
| 11> %pal
| 12>   nprocs 6
| 13>   end
| 14> * xyz 0 1
| 15>    C       -1.70129        -3.85933        -8.53352
| 16>    C       -1.42164        -5.05724        -7.88479
| 17>    C       -1.83978        -5.29458        -6.52269
| 18>    N       -1.48773        -6.43619        -5.90905
| 19>    C       -0.82165        -7.34486        -6.58114
| 20>    C       -0.47383        -7.13728        -7.95925
| 21>    N       -0.74880        -6.01327        -8.56163
| 22>    C        0.21247        -8.16270        -8.66112
| 23>    N        0.76308        -9.01806        -9.18616
| 24>    C       -0.48786        -8.55922        -5.93576
| 25>    N       -0.24492        -9.56661        -5.44476
| 26>    C       -2.57280        -4.32739        -5.79565
| 27>    C       -2.81327        -3.10593        -6.45293
| 28>    C       -2.38482        -2.88386        -7.81995
| 29>    N       -2.74267        -1.66787        -8.25603
| 30>    S       -3.52089        -0.90554        -7.09067
| 31>    N       -3.46480        -2.04495        -5.96645
| 32>    C       -3.01227        -4.56628        -4.45623
| 33>    C       -3.19979        -3.53154        -3.42688
| 34>    N       -3.48662        -3.99994        -2.24961
| 35>    C       -3.53351        -5.35460        -2.38843
| 36>    C       -3.25466        -5.74125        -3.78386
| 37>    C       -3.39307        -7.17046        -3.91702
| 38>    S       -3.60327        -7.99663        -5.32796
| 39>    C       -3.55566        -7.64693        -2.57816
| 40>    C       -3.70343        -6.50791        -1.66491
| 41>    N       -3.91249        -6.94321        -0.38561
| 42>    C       -3.88881        -8.23812        -0.44333
| 43>    C       -3.64970        -8.78139        -1.79000
| 44>    C       -3.42835       -10.12915        -2.12450
| 45>    S       -2.78332       -10.56677        -3.69250
| 46>    C       -2.69689       -12.26193        -3.32040
| 47>    C       -3.14928       -12.48493        -2.01280
| 48>    C       -3.56237       -11.28620        -1.35541
| 49>    N       -3.98216       -11.61287        -0.10974
| 50>    C       -3.83047       -12.97125         0.04304
| 51>    N       -4.24530       -13.58549         1.24354
| 52>    O       -4.62278       -12.83149         2.12563
| 53>    O       -4.22256       -14.79458         1.30408
| 54>    C       -3.29760       -13.54129        -1.09132
| 55>    C       -2.23841       -13.17699        -4.28661
| 56>    C       -1.36724       -12.80826        -5.41917
| 57>    N       -1.01970       -13.80842        -6.16578
| 58>    C       -1.62638       -14.90634        -5.63110
| 59>    C       -2.40205       -14.54314        -4.42651
| 60>    C       -3.12685       -15.69478        -3.96838
| 61>    S       -4.43081       -15.76654        -2.96207
| 62>    C       -2.65835       -16.77896        -4.79332
| 63>    C       -1.78870       -16.24714        -5.85915
| 64>    N       -1.45184       -17.23538        -6.73590
| 65>    C       -2.04622       -18.30870        -6.30754
| 66>    C       -2.82443       -18.11323        -5.07684
| 67>    C       -3.49765       -19.13457        -4.33622
| 68>    C       -3.60391       -19.06413        -2.92881
| 69>    C       -4.30609       -20.07239        -2.17278
| 70>    N       -4.40256       -19.96050        -0.82938
| 71>    C       -3.81483       -18.96125        -0.23250
| 72>    C       -3.03613       -18.00930        -0.97839
| 73>    N       -2.97043       -18.07011        -2.28503
| 74>    C       -2.29202       -16.99342        -0.33060
| 75>    N       -1.67989       -16.15654         0.15680
| 76>    C       -3.89679       -18.84970         1.18106
| 77>    N       -3.92572       -18.75716         2.32131
| 78>    C       -4.89546       -21.16716        -2.79680
| 79>    C       -4.75869       -21.27518        -4.17479
| 80>    C       -4.05148       -20.27240        -4.94727
| 81>    N       -4.04783       -20.56785        -6.25113
| 82>    S       -4.83360       -21.94546        -6.47344
| 83>    N       -5.23171       -22.25391        -4.95981
| 84>    H       -1.40403        -3.71090        -9.55771
| 85>    H       -3.09894        -2.47557        -3.59869
| 86>    H       -4.01018        -8.81780         0.45426
| 87>    H       -4.36419       -11.02692         0.61743
| 88>    H       -3.02862       -14.56908        -1.20080
| 89>    H       -1.00632       -11.81129        -5.61165
| 90>    H       -1.94662       -19.24663        -6.82320
| 91>    H       -5.44076       -21.89587        -2.22137
| 92> *
| 93>
| 94>                          ****END OF INPUT****

CARTESIAN COORDINATES (ANGSTROEM)
---------------------------------
  C     -1.701290   -3.859330   -8.533520
  C     -1.421640   -5.057240   -7.884790
  C     -1.839780   -5.294580   -6.522690
  N     -1.487730   -6.436190   -5.909050
  C     -0.821650   -7.344860   -6.581140
  C     -0.473830   -7.137280   -7.959250
  N     -0.748800   -6.013270   -8.561630
  C      0.212470   -8.162700   -8.661120
  N      0.763080   -9.018060   -9.186160
  C     -0.487860   -8.559220   -5.935760
  N     -0.244920   -9.566610   -5.444760
  C     -2.572800   -4.327390   -5.795650
  C     -2.813270   -3.105930   -6.452930
  C     -2.384820   -2.883860   -7.819950
  N     -2.742670   -1.667870   -8.256030
  S     -3.520890   -0.905540   -7.090670
  N     -3.464800   -2.044950   -5.966450
  C     -3.012270   -4.566280   -4.456230
  C     -3.199790   -3.531540   -3.426880
  N     -3.486620   -3.999940   -2.249610
  C     -3.533510   -5.354600   -2.388430
  C     -3.254660   -5.741250   -3.783860
  C     -3.393070   -7.170460   -3.917020
  S     -3.603270   -7.996630   -5.327960
  C     -3.555660   -7.646930   -2.578160
  C     -3.703430   -6.507910   -1.664910
  N     -3.912490   -6.943210   -0.385610
  C     -3.888810   -8.238120   -0.443330
  C     -3.649700   -8.781390   -1.790000
  C     -3.428350  -10.129150   -2.124500
  S     -2.783320  -10.566770   -3.692500
  C     -2.696890  -12.261930   -3.320400
  C     -3.149280  -12.484930   -2.012800
  C     -3.562370  -11.286200   -1.355410
  N     -3.982160  -11.612870   -0.109740
  C     -3.830470  -12.971250    0.043040
  N     -4.245300  -13.585490    1.243540
  O     -4.622780  -12.831490    2.125630
  O     -4.222560  -14.794580    1.304080
  C     -3.297600  -13.541290   -1.091320
  C     -2.238410  -13.176990   -4.286610
  C     -1.367240  -12.808260   -5.419170
  N     -1.019700  -13.808420   -6.165780
  C     -1.626380  -14.906340   -5.631100
  C     -2.402050  -14.543140   -4.426510
  C     -3.126850  -15.694780   -3.968380
  S     -4.430810  -15.766540   -2.962070
  C     -2.658350  -16.778960   -4.793320
  C     -1.788700  -16.247140   -5.859150
  N     -1.451840  -17.235380   -6.735900
  C     -2.046220  -18.308700   -6.307540
  C     -2.824430  -18.113230   -5.076840
  C     -3.497650  -19.134570   -4.336220
  C     -3.603910  -19.064130   -2.928810
  C     -4.306090  -20.072390   -2.172780
  N     -4.402560  -19.960500   -0.829380
  C     -3.814830  -18.961250   -0.232500
  C     -3.036130  -18.009300   -0.978390
  N     -2.970430  -18.070110   -2.285030
  C     -2.292020  -16.993420   -0.330600
  N     -1.679890  -16.156540    0.156800
  C     -3.896790  -18.849700    1.181060
  N     -3.925720  -18.757160    2.321310
  C     -4.895460  -21.167160   -2.796800
  C     -4.758690  -21.275180   -4.174790
  C     -4.051480  -20.272400   -4.947270
  N     -4.047830  -20.567850   -6.251130
  S     -4.833600  -21.945460   -6.473440
  N     -5.231710  -22.253910   -4.959810
  H     -1.404030   -3.710900   -9.557710
  H     -3.098940   -2.475570   -3.598690
  H     -4.010180   -8.817800    0.454260
  H     -4.364190  -11.026920    0.617430
  H     -3.028620  -14.569080   -1.200800
  H     -1.006320  -11.811290   -5.611650
  H     -1.946620  -19.246630   -6.823200
  H     -5.440760  -21.895870   -2.221370

 Total Charge           Charge          ....    0
 Multiplicity           Mult            ....    1
 Number of Electrons    NEL             ....  494
 Basis Dimension        Dim             .... 1026

ORBITAL ENERGIES
----------------

  NO   OCC          E(Eh)            E(eV)
   0   2.0000     -89.063298     -2423.5355
   1   2.0000     -89.056726     -2423.3567
   2   2.0000     -88.981907     -2421.3208
   3   2.0000     -88.911697     -2419.4103
   4   2.0000     -88.907454     -2419.2948
   5   2.0000     -19.245733      -523.7030
   6   2.0000     -19.245062      -523.6847
   7   2.0000     -14.655711      -398.8022
   8   2.0000     -14.489010      -394.2660
   9   2.0000     -14.472997      -393.8303
  10   2.0000     -14.468868      -393.7179
  11   2.0000     -14.468421      -393.7058
  12   2.0000     -14.467325      -393.6759
  13   2.0000     -14.464557      -393.6006
  14   2.0000     -14.462611      -393.5477
  15   2.0000     -14.461701      -393.5229
  16   2.0000     -14.461206      -393.5094
  17   2.0000     -14.443497      -393.0275
  18   2.0000     -14.436317      -392.8322
  19   2.0000     -14.431394      -392.6982
  20   2.0000     -14.431204      -392.6930
  21   2.0000     -14.427105      -392.5815
  22   2.0000     -14.420701      -392.4072
  23   2.0000     -14.419280      -392.3686
  24   2.0000     -14.415976      -392.2787
  25   2.0000     -10.390905      -282.7509
  26   2.0000     -10.389045      -282.7003
  27   2.0000     -10.383775      -282.5569
  28   2.0000     -10.381960      -282.5075
  29   2.0000     -10.362309      -281.9728
  30   2.0000     -10.359406      -281.8938
  31   2.0000     -10.359296      -281.8908
  32   2.0000     -10.358152      -281.8597
  33   2.0000     -10.356342      -281.8104
  34   2.0000     -10.353908      -281.7442
  35   2.0000     -10.352620      -281.7091
  36   2.0000     -10.352172      -281.6969
  37   2.0000     -10.351237      -281.6715
  38   2.0000     -10.350904      -281.6624
  39   2.0000     -10.350047      -281.6391
  40   2.0000     -10.347914      -281.5811
  41   2.0000     -10.343268      -281.4546
  42   2.0000     -10.342878      -281.4440
  43   2.0000     -10.339301      -281.3467
  44   2.0000     -10.338341      -281.3206
  45   2.0000     -10.338164      -281.3157
  46   2.0000     -10.337572      -281.2996
  47   2.0000     -10.337162      -281.2885
  48   2.0000     -10.337149      -281.2881
  49   2.0000     -10.334736      -281.2225
  50   2.0000     -10.333882      -281.1992
  51   2.0000     -10.332627      -281.1651
  52   2.0000     -10.332297      -281.1561
  53   2.0000     -10.329273      -281.0738
  54   2.0000     -10.328840      -281.0620
  55   2.0000     -10.327176      -281.0167
  56   2.0000     -10.324967      -280.9566
  57   2.0000     -10.321146      -280.8527
  58   2.0000     -10.319726      -280.8140
  59   2.0000     -10.319604      -280.8107
  60   2.0000     -10.318789      -280.7885
  61   2.0000     -10.314961      -280.6844
  62   2.0000     -10.312673      -280.6221
  63   2.0000     -10.311720      -280.5962
  64   2.0000     -10.306316      -280.4491
  65   2.0000     -10.304573      -280.4017
  66   2.0000     -10.300550      -280.2922
  67   2.0000     -10.300209      -280.2829
  68   2.0000     -10.296728      -280.1882
  69   2.0000      -8.154409      -221.8927
  70   2.0000      -8.147960      -221.7173
  71   2.0000      -8.075633      -219.7491
  72   2.0000      -8.007244      -217.8882
  73   2.0000      -8.002734      -217.7655
  74   2.0000      -6.125247      -166.6765
  75   2.0000      -6.118811      -166.5013
  76   2.0000      -6.117751      -166.4725
  77   2.0000      -6.117431      -166.4638
  78   2.0000      -6.111259      -166.2958
  79   2.0000      -6.110978      -166.2882
  80   2.0000      -6.045000      -164.4928
  81   2.0000      -6.040529      -164.3711
  82   2.0000      -6.037934      -164.3005
  83   2.0000      -5.976017      -162.6157
  84   2.0000      -5.975369      -162.5981
  85   2.0000      -5.971589      -162.4952
  86   2.0000      -5.971066      -162.4810
  87   2.0000      -5.966908      -162.3678
  88   2.0000      -5.962224      -162.2404
  89   2.0000      -1.326651       -36.1000
  90   2.0000      -1.158101       -31.5135
  91   2.0000      -1.151702       -31.3394
  92   2.0000      -1.147658       -31.2294
  93   2.0000      -1.128945       -30.7202
  94   2.0000      -1.121736       -30.5240
  95   2.0000      -1.112630       -30.2762
  96   2.0000      -1.095411       -29.8077
  97   2.0000      -1.088122       -29.6093
  98   2.0000      -1.075458       -29.2647
  99   2.0000      -1.068603       -29.0782
 100   2.0000      -1.055673       -28.7263
 101   2.0000      -1.048325       -28.5264
 102   2.0000      -1.025475       -27.9046
 103   2.0000      -1.014075       -27.5944
 104   2.0000      -1.013127       -27.5686
 105   2.0000      -1.009752       -27.4768
 106   2.0000      -1.004464       -27.3328
 107   2.0000      -1.002118       -27.2690
 108   2.0000      -0.999353       -27.1938
 109   2.0000      -0.989031       -26.9129
 110   2.0000      -0.982039       -26.7226
 111   2.0000      -0.974352       -26.5135
 112   2.0000      -0.969098       -26.3705
 113   2.0000      -0.929599       -25.2957
 114   2.0000      -0.919161       -25.0117
 115   2.0000      -0.914363       -24.8811
 116   2.0000      -0.911364       -24.7995
 117   2.0000      -0.907917       -24.7057
 118   2.0000      -0.904316       -24.6077
 119   2.0000      -0.893620       -24.3166
 120   2.0000      -0.874968       -23.8091
 121   2.0000      -0.869336       -23.6558
 122   2.0000      -0.863185       -23.4884
 123   2.0000      -0.855048       -23.2670
 124   2.0000      -0.848517       -23.0893
 125   2.0000      -0.842151       -22.9161
 126   2.0000      -0.834700       -22.7133
 127   2.0000      -0.819568       -22.3016
 128   2.0000      -0.809700       -22.0331
 129   2.0000      -0.802028       -21.8243
 130   2.0000      -0.790321       -21.5057
 131   2.0000      -0.786718       -21.4077
 132   2.0000      -0.778336       -21.1796
 133   2.0000      -0.763178       -20.7671
 134   2.0000      -0.754557       -20.5325
 135   2.0000      -0.748135       -20.3578
 136   2.0000      -0.741195       -20.1689
 137   2.0000      -0.727329       -19.7916
 138   2.0000      -0.723745       -19.6941
 139   2.0000      -0.719171       -19.5696
 140   2.0000      -0.715321       -19.4649
 141   2.0000      -0.713080       -19.4039
 142   2.0000      -0.707066       -19.2402
 143   2.0000      -0.701471       -19.0880
 144   2.0000      -0.692790       -18.8518
 145   2.0000      -0.689803       -18.7705
 146   2.0000      -0.685493       -18.6532
 147   2.0000      -0.682361       -18.5680
 148   2.0000      -0.663119       -18.0444
 149   2.0000      -0.658548       -17.9200
 150   2.0000      -0.656144       -17.8546
 151   2.0000      -0.654485       -17.8094
 152   2.0000      -0.647791       -17.6273
 153   2.0000      -0.642664       -17.4878
 154   2.0000      -0.638078       -17.3630
 155   2.0000      -0.634896       -17.2764
 156   2.0000      -0.624418       -16.9913
 157   2.0000      -0.620908       -16.8958
 158   2.0000      -0.617281       -16.7971
 159   2.0000      -0.613296       -16.6886
 160   2.0000      -0.605763       -16.4836
 161   2.0000      -0.595306       -16.1991
 162   2.0000      -0.591901       -16.1064
 163   2.0000      -0.589054       -16.0290
 164   2.0000      -0.586370       -15.9559
 165   2.0000      -0.581706       -15.8290
 166   2.0000      -0.580116       -15.7858
 167   2.0000      -0.573653       -15.6099
 168   2.0000      -0.569874       -15.5071
 169   2.0000      -0.566501       -15.4153
 170   2.0000      -0.562614       -15.3095
 171   2.0000      -0.559419       -15.2226
 172   2.0000      -0.557947       -15.1825
 173   2.0000      -0.552718       -15.0402
 174   2.0000      -0.548722       -14.9315
 175   2.0000      -0.547372       -14.8948
 176   2.0000      -0.543776       -14.7969
 177   2.0000      -0.541962       -14.7475
 178   2.0000      -0.540625       -14.7112
 179   2.0000      -0.538480       -14.6528
 180   2.0000      -0.533731       -14.5236
 181   2.0000      -0.520355       -14.1596
 182   2.0000      -0.514687       -14.0053
 183   2.0000      -0.506654       -13.7868
 184   2.0000      -0.505706       -13.7610
 185   2.0000      -0.504420       -13.7260
 186   2.0000      -0.501968       -13.6593
 187   2.0000      -0.498944       -13.5769
 188   2.0000      -0.498208       -13.5569
 189   2.0000      -0.494548       -13.4573
 190   2.0000      -0.493511       -13.4291
 191   2.0000      -0.491991       -13.3877
 192   2.0000      -0.487596       -13.2682
 193   2.0000      -0.486185       -13.2298
 194   2.0000      -0.484144       -13.1742
 195   2.0000      -0.478670       -13.0253
 196   2.0000      -0.474051       -12.8996
 197   2.0000      -0.471231       -12.8228
 198   2.0000      -0.463867       -12.6225
 199   2.0000      -0.460398       -12.5281
 200   2.0000      -0.458028       -12.4636
 201   2.0000      -0.457143       -12.4395
 202   2.0000      -0.453959       -12.3528
 203   2.0000      -0.452101       -12.3023
 204   2.0000      -0.451323       -12.2811
 205   2.0000      -0.450770       -12.2661
 206   2.0000      -0.448064       -12.1924
 207   2.0000      -0.445824       -12.1315
 208   2.0000      -0.443554       -12.0697
 209   2.0000      -0.441109       -12.0032
 210   2.0000      -0.439369       -11.9558
 211   2.0000      -0.433589       -11.7986
 212   2.0000      -0.431590       -11.7442
 213   2.0000      -0.428940       -11.6720
 214   2.0000      -0.426850       -11.6152
 215   2.0000      -0.425669       -11.5830
 216   2.0000      -0.424092       -11.5401
 217   2.0000      -0.418937       -11.3998
 218   2.0000      -0.416561       -11.3352
 219   2.0000      -0.416247       -11.3266
 220   2.0000      -0.409153       -11.1336
 221   2.0000      -0.407576       -11.0907
 222   2.0000      -0.398693       -10.8490
 223   2.0000      -0.393023       -10.6947
 224   2.0000      -0.391344       -10.6490
 225   2.0000      -0.383539       -10.4366
 226   2.0000      -0.375521       -10.2185
 227   2.0000      -0.372202       -10.1281
 228   2.0000      -0.367544       -10.0014
 229   2.0000      -0.366648        -9.9770
 230   2.0000      -0.364332        -9.9140
 231   2.0000      -0.359951        -9.7948
 232   2.0000      -0.359152        -9.7730
 233   2.0000      -0.357532        -9.7289
 234   2.0000      -0.356886        -9.7114
 235   2.0000      -0.351833        -9.5739
 236   2.0000      -0.351330        -9.5602
 237   2.0000      -0.349744        -9.5170
 238   2.0000      -0.338357        -9.2072
 239   2.0000      -0.323877        -8.8131
 240   2.0000      -0.319793        -8.7020
 241   2.0000      -0.313397        -8.5280
 242   2.0000      -0.301470        -8.2034
 243   2.0000      -0.295876        -8.0512
 244   2.0000      -0.287311        -7.8181
 245   2.0000      -0.285652        -7.7730
 246   2.0000      -0.255809        -6.9609
 247   0.0000      -0.137237        -3.7344
 248   0.0000      -0.129663        -3.5283
 249   0.0000      -0.123899        -3.3715
 250   0.0000      -0.104642        -2.8475
 251   0.0000      -0.088491        -2.4080

MULLIKEN ATOMIC CHARGES
-----------------------
   0 C :   -0.062342
   1 C :    0.009411
   2 C :   -0.056235
   3 N :    0.051898
   4 C :   -0.130579
   5 C :   -0.134250
   6 N :    0.059890
   7 C :   -0.210232
   8 N :    0.243422
   9 C :   -0.173514
  10 N :    0.222852
  11 C :    0.161673
  12 C :   -0.034867
  13 C :    0.097291
  14 N :   -0.262173
  15 S :    0.563731
  16 N :   -0.281330
  17 C :   -0.097846
  18 C :    0.075670
  19 N :   -0.021858
  20 C :   -0.009473
  21 C :    0.026513
  22 C :   -0.015008
  23 S :   -0.127720
  24 C :   -0.047739
  25 C :    0.024668
  26 N :   -0.017758
  27 C :    0.051409
  28 C :    0.023998
  29 C :   -0.196878
  30 S :    0.230850
  31 C :   -0.137855
  32 C :    0.111184
  33 C :    0.125835
  34 N :   -0.036103
  35 C :    0.125285
  36 N :    0.290174
  37 O :   -0.270160
  38 O :   -0.225046
  39 C :   -0.016475
  40 C :    0.027171
  41 C :    0.073455
  42 N :   -0.016090
  43 C :    0.017146
  44 C :   -0.024658
  45 C :   -0.021618
  46 S :   -0.133535
  47 C :    0.020444
  48 C :    0.004555
  49 N :   -0.026242
  50 C :    0.079262
  51 C :   -0.098137
  52 C :    0.155047
  53 C :   -0.056126
  54 C :    0.016458
  55 N :    0.056915
  56 C :   -0.126806
  57 C :   -0.131351
  58 N :    0.045130
  59 C :   -0.165987
  60 N :    0.217346
  61 C :   -0.204748
  62 N :    0.241302
  63 C :   -0.067966
  64 C :    0.096915
  65 C :   -0.027470
  66 N :   -0.280258
  67 S :    0.558497
  68 N :   -0.263516
  69 H :   -0.008954
  70 H :    0.013105
  71 H :   -0.007688
  72 H :    0.142623
  73 H :   -0.035694
  74 H :    0.003258
  75 H :    0.009206
  76 H :   -0.011300
Sum of atomic charges:    0.0000000

LOEWDIN ATOMIC CHARGES
----------------------
   0 C :    0.011571
   1 C :   -0.008914
   2 C :   -0.004369
   3 N :    0.012376
   4 C :   -0.036631
   5 C :   -0.022095
   6 N :   -0.001861
   7 C :   -0.036767
   8 N :    0.002845
   9 C :   -0.025845
  10 N :   -0.022258
  11 C :   -0.008721
  12 C :   -0.039732
  13 C :   -0.048574
  14 N :   -0.279350
  15 S :    0.703021
  16 N :   -0.286812
  17 C :   -0.039103
  18 C :    0.090649
  19 N :   -0.080242
  20 C :    0.030634
  21 C :   -0.007606
  22 C :   -0.136839
  23 S :    0.073640
  24 C :   -0.065425
  25 C :    0.047062
  26 N :   -0.067518
  27 C :    0.086540
  28 C :   -0.048759
  29 C :   -0.201908
  30 S :    0.530358
  31 C :   -0.152982
  32 C :   -0.059432
  33 C :    0.008473
  34 N :    0.070251
  35 C :   -0.002591
  36 N :    0.281104
  37 O :   -0.227804
  38 O :   -0.185807
  39 C :   -0.008237
  40 C :   -0.054449
  41 C :    0.097309
  42 N :   -0.070198
  43 C :    0.048760
  44 C :   -0.036976
  45 C :   -0.135955
  46 S :    0.082952
  47 C :   -0.007394
  48 C :    0.032558
  49 N :   -0.080624
  50 C :    0.094062
  51 C :   -0.039704
  52 C :   -0.010683
  53 C :   -0.003206
  54 C :   -0.009377
  55 N :   -0.001014
  56 C :   -0.019423
  57 C :   -0.029877
  58 N :    0.012615
  59 C :   -0.030374
  60 N :   -0.008931
  61 C :   -0.034871
  62 N :    0.004181
  63 C :    0.010250
  64 C :   -0.049038
  65 C :   -0.040821
  66 N :   -0.289497
  67 S :    0.698957
  68 N :   -0.280828
  69 H :    0.051693
  70 H :    0.023920
  71 H :    0.021240
  72 H :    0.090115
  73 H :    0.024628
  74 H :    0.022076
  75 H :    0.024652
  76 H :    0.050935

  Mayer bond orders larger than 0.100000
B(  0-C ,  1-C ) :   1.3015 B(  0-C , 11-C ) :   0.1404 B(  0-C , 13-C ) :   1.1798
B(  0-C , 69-H ) :   1.0587 B(  1-C ,  2-C ) :   1.1214 B(  1-C ,  6-N ) :   1.3369
B(  2-C ,  3-N ) :   1.4208 B(  2-C , 11-C ) :   1.3021 B(  3-N ,  4-C ) :   1.7032
B(  4-C ,  5-C ) :   1.1856 B(  4-C ,  9-C ) :   1.1634 B(  5-C ,  6-N ) :   1.7863
B(  5-C ,  7-C ) :   1.1541 B(  7-C ,  8-N ) :   3.0523 B(  9-C , 10-N ) :   2.9456
B( 11-C , 12-C ) :   1.2501 B( 11-C , 17-C ) :   1.0395 B( 12-C , 13-C ) :   1.1189
B( 12-C , 16-N ) :   1.5009 B( 13-C , 14-N ) :   1.4500 B( 14-N , 15-S ) :   1.3245
B( 14-N , 16-N ) :   0.1592 B( 15-S , 16-N ) :   1.2919 B( 17-C , 18-C ) :   1.0379
B( 17-C , 21-C ) :   1.5491 B( 18-C , 19-N ) :   1.7192 B( 18-C , 70-H ) :   0.9842
B( 19-N , 20-C ) :   1.2734 B( 20-C , 21-C ) :   1.0679 B( 20-C , 25-C ) :   1.5130
B( 21-C , 22-C ) :   1.0260 B( 22-C , 23-S ) :   1.6504 B( 22-C , 24-C ) :   1.0620
B( 24-C , 25-C ) :   1.0850 B( 24-C , 28-C ) :   1.4754 B( 25-C , 26-N ) :   1.2459
B( 26-N , 27-C ) :   1.7580 B( 27-C , 28-C ) :   1.0018 B( 27-C , 71-H ) :   0.9927
B( 28-C , 29-C ) :   1.1904 B( 29-C , 30-S ) :   1.1288 B( 29-C , 31-C ) :   0.1097
B( 29-C , 33-C ) :   1.3413 B( 30-S , 31-C ) :   1.1777 B( 31-C , 32-C ) :   1.3156
B( 31-C , 40-C ) :   1.1423 B( 32-C , 33-C ) :   1.2372 B( 32-C , 39-C ) :   1.1631
B( 33-C , 34-N ) :   1.2118 B( 34-N , 35-C ) :   1.1517 B( 34-N , 72-H ) :   0.9020
B( 35-C , 36-N ) :   0.9247 B( 35-C , 39-C ) :   1.5301 B( 36-N , 37-O ) :   1.4709
B( 36-N , 38-O ) :   1.5538 B( 37-O , 38-O ) :   0.2695 B( 39-C , 73-H ) :   1.0001
B( 40-C , 41-C ) :   1.0165 B( 40-C , 44-C ) :   1.5030 B( 41-C , 42-N ) :   1.7285
B( 41-C , 74-H ) :   0.9776 B( 42-N , 43-C ) :   1.2675 B( 43-C , 44-C ) :   1.0634
B( 43-C , 48-C ) :   1.5006 B( 44-C , 45-C ) :   1.0616 B( 45-C , 46-S ) :   1.6549
B( 45-C , 47-C ) :   1.0242 B( 47-C , 48-C ) :   1.0588 B( 47-C , 51-C ) :   1.5536
B( 48-C , 49-N ) :   1.2756 B( 49-N , 50-C ) :   1.7159 B( 50-C , 51-C ) :   1.0453
B( 50-C , 75-H ) :   0.9873 B( 51-C , 52-C ) :   1.0221 B( 52-C , 53-C ) :   1.3098
B( 52-C , 63-C ) :   0.1428 B( 52-C , 65-C ) :   1.2526 B( 53-C , 54-C ) :   1.1242
B( 53-C , 58-N ) :   1.4218 B( 54-C , 55-N ) :   1.3322 B( 54-C , 63-C ) :   1.3022
B( 55-N , 56-C ) :   1.7896 B( 56-C , 57-C ) :   1.1758 B( 56-C , 61-C ) :   1.1578
B( 57-C , 58-N ) :   1.7142 B( 57-C , 59-C ) :   1.1676 B( 59-C , 60-N ) :   2.9685
B( 61-C , 62-N ) :   3.0480 B( 63-C , 64-C ) :   1.1769 B( 63-C , 76-H ) :   1.0610
B( 64-C , 65-C ) :   1.1190 B( 64-C , 68-N ) :   1.4494 B( 65-C , 66-N ) :   1.5040
B( 66-N , 67-S ) :   1.2906 B( 66-N , 68-N ) :   0.1599 B( 67-S , 68-N ) :   1.3243

-----------------------------------------------------------------------------
         ABSORPTION SPECTRUM VIA TRANSITION ELECTRIC DIPOLE MOMENTS
-----------------------------------------------------------------------------
State   Energy  Wavelength   fosc         T2         TX        TY        TZ
        (cm-1)    (nm)                  (au**2)     (au)      (au)      (au)
-----------------------------------------------------------------------------
   0   10103.4    989.8   0.073804822   2.40487  -0.03955   1.54933  -0.05369
   1   11761.6    850.2   0.098930255   2.76910   0.06176   1.66239   0.04159
   2   12330.2    811.0   0.211284333   5.64122   0.35531   2.26943  -0.60387
   3   13627.5    733.8   0.364682338   8.80997   0.16227  -2.95277  -0.25447
   4   14973.2    667.9   0.008365170   0.18392   0.06131  -0.37828  -0.19254
   5   15106.1    662.0   0.011780057   0.25673   0.17237   0.11436  -0.46253
   6   15716.3    636.3   0.049653723   1.04010  -0.03424  -0.99402   0.22549
   7   17229.6    580.4   0.095699835   1.82857  -0.06557  -1.33859   0.18011
   8   18127.3    551.7   0.150021299   2.72456   0.57072   0.29232  -1.52098
   9   18457.6    541.8   0.115002270   2.05119  -0.35136  -1.37850   0.16578
  10   19488.9    513.1   0.028316860   0.47834  -0.10546   0.64960   0.21269
  11   19798.4    505.1   0.065634521   1.09138  -0.46554   0.08769   0.93111
  12   20017.2    499.6   0.042062013   0.69177  -0.50097  -0.20227   0.63237
  13   20259.9    493.6   0.066207162   1.07583  -0.34421  -0.48075   0.85219
  14   20634.3    484.6   0.009303869   0.14844   0.11521   0.34717  -0.12101
  15   20704.6    483.0   0.088192412   1.40230  -0.18230  -1.12551   0.31985
  16   21557.8    463.9   0.042602687   0.65059  -0.02047  -0.64774   0.48021
  17   22246.6    449.5   0.033378726   0.49395   0.13307   0.15033  -0.67353
  18   22713.6    440.3   0.024904119   0.36096   0.00494   0.51790  -0.30449
  19   23190.4    431.2   0.019934526   0.28299  -0.06563  -0.27011   0.45357
  20   23970.7    417.2   0.028521600   0.39171   0.29492   0.44150  -0.33138
  21   24308.4    411.4   0.033508261   0.45381  -0.16679   0.04216   0.65131
  22   24520.9    407.8   0.019595177   0.26308   0.05713  -0.49466   0.12300
  23   24735.5    404.3   0.017765307   0.23644  -0.10769  -0.45226  -0.14249
  24   24884.5    401.9   0.007046427   0.09322  -0.12432   0.27764   0.02604
  25   25388.5    393.9   0.014839518   0.19242   0.07003   0.32349  -0.28788
  26   25785.2    387.8   0.045440036   0.58015  -0.02404  -0.70539   0.28637
  27   26049.0    383.9   0.024988945   0.31582  -0.02784  -0.50951   0.23546
  28   26237.9    381.1   0.017474142   0.21925  -0.15634  -0.27291   0.34688
  29   26322.4    379.9   0.015316110   0.19156   0.28088   0.32713   0.07515
  30   26407.6    378.7   0.044017997   0.54875   0.21276   0.49679  -0.50664
  31   26611.6    375.8   0.015629920   0.19336   0.08808  -0.34358  -0.25991
  32   26707.5    374.4   0.053120291   0.65479   0.15777   0.34293  -0.71575
  33   27039.9    369.8   0.002556477   0.03113  -0.11936   0.01423  -0.12913
  34   27199.2    367.7   0.018159638   0.21980  -0.21983   0.18027   0.37280
  35   27484.2    363.8   0.066220249   0.79320  -0.17019  -0.85902   0.16222
  36   27829.2    359.3   0.015394419   0.18211   0.12392   0.38008  -0.14931
  37   28128.5    355.5   0.014921703   0.17464   0.13349  -0.39345  -0.04491
  38   28421.2    351.8   0.012089760   0.14004  -0.28293   0.02665   0.24348
  39   28684.5    348.6   0.035366331   0.40590  -0.00116   0.49870  -0.39648
  40   28725.6    348.1   0.062301365   0.71401   0.37276  -0.74114  -0.16056
  41   29012.3    344.7   0.011926475   0.13533  -0.22247  -0.25196   0.14953
  42   29044.3    344.3   0.158725278   1.79912   0.37903   0.82424   0.98797
  43   29522.3    338.7   0.013002277   0.14499   0.01121  -0.37635   0.05679
  44   29735.5    336.3   0.007576682   0.08388  -0.07359  -0.19394   0.20212
  45   30251.7    330.6   0.008265027   0.08994   0.19489  -0.06579   0.21825
  46   30319.7    329.8   0.087828756   0.95365  -0.25889  -0.14303   0.93068
  47   30484.2    328.0   0.039903497   0.43093  -0.42457   0.49927   0.03739
  48   30523.7    327.6   0.046355306   0.49996   0.22670  -0.66969   0.00891
  49   30665.6    326.1   0.030698610   0.32957  -0.37361   0.01051   0.43574
  50   30715.3    325.6   0.029847929   0.31991   0.11239  -0.55196  -0.05121
  51   30883.7    323.8   0.043719578   0.46604  -0.03288  -0.58755   0.34603
  52   31191.2    320.6   0.010544411   0.11129  -0.20265  -0.21323   0.15735
  53   31300.8    319.5   0.088694857   0.93287   0.04621  -0.90523   0.33360
  54   31429.7    318.2   0.053815926   0.56370  -0.12961  -0.48766   0.55595
  55   31746.3    315.0   0.058078254   0.60228   0.08237   0.76470   0.10359
  56   31955.1    312.9   0.012419013   0.12794   0.08347   0.34772   0.00813
  57   32003.2    312.5   0.070971433   0.73007  -0.13534   0.75008   0.38618
  58   32228.9    310.3   0.018049481   0.18437  -0.22967  -0.18672   0.31106
  59   32470.9    308.0   0.042098384   0.42682  -0.15566  -0.46480   0.43192
  60   32550.3    307.2   0.001888632   0.01910   0.10223   0.09209   0.01307
  61   32653.0    306.3   0.046064345   0.46443  -0.06375   0.67325   0.08427
  62   32750.5    305.3   0.049212057   0.49468  -0.00136  -0.70329   0.00787
  63   32948.1    303.5   0.006200796   0.06196  -0.13797  -0.07395   0.19353
  64   33157.6    301.6   0.042682133   0.42378   0.16498   0.06808  -0.62604
  65   33253.2    300.7   0.065221918   0.64571  -0.12422  -0.33570  -0.71943
  66   33369.1    299.7   0.026100129   0.25750   0.16816   0.47649  -0.04669
  67   33471.5    298.8   0.013610123   0.13386  -0.18825   0.31191  -0.03377
  68   34044.2    293.7   0.059935513   0.57958  -0.30573  -0.19788   0.66855
  69   34319.7    291.4   0.037987435   0.36439   0.18740   0.30842   0.48389
  70   34436.3    290.4   0.053718566   0.51355  -0.05394  -0.71007  -0.08027
  71   34566.8    289.3   0.057912299   0.55155   0.31290   0.49878  -0.45262
  72   34606.6    289.0   0.064990806   0.61826  -0.41275   0.56664  -0.35611
  73   34648.6    288.6   0.080788558   0.76761  -0.14364   0.85705  -0.11153
  74   34833.2    287.1   0.009430179   0.08913   0.18228  -0.16246  -0.17178
  75   34855.3    286.9   0.008492190   0.08021   0.08489  -0.06747   0.26163
  76   35005.6    285.7   0.029988538   0.28203   0.28960  -0.44327  -0.04086
  77   35253.9    283.7   0.002846752   0.02658  -0.03400   0.05453   0.14985
  78   35381.4    282.6   0.061286495   0.57025   0.11370   0.74372   0.06487
  79   35627.1    280.7   0.020378872   0.18831   0.12963  -0.01014  -0.41401
  80   35712.3    280.0   0.100315199   0.92475   0.65586   0.50714  -0.48724
  81   35772.7    279.5   0.022037216   0.20281  -0.03231   0.42001   0.15922
  82   35844.4    279.0   0.096847240   0.88949  -0.19056  -0.62697  -0.67829
  83   36010.5    277.7   0.097882872   0.89485   0.00841   0.94564   0.02336
  84   36063.2    277.3   0.088011409   0.80343   0.22924  -0.62575   0.59943
  85   36190.6    276.3   0.067166854   0.61099   0.12207   0.57078   0.51991
  86   36324.1    275.3   0.118506408   1.07405  -0.36916  -0.09141   0.96406
  87   36502.7    274.0   0.029014642   0.26168   0.00744  -0.41782  -0.29504
  88   36602.5    273.2   0.170527282   1.53377  -0.21266   1.21427   0.11874
  89   36683.1    272.6   0.454369580   4.07774   0.44854  -1.91655   0.45099
  90   36955.7    270.6   0.149998697   1.33623   0.76426  -0.80502  -0.32263
  91   37022.1    270.1   0.371831882   3.30644  -0.25254  -1.05016  -1.46282
  92   37215.6    268.7   0.222686079   1.96990   0.14801  -0.03646   1.39523
  93   37524.1    266.5   0.045401476   0.39832  -0.49460   0.10287   0.37831
  94   37783.8    264.7   0.021911267   0.19091  -0.10068   0.21817   0.36494
  95   37811.3    264.5   0.263551453   2.29466   0.65688  -0.76466   1.13069
  96   37980.3    263.3   0.132483402   1.14836  -0.44699  -0.90173  -0.36804
  97   38026.6    263.0   0.038836397   0.33622   0.06184   0.57574   0.03033
  98   38118.5    262.3   0.084591057   0.73057   0.11208   0.83229   0.15908
  99   38266.7    261.3   0.021593845   0.18577   0.14407   0.18450   0.36191
 100   38331.2    260.9   0.041734432   0.35844  -0.34485   0.40104   0.28051
 101   38412.3    260.3   0.070796401   0.60676   0.45472   0.60388  -0.18795
 102   38721.8    258.3   0.104090122   0.88497   0.47065  -0.81348   0.04129
 103   38759.6    258.0   0.015005394   0.12745  -0.22239   0.27410   0.05350
 104   39010.4    256.3   0.043554971   0.36756   0.25268  -0.44222  -0.32887
 105   39122.2    255.6   0.152875327   1.28644   0.00841   0.97584   0.57802
 106   39270.4    254.6   0.080345239   0.67355   0.23668   0.58514   0.52454
 107   39494.1    253.2   0.126296738   1.05278  -0.36166  -0.43471  -0.85616
 108   39628.6    252.3   0.016047870   0.13332   0.02747   0.06946  -0.35740
 109   39868.4    250.8   0.007934492   0.06552  -0.20976  -0.10179   0.10564
 110   39933.3    250.4   0.031583858   0.26038   0.29269   0.13237   0.39647
 111   40088.7    249.4   0.081594515   0.67006  -0.13696  -0.26098  -0.76367
 112   40198.1    248.8   0.066145448   0.54171   0.15986   0.42521   0.57910

FINAL SINGLE POINT ENERGY     -4803.917304284071

DIPOLE MOMENT
-------------
                                X             Y             Z
Electronic contribution:     -1.02089       0.32266      -6.18982
Nuclear contribution   :     -0.17326       1.36182       3.63260
                        -----------------------------------------
Total Dipole Moment    :     -1.19416       1.68448      -2.55722
                        -----------------------------------------
Magnitude (a.u.)       :      3.28677
Magnitude (Debye)      :      8.35432

Rotational constants in cm-1:     0.002020     0.000429     0.000370
Rotational constants in MHz :    60.554565    12.849554    11.090445

                             ****ORCA TERMINATED NORMALLY****
TOTAL RUN TIME: 0 days 0 hours 11 minutes 58 seconds 513 msec
