                         Program Version 4.2.0 -  RELEASE  -
|  1> # ORCA input file
|  2> # SCF done       -201.409888838627          0.000308493853
|  3> ! CAM-B3LYP def2-SVP def2/J RIJCOSX Grid4 TightSCF
|  4> %maxcore 5000
|  5> %tddft
|  6>     Mode sTDDFT
|  7>     Ethresh 5.0
|  8>     maxcore 5000
|  9> end
| 10>
| 11> %pal
| 12>   nprocs 6
| 13>   end
| 14> * xyz 0 1
| 15>    C       10.93789        -0.14056         8.43523
| 16>    C       10.72187        -0.48092         9.74199
| 17>    F       11.74304        -0.44014        10.61369
| 18>    C        9.46379        -0.87758        10.21786
| 19>    C        8.41233        -0.92736         9.34617
| 20>    C        8.57924        -0.59004         7.98656
| 21>    C        9.86671        -0.18728         7.52222
| 22>    C       10.05945         0.15568         6.16361
| 23>    C        9.00112         0.08975         5.29848
| 24>    C        7.71956        -0.32969         5.76482
| 25>    C        7.50367        -0.65520         7.07468
| 26>    C        6.77777        -0.37589         4.63588
| 27>    O        5.59589        -0.62271         4.64429
| 28>    C        7.62485        -0.12789         3.42331
| 29>    C        8.90765         0.38193         3.87109
| 30>    C        9.76018         1.16722         3.15075
| 31>    C       10.94971         1.71136         3.68053
| 32>    N       11.92068         2.17201         4.08122
| 33>    C        9.48059         1.62628         1.84335
| 34>    N        9.25197         2.12493         0.83540
| 35>    C        7.19189        -0.56757         2.21565
| 36>    C        7.98418        -0.82210         1.06223
| 37>    N        9.30565        -0.74899         1.08338
| 38>    C        9.72162        -1.18436        -0.12408
| 39>    C        8.59000        -1.59556        -0.96047
| 40>    C        9.06615        -2.07418        -2.26500
| 41>    O        8.42551        -2.55970        -3.17452
| 42>    C       10.52417        -1.85255        -2.17999
| 43>    C       10.88245        -1.33175        -0.84229
| 44>    N       12.21868        -1.12143        -0.75136
| 45>    C       12.69677        -1.44935        -1.92475
| 46>    C       11.68996        -1.90721        -2.86937
| 47>    C        7.45721        -1.33571        -0.22403
| 48>    C        6.08506        -1.48689        -0.55794
| 49>    C        5.68361        -2.19337        -1.64326
| 50>    C        4.33807        -2.37709        -2.04999
| 51>    N        4.00532        -3.32357        -2.97204
| 52>    C        2.66440        -3.29430        -3.21218
| 53>    C        2.11763        -2.27471        -2.42203
| 54>    C        3.15287        -1.72032        -1.68901
| 55>    C        2.02910        -4.21719        -4.02600
| 56>    C        1.47217        -5.07089        -4.69268
| 57>    C        0.85425        -6.08890        -5.39320
| 58>    C        1.32177        -7.36716        -5.37950
| 59>    C        0.65828        -8.41942        -6.05274
| 60>    N       -0.31482        -8.19952        -6.93223
| 61>    C       -0.71396        -9.40914        -7.35263
| 62>    C        0.01927       -10.48876        -6.66805
| 63>    C       -0.45033       -11.80610        -7.13516
| 64>    O       -0.12234       -12.90757        -6.74168
| 65>    C       -1.43471       -11.45089        -8.16510
| 66>    C       -1.58210        -9.98256        -8.25455
| 67>    N       -2.49100        -9.65027        -9.19864
| 68>    C       -2.90007       -10.79431        -9.69885
| 69>    C       -2.27961       -11.95628        -9.10279
| 70>    C        0.92154        -9.86495        -5.84193
| 71>    C        1.87461       -10.41806        -4.94306
| 72>    C        1.96648       -11.75181        -4.71921
| 73>    C        2.87694       -12.33620        -3.80590
| 74>    C        3.08455       -13.67206        -3.65535
| 75>    C        3.69567       -14.21488        -2.41179
| 76>    O        4.32830       -13.59864        -1.58474
| 77>    C        3.29430       -15.63445        -2.38122
| 78>    C        3.47579       -16.55409        -1.38837
| 79>    C        2.96325       -17.85954        -1.55545
| 80>    C        2.26565       -18.18775        -2.75480
| 81>    C        1.74711       -19.48831        -2.90855
| 82>    C        1.92446       -20.40433        -1.90939
| 83>    C        2.60867       -20.10156        -0.72402
| 84>    C        3.11852       -18.84422        -0.55797
| 85>    F        1.42891       -21.64673        -2.05389
| 86>    C        2.10066       -17.21822        -3.77154
| 87>    C        2.61141       -15.96173        -3.58973
| 88>    C        2.61638       -14.78621        -4.45689
| 89>    C        2.42873       -14.78482        -5.81207
| 90>    C        2.75170       -13.69214        -6.64782
| 91>    N        3.08533       -12.86308        -7.36718
| 92>    C        2.02107       -15.92040        -6.54311
| 93>    N        1.69051       -16.82231        -7.17060
| 94>    H       11.91910         0.16230         8.10489
| 95>    H        9.35424        -1.13496        11.25941
| 96>    H        7.43446        -1.23014         9.68893
| 97>    H       11.04447         0.44685         5.83496
| 98>    H        6.52526        -0.96699         7.40836
| 99>    H        6.15215        -0.87177         2.17280
|100>    H       13.75199        -1.37571        -2.12238
|101>    H       11.87831        -2.21407        -3.87913
|102>    H        5.35338        -1.02883         0.09197
|103>    H        6.43509        -2.68062        -2.25214
|104>    H        4.66250        -3.94085        -3.42262
|105>    H        1.08085        -2.00498        -2.39061
|106>    H        3.07287        -0.91626        -0.98520
|107>    H       -0.05538        -5.86734        -5.93542
|108>    H        2.20452        -7.60589        -4.80319
|109>    H       -3.63878       -10.80962       -10.48136
|110>    H       -2.47226       -12.97589        -9.37181
|111>    H        2.55237        -9.74163        -4.43915
|112>    H        1.28137       -12.40897        -5.23603
|113>    H        3.38987       -11.68761        -3.10356
|114>    H        4.00079       -16.28727        -0.48329
|115>    H        1.21740       -19.75758        -3.80890
|116>    H        2.71712       -20.86548         0.02947
|117>    H        3.64904       -18.58662         0.34641
|118>    H        1.56179       -17.48883        -4.66578
|119> *
|120>
|121>                          ****END OF INPUT****

CARTESIAN COORDINATES (ANGSTROEM)
---------------------------------
  C     10.937890   -0.140560    8.435230
  C     10.721870   -0.480920    9.741990
  F     11.743040   -0.440140   10.613690
  C      9.463790   -0.877580   10.217860
  C      8.412330   -0.927360    9.346170
  C      8.579240   -0.590040    7.986560
  C      9.866710   -0.187280    7.522220
  C     10.059450    0.155680    6.163610
  C      9.001120    0.089750    5.298480
  C      7.719560   -0.329690    5.764820
  C      7.503670   -0.655200    7.074680
  C      6.777770   -0.375890    4.635880
  O      5.595890   -0.622710    4.644290
  C      7.624850   -0.127890    3.423310
  C      8.907650    0.381930    3.871090
  C      9.760180    1.167220    3.150750
  C     10.949710    1.711360    3.680530
  N     11.920680    2.172010    4.081220
  C      9.480590    1.626280    1.843350
  N      9.251970    2.124930    0.835400
  C      7.191890   -0.567570    2.215650
  C      7.984180   -0.822100    1.062230
  N      9.305650   -0.748990    1.083380
  C      9.721620   -1.184360   -0.124080
  C      8.590000   -1.595560   -0.960470
  C      9.066150   -2.074180   -2.265000
  O      8.425510   -2.559700   -3.174520
  C     10.524170   -1.852550   -2.179990
  C     10.882450   -1.331750   -0.842290
  N     12.218680   -1.121430   -0.751360
  C     12.696770   -1.449350   -1.924750
  C     11.689960   -1.907210   -2.869370
  C      7.457210   -1.335710   -0.224030
  C      6.085060   -1.486890   -0.557940
  C      5.683610   -2.193370   -1.643260
  C      4.338070   -2.377090   -2.049990
  N      4.005320   -3.323570   -2.972040
  C      2.664400   -3.294300   -3.212180
  C      2.117630   -2.274710   -2.422030
  C      3.152870   -1.720320   -1.689010
  C      2.029100   -4.217190   -4.026000
  C      1.472170   -5.070890   -4.692680
  C      0.854250   -6.088900   -5.393200
  C      1.321770   -7.367160   -5.379500
  C      0.658280   -8.419420   -6.052740
  N     -0.314820   -8.199520   -6.932230
  C     -0.713960   -9.409140   -7.352630
  C      0.019270  -10.488760   -6.668050
  C     -0.450330  -11.806100   -7.135160
  O     -0.122340  -12.907570   -6.741680
  C     -1.434710  -11.450890   -8.165100
  C     -1.582100   -9.982560   -8.254550
  N     -2.491000   -9.650270   -9.198640
  C     -2.900070  -10.794310   -9.698850
  C     -2.279610  -11.956280   -9.102790
  C      0.921540   -9.864950   -5.841930
  C      1.874610  -10.418060   -4.943060
  C      1.966480  -11.751810   -4.719210
  C      2.876940  -12.336200   -3.805900
  C      3.084550  -13.672060   -3.655350
  C      3.695670  -14.214880   -2.411790
  O      4.328300  -13.598640   -1.584740
  C      3.294300  -15.634450   -2.381220
  C      3.475790  -16.554090   -1.388370
  C      2.963250  -17.859540   -1.555450
  C      2.265650  -18.187750   -2.754800
  C      1.747110  -19.488310   -2.908550
  C      1.924460  -20.404330   -1.909390
  C      2.608670  -20.101560   -0.724020
  C      3.118520  -18.844220   -0.557970
  F      1.428910  -21.646730   -2.053890
  C      2.100660  -17.218220   -3.771540
  C      2.611410  -15.961730   -3.589730
  C      2.616380  -14.786210   -4.456890
  C      2.428730  -14.784820   -5.812070
  C      2.751700  -13.692140   -6.647820
  N      3.085330  -12.863080   -7.367180
  C      2.021070  -15.920400   -6.543110
  N      1.690510  -16.822310   -7.170600
  H     11.919100    0.162300    8.104890
  H      9.354240   -1.134960   11.259410
  H      7.434460   -1.230140    9.688930
  H     11.044470    0.446850    5.834960
  H      6.525260   -0.966990    7.408360
  H      6.152150   -0.871770    2.172800
  H     13.751990   -1.375710   -2.122380
  H     11.878310   -2.214070   -3.879130
  H      5.353380   -1.028830    0.091970
  H      6.435090   -2.680620   -2.252140
  H      4.662500   -3.940850   -3.422620
  H      1.080850   -2.004980   -2.390610
  H      3.072870   -0.916260   -0.985200
  H     -0.055380   -5.867340   -5.935420
  H      2.204520   -7.605890   -4.803190
  H     -3.638780  -10.809620  -10.481360
  H     -2.472260  -12.975890   -9.371810
  H      2.552370   -9.741630   -4.439150
  H      1.281370  -12.408970   -5.236030
  H      3.389870  -11.687610   -3.103560
  H      4.000790  -16.287270   -0.483290
  H      1.217400  -19.757580   -3.808900
  H      2.717120  -20.865480    0.029470
  H      3.649040  -18.586620    0.346410
  H      1.561790  -17.488830   -4.665780

 Total Charge           Charge          ....    0
 Multiplicity           Mult            ....    1
 Number of Electrons    NEL             ....  522
 Basis Dimension        Dim             .... 1231

ORBITAL ENERGIES
----------------

  NO   OCC          E(Eh)            E(eV)
   0   2.0000     -24.792812      -674.6467
   1   2.0000     -24.784172      -674.4116
   2   2.0000     -19.232190      -523.3345
   3   2.0000     -19.221152      -523.0341
   4   2.0000     -19.214818      -522.8618
   5   2.0000     -19.212749      -522.8055
   6   2.0000     -14.483312      -394.1110
   7   2.0000     -14.427443      -392.5907
   8   2.0000     -14.425465      -392.5369
   9   2.0000     -14.417925      -392.3317
  10   2.0000     -14.414725      -392.2446
  11   2.0000     -14.411697      -392.1622
  12   2.0000     -14.408557      -392.0768
  13   2.0000     -14.406481      -392.0203
  14   2.0000     -14.403267      -391.9328
  15   2.0000     -10.382214      -282.5144
  16   2.0000     -10.380663      -282.4722
  17   2.0000     -10.377354      -282.3822
  18   2.0000     -10.374434      -282.3027
  19   2.0000     -10.367740      -282.1206
  20   2.0000     -10.363996      -282.0187
  21   2.0000     -10.357389      -281.8389
  22   2.0000     -10.354287      -281.7545
  23   2.0000     -10.347372      -281.5663
  24   2.0000     -10.344043      -281.4757
  25   2.0000     -10.341714      -281.4123
  26   2.0000     -10.341273      -281.4003
  27   2.0000     -10.335884      -281.2537
  28   2.0000     -10.335128      -281.2331
  29   2.0000     -10.334782      -281.2237
  30   2.0000     -10.333130      -281.1788
  31   2.0000     -10.332834      -281.1707
  32   2.0000     -10.326417      -280.9961
  33   2.0000     -10.325905      -280.9822
  34   2.0000     -10.325572      -280.9731
  35   2.0000     -10.322974      -280.9024
  36   2.0000     -10.322533      -280.8904
  37   2.0000     -10.322198      -280.8813
  38   2.0000     -10.321886      -280.8728
  39   2.0000     -10.321484      -280.8619
  40   2.0000     -10.316165      -280.7171
  41   2.0000     -10.314991      -280.6852
  42   2.0000     -10.314915      -280.6831
  43   2.0000     -10.313549      -280.6459
  44   2.0000     -10.311084      -280.5789
  45   2.0000     -10.310857      -280.5727
  46   2.0000     -10.309651      -280.5399
  47   2.0000     -10.309333      -280.5312
  48   2.0000     -10.307854      -280.4910
  49   2.0000     -10.305906      -280.4380
  50   2.0000     -10.305582      -280.4291
  51   2.0000     -10.304324      -280.3949
  52   2.0000     -10.304110      -280.3891
  53   2.0000     -10.303665      -280.3770
  54   2.0000     -10.301659      -280.3224
  55   2.0000     -10.301611      -280.3211
  56   2.0000     -10.301241      -280.3110
  57   2.0000     -10.300201      -280.2827
  58   2.0000     -10.299879      -280.2740
  59   2.0000     -10.299759      -280.2707
  60   2.0000     -10.299119      -280.2533
  61   2.0000     -10.298078      -280.2249
  62   2.0000     -10.297300      -280.2038
  63   2.0000     -10.296426      -280.1800
  64   2.0000     -10.296391      -280.1790
  65   2.0000     -10.296075      -280.1704
  66   2.0000     -10.295968      -280.1675
  67   2.0000     -10.295516      -280.1552
  68   2.0000     -10.295070      -280.1431
  69   2.0000     -10.294420      -280.1254
  70   2.0000     -10.293894      -280.1111
  71   2.0000     -10.292774      -280.0806
  72   2.0000     -10.288850      -279.9738
  73   2.0000     -10.287948      -279.9493
  74   2.0000     -10.287476      -279.9365
  75   2.0000     -10.286944      -279.9220
  76   2.0000     -10.286867      -279.9199
  77   2.0000     -10.282985      -279.8142
  78   2.0000     -10.278684      -279.6972
  79   2.0000      -1.308410       -35.6036
  80   2.0000      -1.299048       -35.3489
  81   2.0000      -1.147309       -31.2199
  82   2.0000      -1.134880       -30.8816
  83   2.0000      -1.128324       -30.7032
  84   2.0000      -1.127372       -30.6773
  85   2.0000      -1.101637       -29.9771
  86   2.0000      -1.091017       -29.6881
  87   2.0000      -1.078047       -29.3351
  88   2.0000      -1.070376       -29.1264
  89   2.0000      -1.057655       -28.7803
  90   2.0000      -1.026695       -27.9378
  91   2.0000      -1.014041       -27.5935
  92   2.0000      -1.008999       -27.4563
  93   2.0000      -0.999328       -27.1931
  94   2.0000      -0.996606       -27.1190
  95   2.0000      -0.987466       -26.8703
  96   2.0000      -0.985755       -26.8238
  97   2.0000      -0.973740       -26.4968
  98   2.0000      -0.949157       -25.8279
  99   2.0000      -0.942793       -25.6547
 100   2.0000      -0.935858       -25.4660
 101   2.0000      -0.935456       -25.4550
 102   2.0000      -0.931495       -25.3473
 103   2.0000      -0.922696       -25.1078
 104   2.0000      -0.917953       -24.9788
 105   2.0000      -0.913222       -24.8500
 106   2.0000      -0.897331       -24.4176
 107   2.0000      -0.896150       -24.3855
 108   2.0000      -0.892654       -24.2903
 109   2.0000      -0.890017       -24.2186
 110   2.0000      -0.884721       -24.0745
 111   2.0000      -0.883514       -24.0416
 112   2.0000      -0.874431       -23.7945
 113   2.0000      -0.865302       -23.5461
 114   2.0000      -0.861799       -23.4507
 115   2.0000      -0.851004       -23.1570
 116   2.0000      -0.843417       -22.9505
 117   2.0000      -0.835561       -22.7368
 118   2.0000      -0.829673       -22.5765
 119   2.0000      -0.821828       -22.3631
 120   2.0000      -0.818684       -22.2775
 121   2.0000      -0.792482       -21.5645
 122   2.0000      -0.786019       -21.3887
 123   2.0000      -0.777993       -21.1703
 124   2.0000      -0.768938       -20.9239
 125   2.0000      -0.762461       -20.7476
 126   2.0000      -0.760736       -20.7007
 127   2.0000      -0.753878       -20.5141
 128   2.0000      -0.738663       -20.1001
 129   2.0000      -0.733739       -19.9661
 130   2.0000      -0.724713       -19.7204
 131   2.0000      -0.721101       -19.6221
 132   2.0000      -0.719629       -19.5821
 133   2.0000      -0.717675       -19.5289
 134   2.0000      -0.710070       -19.3220
 135   2.0000      -0.706217       -19.2171
 136   2.0000      -0.702377       -19.1126
 137   2.0000      -0.691560       -18.8183
 138   2.0000      -0.689721       -18.7683
 139   2.0000      -0.684014       -18.6130
 140   2.0000      -0.680419       -18.5151
 141   2.0000      -0.674635       -18.3577
 142   2.0000      -0.666845       -18.1458
 143   2.0000      -0.661817       -18.0090
 144   2.0000      -0.652783       -17.7631
 145   2.0000      -0.650957       -17.7134
 146   2.0000      -0.644581       -17.5399
 147   2.0000      -0.638138       -17.3646
 148   2.0000      -0.634615       -17.2688
 149   2.0000      -0.634309       -17.2604
 150   2.0000      -0.629697       -17.1349
 151   2.0000      -0.627152       -17.0657
 152   2.0000      -0.624154       -16.9841
 153   2.0000      -0.622079       -16.9276
 154   2.0000      -0.616101       -16.7649
 155   2.0000      -0.611060       -16.6278
 156   2.0000      -0.607067       -16.5191
 157   2.0000      -0.603426       -16.4200
 158   2.0000      -0.594043       -16.1647
 159   2.0000      -0.592267       -16.1164
 160   2.0000      -0.581198       -15.8152
 161   2.0000      -0.578809       -15.7502
 162   2.0000      -0.574034       -15.6202
 163   2.0000      -0.571438       -15.5496
 164   2.0000      -0.566658       -15.4196
 165   2.0000      -0.565458       -15.3869
 166   2.0000      -0.563765       -15.3408
 167   2.0000      -0.559920       -15.2362
 168   2.0000      -0.558546       -15.1988
 169   2.0000      -0.556576       -15.1452
 170   2.0000      -0.556110       -15.1325
 171   2.0000      -0.555003       -15.1024
 172   2.0000      -0.550276       -14.9738
 173   2.0000      -0.547443       -14.8967
 174   2.0000      -0.546443       -14.8695
 175   2.0000      -0.546072       -14.8594
 176   2.0000      -0.544945       -14.8287
 177   2.0000      -0.541542       -14.7361
 178   2.0000      -0.540270       -14.7015
 179   2.0000      -0.536645       -14.6029
 180   2.0000      -0.534187       -14.5360
 181   2.0000      -0.532699       -14.4955
 182   2.0000      -0.531458       -14.4617
 183   2.0000      -0.529549       -14.4098
 184   2.0000      -0.525105       -14.2888
 185   2.0000      -0.523148       -14.2356
 186   2.0000      -0.521635       -14.1944
 187   2.0000      -0.521372       -14.1872
 188   2.0000      -0.517104       -14.0711
 189   2.0000      -0.512173       -13.9369
 190   2.0000      -0.511424       -13.9166
 191   2.0000      -0.507867       -13.8198
 192   2.0000      -0.507177       -13.8010
 193   2.0000      -0.501930       -13.6582
 194   2.0000      -0.500421       -13.6172
 195   2.0000      -0.498527       -13.5656
 196   2.0000      -0.497393       -13.5348
 197   2.0000      -0.495708       -13.4889
 198   2.0000      -0.492447       -13.4002
 199   2.0000      -0.490356       -13.3433
 200   2.0000      -0.489905       -13.3310
 201   2.0000      -0.488990       -13.3061
 202   2.0000      -0.487419       -13.2634
 203   2.0000      -0.482611       -13.1325
 204   2.0000      -0.481515       -13.1027
 205   2.0000      -0.480610       -13.0781
 206   2.0000      -0.478508       -13.0209
 207   2.0000      -0.474324       -12.9070
 208   2.0000      -0.472726       -12.8635
 209   2.0000      -0.469465       -12.7748
 210   2.0000      -0.466814       -12.7026
 211   2.0000      -0.465673       -12.6716
 212   2.0000      -0.459872       -12.5138
 213   2.0000      -0.455782       -12.4025
 214   2.0000      -0.455533       -12.3957
 215   2.0000      -0.455029       -12.3820
 216   2.0000      -0.449446       -12.2301
 217   2.0000      -0.448734       -12.2107
 218   2.0000      -0.446797       -12.1580
 219   2.0000      -0.445336       -12.1182
 220   2.0000      -0.444002       -12.0819
 221   2.0000      -0.439704       -11.9650
 222   2.0000      -0.437545       -11.9062
 223   2.0000      -0.436517       -11.8782
 224   2.0000      -0.436079       -11.8663
 225   2.0000      -0.432175       -11.7601
 226   2.0000      -0.429638       -11.6910
 227   2.0000      -0.424354       -11.5473
 228   2.0000      -0.422867       -11.5068
 229   2.0000      -0.417858       -11.3705
 230   2.0000      -0.413960       -11.2644
 231   2.0000      -0.413435       -11.2501
 232   2.0000      -0.408159       -11.1066
 233   2.0000      -0.400739       -10.9047
 234   2.0000      -0.390285       -10.6202
 235   2.0000      -0.387048       -10.5321
 236   2.0000      -0.384787       -10.4706
 237   2.0000      -0.377851       -10.2819
 238   2.0000      -0.373930       -10.1751
 239   2.0000      -0.369529       -10.0554
 240   2.0000      -0.367799       -10.0083
 241   2.0000      -0.362781        -9.8718
 242   2.0000      -0.358153        -9.7458
 243   2.0000      -0.352432        -9.5902
 244   2.0000      -0.351733        -9.5712
 245   2.0000      -0.351207        -9.5568
 246   2.0000      -0.349036        -9.4978
 247   2.0000      -0.345144        -9.3918
 248   2.0000      -0.339683        -9.2432
 249   2.0000      -0.334961        -9.1148
 250   2.0000      -0.333856        -9.0847
 251   2.0000      -0.332173        -9.0389
 252   2.0000      -0.330742        -9.0000
 253   2.0000      -0.323761        -8.8100
 254   2.0000      -0.317961        -8.6522
 255   2.0000      -0.311114        -8.4659
 256   2.0000      -0.305366        -8.3094
 257   2.0000      -0.301863        -8.2141
 258   2.0000      -0.297137        -8.0855
 259   2.0000      -0.281588        -7.6624
 260   2.0000      -0.254740        -6.9318
 261   0.0000      -0.136901        -3.7253
 262   0.0000      -0.121780        -3.3138
 263   0.0000      -0.092563        -2.5188
 264   0.0000      -0.084313        -2.2943
 265   0.0000      -0.065397        -1.7795

MULLIKEN ATOMIC CHARGES
-----------------------
   0 C :   -0.096384
   1 C :    0.305572
   2 F :   -0.186319
   3 C :   -0.030153
   4 C :   -0.006200
   5 C :    0.097812
   6 C :    0.103530
   7 C :   -0.084523
   8 C :    0.052540
   9 C :   -0.000909
  10 C :   -0.071352
  11 C :    0.139684
  12 O :   -0.130711
  13 C :   -0.066051
  14 C :    0.253520
  15 C :   -0.252680
  16 C :   -0.190550
  17 N :    0.166383
  18 C :   -0.175457
  19 N :    0.169112
  20 C :   -0.013303
  21 C :    0.050777
  22 N :   -0.061514
  23 C :    0.087362
  24 C :   -0.167099
  25 C :    0.222551
  26 O :   -0.149313
  27 C :   -0.010202
  28 C :   -0.027415
  29 N :   -0.050686
  30 C :    0.096142
  31 C :   -0.093493
  32 C :    0.068492
  33 C :   -0.060583
  34 C :    0.039342
  35 C :    0.086951
  36 N :   -0.031922
  37 C :   -0.002974
  38 C :    0.015455
  39 C :   -0.033127
  40 C :    0.116485
  41 C :   -0.050268
  42 C :   -0.021200
  43 C :   -0.053784
  44 C :    0.041753
  45 N :   -0.041209
  46 C :    0.068669
  47 C :   -0.157630
  48 C :    0.239942
  49 O :   -0.151237
  50 C :   -0.012040
  51 C :   -0.037099
  52 N :   -0.053315
  53 C :    0.089277
  54 C :   -0.091013
  55 C :    0.061322
  56 C :   -0.021557
  57 C :    0.022070
  58 C :    0.035775
  59 C :   -0.107602
  60 C :    0.145539
  61 O :   -0.141638
  62 C :   -0.000662
  63 C :   -0.079896
  64 C :    0.100988
  65 C :    0.102853
  66 C :   -0.096645
  67 C :    0.302784
  68 C :   -0.031177
  69 C :   -0.009161
  70 F :   -0.190569
  71 C :   -0.086694
  72 C :    0.048805
  73 C :    0.261034
  74 C :   -0.293812
  75 C :   -0.203244
  76 N :    0.161615
  77 C :   -0.174118
  78 N :    0.151130
  79 H :    0.000158
  80 H :    0.006713
  81 H :   -0.006991
  82 H :   -0.000073
  83 H :   -0.008231
  84 H :    0.013541
  85 H :    0.016431
  86 H :   -0.000454
  87 H :   -0.013082
  88 H :   -0.001066
  89 H :    0.135692
  90 H :   -0.013720
  91 H :   -0.012073
  92 H :    0.060402
  93 H :    0.001533
  94 H :    0.010988
  95 H :   -0.003288
  96 H :   -0.017575
  97 H :    0.039618
  98 H :    0.009912
  99 H :   -0.012786
 100 H :   -0.002312
 101 H :    0.003717
 102 H :   -0.010379
 103 H :   -0.003447
Sum of atomic charges:   -0.0000000

LOEWDIN ATOMIC CHARGES
----------------------
   0 C :   -0.041529
   1 C :    0.096236
   2 F :   -0.060631
   3 C :   -0.035113
   4 C :    0.006642
   5 C :   -0.019293
   6 C :    0.007060
   7 C :    0.011673
   8 C :   -0.013255
   9 C :   -0.064924
  10 C :    0.040450
  11 C :    0.084683
  12 O :   -0.129885
  13 C :   -0.016577
  14 C :    0.057388
  15 C :   -0.088516
  16 C :   -0.014581
  17 N :   -0.034911
  18 C :   -0.015077
  19 N :   -0.042612
  20 C :    0.025085
  21 C :    0.058891
  22 N :   -0.071046
  23 C :    0.048724
  24 C :   -0.060266
  25 C :    0.072316
  26 O :   -0.147069
  27 C :   -0.037740
  28 C :    0.035534
  29 N :   -0.092297
  30 C :    0.083793
  31 C :   -0.026473
  32 C :   -0.013272
  33 C :   -0.040938
  34 C :    0.011936
  35 C :   -0.006754
  36 N :    0.116456
  37 C :   -0.034815
  38 C :   -0.024561
  39 C :   -0.048984
  40 C :   -0.016397
  41 C :   -0.035021
  42 C :    0.044363
  43 C :   -0.039169
  44 C :    0.069094
  45 N :   -0.108081
  46 C :    0.046054
  47 C :   -0.025612
  48 C :    0.075996
  49 O :   -0.142759
  50 C :   -0.039833
  51 C :    0.022257
  52 N :   -0.096249
  53 C :    0.074208
  54 C :   -0.033908
  55 C :   -0.031253
  56 C :    0.008452
  57 C :    0.001895
  58 C :    0.060679
  59 C :   -0.075448
  60 C :    0.081678
  61 O :   -0.144341
  62 C :   -0.060415
  63 C :    0.034027
  64 C :   -0.019279
  65 C :    0.004141
  66 C :   -0.042094
  67 C :    0.093163
  68 C :   -0.037905
  69 C :    0.004427
  70 F :   -0.065148
  71 C :    0.010846
  72 C :   -0.015070
  73 C :    0.064940
  74 C :   -0.115546
  75 C :   -0.017950
  76 N :   -0.049246
  77 C :   -0.012476
  78 N :   -0.048169
  79 H :    0.044260
  80 H :    0.043185
  81 H :    0.036581
  82 H :    0.040668
  83 H :    0.041017
  84 H :    0.046170
  85 H :    0.026416
  86 H :    0.036210
  87 H :    0.029071
  88 H :    0.033694
  89 H :    0.100764
  90 H :    0.034079
  91 H :    0.029337
  92 H :    0.058390
  93 H :    0.033802
  94 H :    0.024022
  95 H :    0.035425
  96 H :    0.030077
  97 H :    0.034525
  98 H :    0.042485
  99 H :    0.039183
 100 H :    0.043299
 101 H :    0.041680
 102 H :    0.035319
 103 H :    0.039735

  Mayer bond orders larger than 0.100000
B(  0-C ,  1-C ) :   1.4398 B(  0-C ,  6-C ) :   1.2052 B(  0-C , 79-H ) :   1.0067
B(  1-C ,  2-F ) :   1.0925 B(  1-C ,  3-C ) :   1.2522 B(  3-C ,  4-C ) :   1.4656
B(  3-C , 80-H ) :   0.9926 B(  4-C ,  5-C ) :   1.2305 B(  4-C , 81-H ) :   0.9972
B(  5-C ,  6-C ) :   1.2496 B(  5-C , 10-C ) :   1.2044 B(  6-C ,  7-C ) :   1.2055
B(  7-C ,  8-C ) :   1.4666 B(  7-C , 82-H ) :   0.9952 B(  8-C ,  9-C ) :   1.2102
B(  8-C , 14-C ) :   0.9946 B(  9-C , 10-C ) :   1.4608 B(  9-C , 11-C ) :   0.9306
B( 10-C , 83-H ) :   1.0147 B( 11-C , 12-O ) :   2.2700 B( 11-C , 13-C ) :   0.9126
B( 13-C , 14-C ) :   1.0132 B( 13-C , 20-C ) :   1.7036 B( 14-C , 15-C ) :   1.7170
B( 15-C , 16-C ) :   1.1431 B( 15-C , 18-C ) :   1.1455 B( 16-C , 17-N ) :   2.9854
B( 18-C , 19-N ) :   2.9865 B( 20-C , 21-C ) :   1.0809 B( 20-C , 84-H ) :   0.9439
B( 21-C , 22-N ) :   1.5621 B( 21-C , 23-C ) :   0.1060 B( 21-C , 32-C ) :   1.0152
B( 22-N , 23-C ) :   1.3139 B( 23-C , 24-C ) :   1.0642 B( 23-C , 28-C ) :   1.4362
B( 24-C , 25-C ) :   0.9080 B( 24-C , 32-C ) :   1.5356 B( 25-C , 26-O ) :   2.1825
B( 25-C , 27-C ) :   0.9260 B( 27-C , 28-C ) :   1.0605 B( 27-C , 31-C ) :   1.6251
B( 28-C , 29-N ) :   1.3051 B( 29-N , 30-C ) :   1.6682 B( 30-C , 31-C ) :   1.0516
B( 30-C , 85-H ) :   0.9891 B( 31-C , 86-H ) :   1.0103 B( 32-C , 33-C ) :   1.1349
B( 33-C , 34-C ) :   1.6657 B( 33-C , 87-H ) :   0.9658 B( 34-C , 35-C ) :   1.0898
B( 34-C , 88-H ) :   0.9402 B( 35-C , 36-N ) :   1.2247 B( 35-C , 37-C ) :   0.1164
B( 35-C , 39-C ) :   1.3764 B( 36-N , 37-C ) :   1.2390 B( 36-N , 89-H ) :   0.9333
B( 37-C , 38-C ) :   1.3936 B( 37-C , 40-C ) :   0.8549 B( 38-C , 39-C ) :   1.3642
B( 38-C , 90-H ) :   1.0135 B( 39-C , 91-H ) :   1.0061 B( 40-C , 41-C ) :   2.1938
B( 41-C , 42-C ) :   1.0012 B( 42-C , 43-C ) :   1.6563 B( 42-C , 92-H ) :   0.9558
B( 43-C , 44-C ) :   1.1674 B( 43-C , 93-H ) :   0.9602 B( 44-C , 45-N ) :   1.5682
B( 44-C , 46-C ) :   0.1098 B( 44-C , 55-C ) :   1.0012 B( 45-N , 46-C ) :   1.3778
B( 46-C , 47-C ) :   1.0594 B( 46-C , 51-C ) :   1.3908 B( 47-C , 48-C ) :   0.8912
B( 47-C , 55-C ) :   1.5583 B( 48-C , 49-O ) :   2.1441 B( 48-C , 50-C ) :   0.9434
B( 49-O , 97-H ) :   0.1039 B( 50-C , 51-C ) :   1.0730 B( 50-C , 54-C ) :   1.5864
B( 51-C , 52-N ) :   1.3322 B( 52-N , 53-C ) :   1.6336 B( 53-C , 54-C ) :   1.0823
B( 53-C , 94-H ) :   0.9901 B( 54-C , 95-H ) :   1.0113 B( 55-C , 56-C ) :   1.1022
B( 56-C , 57-C ) :   1.6720 B( 56-C , 96-H ) :   0.9755 B( 57-C , 58-C ) :   1.1042
B( 57-C , 97-H ) :   0.9313 B( 58-C , 59-C ) :   1.6360 B( 58-C , 98-H ) :   0.9646
B( 59-C , 60-C ) :   0.9333 B( 59-C , 73-C ) :   1.0285 B( 60-C , 61-O ) :   2.2762
B( 60-C , 62-C ) :   0.9214 B( 62-C , 63-C ) :   1.4716 B( 62-C , 72-C ) :   1.2165
B( 63-C , 64-C ) :   1.1940 B( 63-C , 99-H ) :   1.0142 B( 64-C , 65-C ) :   1.2567
B( 64-C , 69-C ) :   1.2345 B( 65-C , 66-C ) :   1.2019 B( 65-C , 71-C ) :   1.2019
B( 66-C , 67-C ) :   1.4418 B( 66-C ,100-H ) :   1.0062 B( 67-C , 68-C ) :   1.2556
B( 67-C , 70-F ) :   1.0885 B( 68-C , 69-C ) :   1.4616 B( 68-C ,101-H ) :   0.9923
B( 69-C ,102-H ) :   0.9964 B( 71-C , 72-C ) :   1.4649 B( 71-C ,103-H ) :   0.9944
B( 72-C , 73-C ) :   0.9972 B( 73-C , 74-C ) :   1.6749 B( 74-C , 75-C ) :   1.1487
B( 74-C , 77-C ) :   1.1404 B( 75-C , 76-N ) :   3.0048 B( 77-C , 78-N ) :   2.9829

-----------------------------------------------------------------------------
         ABSORPTION SPECTRUM VIA TRANSITION ELECTRIC DIPOLE MOMENTS
-----------------------------------------------------------------------------
State   Energy  Wavelength   fosc         T2         TX        TY        TZ
        (cm-1)    (nm)                  (au**2)     (au)      (au)      (au)
-----------------------------------------------------------------------------
   0   10999.5    909.1   0.109314747   3.27176  -1.67290  -0.63537  -0.26356
   1   15947.5    627.1   1.156552644  23.87521   2.44004   3.47809   2.41336
   2   17893.7    558.9   0.223774350   4.11704  -1.50303  -0.10764  -1.35880
   3   19420.7    514.9   0.057979342   0.98284  -0.20352   0.56355   0.78983
   4   20968.4    476.9   0.051480383   0.80826   0.13456   0.69281   0.55692
   5   21401.8    467.3   0.013289278   0.20442  -0.25698  -0.35870  -0.09858
   6   21932.1    456.0   0.324242734   4.86705   0.88306   1.97070   0.45124
   7   22279.5    448.8   0.099180584   1.46554   0.08007  -1.08947  -0.52171
   8   22914.8    436.4   0.027784008   0.39917   0.28576  -0.28653   0.48519
   9   23276.4    429.6   0.395970795   5.60046  -1.39162   1.04579  -1.60318
  10   23847.7    419.3   0.057252566   0.79036  -0.76587   0.35327   0.28107
  11   24142.0    414.2   0.050146675   0.68382   0.81976   0.02005  -0.10681
  12   24194.9    413.3   0.042517373   0.57852   0.61655  -0.36976  -0.24833
  13   24533.5    407.6   0.002545143   0.03415   0.16081   0.06933  -0.05904
  14   24816.6    403.0   0.127579328   1.69244   1.10808  -0.67987  -0.04871
  15   25076.3    398.8   0.179169017   2.35221  -0.15913   0.62851  -1.38991
  16   25153.8    397.6   0.348811514   4.56523  -0.97470   0.53216   1.82537
  17   25223.3    396.5   0.009507861   0.12410  -0.10084   0.32374   0.09548
  18   25938.7    385.5   0.077578308   0.98462  -0.98926  -0.00032   0.07736
  19   26022.8    384.3   0.139487939   1.76465   0.62600   0.93830   0.70168
  20   26241.2    381.1   0.095875831   1.20282   0.65130  -0.72906  -0.49710
  21   26527.1    377.0   0.140558631   1.74439   1.15553  -0.18731  -0.61161
  22   26779.9    373.4   0.028221536   0.34693  -0.06051  -0.07370  -0.58124
  23   26822.0    372.8   0.016096469   0.19757  -0.07040   0.01070   0.43874
  24   28296.5    353.4   0.004177646   0.04860  -0.08738   0.20015   0.03014
  25   28910.3    345.9   0.014021780   0.15967  -0.15115  -0.26443   0.25865
  26   29689.9    336.8   0.002672351   0.02963  -0.12687   0.01245   0.11568
  27   29778.0    335.8   0.006353970   0.07025  -0.05907  -0.23201   0.11370
  28   29874.5    334.7   0.042869543   0.47242  -0.35373  -0.55403  -0.20085
  29   30107.0    332.1   0.043547598   0.47618   0.02085   0.08272  -0.68477
  30   30821.0    324.5   0.032951466   0.35197  -0.51726   0.15991   0.24256
  31   30836.7    324.3   0.191538704   2.04486   0.04350  -0.94362   1.07357
  32   31285.7    319.6   0.331148569   3.48460  -0.55751   1.18414  -1.33102
  33   31311.1    319.4   0.039680332   0.41721  -0.26679  -0.20472   0.55147
  34   31512.9    317.3   0.059357395   0.62010   0.20369  -0.12912   0.74963
  35   31935.7    313.1   0.004915843   0.05068  -0.11613  -0.11951  -0.15135
  36   32084.2    311.7   0.111868325   1.14787   0.35080  -0.33289   0.95603
  37   32504.9    307.6   0.060524116   0.61299   0.19949  -0.71744   0.24183
  38   32662.9    306.2   0.070317784   0.70874   0.04712  -0.78686   0.29558
  39   32964.7    303.4   0.214906569   2.14623   0.28186   1.29453   0.62528
  40   33176.3    301.4   0.314983551   3.12562   0.96931  -0.39794   1.42397
  41   33305.8    300.2   0.014589510   0.14421  -0.34573  -0.14415  -0.06245
  42   33695.4    296.8   0.343832435   3.35932   0.35834   0.39383   1.75380
  43   34228.5    292.2   0.109593076   1.05407  -0.63891  -0.67769  -0.43199
  44   34338.9    291.2   0.193923074   1.85917   0.20849   1.04202  -0.85433
  45   34699.7    288.2   0.115279051   1.09370  -0.50753  -0.60296  -0.68743
  46   35009.5    285.6   0.036265689   0.34102   0.52807  -0.00168   0.24933
  47   35070.4    285.1   0.057180347   0.53676  -0.40000  -0.18522  -0.58520
  48   35171.1    284.3   0.027392700   0.25640  -0.41027  -0.28635   0.07804
  49   35519.6    281.5   0.176203919   1.63314   0.18095   1.10973  -0.60737
  50   35564.0    281.2   0.450436398   4.16964   0.58444   0.67300  -1.83716
  51   35747.7    279.7   0.048614295   0.44770  -0.63554   0.20894  -0.01163
  52   35910.8    278.5   0.034369923   0.31509  -0.12801  -0.45020   0.30986
  53   35953.0    278.1   0.044739194   0.40967   0.03346   0.55370  -0.31931
  54   36247.5    275.9   0.065173995   0.59193  -0.00242  -0.59612   0.48639
  55   36315.6    275.4   0.026749907   0.24250   0.39266  -0.21948   0.20036
  56   36443.1    274.4   0.018613912   0.16815  -0.03376  -0.15964   0.37620
  57   36485.0    274.1   0.002692401   0.02429   0.14643   0.04351  -0.03096
  58   36624.8    273.0   0.197405281   1.77443  -0.15740   0.22337   1.30375
  59   36764.5    272.0   0.065582374   0.58727  -0.42301  -0.55268   0.32074
  60   37126.5    269.3   0.014803566   0.13127   0.17884   0.28828   0.12719
  61   37189.6    268.9   0.036837583   0.32610  -0.10904   0.10542   0.55054
  62   37235.3    268.6   0.027426231   0.24249  -0.08413  -0.37311   0.31016
  63   37387.6    267.5   0.032690476   0.28785   0.34375   0.07654  -0.40476
  64   37556.8    266.3   0.179956362   1.57744  -0.20309  -0.77021   0.97107
  65   37647.2    265.6   0.198697242   1.73754  -0.72308   0.60042  -0.92422
  66   37861.2    264.1   0.030811478   0.26791  -0.28089  -0.43367  -0.03074
  67   38214.1    261.7   0.034481544   0.29706   0.39682   0.13184  -0.34959
  68   38323.4    260.9   0.045033321   0.38685  -0.54551  -0.28248   0.09736
  69   38449.1    260.1   0.068401670   0.58567  -0.35505   0.02778   0.67738
  70   38620.4    258.9   0.061641582   0.52545   0.63064   0.33922  -0.11257
  71   38722.1    258.3   0.014209617   0.12081   0.30312   0.10750  -0.13179
  72   38870.9    257.3   0.062766799   0.53160  -0.21190   0.14932  -0.68147
  73   39008.5    256.4   0.031295482   0.26412   0.44062   0.25629   0.06549
  74   39278.6    254.6   0.027778136   0.23282   0.45449  -0.10422  -0.12408
  75   39483.1    253.3   0.028969569   0.24155  -0.45251  -0.12652  -0.14415
  76   39758.0    251.5   0.056868951   0.47090   0.26264  -0.18215   0.60724
  77   39831.6    251.1   0.148635263   1.22848   0.44292   0.18465   0.99911
  78   39939.3    250.4   0.005367288   0.04424   0.16924   0.11846   0.03957
  79   40108.2    249.3   0.009352456   0.07677   0.13792  -0.12455  -0.20550
  80   40254.6    248.4   0.164598132   1.34612  -0.77992  -0.03730  -0.85817
  81   40313.4    248.1   0.061184192   0.49965   0.31735   0.58062   0.24864

FINAL SINGLE POINT ENERGY     -3442.597290334648

DIPOLE MOMENT
-------------
                                X             Y             Z
Electronic contribution:     11.78589      -0.25282       5.92812
Nuclear contribution   :    -12.01862       0.21354      -2.60179
                        -----------------------------------------
Total Dipole Moment    :     -0.23274      -0.03928       3.32634
                        -----------------------------------------
Magnitude (a.u.)       :      3.33470
Magnitude (Debye)      :      8.47613

Rotational constants in cm-1:     0.000904     0.000210     0.000186
Rotational constants in MHz :    27.108390     6.304913     5.565442

                             ****ORCA TERMINATED NORMALLY****
TOTAL RUN TIME: 0 days 0 hours 16 minutes 45 seconds 165 msec
