                         Program Version 4.2.0 -  RELEASE  -
|  1> # ORCA input file
|  2> # SCF done       -205.437200084965          0.000746951878
|  3> ! CAM-B3LYP def2-SVP def2/J RIJCOSX Grid4 TightSCF
|  4> %maxcore 5000
|  5> %tddft
|  6>     Mode sTDDFT
|  7>     Ethresh 5.0
|  8>     maxcore 5000
|  9> end
| 10>
| 11> %pal
| 12>   nprocs 6
| 13>   end
| 14> * xyz 0 1
| 15>    C       -7.88899         3.04453         1.26983
| 16>    C       -8.45135         3.20330         2.52663
| 17>    C       -8.23979         2.26609         3.52969
| 18>    C       -7.45172         1.14831         3.30691
| 19>    C       -6.87560         0.98052         2.05634
| 20>    C       -7.10110         1.92821         1.02972
| 21>    C       -6.42675         1.48963        -0.17877
| 22>    C       -6.31483         2.18142        -1.34782
| 23>    C       -6.82871         3.48489        -1.54302
| 24>    N       -7.21443         4.54177        -1.76452
| 25>    C       -5.67467         1.72579        -2.52430
| 26>    N       -5.20305         1.42746        -3.52667
| 27>    C       -5.89538         0.14749         0.10386
| 28>    C       -5.99564        -0.05802         1.55403
| 29>    C       -5.30428        -0.95512         2.31524
| 30>    C       -4.28479        -1.81585         1.86293
| 31>    N       -3.42365        -2.52443         1.58877
| 32>    C       -5.46771        -1.09488         3.71401
| 33>    N       -5.55413        -1.27360         4.84317
| 34>    C       -5.56592        -0.73915        -0.85160
| 35>    C       -5.23142        -2.14857        -0.71871
| 36>    C       -6.08888        -3.12627        -0.20174
| 37>    C       -7.43518        -2.84679         0.34419
| 38>    O       -7.97261        -1.78269         0.45659
| 39>    S       -8.18901        -4.37946         0.86023
| 40>    C       -6.77469        -5.37446         0.34514
| 41>    O       -6.76644        -6.56348         0.40729
| 42>    C       -5.72376        -4.47197        -0.16816
| 43>    C       -4.48153        -4.92960        -0.62582
| 44>    C       -3.62931        -3.95009        -1.15483
| 45>    C       -4.00123        -2.61465        -1.20146
| 46>    C       -2.94798        -1.68697        -1.66078
| 47>    O       -3.01106        -0.49407        -1.68871
| 48>    S       -1.50955        -2.63603        -2.12239
| 49>    C       -2.25674        -4.20477        -1.65032
| 50>    O       -1.68423        -5.24591        -1.74713
| 51>    C       -4.06451        -6.32491        -0.48069
| 52>    C       -3.78336        -7.13482        -1.57082
| 53>    C       -3.34926        -8.44356        -1.36211
| 54>    C       -3.21749        -8.87103        -0.03598
| 55>    N       -3.47357        -8.09668         0.99746
| 56>    C       -3.88224        -6.86498         0.79842
| 57>    C       -3.01584        -9.28166        -2.49724
| 58>    C       -3.05152       -10.61942        -2.48211
| 59>    C       -2.62393       -11.46588        -3.57539
| 60>    C       -1.81601       -12.59036        -3.31521
| 61>    C       -1.39628       -13.02846        -1.96500
| 62>    O       -1.60524       -12.49850        -0.91695
| 63>    S       -0.45490       -14.55607        -2.11013
| 64>    C       -0.58556       -14.59209        -3.88672
| 65>    O       -0.16124       -15.46535        -4.58387
| 66>    C       -1.32906       -13.39566        -4.33093
| 67>    C       -1.60397       -13.16217        -5.68388
| 68>    C       -2.44972       -12.07982        -5.94727
| 69>    C       -2.95660       -11.26770        -4.92882
| 70>    C       -3.94427       -10.27538        -5.40473
| 71>    O       -4.61590        -9.51475        -4.78057
| 72>    S       -4.07598       -10.38903        -7.20266
| 73>    C       -2.88785       -11.71031        -7.31046
| 74>    O       -2.54309       -12.19770        -8.34841
| 75>    C       -0.96407       -13.99330        -6.69250
| 76>    C       -1.51815       -14.76201        -7.64599
| 77>    C       -0.75185       -15.38093        -8.73816
| 78>    C        0.58755       -15.63232        -8.75319
| 79>    C        1.49942       -15.32772        -7.71517
| 80>    N        2.31009       -15.09102        -6.93868
| 81>    C        1.25843       -16.25784        -9.82999
| 82>    N        1.85990       -16.76368       -10.66500
| 83>    C       -1.70333       -15.66645        -9.79689
| 84>    C       -3.01079       -15.38597        -9.33318
| 85>    C       -4.10297       -15.53857       -10.17439
| 86>    C       -3.88564       -15.97997       -11.46986
| 87>    C       -2.60417       -16.26746       -11.92202
| 88>    C       -1.50279       -16.11269       -11.09498
| 89>    C       -2.93918       -14.97727        -7.94282
| 90>    C       -3.98296       -14.93352        -7.06476
| 91>    C       -5.33409       -15.13099        -7.43436
| 92>    N       -6.44951       -15.25868        -7.66704
| 93>    C       -3.87406       -14.76555        -5.67013
| 94>    N       -3.86318       -14.67042        -4.52596
| 95>    H       -8.07300         3.77514         0.49952
| 96>    H       -9.06852         4.06623         2.72407
| 97>    H       -8.69693         2.40644         4.49703
| 98>    H       -7.30692         0.42386         4.09122
| 99>    H       -5.55452        -0.39589        -1.87906
|100>    H       -3.92590        -6.76892        -2.57715
|101>    H       -2.86036        -9.86351         0.20133
|102>    H       -4.05223        -6.26606         1.68261
|103>    H       -2.69853        -8.75020        -3.38443
|104>    H       -3.33004       -11.13937        -1.57649
|105>    H        0.11764       -13.94943        -6.64626
|106>    H       -5.10162       -15.30848        -9.84139
|107>    H       -4.72618       -16.09870       -12.13610
|108>    H       -2.46011       -16.61061       -12.93498
|109>    H       -0.51423       -16.32927       -11.46506
|110> *
|111>
|112>                          ****END OF INPUT****

CARTESIAN COORDINATES (ANGSTROEM)
---------------------------------
  C     -7.888990    3.044530    1.269830
  C     -8.451350    3.203300    2.526630
  C     -8.239790    2.266090    3.529690
  C     -7.451720    1.148310    3.306910
  C     -6.875600    0.980520    2.056340
  C     -7.101100    1.928210    1.029720
  C     -6.426750    1.489630   -0.178770
  C     -6.314830    2.181420   -1.347820
  C     -6.828710    3.484890   -1.543020
  N     -7.214430    4.541770   -1.764520
  C     -5.674670    1.725790   -2.524300
  N     -5.203050    1.427460   -3.526670
  C     -5.895380    0.147490    0.103860
  C     -5.995640   -0.058020    1.554030
  C     -5.304280   -0.955120    2.315240
  C     -4.284790   -1.815850    1.862930
  N     -3.423650   -2.524430    1.588770
  C     -5.467710   -1.094880    3.714010
  N     -5.554130   -1.273600    4.843170
  C     -5.565920   -0.739150   -0.851600
  C     -5.231420   -2.148570   -0.718710
  C     -6.088880   -3.126270   -0.201740
  C     -7.435180   -2.846790    0.344190
  O     -7.972610   -1.782690    0.456590
  S     -8.189010   -4.379460    0.860230
  C     -6.774690   -5.374460    0.345140
  O     -6.766440   -6.563480    0.407290
  C     -5.723760   -4.471970   -0.168160
  C     -4.481530   -4.929600   -0.625820
  C     -3.629310   -3.950090   -1.154830
  C     -4.001230   -2.614650   -1.201460
  C     -2.947980   -1.686970   -1.660780
  O     -3.011060   -0.494070   -1.688710
  S     -1.509550   -2.636030   -2.122390
  C     -2.256740   -4.204770   -1.650320
  O     -1.684230   -5.245910   -1.747130
  C     -4.064510   -6.324910   -0.480690
  C     -3.783360   -7.134820   -1.570820
  C     -3.349260   -8.443560   -1.362110
  C     -3.217490   -8.871030   -0.035980
  N     -3.473570   -8.096680    0.997460
  C     -3.882240   -6.864980    0.798420
  C     -3.015840   -9.281660   -2.497240
  C     -3.051520  -10.619420   -2.482110
  C     -2.623930  -11.465880   -3.575390
  C     -1.816010  -12.590360   -3.315210
  C     -1.396280  -13.028460   -1.965000
  O     -1.605240  -12.498500   -0.916950
  S     -0.454900  -14.556070   -2.110130
  C     -0.585560  -14.592090   -3.886720
  O     -0.161240  -15.465350   -4.583870
  C     -1.329060  -13.395660   -4.330930
  C     -1.603970  -13.162170   -5.683880
  C     -2.449720  -12.079820   -5.947270
  C     -2.956600  -11.267700   -4.928820
  C     -3.944270  -10.275380   -5.404730
  O     -4.615900   -9.514750   -4.780570
  S     -4.075980  -10.389030   -7.202660
  C     -2.887850  -11.710310   -7.310460
  O     -2.543090  -12.197700   -8.348410
  C     -0.964070  -13.993300   -6.692500
  C     -1.518150  -14.762010   -7.645990
  C     -0.751850  -15.380930   -8.738160
  C      0.587550  -15.632320   -8.753190
  C      1.499420  -15.327720   -7.715170
  N      2.310090  -15.091020   -6.938680
  C      1.258430  -16.257840   -9.829990
  N      1.859900  -16.763680  -10.665000
  C     -1.703330  -15.666450   -9.796890
  C     -3.010790  -15.385970   -9.333180
  C     -4.102970  -15.538570  -10.174390
  C     -3.885640  -15.979970  -11.469860
  C     -2.604170  -16.267460  -11.922020
  C     -1.502790  -16.112690  -11.094980
  C     -2.939180  -14.977270   -7.942820
  C     -3.982960  -14.933520   -7.064760
  C     -5.334090  -15.130990   -7.434360
  N     -6.449510  -15.258680   -7.667040
  C     -3.874060  -14.765550   -5.670130
  N     -3.863180  -14.670420   -4.525960
  H     -8.073000    3.775140    0.499520
  H     -9.068520    4.066230    2.724070
  H     -8.696930    2.406440    4.497030
  H     -7.306920    0.423860    4.091220
  H     -5.554520   -0.395890   -1.879060
  H     -3.925900   -6.768920   -2.577150
  H     -2.860360   -9.863510    0.201330
  H     -4.052230   -6.266060    1.682610
  H     -2.698530   -8.750200   -3.384430
  H     -3.330040  -11.139370   -1.576490
  H      0.117640  -13.949430   -6.646260
  H     -5.101620  -15.308480   -9.841390
  H     -4.726180  -16.098700  -12.136100
  H     -2.460110  -16.610610  -12.934980
  H     -0.514230  -16.329270  -11.465060

 Total Charge           Charge          ....    0
 Multiplicity           Mult            ....    1
 Number of Electrons    NEL             ....  560
 Basis Dimension        Dim             .... 1211

ORBITAL ENERGIES
----------------

  NO   OCC          E(Eh)            E(eV)
   0   2.0000     -88.970940     -2421.0224
   1   2.0000     -88.968445     -2420.9545
   2   2.0000     -88.967701     -2420.9342
   3   2.0000     -88.963629     -2420.8234
   4   2.0000     -19.264170      -524.2047
   5   2.0000     -19.262144      -524.1496
   6   2.0000     -19.261355      -524.1281
   7   2.0000     -19.260604      -524.1077
   8   2.0000     -19.260201      -524.0967
   9   2.0000     -19.258724      -524.0565
  10   2.0000     -19.258021      -524.0374
  11   2.0000     -19.257657      -524.0275
  12   2.0000     -14.443264      -393.0212
  13   2.0000     -14.439067      -392.9070
  14   2.0000     -14.437140      -392.8545
  15   2.0000     -14.434543      -392.7839
  16   2.0000     -14.434208      -392.7748
  17   2.0000     -14.433317      -392.7505
  18   2.0000     -14.430897      -392.6847
  19   2.0000     -14.430572      -392.6758
  20   2.0000     -14.408415      -392.0729
  21   2.0000     -10.427814      -283.7552
  22   2.0000     -10.424229      -283.6577
  23   2.0000     -10.423888      -283.6484
  24   2.0000     -10.423094      -283.6268
  25   2.0000     -10.422989      -283.6239
  26   2.0000     -10.421552      -283.5848
  27   2.0000     -10.419167      -283.5199
  28   2.0000     -10.417195      -283.4663
  29   2.0000     -10.371332      -282.2183
  30   2.0000     -10.367880      -282.1243
  31   2.0000     -10.367710      -282.1197
  32   2.0000     -10.367250      -282.1072
  33   2.0000     -10.364443      -282.0308
  34   2.0000     -10.363859      -282.0149
  35   2.0000     -10.362201      -281.9698
  36   2.0000     -10.359498      -281.8963
  37   2.0000     -10.358998      -281.8827
  38   2.0000     -10.353264      -281.7266
  39   2.0000     -10.352375      -281.7024
  40   2.0000     -10.351741      -281.6852
  41   2.0000     -10.350220      -281.6438
  42   2.0000     -10.347660      -281.5741
  43   2.0000     -10.347187      -281.5613
  44   2.0000     -10.346572      -281.5445
  45   2.0000     -10.346483      -281.5421
  46   2.0000     -10.346036      -281.5300
  47   2.0000     -10.345225      -281.5079
  48   2.0000     -10.343325      -281.4562
  49   2.0000     -10.342261      -281.4272
  50   2.0000     -10.341938      -281.4184
  51   2.0000     -10.341525      -281.4072
  52   2.0000     -10.341271      -281.4003
  53   2.0000     -10.339035      -281.3394
  54   2.0000     -10.338753      -281.3318
  55   2.0000     -10.336878      -281.2807
  56   2.0000     -10.336221      -281.2629
  57   2.0000     -10.335390      -281.2403
  58   2.0000     -10.334880      -281.2264
  59   2.0000     -10.332208      -281.1537
  60   2.0000     -10.332153      -281.1522
  61   2.0000     -10.327730      -281.0318
  62   2.0000     -10.327408      -281.0231
  63   2.0000     -10.325021      -280.9581
  64   2.0000     -10.324711      -280.9497
  65   2.0000     -10.317523      -280.7541
  66   2.0000     -10.314216      -280.6641
  67   2.0000     -10.313664      -280.6491
  68   2.0000     -10.313478      -280.6440
  69   2.0000     -10.312716      -280.6233
  70   2.0000     -10.312314      -280.6123
  71   2.0000     -10.311785      -280.5979
  72   2.0000     -10.311191      -280.5818
  73   2.0000     -10.310303      -280.5576
  74   2.0000     -10.309923      -280.5473
  75   2.0000     -10.305492      -280.4267
  76   2.0000     -10.304519      -280.4002
  77   2.0000     -10.303464      -280.3715
  78   2.0000     -10.296595      -280.1846
  79   2.0000     -10.294774      -280.1351
  80   2.0000      -8.070088      -219.5983
  81   2.0000      -8.067696      -219.5332
  82   2.0000      -8.066811      -219.5091
  83   2.0000      -8.062787      -219.3996
  84   2.0000      -6.038939      -164.3279
  85   2.0000      -6.036500      -164.2615
  86   2.0000      -6.035719      -164.2403
  87   2.0000      -6.035629      -164.2378
  88   2.0000      -6.033251      -164.1731
  89   2.0000      -6.032355      -164.1487
  90   2.0000      -6.031714      -164.1313
  91   2.0000      -6.031189      -164.1170
  92   2.0000      -6.028822      -164.0526
  93   2.0000      -6.028346      -164.0396
  94   2.0000      -6.027858      -164.0264
  95   2.0000      -6.023789      -163.9156
  96   2.0000      -1.188905       -32.3517
  97   2.0000      -1.186349       -32.2822
  98   2.0000      -1.186257       -32.2797
  99   2.0000      -1.184397       -32.2291
 100   2.0000      -1.182634       -32.1811
 101   2.0000      -1.182301       -32.1720
 102   2.0000      -1.182137       -32.1676
 103   2.0000      -1.178617       -32.0718
 104   2.0000      -1.054443       -28.6928
 105   2.0000      -1.050534       -28.5865
 106   2.0000      -1.049331       -28.5538
 107   2.0000      -1.040679       -28.3183
 108   2.0000      -1.037047       -28.2195
 109   2.0000      -1.034403       -28.1475
 110   2.0000      -1.030866       -28.0513
 111   2.0000      -1.023473       -27.8501
 112   2.0000      -1.020147       -27.7596
 113   2.0000      -1.017427       -27.6856
 114   2.0000      -1.014416       -27.6037
 115   2.0000      -1.011744       -27.5310
 116   2.0000      -1.008739       -27.4492
 117   2.0000      -0.985755       -26.8238
 118   2.0000      -0.981576       -26.7100
 119   2.0000      -0.976482       -26.5714
 120   2.0000      -0.973256       -26.4836
 121   2.0000      -0.957545       -26.0561
 122   2.0000      -0.954378       -25.9699
 123   2.0000      -0.953828       -25.9550
 124   2.0000      -0.951158       -25.8823
 125   2.0000      -0.940971       -25.6051
 126   2.0000      -0.938458       -25.5367
 127   2.0000      -0.918521       -24.9942
 128   2.0000      -0.911438       -24.8015
 129   2.0000      -0.908086       -24.7103
 130   2.0000      -0.895054       -24.3556
 131   2.0000      -0.884232       -24.0612
 132   2.0000      -0.880183       -23.9510
 133   2.0000      -0.877572       -23.8799
 134   2.0000      -0.871455       -23.7135
 135   2.0000      -0.868590       -23.6355
 136   2.0000      -0.867507       -23.6061
 137   2.0000      -0.842973       -22.9385
 138   2.0000      -0.817725       -22.2514
 139   2.0000      -0.812620       -22.1125
 140   2.0000      -0.811991       -22.0954
 141   2.0000      -0.808449       -21.9990
 142   2.0000      -0.807874       -21.9834
 143   2.0000      -0.804879       -21.9019
 144   2.0000      -0.775811       -21.1109
 145   2.0000      -0.772189       -21.0123
 146   2.0000      -0.752581       -20.4788
 147   2.0000      -0.742633       -20.2081
 148   2.0000      -0.739120       -20.1125
 149   2.0000      -0.735930       -20.0257
 150   2.0000      -0.732727       -19.9385
 151   2.0000      -0.729552       -19.8521
 152   2.0000      -0.729153       -19.8413
 153   2.0000      -0.726140       -19.7593
 154   2.0000      -0.718220       -19.5438
 155   2.0000      -0.710183       -19.3251
 156   2.0000      -0.695522       -18.9261
 157   2.0000      -0.685325       -18.6486
 158   2.0000      -0.682289       -18.5660
 159   2.0000      -0.681510       -18.5448
 160   2.0000      -0.678591       -18.4654
 161   2.0000      -0.676328       -18.4038
 162   2.0000      -0.672688       -18.3048
 163   2.0000      -0.668659       -18.1951
 164   2.0000      -0.654917       -17.8212
 165   2.0000      -0.649028       -17.6609
 166   2.0000      -0.644966       -17.5504
 167   2.0000      -0.643566       -17.5123
 168   2.0000      -0.643290       -17.5048
 169   2.0000      -0.634925       -17.2772
 170   2.0000      -0.627992       -17.0885
 171   2.0000      -0.624951       -17.0058
 172   2.0000      -0.623463       -16.9653
 173   2.0000      -0.617275       -16.7969
 174   2.0000      -0.605658       -16.4808
 175   2.0000      -0.604059       -16.4373
 176   2.0000      -0.602420       -16.3927
 177   2.0000      -0.600936       -16.3523
 178   2.0000      -0.600205       -16.3324
 179   2.0000      -0.593396       -16.1471
 180   2.0000      -0.590217       -16.0606
 181   2.0000      -0.582747       -15.8574
 182   2.0000      -0.580253       -15.7895
 183   2.0000      -0.576612       -15.6904
 184   2.0000      -0.574494       -15.6328
 185   2.0000      -0.572842       -15.5878
 186   2.0000      -0.566030       -15.4025
 187   2.0000      -0.564707       -15.3665
 188   2.0000      -0.562400       -15.3037
 189   2.0000      -0.560420       -15.2498
 190   2.0000      -0.558878       -15.2079
 191   2.0000      -0.557346       -15.1662
 192   2.0000      -0.556610       -15.1461
 193   2.0000      -0.555730       -15.1222
 194   2.0000      -0.552887       -15.0448
 195   2.0000      -0.551663       -15.0115
 196   2.0000      -0.550213       -14.9721
 197   2.0000      -0.549331       -14.9480
 198   2.0000      -0.548418       -14.9232
 199   2.0000      -0.547302       -14.8929
 200   2.0000      -0.543822       -14.7982
 201   2.0000      -0.539989       -14.6939
 202   2.0000      -0.535776       -14.5792
 203   2.0000      -0.531672       -14.4675
 204   2.0000      -0.529518       -14.4089
 205   2.0000      -0.528522       -14.3818
 206   2.0000      -0.527680       -14.3589
 207   2.0000      -0.522235       -14.2107
 208   2.0000      -0.520824       -14.1723
 209   2.0000      -0.519909       -14.1474
 210   2.0000      -0.519186       -14.1278
 211   2.0000      -0.517016       -14.0687
 212   2.0000      -0.516345       -14.0505
 213   2.0000      -0.514764       -14.0074
 214   2.0000      -0.503220       -13.6933
 215   2.0000      -0.499831       -13.6011
 216   2.0000      -0.499629       -13.5956
 217   2.0000      -0.497991       -13.5510
 218   2.0000      -0.493010       -13.4155
 219   2.0000      -0.492185       -13.3930
 220   2.0000      -0.491452       -13.3731
 221   2.0000      -0.489834       -13.3291
 222   2.0000      -0.488652       -13.2969
 223   2.0000      -0.485324       -13.2063
 224   2.0000      -0.480725       -13.0812
 225   2.0000      -0.477848       -13.0029
 226   2.0000      -0.474899       -12.9227
 227   2.0000      -0.472740       -12.8639
 228   2.0000      -0.471026       -12.8173
 229   2.0000      -0.469202       -12.7676
 230   2.0000      -0.467877       -12.7316
 231   2.0000      -0.464814       -12.6482
 232   2.0000      -0.463703       -12.6180
 233   2.0000      -0.461883       -12.5685
 234   2.0000      -0.460869       -12.5409
 235   2.0000      -0.460717       -12.5367
 236   2.0000      -0.459176       -12.4948
 237   2.0000      -0.456120       -12.4117
 238   2.0000      -0.454787       -12.3754
 239   2.0000      -0.452414       -12.3108
 240   2.0000      -0.451172       -12.2770
 241   2.0000      -0.448839       -12.2135
 242   2.0000      -0.445457       -12.1215
 243   2.0000      -0.443754       -12.0752
 244   2.0000      -0.442753       -12.0479
 245   2.0000      -0.439915       -11.9707
 246   2.0000      -0.439689       -11.9645
 247   2.0000      -0.438411       -11.9298
 248   2.0000      -0.430944       -11.7266
 249   2.0000      -0.428378       -11.6568
 250   2.0000      -0.425098       -11.5675
 251   2.0000      -0.422620       -11.5001
 252   2.0000      -0.413669       -11.2565
 253   2.0000      -0.402464       -10.9516
 254   2.0000      -0.398705       -10.8493
 255   2.0000      -0.397196       -10.8083
 256   2.0000      -0.393901       -10.7186
 257   2.0000      -0.392665       -10.6849
 258   2.0000      -0.390731       -10.6323
 259   2.0000      -0.389485       -10.5984
 260   2.0000      -0.388874       -10.5818
 261   2.0000      -0.388324       -10.5668
 262   2.0000      -0.373600       -10.1662
 263   2.0000      -0.371984       -10.1222
 264   2.0000      -0.370077       -10.0703
 265   2.0000      -0.369282       -10.0487
 266   2.0000      -0.367666       -10.0047
 267   2.0000      -0.366147        -9.9634
 268   2.0000      -0.363602        -9.8941
 269   2.0000      -0.359802        -9.7907
 270   2.0000      -0.356109        -9.6902
 271   2.0000      -0.356060        -9.6889
 272   2.0000      -0.348039        -9.4706
 273   2.0000      -0.346335        -9.4243
 274   2.0000      -0.343010        -9.3338
 275   2.0000      -0.335813        -9.1379
 276   2.0000      -0.330321        -8.9885
 277   2.0000      -0.318099        -8.6559
 278   2.0000      -0.316185        -8.6038
 279   2.0000      -0.302860        -8.2412
 280   0.0000      -0.117543        -3.1985
 281   0.0000      -0.114036        -3.1031
 282   0.0000      -0.109801        -2.9878
 283   0.0000      -0.105810        -2.8792
 284   0.0000      -0.100389        -2.7317

MULLIKEN ATOMIC CHARGES
-----------------------
   0 C :   -0.036849
   1 C :    0.052946
   2 C :    0.052144
   3 C :   -0.028650
   4 C :    0.010515
   5 C :    0.022895
   6 C :    0.290456
   7 C :   -0.344376
   8 C :   -0.195960
   9 N :    0.173791
  10 C :   -0.176520
  11 N :    0.176713
  12 C :    0.013587
  13 C :    0.290544
  14 C :   -0.360696
  15 C :   -0.164948
  16 N :    0.163001
  17 C :   -0.199097
  18 N :    0.179932
  19 C :   -0.031670
  20 C :   -0.084730
  21 C :    0.079288
  22 C :    0.042126
  23 O :   -0.136670
  24 S :    0.040718
  25 C :    0.029605
  26 O :   -0.094252
  27 C :    0.044816
  28 C :    0.026438
  29 C :    0.076605
  30 C :    0.064831
  31 C :    0.052928
  32 O :   -0.119365
  33 S :    0.043996
  34 C :    0.040287
  35 O :   -0.105625
  36 C :   -0.066463
  37 C :    0.064407
  38 C :    0.014693
  39 C :    0.002340
  40 N :   -0.047348
  41 C :    0.050687
  42 C :    0.070264
  43 C :   -0.038018
  44 C :    0.035210
  45 C :    0.070151
  46 C :    0.040644
  47 O :   -0.118970
  48 S :    0.046422
  49 C :    0.058886
  50 O :   -0.119622
  51 C :    0.055437
  52 C :   -0.086358
  53 C :    0.068923
  54 C :    0.043300
  55 C :    0.019692
  56 O :   -0.107945
  57 S :    0.034270
  58 C :    0.043102
  59 O :   -0.135218
  60 C :   -0.027129
  61 C :    0.011355
  62 C :    0.287183
  63 C :   -0.338521
  64 C :   -0.179546
  65 N :    0.174629
  66 C :   -0.193603
  67 N :    0.170258
  68 C :    0.024946
  69 C :    0.011063
  70 C :   -0.028259
  71 C :    0.048013
  72 C :    0.054694
  73 C :   -0.036772
  74 C :    0.284008
  75 C :   -0.358188
  76 C :   -0.195271
  77 N :    0.176124
  78 C :   -0.166734
  79 N :    0.163237
  80 H :    0.010307
  81 H :    0.010087
  82 H :    0.009375
  83 H :    0.010701
  84 H :    0.052581
  85 H :   -0.012837
  86 H :    0.016183
  87 H :    0.002537
  88 H :    0.001757
  89 H :    0.040845
  90 H :    0.053107
  91 H :    0.009203
  92 H :    0.009783
  93 H :    0.008971
  94 H :    0.008675
Sum of atomic charges:    0.0000000

LOEWDIN ATOMIC CHARGES
----------------------
   0 C :    0.007817
   1 C :    0.010262
   2 C :    0.009602
   3 C :    0.008910
   4 C :   -0.006430
   5 C :   -0.007014
   6 C :    0.078989
   7 C :   -0.114628
   8 C :   -0.018016
   9 N :   -0.034266
  10 C :   -0.021689
  11 N :   -0.029532
  12 C :   -0.017602
  13 C :    0.081673
  14 C :   -0.128273
  15 C :   -0.012348
  16 N :   -0.051959
  17 C :   -0.020146
  18 N :   -0.031704
  19 C :    0.059548
  20 C :    0.013818
  21 C :   -0.048191
  22 C :   -0.049766
  23 O :   -0.119445
  24 S :    0.321171
  25 C :   -0.041269
  26 O :   -0.086644
  27 C :   -0.047514
  28 C :    0.051062
  29 C :   -0.036811
  30 C :   -0.036699
  31 C :   -0.044092
  32 O :   -0.097985
  33 S :    0.326676
  34 C :   -0.036627
  35 O :   -0.094198
  36 C :   -0.055506
  37 C :    0.039196
  38 C :   -0.046863
  39 C :    0.045860
  40 N :   -0.056079
  41 C :    0.044398
  42 C :    0.033872
  43 C :   -0.033004
  44 C :    0.050446
  45 C :   -0.040630
  46 C :   -0.033947
  47 O :   -0.101480
  48 S :    0.328729
  49 C :   -0.043865
  50 O :   -0.098608
  51 C :   -0.034358
  52 C :    0.006612
  53 C :   -0.046395
  54 C :   -0.055769
  55 C :   -0.039377
  56 O :   -0.099568
  57 S :    0.317566
  58 C :   -0.051739
  59 O :   -0.120494
  60 C :    0.062854
  61 C :   -0.020375
  62 C :    0.079634
  63 C :   -0.115420
  64 C :   -0.021741
  65 N :   -0.030157
  66 C :   -0.017914
  67 N :   -0.035716
  68 C :   -0.006970
  69 C :   -0.006455
  70 C :    0.008424
  71 C :    0.008444
  72 C :    0.009524
  73 C :    0.007606
  74 C :    0.081342
  75 C :   -0.129203
  76 C :   -0.019691
  77 N :   -0.033912
  78 C :   -0.013007
  79 N :   -0.050491
  80 H :    0.043058
  81 H :    0.040310
  82 H :    0.040165
  83 H :    0.042884
  84 H :    0.056282
  85 H :    0.031885
  86 H :    0.028211
  87 H :    0.023635
  88 H :    0.030095
  89 H :    0.039845
  90 H :    0.056228
  91 H :    0.042483
  92 H :    0.039880
  93 H :    0.039884
  94 H :    0.042703

  Mayer bond orders larger than 0.100000
B(  0-C ,  1-C ) :   1.3776 B(  0-C ,  5-C ) :   1.3721 B(  0-C , 80-H ) :   0.9840
B(  1-C ,  2-C ) :   1.3667 B(  1-C , 81-H ) :   0.9858 B(  2-C ,  3-C ) :   1.3774
B(  2-C , 82-H ) :   0.9854 B(  3-C ,  4-C ) :   1.3726 B(  3-C , 83-H ) :   0.9835
B(  4-C ,  5-C ) :   1.3002 B(  4-C , 13-C ) :   1.0240 B(  5-C ,  6-C ) :   1.0100
B(  6-C ,  7-C ) :   1.6757 B(  6-C , 12-C ) :   1.0155 B(  7-C ,  8-C ) :   1.1477
B(  7-C , 10-C ) :   1.1345 B(  8-C ,  9-N ) :   2.9845 B( 10-C , 11-N ) :   2.9730
B( 12-C , 13-C ) :   0.9708 B( 12-C , 19-C ) :   1.8088 B( 13-C , 14-C ) :   1.6564
B( 14-C , 15-C ) :   1.1715 B( 14-C , 17-C ) :   1.1307 B( 15-C , 16-N ) :   2.9675
B( 17-C , 18-N ) :   2.9965 B( 19-C , 20-C ) :   0.9992 B( 19-C , 84-H ) :   0.8953
B( 20-C , 21-C ) :   1.3939 B( 20-C , 30-C ) :   1.4031 B( 21-C , 22-C ) :   0.8374
B( 21-C , 27-C ) :   1.2966 B( 22-C , 23-O ) :   2.1521 B( 22-C , 24-S ) :   1.0537
B( 23-O , 24-S ) :   0.1118 B( 24-S , 25-C ) :   1.0112 B( 24-S , 26-O ) :   0.1066
B( 25-C , 26-O ) :   2.2101 B( 25-C , 27-C ) :   0.8323 B( 27-C , 28-C ) :   1.4193
B( 28-C , 29-C ) :   1.4052 B( 28-C , 36-C ) :   0.9713 B( 29-C , 30-C ) :   1.3334
B( 29-C , 34-C ) :   0.8275 B( 30-C , 31-C ) :   0.8407 B( 31-C , 32-O ) :   2.1564
B( 31-C , 33-S ) :   1.0451 B( 32-O , 33-S ) :   0.1087 B( 33-S , 34-C ) :   1.0266
B( 33-S , 35-O ) :   0.1080 B( 34-C , 35-O ) :   2.1991 B( 36-C , 37-C ) :   1.3983
B( 36-C , 41-C ) :   1.3455 B( 37-C , 38-C ) :   1.3745 B( 37-C , 85-H ) :   0.9922
B( 38-C , 39-C ) :   1.3417 B( 38-C , 42-C ) :   1.0612 B( 39-C , 40-N ) :   1.5585
B( 39-C , 86-H ) :   0.9815 B( 40-N , 41-C ) :   1.5707 B( 41-C , 87-H ) :   0.9866
B( 42-C , 43-C ) :   1.7745 B( 42-C , 88-H ) :   0.9661 B( 43-C , 44-C ) :   1.0922
B( 43-C , 89-H ) :   0.9327 B( 44-C , 45-C ) :   1.3524 B( 44-C , 54-C ) :   1.3608
B( 45-C , 46-C ) :   0.8398 B( 45-C , 51-C ) :   1.3457 B( 46-C , 47-O ) :   2.1693
B( 46-C , 48-S ) :   1.0319 B( 47-O , 48-S ) :   0.1051 B( 48-S , 49-C ) :   1.0440
B( 48-S , 50-O ) :   0.1089 B( 49-C , 50-O ) :   2.1555 B( 49-C , 51-C ) :   0.8430
B( 51-C , 52-C ) :   1.4003 B( 52-C , 53-C ) :   1.4026 B( 52-C , 60-C ) :   1.0003
B( 53-C , 54-C ) :   1.3019 B( 53-C , 58-C ) :   0.8400 B( 54-C , 55-C ) :   0.8357
B( 55-C , 56-O ) :   2.2030 B( 55-C , 57-S ) :   1.0145 B( 56-O , 57-S ) :   0.1032
B( 57-S , 58-C ) :   1.0503 B( 57-S , 59-O ) :   0.1110 B( 58-C , 59-O ) :   2.1543
B( 60-C , 61-C ) :   1.8103 B( 60-C , 90-H ) :   0.8945 B( 61-C , 62-C ) :   1.0155
B( 61-C , 74-C ) :   0.9728 B( 62-C , 63-C ) :   1.6759 B( 62-C , 68-C ) :   1.0103
B( 63-C , 64-C ) :   1.1341 B( 63-C , 66-C ) :   1.1442 B( 64-C , 65-N ) :   2.9749
B( 66-C , 67-N ) :   2.9844 B( 68-C , 69-C ) :   1.3007 B( 68-C , 73-C ) :   1.3709
B( 69-C , 70-C ) :   1.3724 B( 69-C , 74-C ) :   1.0242 B( 70-C , 71-C ) :   1.3750
B( 70-C , 91-H ) :   0.9853 B( 71-C , 72-C ) :   1.3658 B( 71-C , 92-H ) :   0.9869
B( 72-C , 73-C ) :   1.3781 B( 72-C , 93-H ) :   0.9859 B( 73-C , 94-H ) :   0.9851
B( 74-C , 75-C ) :   1.6564 B( 75-C , 76-C ) :   1.1299 B( 75-C , 78-C ) :   1.1736
B( 76-C , 77-N ) :   2.9959 B( 78-C , 79-N ) :   2.9692

-----------------------------------------------------------------------------
         ABSORPTION SPECTRUM VIA TRANSITION ELECTRIC DIPOLE MOMENTS
-----------------------------------------------------------------------------
State   Energy  Wavelength   fosc         T2         TX        TY        TZ
        (cm-1)    (nm)                  (au**2)     (au)      (au)      (au)
-----------------------------------------------------------------------------
   0   21613.5    462.7   0.024002199   0.36560   0.20229  -0.20171   0.53290
   1   22105.1    452.4   0.008132909   0.12112  -0.34702  -0.01987   0.01748
   2   23964.5    417.3   0.015142575   0.20802  -0.13402  -0.30674   0.30979
   3   24788.6    403.4   0.005272033   0.07002   0.13962   0.07622   0.21145
   4   25837.1    387.0   0.122139550   1.55628   0.00610   1.02309   0.71382
   5   26250.2    380.9   0.158171684   1.98368  -0.01645  -1.20156  -0.73462
   6   27150.3    368.3   0.103023278   1.24921  -0.58864   0.85834   0.40739
   7   27253.4    366.9   0.076910358   0.92905   0.30069  -0.66997  -0.62432
   8   27605.3    362.2   0.008556366   0.10204  -0.21615  -0.19844   0.12627
   9   28416.8    351.9   0.105633696   1.22378   0.54946  -0.87228  -0.40126
  10   28536.7    350.4   0.030275260   0.34927   0.02182  -0.38371  -0.44895
  11   28882.8    346.2   0.018912997   0.21557  -0.04603   0.38739  -0.25176
  12   29311.4    341.2   0.008746719   0.09824   0.01955  -0.24217  -0.19802
  13   29746.7    336.2   0.362650616   4.01352   1.81717  -0.80670  -0.24627
  14   29896.9    334.5   0.296392186   3.26374  -0.02020  -1.18866   1.36030
  15   30405.6    328.9   0.006205035   0.06718   0.12520   0.08192   0.21166
  16   30808.5    324.6   0.165885654   1.77261  -0.46284   1.23003   0.21311
  17   30959.6    323.0   0.178777531   1.90105   0.68511  -0.49432  -1.08964
  18   31326.9    319.2   0.047084267   0.49480  -0.22419   0.50094   0.44001
  19   31378.4    318.7   0.142636466   1.49650  -0.05268  -0.88600  -0.84186
  20   31528.3    317.2   0.024415958   0.25495  -0.17917   0.14946   0.44778
  21   31717.8    315.3   0.086906418   0.90204   0.17467   0.77647   0.51828
  22   32030.4    312.2   0.013362801   0.13734  -0.10547   0.24178  -0.26031
  23   32538.8    307.3   0.010596552   0.10721   0.18196  -0.21053   0.17256
  24   32587.2    306.9   0.040589026   0.41005  -0.39504  -0.30033   0.40472
  25   32763.4    305.2   0.141643744   1.42326   0.35314  -1.10923   0.26108
  26   32970.7    303.3   0.004700584   0.04694  -0.09715   0.08380   0.17457
  27   33250.6    300.7   0.028470206   0.28188  -0.52184  -0.08274   0.05211
  28   33286.4    300.4   0.322715542   3.19175   1.32188  -1.03998  -0.60235
  29   33294.6    300.3   0.223739430   2.21230   0.21375  -0.59817   1.34492
  30   33641.3    297.3   0.041678448   0.40786  -0.36629   0.07931   0.51711
  31   33692.1    296.8   0.131571719   1.28561   0.83333   0.07597  -0.76512
  32   33873.6    295.2   0.028521021   0.27719  -0.38317  -0.28934   0.21600
  33   34008.5    294.0   0.021144911   0.20469  -0.39035   0.19246   0.12360
  34   34100.3    293.3   0.019048251   0.18390  -0.01499  -0.05046   0.42559
  35   34288.6    291.6   0.074396521   0.71430   0.54055   0.29954  -0.57652
  36   34332.7    291.3   0.153281785   1.46980  -0.59218   0.66506  -0.82269
  37   34782.6    287.5   0.002527905   0.02393  -0.03296   0.01506   0.15038
  38   34869.9    286.8   0.046736090   0.44124   0.07014   0.05489  -0.65826
  39   34955.5    286.1   0.009552349   0.08996  -0.04211  -0.21810  -0.20156
  40   35053.0    285.3   0.129116004   1.21264   0.88199   0.32935   0.57119
  41   35164.0    284.4   0.065996702   0.61787  -0.43084  -0.21937  -0.61978
  42   35495.2    281.7   0.003566664   0.03308  -0.08763   0.15882   0.01334
  43   35504.6    281.7   0.003566256   0.03307   0.16551   0.05428   0.05224
  44   35568.2    281.2   0.004472012   0.04139  -0.01743   0.04879   0.19674
  45   35790.0    279.4   0.041415382   0.38096  -0.47572   0.06704   0.38750
  46   35915.3    278.4   0.003337199   0.03059  -0.00097   0.02901  -0.17247
  47   36093.5    277.1   0.069796094   0.63662  -0.36854   0.39586   0.58659
  48   36163.5    276.5   0.050734308   0.46186  -0.37800   0.03944   0.56340
  49   36258.5    275.8   0.224300913   2.03656  -0.71072  -0.02819  -1.23719
  50   36791.8    271.8   0.398590329   3.56657  -0.84361   1.18088   1.20849
  51   37264.6    268.4   0.082336927   0.72740  -0.47853   0.08370  -0.70100
  52   37340.8    267.8   0.108505929   0.95663  -0.90093  -0.23979   0.29573
  53   37355.7    267.7   0.063186049   0.55685  -0.14924   0.65520  -0.32448
  54   37567.4    266.2   0.232701601   2.03922   0.56530  -1.12586  -0.67237
  55   37880.5    264.0   0.003112542   0.02705   0.15451  -0.04446   0.03465
  56   38059.9    262.7   0.013374521   0.11569  -0.13912   0.02539  -0.30934
  57   38072.0    262.7   0.005972427   0.05164  -0.14210  -0.14392  -0.10363
  58   38290.4    261.2   0.001926416   0.01656  -0.01465   0.03117   0.12400
  59   38325.7    260.9   0.034435010   0.29579   0.14551   0.39983   0.33876
  60   38778.2    257.9   0.003872930   0.03288   0.01635   0.06350  -0.16906
  61   38924.5    256.9   0.020281803   0.17154  -0.15973   0.37388   0.07897
  62   39298.2    254.5   0.081549050   0.68316   0.17321   0.23721   0.77259
  63   39550.9    252.8   0.001442984   0.01201  -0.02319  -0.03588   0.10092
  64   39581.0    252.6   0.004998763   0.04158   0.15608  -0.06640   0.11317
  65   39709.6    251.8   0.007213019   0.05980  -0.11777  -0.16565  -0.13597
  66   39798.0    251.3   0.006592552   0.05453   0.06612  -0.17189  -0.14358
  67   39858.4    250.9   0.011075159   0.09148   0.13293  -0.21809   0.16200
  68   40316.2    248.0   0.013096603   0.10694  -0.02176   0.02780   0.32511

FINAL SINGLE POINT ENERGY     -4939.825377895195

DIPOLE MOMENT
-------------
                                X             Y             Z
Electronic contribution:      8.68077      -2.49904       2.43237
Nuclear contribution   :    -10.71387       3.65498      -3.25984
                        -----------------------------------------
Total Dipole Moment    :     -2.03310       1.15594      -0.82747
                        -----------------------------------------
Magnitude (a.u.)       :      2.48081
Magnitude (Debye)      :      6.30571

Rotational constants in cm-1:     0.001943     0.000254     0.000246
Rotational constants in MHz :    58.256275     7.612970     7.382791

                             ****ORCA TERMINATED NORMALLY****
TOTAL RUN TIME: 0 days 0 hours 11 minutes 0 seconds 831 msec
