                         Program Version 4.2.0 -  RELEASE  -
|  1> # ORCA input file
|  2> # SCF done       -202.498426585494          0.000656975480
|  3> ! CAM-B3LYP def2-SVP def2/J RIJCOSX Grid4 TightSCF
|  4> %maxcore 5000
|  5> %tddft
|  6>     Mode sTDDFT
|  7>     Ethresh 5.0
|  8>     maxcore 5000
|  9> end
| 10>
| 11> %pal
| 12>   nprocs 6
| 13>   end
| 14> * xyz 0 1
| 15>    C       16.69097        -0.42299         8.66416
| 16>    C       16.74387        -1.52671         9.46911
| 17>    F       17.28048        -1.42428        10.69964
| 18>    C       16.25683        -2.77648         9.06411
| 19>    C       15.70663        -2.89903         7.81848
| 20>    C       15.62477        -1.79332         6.94790
| 21>    C       16.12913        -0.53141         7.37736
| 22>    C       16.06760         0.59074         6.51756
| 23>    C       15.51140         0.45265         5.27555
| 24>    C       14.99044        -0.80619         4.85917
| 25>    C       15.04836        -1.90740         5.66244
| 26>    C       14.40630        -0.66797         3.51000
| 27>    O       13.92051        -1.54224         2.82464
| 28>    C       14.49965         0.77578         3.18921
| 29>    C       15.34474         1.40173         4.17796
| 30>    C       16.07808         2.54963         4.00663
| 31>    C       16.94683         3.07998         4.97877
| 32>    N       17.65558         3.56006         5.74447
| 33>    C       16.11837         3.25038         2.78666
| 34>    N       16.21502         3.80365         1.78461
| 35>    C       13.79172         1.29197         2.14101
| 36>    C       13.40020         2.62091         1.88893
| 37>    S       13.12899         3.75879         3.18398
| 38>    C       12.38463         4.87835         2.14704
| 39>    C       12.36197         4.45627         0.83282
| 40>    C       12.97266         3.17161         0.66875
| 41>    C       13.10423         2.60488        -0.62102
| 42>    C       12.50169         3.26959        -1.68025
| 43>    C       11.84345         4.50966        -1.50136
| 44>    C       11.79687         5.11542        -0.28371
| 45>    O       12.55712         2.79391        -2.94515
| 46>    C       13.89026         1.38879        -0.82358
| 47>    C       15.18230         1.31603        -0.43240
| 48>    C       15.98552         0.14907        -0.36714
| 49>    C       15.54221        -1.13942        -0.24705
| 50>    C       16.36009        -2.26522         0.05128
| 51>    C       15.67129        -3.39797         0.34546
| 52>    C       14.26619        -3.25371         0.26841
| 53>    S       13.85747        -1.63533        -0.24438
| 54>    C       13.30236        -4.18983         0.57054
| 55>    C       13.49422        -5.51225         1.03613
| 56>    C       12.33849        -6.17840         1.29665
| 57>    C       11.16366        -5.42624         1.03778
| 58>    S       11.59330        -3.83041         0.44894
| 59>    C        9.88529        -5.87823         1.24671
| 60>    C        8.68029        -5.22850         0.94737
| 61>    S        8.62906        -3.78021        -0.02706
| 62>    C        6.92770        -3.80304        -0.11322
| 63>    C        6.37950        -4.85836         0.58870
| 64>    C        7.37198        -5.66037         1.23902
| 65>    C        6.98138        -6.74399         2.06817
| 66>    C        5.62319        -7.04368         2.14802
| 67>    C        4.66027        -6.27431         1.45947
| 68>    C        5.01429        -5.19307         0.70999
| 69>    O        5.21647        -8.04270         2.97373
| 70>    C        7.94046        -7.39023         2.94652
| 71>    C        8.15038        -8.71193         3.14131
| 72>    C        7.52963        -9.75467         2.41138
| 73>    C        7.84162       -11.08104         2.45830
| 74>    C        6.85387       -12.08827         1.99183
| 75>    O        5.86778       -11.88388         1.31952
| 76>    C        7.30023       -13.36823         2.57901
| 77>    C        6.68276       -14.58476         2.56114
| 78>    C        7.28297       -15.67359         3.23362
| 79>    C        8.51671       -15.47598         3.91921
| 80>    C        9.10311       -16.56196         4.59763
| 81>    C        8.48045       -17.77894         4.58111
| 82>    C        7.26934       -17.99445         3.91024
| 83>    C        6.68573       -16.95032         3.24764
| 84>    F        9.03915       -18.81779         5.22976
| 85>    C        9.13989       -14.20605         3.91227
| 86>    C        8.54339       -13.16963         3.24695
| 87>    C        8.95736       -11.78341         3.04755
| 88>    C       10.24020       -11.31379         3.18712
| 89>    C       10.67907       -10.06397         2.71153
| 90>    N       11.10992        -9.08300         2.29687
| 91>    C       11.29983       -12.07267         3.72323
| 92>    N       12.19443       -12.63581         4.17188
| 93>    H       17.07938         0.52289         9.00801
| 94>    H       16.32610        -3.61232         9.74211
| 95>    H       15.32380        -3.85149         7.48374
| 96>    H       16.45253         1.53557         6.86777
| 97>    H       14.65670        -2.85501         5.32365
| 98>    H       13.39182         0.55137         1.45434
| 99>    H       11.98807         5.79105         2.54675
|100>    H       11.42005         4.97226        -2.37863
|101>    H       11.33950         6.08338        -0.15481
|102>    H       13.07639         1.97835        -2.96577
|103>    H       13.41049         0.55048        -1.31327
|104>    H       15.65713         2.22675        -0.08650
|105>    H       17.05276         0.29896        -0.26974
|106>    H       17.43248        -2.17913         0.07716
|107>    H       16.12985        -4.32648         0.63525
|108>    H       14.47665        -5.92622         1.17568
|109>    H       12.27454        -7.18700         1.66330
|110>    H        9.80413        -6.87818         1.65348
|111>    H        6.40821        -3.05589        -0.67886
|112>    H        3.61831        -6.54678         1.56585
|113>    H        4.27079        -4.58943         0.21360
|114>    H        4.25375        -8.10882         2.96257
|115>    H        8.55009        -6.69640         3.51479
|116>    H        8.87101        -8.99608         3.89622
|117>    H        6.66720        -9.50512         1.80772
|118>    H        5.74522       -14.71678         2.04200
|119>    H       10.03727       -16.43333         5.12178
|120>    H        6.82475       -18.97678         3.93137
|121>    H        5.75229       -17.09174         2.72378
|122>    H       10.06999       -14.08275         4.44437
|123> *
|124>
|125>                          ****END OF INPUT****

CARTESIAN COORDINATES (ANGSTROEM)
---------------------------------
  C     16.690970   -0.422990    8.664160
  C     16.743870   -1.526710    9.469110
  F     17.280480   -1.424280   10.699640
  C     16.256830   -2.776480    9.064110
  C     15.706630   -2.899030    7.818480
  C     15.624770   -1.793320    6.947900
  C     16.129130   -0.531410    7.377360
  C     16.067600    0.590740    6.517560
  C     15.511400    0.452650    5.275550
  C     14.990440   -0.806190    4.859170
  C     15.048360   -1.907400    5.662440
  C     14.406300   -0.667970    3.510000
  O     13.920510   -1.542240    2.824640
  C     14.499650    0.775780    3.189210
  C     15.344740    1.401730    4.177960
  C     16.078080    2.549630    4.006630
  C     16.946830    3.079980    4.978770
  N     17.655580    3.560060    5.744470
  C     16.118370    3.250380    2.786660
  N     16.215020    3.803650    1.784610
  C     13.791720    1.291970    2.141010
  C     13.400200    2.620910    1.888930
  S     13.128990    3.758790    3.183980
  C     12.384630    4.878350    2.147040
  C     12.361970    4.456270    0.832820
  C     12.972660    3.171610    0.668750
  C     13.104230    2.604880   -0.621020
  C     12.501690    3.269590   -1.680250
  C     11.843450    4.509660   -1.501360
  C     11.796870    5.115420   -0.283710
  O     12.557120    2.793910   -2.945150
  C     13.890260    1.388790   -0.823580
  C     15.182300    1.316030   -0.432400
  C     15.985520    0.149070   -0.367140
  C     15.542210   -1.139420   -0.247050
  C     16.360090   -2.265220    0.051280
  C     15.671290   -3.397970    0.345460
  C     14.266190   -3.253710    0.268410
  S     13.857470   -1.635330   -0.244380
  C     13.302360   -4.189830    0.570540
  C     13.494220   -5.512250    1.036130
  C     12.338490   -6.178400    1.296650
  C     11.163660   -5.426240    1.037780
  S     11.593300   -3.830410    0.448940
  C      9.885290   -5.878230    1.246710
  C      8.680290   -5.228500    0.947370
  S      8.629060   -3.780210   -0.027060
  C      6.927700   -3.803040   -0.113220
  C      6.379500   -4.858360    0.588700
  C      7.371980   -5.660370    1.239020
  C      6.981380   -6.743990    2.068170
  C      5.623190   -7.043680    2.148020
  C      4.660270   -6.274310    1.459470
  C      5.014290   -5.193070    0.709990
  O      5.216470   -8.042700    2.973730
  C      7.940460   -7.390230    2.946520
  C      8.150380   -8.711930    3.141310
  C      7.529630   -9.754670    2.411380
  C      7.841620  -11.081040    2.458300
  C      6.853870  -12.088270    1.991830
  O      5.867780  -11.883880    1.319520
  C      7.300230  -13.368230    2.579010
  C      6.682760  -14.584760    2.561140
  C      7.282970  -15.673590    3.233620
  C      8.516710  -15.475980    3.919210
  C      9.103110  -16.561960    4.597630
  C      8.480450  -17.778940    4.581110
  C      7.269340  -17.994450    3.910240
  C      6.685730  -16.950320    3.247640
  F      9.039150  -18.817790    5.229760
  C      9.139890  -14.206050    3.912270
  C      8.543390  -13.169630    3.246950
  C      8.957360  -11.783410    3.047550
  C     10.240200  -11.313790    3.187120
  C     10.679070  -10.063970    2.711530
  N     11.109920   -9.083000    2.296870
  C     11.299830  -12.072670    3.723230
  N     12.194430  -12.635810    4.171880
  H     17.079380    0.522890    9.008010
  H     16.326100   -3.612320    9.742110
  H     15.323800   -3.851490    7.483740
  H     16.452530    1.535570    6.867770
  H     14.656700   -2.855010    5.323650
  H     13.391820    0.551370    1.454340
  H     11.988070    5.791050    2.546750
  H     11.420050    4.972260   -2.378630
  H     11.339500    6.083380   -0.154810
  H     13.076390    1.978350   -2.965770
  H     13.410490    0.550480   -1.313270
  H     15.657130    2.226750   -0.086500
  H     17.052760    0.298960   -0.269740
  H     17.432480   -2.179130    0.077160
  H     16.129850   -4.326480    0.635250
  H     14.476650   -5.926220    1.175680
  H     12.274540   -7.187000    1.663300
  H      9.804130   -6.878180    1.653480
  H      6.408210   -3.055890   -0.678860
  H      3.618310   -6.546780    1.565850
  H      4.270790   -4.589430    0.213600
  H      4.253750   -8.108820    2.962570
  H      8.550090   -6.696400    3.514790
  H      8.871010   -8.996080    3.896220
  H      6.667200   -9.505120    1.807720
  H      5.745220  -14.716780    2.042000
  H     10.037270  -16.433330    5.121780
  H      6.824750  -18.976780    3.931370
  H      5.752290  -17.091740    2.723780
  H     10.069990  -14.082750    4.444370

 Total Charge           Charge          ....    0
 Multiplicity           Mult            ....    1
 Number of Electrons    NEL             ....  556
 Basis Dimension        Dim             .... 1258

ORBITAL ENERGIES
----------------

  NO   OCC          E(Eh)            E(eV)
   0   2.0000     -88.969744     -2420.9898
   1   2.0000     -88.963632     -2420.8235
   2   2.0000     -88.935214     -2420.0502
   3   2.0000     -88.932757     -2419.9834
   4   2.0000     -24.786962      -674.4875
   5   2.0000     -24.777968      -674.2428
   6   2.0000     -19.261769      -524.1394
   7   2.0000     -19.246199      -523.7157
   8   2.0000     -19.213189      -522.8175
   9   2.0000     -19.196793      -522.3713
  10   2.0000     -14.422861      -392.4660
  11   2.0000     -14.418519      -392.3478
  12   2.0000     -14.403512      -391.9395
  13   2.0000     -14.402714      -391.9178
  14   2.0000     -10.371007      -282.2095
  15   2.0000     -10.364664      -282.0369
  16   2.0000     -10.360553      -281.9250
  17   2.0000     -10.349657      -281.6285
  18   2.0000     -10.349200      -281.6160
  19   2.0000     -10.346127      -281.5324
  20   2.0000     -10.344407      -281.4856
  21   2.0000     -10.336299      -281.2650
  22   2.0000     -10.327716      -281.0314
  23   2.0000     -10.327479      -281.0250
  24   2.0000     -10.326605      -281.0012
  25   2.0000     -10.321210      -280.8544
  26   2.0000     -10.311046      -280.5778
  27   2.0000     -10.310378      -280.5597
  28   2.0000     -10.307645      -280.4853
  29   2.0000     -10.307336      -280.4769
  30   2.0000     -10.306686      -280.4592
  31   2.0000     -10.306269      -280.4478
  32   2.0000     -10.303678      -280.3773
  33   2.0000     -10.302842      -280.3546
  34   2.0000     -10.302788      -280.3531
  35   2.0000     -10.301073      -280.3065
  36   2.0000     -10.300230      -280.2835
  37   2.0000     -10.300011      -280.2775
  38   2.0000     -10.299779      -280.2712
  39   2.0000     -10.299281      -280.2577
  40   2.0000     -10.298497      -280.2363
  41   2.0000     -10.297444      -280.2077
  42   2.0000     -10.296145      -280.1723
  43   2.0000     -10.296086      -280.1707
  44   2.0000     -10.295673      -280.1595
  45   2.0000     -10.294380      -280.1243
  46   2.0000     -10.294049      -280.1153
  47   2.0000     -10.293803      -280.1086
  48   2.0000     -10.293352      -280.0963
  49   2.0000     -10.292343      -280.0689
  50   2.0000     -10.291078      -280.0345
  51   2.0000     -10.290889      -280.0293
  52   2.0000     -10.290732      -280.0251
  53   2.0000     -10.289770      -279.9989
  54   2.0000     -10.288987      -279.9776
  55   2.0000     -10.288355      -279.9604
  56   2.0000     -10.287284      -279.9312
  57   2.0000     -10.286669      -279.9145
  58   2.0000     -10.285938      -279.8946
  59   2.0000     -10.285876      -279.8929
  60   2.0000     -10.285131      -279.8727
  61   2.0000     -10.284987      -279.8687
  62   2.0000     -10.282241      -279.7940
  63   2.0000     -10.282062      -279.7891
  64   2.0000     -10.281853      -279.7834
  65   2.0000     -10.280371      -279.7431
  66   2.0000     -10.277437      -279.6633
  67   2.0000     -10.276202      -279.6297
  68   2.0000     -10.275606      -279.6135
  69   2.0000     -10.275099      -279.5996
  70   2.0000     -10.273016      -279.5430
  71   2.0000     -10.272821      -279.5377
  72   2.0000     -10.270601      -279.4773
  73   2.0000     -10.269549      -279.4486
  74   2.0000     -10.265805      -279.3468
  75   2.0000     -10.265802      -279.3467
  76   2.0000     -10.264742      -279.3178
  77   2.0000     -10.262060      -279.2448
  78   2.0000      -8.064572      -219.4482
  79   2.0000      -8.058603      -219.2857
  80   2.0000      -8.031379      -218.5449
  81   2.0000      -8.028034      -218.4539
  82   2.0000      -6.033549      -164.1812
  83   2.0000      -6.029297      -164.0655
  84   2.0000      -6.027562      -164.0183
  85   2.0000      -6.027548      -164.0179
  86   2.0000      -6.023233      -163.9005
  87   2.0000      -6.021670      -163.8580
  88   2.0000      -6.001106      -163.2984
  89   2.0000      -5.997816      -163.2089
  90   2.0000      -5.996996      -163.1865
  91   2.0000      -5.993744      -163.0981
  92   2.0000      -5.992367      -163.0606
  93   2.0000      -5.989026      -162.9697
  94   2.0000      -1.301658       -35.4199
  95   2.0000      -1.292546       -35.1720
  96   2.0000      -1.157925       -31.5087
  97   2.0000      -1.142974       -31.1019
  98   2.0000      -1.127654       -30.6850
  99   2.0000      -1.111578       -30.2476
 100   2.0000      -1.022595       -27.8262
 101   2.0000      -1.007927       -27.4271
 102   2.0000      -1.003817       -27.3153
 103   2.0000      -0.998458       -27.1694
 104   2.0000      -0.996616       -27.1193
 105   2.0000      -0.996091       -27.1050
 106   2.0000      -0.989005       -26.9122
 107   2.0000      -0.981590       -26.7104
 108   2.0000      -0.981417       -26.7057
 109   2.0000      -0.978155       -26.6169
 110   2.0000      -0.964644       -26.2493
 111   2.0000      -0.960250       -26.1297
 112   2.0000      -0.938353       -25.5339
 113   2.0000      -0.930108       -25.3095
 114   2.0000      -0.929355       -25.2890
 115   2.0000      -0.917690       -24.9716
 116   2.0000      -0.916435       -24.9375
 117   2.0000      -0.904372       -24.6092
 118   2.0000      -0.898586       -24.4518
 119   2.0000      -0.888716       -24.1832
 120   2.0000      -0.887408       -24.1476
 121   2.0000      -0.881929       -23.9985
 122   2.0000      -0.876749       -23.8575
 123   2.0000      -0.872050       -23.7297
 124   2.0000      -0.863716       -23.5029
 125   2.0000      -0.853633       -23.2285
 126   2.0000      -0.840027       -22.8583
 127   2.0000      -0.836667       -22.7669
 128   2.0000      -0.833148       -22.6711
 129   2.0000      -0.825547       -22.4643
 130   2.0000      -0.824704       -22.4413
 131   2.0000      -0.824502       -22.4358
 132   2.0000      -0.819088       -22.2885
 133   2.0000      -0.810034       -22.0422
 134   2.0000      -0.806653       -21.9502
 135   2.0000      -0.795765       -21.6539
 136   2.0000      -0.788651       -21.4603
 137   2.0000      -0.770173       -20.9575
 138   2.0000      -0.763779       -20.7835
 139   2.0000      -0.759414       -20.6647
 140   2.0000      -0.747108       -20.3298
 141   2.0000      -0.735071       -20.0023
 142   2.0000      -0.732002       -19.9188
 143   2.0000      -0.721767       -19.6403
 144   2.0000      -0.719018       -19.5655
 145   2.0000      -0.710966       -19.3464
 146   2.0000      -0.710665       -19.3382
 147   2.0000      -0.705438       -19.1959
 148   2.0000      -0.698707       -19.0128
 149   2.0000      -0.693908       -18.8822
 150   2.0000      -0.689183       -18.7536
 151   2.0000      -0.684833       -18.6353
 152   2.0000      -0.679382       -18.4869
 153   2.0000      -0.671779       -18.2800
 154   2.0000      -0.667145       -18.1539
 155   2.0000      -0.664254       -18.0753
 156   2.0000      -0.657255       -17.8848
 157   2.0000      -0.651197       -17.7200
 158   2.0000      -0.647470       -17.6185
 159   2.0000      -0.636055       -17.3079
 160   2.0000      -0.631210       -17.1761
 161   2.0000      -0.629832       -17.1386
 162   2.0000      -0.626985       -17.0611
 163   2.0000      -0.622726       -16.9452
 164   2.0000      -0.620715       -16.8905
 165   2.0000      -0.618411       -16.8278
 166   2.0000      -0.613359       -16.6903
 167   2.0000      -0.610787       -16.6204
 168   2.0000      -0.602761       -16.4020
 169   2.0000      -0.599684       -16.3182
 170   2.0000      -0.596582       -16.2338
 171   2.0000      -0.590616       -16.0715
 172   2.0000      -0.585723       -15.9383
 173   2.0000      -0.583728       -15.8840
 174   2.0000      -0.576737       -15.6938
 175   2.0000      -0.575361       -15.6564
 176   2.0000      -0.569177       -15.4881
 177   2.0000      -0.566301       -15.4098
 178   2.0000      -0.565001       -15.3745
 179   2.0000      -0.559351       -15.2207
 180   2.0000      -0.556915       -15.1544
 181   2.0000      -0.555422       -15.1138
 182   2.0000      -0.550351       -14.9758
 183   2.0000      -0.548663       -14.9299
 184   2.0000      -0.548044       -14.9130
 185   2.0000      -0.544480       -14.8161
 186   2.0000      -0.542074       -14.7506
 187   2.0000      -0.539429       -14.6786
 188   2.0000      -0.538270       -14.6471
 189   2.0000      -0.535820       -14.5804
 190   2.0000      -0.534237       -14.5373
 191   2.0000      -0.527715       -14.3599
 192   2.0000      -0.526099       -14.3159
 193   2.0000      -0.525062       -14.2877
 194   2.0000      -0.520917       -14.1749
 195   2.0000      -0.514897       -14.0111
 196   2.0000      -0.514454       -13.9990
 197   2.0000      -0.514062       -13.9883
 198   2.0000      -0.512226       -13.9384
 199   2.0000      -0.510367       -13.8878
 200   2.0000      -0.508336       -13.8325
 201   2.0000      -0.504960       -13.7407
 202   2.0000      -0.502570       -13.6756
 203   2.0000      -0.499344       -13.5878
 204   2.0000      -0.498757       -13.5719
 205   2.0000      -0.495781       -13.4909
 206   2.0000      -0.492923       -13.4131
 207   2.0000      -0.491269       -13.3681
 208   2.0000      -0.488918       -13.3041
 209   2.0000      -0.486308       -13.2331
 210   2.0000      -0.484544       -13.1851
 211   2.0000      -0.483371       -13.1532
 212   2.0000      -0.482502       -13.1295
 213   2.0000      -0.480925       -13.0866
 214   2.0000      -0.478816       -13.0293
 215   2.0000      -0.477268       -12.9871
 216   2.0000      -0.474865       -12.9217
 217   2.0000      -0.474251       -12.9050
 218   2.0000      -0.470169       -12.7939
 219   2.0000      -0.468017       -12.7354
 220   2.0000      -0.466157       -12.6848
 221   2.0000      -0.463376       -12.6091
 222   2.0000      -0.459319       -12.4987
 223   2.0000      -0.458591       -12.4789
 224   2.0000      -0.456099       -12.4111
 225   2.0000      -0.454376       -12.3642
 226   2.0000      -0.452780       -12.3208
 227   2.0000      -0.452698       -12.3186
 228   2.0000      -0.449404       -12.2289
 229   2.0000      -0.447154       -12.1677
 230   2.0000      -0.446225       -12.1424
 231   2.0000      -0.443281       -12.0623
 232   2.0000      -0.442331       -12.0364
 233   2.0000      -0.438274       -11.9260
 234   2.0000      -0.434776       -11.8309
 235   2.0000      -0.432393       -11.7660
 236   2.0000      -0.431138       -11.7319
 237   2.0000      -0.428802       -11.6683
 238   2.0000      -0.428552       -11.6615
 239   2.0000      -0.425267       -11.5721
 240   2.0000      -0.423397       -11.5212
 241   2.0000      -0.422763       -11.5040
 242   2.0000      -0.421070       -11.4579
 243   2.0000      -0.418788       -11.3958
 244   2.0000      -0.417722       -11.3668
 245   2.0000      -0.414178       -11.2703
 246   2.0000      -0.412043       -11.2123
 247   2.0000      -0.409370       -11.1395
 248   2.0000      -0.406642       -11.0653
 249   2.0000      -0.404639       -11.0108
 250   2.0000      -0.403068       -10.9680
 251   2.0000      -0.400697       -10.9035
 252   2.0000      -0.393519       -10.7082
 253   2.0000      -0.385637       -10.4937
 254   2.0000      -0.383849       -10.4451
 255   2.0000      -0.380063       -10.3421
 256   2.0000      -0.379588       -10.3291
 257   2.0000      -0.375566       -10.2197
 258   2.0000      -0.370633       -10.0854
 259   2.0000      -0.365300        -9.9403
 260   2.0000      -0.357940        -9.7400
 261   2.0000      -0.348806        -9.4915
 262   2.0000      -0.336486        -9.1562
 263   2.0000      -0.332711        -9.0535
 264   2.0000      -0.325124        -8.8471
 265   2.0000      -0.321157        -8.7391
 266   2.0000      -0.317796        -8.6477
 267   2.0000      -0.311408        -8.4739
 268   2.0000      -0.307175        -8.3587
 269   2.0000      -0.304111        -8.2753
 270   2.0000      -0.301535        -8.2052
 271   2.0000      -0.300767        -8.1843
 272   2.0000      -0.294763        -8.0209
 273   2.0000      -0.291329        -7.9275
 274   2.0000      -0.284677        -7.7464
 275   2.0000      -0.261739        -7.1223
 276   2.0000      -0.241223        -6.5640
 277   2.0000      -0.198124        -5.3912
 278   0.0000      -0.093381        -2.5410
 279   0.0000      -0.081617        -2.2209
 280   0.0000      -0.070857        -1.9281
 281   0.0000      -0.056399        -1.5347
 282   0.0000      -0.042909        -1.1676

MULLIKEN ATOMIC CHARGES
-----------------------
   0 C :   -0.099331
   1 C :    0.302703
   2 F :   -0.193296
   3 C :   -0.033225
   4 C :   -0.012070
   5 C :    0.103678
   6 C :    0.103353
   7 C :   -0.089577
   8 C :    0.038142
   9 C :    0.008931
  10 C :   -0.090105
  11 C :    0.149418
  12 O :   -0.147077
  13 C :   -0.160613
  14 C :    0.270833
  15 C :   -0.342706
  16 C :   -0.175066
  17 N :    0.142993
  18 C :   -0.178923
  19 N :    0.144387
  20 C :    0.063975
  21 C :   -0.252801
  22 S :    0.187993
  23 C :   -0.095657
  24 C :    0.093662
  25 C :    0.185741
  26 C :    0.026582
  27 C :    0.090985
  28 C :   -0.009216
  29 C :    0.008578
  30 O :   -0.175074
  31 C :   -0.202172
  32 C :    0.049395
  33 C :   -0.026173
  34 C :   -0.022080
  35 C :    0.031705
  36 C :    0.035039
  37 C :   -0.034616
  38 S :    0.067574
  39 C :   -0.015178
  40 C :    0.016492
  41 C :    0.054464
  42 C :   -0.058105
  43 S :    0.065748
  44 C :   -0.032527
  45 C :   -0.158184
  46 S :    0.153279
  47 C :   -0.114170
  48 C :    0.083122
  49 C :    0.132122
  50 C :   -0.021982
  51 C :    0.108841
  52 C :   -0.033793
  53 C :    0.009791
  54 O :   -0.176153
  55 C :   -0.021492
  56 C :    0.001581
  57 C :    0.076642
  58 C :   -0.130073
  59 C :    0.147652
  60 O :   -0.148912
  61 C :    0.002636
  62 C :   -0.079165
  63 C :    0.099930
  64 C :    0.101656
  65 C :   -0.096861
  66 C :    0.303748
  67 C :   -0.029821
  68 C :   -0.008736
  69 F :   -0.190941
  70 C :   -0.084781
  71 C :    0.043005
  72 C :    0.286588
  73 C :   -0.338091
  74 C :   -0.192385
  75 N :    0.184112
  76 C :   -0.181135
  77 N :    0.151532
  78 H :   -0.005615
  79 H :    0.000973
  80 H :   -0.011881
  81 H :   -0.006306
  82 H :   -0.014906
  83 H :    0.034597
  84 H :    0.026994
  85 H :   -0.012409
  86 H :   -0.021663
  87 H :    0.182357
  88 H :    0.023600
  89 H :    0.019479
  90 H :   -0.012594
  91 H :   -0.014964
  92 H :   -0.016990
  93 H :   -0.020007
  94 H :   -0.020733
  95 H :    0.007383
  96 H :    0.017711
  97 H :   -0.032443
  98 H :   -0.018411
  99 H :    0.185167
 100 H :    0.039357
 101 H :    0.004171
 102 H :    0.017277
 103 H :   -0.013389
 104 H :   -0.002715
 105 H :    0.003967
 106 H :   -0.009322
 107 H :   -0.005031
Sum of atomic charges:   -0.0000000

LOEWDIN ATOMIC CHARGES
----------------------
   0 C :   -0.043162
   1 C :    0.090635
   2 F :   -0.067916
   3 C :   -0.040522
   4 C :    0.002968
   5 C :   -0.019916
   6 C :    0.001790
   7 C :    0.007750
   8 C :   -0.016178
   9 C :   -0.056056
  10 C :    0.029498
  11 C :    0.082915
  12 O :   -0.152133
  13 C :   -0.120784
  14 C :    0.065848
  15 C :   -0.157019
  16 C :   -0.020398
  17 N :   -0.063054
  18 C :   -0.021390
  19 N :   -0.060815
  20 C :    0.065907
  21 C :   -0.209444
  22 S :    0.510893
  23 C :   -0.150000
  24 C :   -0.063629
  25 C :    0.005225
  26 C :   -0.079350
  27 C :    0.069398
  28 C :   -0.037433
  29 C :    0.000362
  30 O :   -0.039658
  31 C :   -0.083004
  32 C :   -0.007413
  33 C :   -0.080725
  34 C :   -0.128591
  35 C :   -0.039941
  36 C :   -0.024623
  37 C :   -0.179966
  38 S :    0.398495
  39 C :   -0.159052
  40 C :   -0.045869
  41 C :   -0.017010
  42 C :   -0.156859
  43 S :    0.362658
  44 C :   -0.071363
  45 C :   -0.187613
  46 S :    0.486272
  47 C :   -0.195234
  48 C :   -0.064156
  49 C :   -0.033764
  50 C :   -0.078817
  51 C :    0.059722
  52 C :   -0.069062
  53 C :    0.014546
  54 O :   -0.040295
  55 C :    0.051802
  56 C :   -0.046482
  57 C :    0.089486
  58 C :   -0.097342
  59 C :    0.083402
  60 O :   -0.148061
  61 C :   -0.058155
  62 C :    0.033406
  63 C :   -0.018228
  64 C :    0.002660
  65 C :   -0.041556
  66 C :    0.093437
  67 C :   -0.036329
  68 C :    0.004405
  69 F :   -0.065415
  70 C :    0.012054
  71 C :   -0.018432
  72 C :    0.077453
  73 C :   -0.144323
  74 C :    0.000433
  75 N :   -0.052814
  76 C :   -0.019603
  77 N :   -0.052246
  78 H :    0.041967
  79 H :    0.040512
  80 H :    0.034537
  81 H :    0.038231
  82 H :    0.038178
  83 H :    0.042952
  84 H :    0.028994
  85 H :    0.036304
  86 H :    0.032477
  87 H :    0.092387
  88 H :    0.007948
  89 H :    0.036862
  90 H :    0.033281
  91 H :    0.031980
  92 H :    0.030918
  93 H :    0.030006
  94 H :    0.031083
  95 H :    0.044844
  96 H :    0.023905
  97 H :    0.028010
  98 H :    0.034262
  99 H :    0.097332
 100 H :    0.044950
 101 H :    0.033651
 102 H :    0.042822
 103 H :    0.039271
 104 H :    0.043188
 105 H :    0.042111
 106 H :    0.035680
 107 H :    0.039138

  Mayer bond orders larger than 0.100000
B(  0-C ,  1-C ) :   1.4413 B(  0-C ,  6-C ) :   1.2020 B(  0-C , 78-H ) :   1.0067
B(  1-C ,  2-F ) :   1.0856 B(  1-C ,  3-C ) :   1.2570 B(  3-C ,  4-C ) :   1.4583
B(  3-C , 79-H ) :   0.9930 B(  4-C ,  5-C ) :   1.2366 B(  4-C , 80-H ) :   0.9968
B(  5-C ,  6-C ) :   1.2599 B(  5-C , 10-C ) :   1.1841 B(  6-C ,  7-C ) :   1.1982
B(  7-C ,  8-C ) :   1.4661 B(  7-C , 81-H ) :   0.9945 B(  8-C ,  9-C ) :   1.2219
B(  8-C , 14-C ) :   0.9921 B(  9-C , 10-C ) :   1.4774 B(  9-C , 11-C ) :   0.9173
B( 10-C , 82-H ) :   1.0156 B( 11-C , 12-O ) :   2.2445 B( 11-C , 13-C ) :   0.9562
B( 13-C , 14-C ) :   1.0664 B( 13-C , 20-C ) :   1.5957 B( 14-C , 15-C ) :   1.6219
B( 15-C , 16-C ) :   1.1342 B( 15-C , 18-C ) :   1.1761 B( 16-C , 17-N ) :   2.9845
B( 18-C , 19-N ) :   2.9413 B( 20-C , 21-C ) :   1.1892 B( 20-C , 83-H ) :   0.9219
B( 21-C , 22-S ) :   1.1192 B( 21-C , 25-C ) :   1.2953 B( 22-S , 23-C ) :   1.2567
B( 23-C , 24-C ) :   1.3872 B( 23-C , 84-H ) :   0.9674 B( 24-C , 25-C ) :   1.1977
B( 24-C , 29-C ) :   1.1541 B( 25-C , 26-C ) :   1.2721 B( 26-C , 27-C ) :   1.4067
B( 26-C , 31-C ) :   0.9715 B( 27-C , 28-C ) :   1.2100 B( 27-C , 30-O ) :   1.2626
B( 28-C , 29-C ) :   1.5363 B( 28-C , 85-H ) :   0.9914 B( 29-C , 86-H ) :   1.0021
B( 30-O , 87-H ) :   0.9503 B( 31-C , 32-C ) :   1.7481 B( 31-C , 88-H ) :   0.9311
B( 32-C , 33-C ) :   1.1744 B( 32-C , 89-H ) :   0.9485 B( 33-C , 34-C ) :   1.5898
B( 33-C , 90-H ) :   0.9654 B( 34-C , 35-C ) :   1.1323 B( 34-C , 38-S ) :   1.0606
B( 35-C , 36-C ) :   1.6036 B( 35-C , 91-H ) :   0.9974 B( 36-C , 37-C ) :   1.1821
B( 36-C , 92-H ) :   0.9915 B( 37-C , 38-S ) :   1.0291 B( 37-C , 39-C ) :   1.5294
B( 39-C , 40-C ) :   1.1729 B( 39-C , 43-S ) :   1.0449 B( 40-C , 41-C ) :   1.5833
B( 40-C , 93-H ) :   0.9955 B( 41-C , 42-C ) :   1.1482 B( 41-C , 94-H ) :   0.9832
B( 42-C , 43-S ) :   1.0298 B( 42-C , 44-C ) :   1.5744 B( 44-C , 45-C ) :   1.1826
B( 44-C , 95-H ) :   0.9483 B( 45-C , 46-S ) :   1.1296 B( 45-C , 49-C ) :   1.3519
B( 46-S , 47-C ) :   1.2094 B( 47-C , 48-C ) :   1.4001 B( 47-C , 96-H ) :   0.9700
B( 48-C , 49-C ) :   1.1988 B( 48-C , 53-C ) :   1.1669 B( 49-C , 50-C ) :   1.2166
B( 50-C , 51-C ) :   1.4740 B( 50-C , 55-C ) :   1.0187 B( 51-C , 52-C ) :   1.1799
B( 51-C , 54-O ) :   1.2201 B( 52-C , 53-C ) :   1.5313 B( 52-C , 97-H ) :   0.9828
B( 53-C , 98-H ) :   0.9993 B( 54-O , 99-H ) :   0.9557 B( 55-C , 56-C ) :   1.7480
B( 55-C ,100-H ) :   0.9528 B( 56-C , 57-C ) :   1.1211 B( 56-C ,101-H ) :   0.9562
B( 57-C , 58-C ) :   1.6506 B( 57-C ,102-H ) :   0.9338 B( 58-C , 59-C ) :   0.9435
B( 58-C , 72-C ) :   1.0373 B( 59-C , 60-O ) :   2.2561 B( 59-C , 61-C ) :   0.9217
B( 61-C , 62-C ) :   1.4772 B( 61-C , 71-C ) :   1.2143 B( 62-C , 63-C ) :   1.1893
B( 62-C ,103-H ) :   1.0146 B( 63-C , 64-C ) :   1.2568 B( 63-C , 68-C ) :   1.2362
B( 64-C , 65-C ) :   1.2020 B( 64-C , 70-C ) :   1.2034 B( 65-C , 66-C ) :   1.4407
B( 65-C ,104-H ) :   1.0064 B( 66-C , 67-C ) :   1.2559 B( 66-C , 69-F ) :   1.0882
B( 67-C , 68-C ) :   1.4589 B( 67-C ,105-H ) :   0.9931 B( 68-C ,106-H ) :   0.9969
B( 70-C , 71-C ) :   1.4598 B( 70-C ,107-H ) :   0.9938 B( 71-C , 72-C ) :   1.0002
B( 72-C , 73-C ) :   1.6344 B( 73-C , 74-C ) :   1.1633 B( 73-C , 76-C ) :   1.1320
B( 74-C , 75-N ) :   2.9630 B( 76-C , 77-N ) :   2.9845

-----------------------------------------------------------------------------
         ABSORPTION SPECTRUM VIA TRANSITION ELECTRIC DIPOLE MOMENTS
-----------------------------------------------------------------------------
State   Energy  Wavelength   fosc         T2         TX        TY        TZ
        (cm-1)    (nm)                  (au**2)     (au)      (au)      (au)
-----------------------------------------------------------------------------
   0    9811.9   1019.2   0.028617062   0.96017   0.53141  -0.78452   0.24960
   1   10555.1    947.4   0.025467757   0.79433  -0.59574   0.34715  -0.56473
   2   13955.9    716.5   1.104665176  26.05849   3.67579   3.52357  -0.36265
   3   17759.4    563.1   0.249784320   4.63034  -0.82429   1.04318  -1.69194
   4   18524.0    539.8   0.025860969   0.45961  -0.13671   0.54227  -0.38322
   5   19131.6    522.7   0.128069772   2.20379  -0.15774   1.42852  -0.37180
   6   20228.7    494.3   0.099763114   1.62360   0.81957  -0.93418   0.28146
   7   21623.3    462.5   0.032130546   0.48918  -0.17373  -0.67077   0.09522
   8   22547.5    443.5   0.320193650   4.67510   1.91282  -1.00590   0.06629
   9   23971.8    417.2   0.032440539   0.44552   0.48470   0.10364  -0.44704
  10   24810.1    403.1   0.093442147   1.23991   0.97612  -0.18641   0.50235
  11   25267.5    395.8   0.207467229   2.70310   1.03949  -1.25681   0.20738
  12   26349.2    379.5   0.039028341   0.48763   0.21072  -0.60513   0.27757
  13   26652.6    375.2   0.135428673   1.67281  -0.30900  -1.14409   0.51805
  14   27146.7    368.4   0.056872804   0.68971   0.31251   0.51546  -0.57126
  15   27656.1    361.6   0.007028080   0.08366  -0.02618  -0.20312   0.20425
  16   27683.4    361.2   0.178946544   2.12804   0.97006  -1.08195   0.12814
  17   28398.5    352.1   0.049580622   0.57477   0.16893  -0.19119   0.71392
  18   28499.2    350.9   0.145711728   1.68320  -0.91924   0.86368  -0.30374
  19   28743.3    347.9   0.035169696   0.40282   0.03255  -0.63342  -0.02305
  20   28840.3    346.7   0.013738414   0.15682  -0.25454  -0.08129  -0.29228
  21   29184.1    342.7   0.056405680   0.63629   0.65790   0.09765  -0.44036
  22   29291.9    341.4   0.034828904   0.39144  -0.36529   0.48841   0.13952
  23   29964.1    333.7   0.117822305   1.29450  -0.16094  -1.06692   0.36096
  24   30260.8    330.5   0.018480488   0.20105   0.00453   0.44837   0.00001
  25   30436.6    328.6   0.128270554   1.38742  -0.03286  -0.96983   0.66766
  26   30622.3    326.6   0.106441485   1.14432  -0.67367  -0.82606   0.09012
  27   31098.3    321.6   0.005584255   0.05912   0.16962   0.12614   0.12014
  28   31635.9    316.1   0.053208969   0.55371  -0.14419  -0.61754   0.38930
  29   31863.4    313.8   0.044819178   0.46307   0.00687  -0.55684  -0.39109
  30   32206.9    310.5   0.042778596   0.43727  -0.62854   0.13451   0.15528
  31   32300.4    309.6   0.078001331   0.79500   0.67302   0.36247   0.45898
  32   32814.9    304.7   0.098883883   0.99204   0.68189   0.72443  -0.04758
  33   32867.0    304.3   0.042838780   0.42909   0.37721  -0.50728   0.17169
  34   33144.1    301.7   0.021734418   0.21588  -0.33303   0.32174  -0.03811
  35   33330.7    300.0   0.476095895   4.70246   0.25929   1.77350  -1.22062
  36   33500.4    298.5   0.104409748   1.02604   0.50139  -0.46083   0.74986
  37   33839.5    295.5   0.068258390   0.66406   0.50793   0.04259   0.63581
  38   34187.5    292.5   0.098539956   0.94890  -0.16031  -0.79305   0.54247
  39   34724.4    288.0   0.382302841   3.62450  -0.19764  -1.77321   0.66419
  40   34862.8    286.8   0.030702612   0.28993   0.25409  -0.12579  -0.45776
  41   34917.2    286.4   0.051696452   0.48741   0.42373   0.55270   0.04885
  42   34978.3    285.9   0.112921382   1.06281  -0.67942  -0.74623  -0.21057
  43   35060.8    285.2   0.094335758   0.88579  -0.07349   0.93543  -0.07321
  44   35149.2    284.5   0.537319566   5.03261  -0.45587  -2.13866   0.50090
  45   35540.2    281.4   0.099663826   0.92319  -0.00497  -0.80733   0.52095
  46   35649.0    280.5   0.126847307   1.17141  -0.25923   0.36203  -0.98648
  47   36140.5    276.7   0.266730085   2.42970  -0.00521  -1.04880   1.15312
  48   36304.6    275.4   0.164480199   1.49151  -0.49893   1.05246  -0.36729
  49   36570.2    273.4   0.027427777   0.24691   0.36567   0.30511  -0.14178
  50   36817.8    271.6   0.080625043   0.72092  -0.46855  -0.67377   0.21777
  51   37023.1    270.1   0.020430367   0.18167  -0.17037  -0.38656  -0.05671
  52   37150.6    269.2   0.058887809   0.52184   0.18012   0.63839   0.28609
  53   37265.3    268.3   0.022844073   0.20181  -0.07942  -0.04601   0.43976
  54   37348.1    267.8   0.019416211   0.17115  -0.39419   0.11113   0.05842
  55   37696.3    265.3   0.001400013   0.01223   0.10508  -0.00658  -0.03378
  56   37752.5    264.9   0.003136239   0.02735   0.06638  -0.05428   0.14141
  57   38077.8    262.6   0.064646685   0.55892   0.18811  -0.69732  -0.19308
  58   38097.4    262.5   0.043825462   0.37871  -0.52822   0.09429  -0.30134
  59   38283.6    261.2   0.002511670   0.02160  -0.09139   0.08788  -0.07432
  60   38507.5    259.7   0.022103882   0.18897  -0.13307  -0.20693   0.35839
  61   38748.4    258.1   0.018120054   0.15395   0.36607   0.11543   0.08134
  62   38895.7    257.1   0.023214528   0.19649  -0.43764   0.06501  -0.02709
  63   39189.1    255.2   0.082564749   0.69359   0.58858   0.58579  -0.06342
  64   39331.0    254.3   0.181482361   1.51906  -1.09231  -0.17347  -0.54391
  65   39458.2    253.4   0.009220903   0.07693   0.27073   0.05953  -0.00966
  66   39506.0    253.1   0.018830801   0.15692   0.02145   0.38959   0.06843
  67   39775.2    251.4   0.022883862   0.18941   0.28439   0.32235   0.06799
  68   39895.4    250.7   0.023274884   0.19206   0.40126   0.09178   0.15044
  69   40037.0    249.8   0.027489068   0.22603  -0.34930   0.30115  -0.11547

FINAL SINGLE POINT ENERGY     -4764.612832833874

DIPOLE MOMENT
-------------
                                X             Y             Z
Electronic contribution:     10.14976      -3.94336      15.42586
Nuclear contribution   :    -14.41585       2.03258     -15.29103
                        -----------------------------------------
Total Dipole Moment    :     -4.26609      -1.91078       0.13483
                        -----------------------------------------
Magnitude (a.u.)       :      4.67641
Magnitude (Debye)      :     11.88648

Rotational constants in cm-1:     0.001158     0.000300     0.000261
Rotational constants in MHz :    34.702313     8.979281     7.834434

                             ****ORCA TERMINATED NORMALLY****
TOTAL RUN TIME: 0 days 0 hours 12 minutes 11 seconds 951 msec
