                         Program Version 4.2.0 -  RELEASE  -
|  1> # ORCA input file
|  2> # SCF done       -192.759585150788          0.000384564785
|  3> ! CAM-B3LYP def2-SVP def2/J RIJCOSX Grid4 TightSCF
|  4> %maxcore 5000
|  5> %tddft
|  6>     Mode sTDDFT
|  7>     Ethresh 5.0
|  8>     maxcore 5000
|  9> end
| 10>
| 11> %pal
| 12>   nprocs 6
| 13>   end
| 14> * xyz 0 1
| 15>    C      -13.90417         1.36234         1.16290
| 16>    C      -15.19865         1.59983         0.76878
| 17>    C      -16.25472         0.68308         0.93388
| 18>    N      -17.14414        -0.03597         1.03566
| 19>    C      -15.62577         2.82037         0.20993
| 20>    N      -16.03368         3.81072        -0.20581
| 21>    C      -13.42381         0.20637         1.90871
| 22>    C      -12.07770         0.44282         2.28292
| 23>    C      -11.34320        -0.46317         3.00681
| 24>    C      -11.96665        -1.66017         3.37779
| 25>    C      -13.30926        -1.88876         2.99444
| 26>    C      -14.05413        -0.97026         2.26371
| 27>    S      -13.87696        -3.43517         3.54680
| 28>    C      -12.32519        -3.74819         4.27736
| 29>    C      -11.42680        -2.74776         4.11731
| 30>   Br      -12.03682        -5.36732         5.17861
| 31>    C      -11.64103         1.75583         1.76139
| 32>    O      -10.53038         2.23749         1.85275
| 33>    C      -12.80379         2.28309         1.01517
| 34>    C      -12.74267         3.31131         0.10419
| 35>    C      -11.77976         4.32699         0.05651
| 36>    S      -11.38375         5.05133        -1.46766
| 37>    C      -10.21403         6.12286        -0.78555
| 38>    C      -10.15037         5.95362         0.61648
| 39>    C      -11.05893         4.95861         1.08916
| 40>    C      -11.25784         4.77466         2.46641
| 41>    C      -10.49156         5.48642         3.34468
| 42>    F      -10.66588         5.33822         4.66383
| 43>    C       -9.53069         6.40584         2.88044
| 44>    F       -8.79210         7.07967         3.77755
| 45>    C       -9.37283         6.66438         1.54787
| 46>    C       -9.60554         7.03473        -1.68082
| 47>    C       -8.59991         7.91968        -1.46021
| 48>    C       -8.24583         8.89594        -2.43467
| 49>    C       -7.28324         9.83144        -2.28625
| 50>    C       -6.39118         9.91989        -1.09282
| 51>    C       -7.20542        10.97080        -3.26877
| 52>    N       -7.88324        12.09586        -2.64349
| 53>    C       -7.23178        13.01640        -1.90255
| 54>    C       -7.75597        13.58233        -0.78124
| 55>    C       -7.12216        14.57066        -0.01188
| 56>    C       -7.47897        14.84867         1.28322
| 57>    C       -6.87459        15.75568         2.18405
| 58>    C       -7.32023        15.65077         3.46783
| 59>    C       -8.29415        14.64283         3.65141
| 60>    S       -8.70844        13.90840         2.12803
| 61>    C       -8.77972        14.12773         4.84044
| 62>    C       -8.37975        14.42319         6.15794
| 63>    C       -8.83259        13.52220         7.07647
| 64>    C       -9.59406        12.46044         6.53196
| 65>    S       -9.84453        12.73488         4.83221
| 66>    C      -10.07503        11.38797         7.26815
| 67>    C      -10.72901        10.22654         6.88116
| 68>    C      -10.96997         9.61452         5.66012
| 69>    C      -12.07800         8.62811         5.60968
| 70>    O      -12.70953         8.19249         6.54783
| 71>    C      -12.28505         8.33195         4.17518
| 72>    C      -13.22297         7.54374         3.57873
| 73>    C      -13.27699         7.48579         2.16567
| 74>    C      -12.37283         8.28031         1.40558
| 75>    C      -12.47714         8.27320         0.00262
| 76>    C      -13.42660         7.49431        -0.59890
| 77>    C      -14.30182         6.67848         0.12651
| 78>    C      -14.21997         6.68443         1.49250
| 79>    F      -13.51324         7.49580        -1.94692
| 80>    C      -11.38105         9.05444         2.05513
| 81>    C      -11.32320         9.05899         3.41975
| 82>    C      -10.40067         9.70450         4.35670
| 83>    C       -9.11513        10.09384         4.02471
| 84>    C       -8.12819        10.38868         4.98347
| 85>    N       -7.29674        10.62119         5.74112
| 86>    C       -8.62044        10.07659         2.71470
| 87>    N       -8.17602        10.07840         1.65186
| 88>    H      -10.32069        -0.25571         3.28053
| 89>    H      -15.07286        -1.18866         1.98895
| 90>    H      -10.42398        -2.77380         4.50290
| 91>    H      -13.46249         3.31128        -0.70663
| 92>    H      -12.01414         4.10496         2.83748
| 93>    H       -8.67287         7.42602         1.25378
| 94>    H      -10.04541         7.02445        -2.67255
| 95>    H       -8.07029         7.94627        -0.52395
| 96>    H       -8.83905         8.90025        -3.34149
| 97>    H       -6.96729        10.09548        -0.18275
| 98>    H       -5.67231        10.72798        -1.20120
| 99>    H       -5.84421         8.98839        -0.95717
|100>    H       -7.71770        10.72655        -4.20341
|101>    H       -6.17556        11.25784        -3.48794
|102>    H       -8.80498        11.85348        -2.29762
|103>    H       -6.24873        13.29411        -2.25998
|104>    H       -8.69380        13.19530        -0.40277
|105>    H       -6.27066        15.09352        -0.42635
|106>    H       -6.11086        16.44106         1.86048
|107>    H       -6.95619        16.24266         4.28795
|108>    H       -7.73944        15.25533         6.38839
|109>    H       -8.59468        13.55460         8.12458
|110>    H       -9.94433        11.50573         8.33774
|111>    H      -11.21665         9.69551         7.69538
|112>    H      -13.92495         6.97872         4.17327
|113>    H      -11.80995         8.87831        -0.59206
|114>    H      -15.02209         6.06602        -0.39240
|115>    H      -14.89333         6.07184         2.07267
|116>    H      -10.70186         9.63580         1.45170
|117> *
|118>
|119>                          ****END OF INPUT****

CARTESIAN COORDINATES (ANGSTROEM)
---------------------------------
  C    -13.904170    1.362340    1.162900
  C    -15.198650    1.599830    0.768780
  C    -16.254720    0.683080    0.933880
  N    -17.144140   -0.035970    1.035660
  C    -15.625770    2.820370    0.209930
  N    -16.033680    3.810720   -0.205810
  C    -13.423810    0.206370    1.908710
  C    -12.077700    0.442820    2.282920
  C    -11.343200   -0.463170    3.006810
  C    -11.966650   -1.660170    3.377790
  C    -13.309260   -1.888760    2.994440
  C    -14.054130   -0.970260    2.263710
  S    -13.876960   -3.435170    3.546800
  C    -12.325190   -3.748190    4.277360
  C    -11.426800   -2.747760    4.117310
  Br   -12.036820   -5.367320    5.178610
  C    -11.641030    1.755830    1.761390
  O    -10.530380    2.237490    1.852750
  C    -12.803790    2.283090    1.015170
  C    -12.742670    3.311310    0.104190
  C    -11.779760    4.326990    0.056510
  S    -11.383750    5.051330   -1.467660
  C    -10.214030    6.122860   -0.785550
  C    -10.150370    5.953620    0.616480
  C    -11.058930    4.958610    1.089160
  C    -11.257840    4.774660    2.466410
  C    -10.491560    5.486420    3.344680
  F    -10.665880    5.338220    4.663830
  C     -9.530690    6.405840    2.880440
  F     -8.792100    7.079670    3.777550
  C     -9.372830    6.664380    1.547870
  C     -9.605540    7.034730   -1.680820
  C     -8.599910    7.919680   -1.460210
  C     -8.245830    8.895940   -2.434670
  C     -7.283240    9.831440   -2.286250
  C     -6.391180    9.919890   -1.092820
  C     -7.205420   10.970800   -3.268770
  N     -7.883240   12.095860   -2.643490
  C     -7.231780   13.016400   -1.902550
  C     -7.755970   13.582330   -0.781240
  C     -7.122160   14.570660   -0.011880
  C     -7.478970   14.848670    1.283220
  C     -6.874590   15.755680    2.184050
  C     -7.320230   15.650770    3.467830
  C     -8.294150   14.642830    3.651410
  S     -8.708440   13.908400    2.128030
  C     -8.779720   14.127730    4.840440
  C     -8.379750   14.423190    6.157940
  C     -8.832590   13.522200    7.076470
  C     -9.594060   12.460440    6.531960
  S     -9.844530   12.734880    4.832210
  C    -10.075030   11.387970    7.268150
  C    -10.729010   10.226540    6.881160
  C    -10.969970    9.614520    5.660120
  C    -12.078000    8.628110    5.609680
  O    -12.709530    8.192490    6.547830
  C    -12.285050    8.331950    4.175180
  C    -13.222970    7.543740    3.578730
  C    -13.276990    7.485790    2.165670
  C    -12.372830    8.280310    1.405580
  C    -12.477140    8.273200    0.002620
  C    -13.426600    7.494310   -0.598900
  C    -14.301820    6.678480    0.126510
  C    -14.219970    6.684430    1.492500
  F    -13.513240    7.495800   -1.946920
  C    -11.381050    9.054440    2.055130
  C    -11.323200    9.058990    3.419750
  C    -10.400670    9.704500    4.356700
  C     -9.115130   10.093840    4.024710
  C     -8.128190   10.388680    4.983470
  N     -7.296740   10.621190    5.741120
  C     -8.620440   10.076590    2.714700
  N     -8.176020   10.078400    1.651860
  H    -10.320690   -0.255710    3.280530
  H    -15.072860   -1.188660    1.988950
  H    -10.423980   -2.773800    4.502900
  H    -13.462490    3.311280   -0.706630
  H    -12.014140    4.104960    2.837480
  H     -8.672870    7.426020    1.253780
  H    -10.045410    7.024450   -2.672550
  H     -8.070290    7.946270   -0.523950
  H     -8.839050    8.900250   -3.341490
  H     -6.967290   10.095480   -0.182750
  H     -5.672310   10.727980   -1.201200
  H     -5.844210    8.988390   -0.957170
  H     -7.717700   10.726550   -4.203410
  H     -6.175560   11.257840   -3.487940
  H     -8.804980   11.853480   -2.297620
  H     -6.248730   13.294110   -2.259980
  H     -8.693800   13.195300   -0.402770
  H     -6.270660   15.093520   -0.426350
  H     -6.110860   16.441060    1.860480
  H     -6.956190   16.242660    4.287950
  H     -7.739440   15.255330    6.388390
  H     -8.594680   13.554600    8.124580
  H     -9.944330   11.505730    8.337740
  H    -11.216650    9.695510    7.695380
  H    -13.924950    6.978720    4.173270
  H    -11.809950    8.878310   -0.592060
  H    -15.022090    6.066020   -0.392400
  H    -14.893330    6.071840    2.072670
  H    -10.701860    9.635800    1.451700

 Total Charge           Charge          ....    0
 Multiplicity           Mult            ....    1
 Number of Electrons    NEL             ....  554
 Basis Dimension        Dim             .... 1201

ORBITAL ENERGIES
----------------

  NO   OCC          E(Eh)            E(eV)
   0   2.0000    -482.880832    -13139.8554
   1   2.0000     -88.977628     -2421.2044
   2   2.0000     -88.970214     -2421.0026
   3   2.0000     -88.958242     -2420.6768
   4   2.0000     -88.955558     -2420.6038
   5   2.0000     -62.558557     -1702.3049
   6   2.0000     -56.392503     -1534.5180
   7   2.0000     -56.389796     -1534.4444
   8   2.0000     -56.389760     -1534.4434
   9   2.0000     -24.787251      -674.4954
  10   2.0000     -24.785792      -674.4557
  11   2.0000     -24.774991      -674.1618
  12   2.0000     -19.206565      -522.6372
  13   2.0000     -19.187286      -522.1126
  14   2.0000     -14.461088      -393.5062
  15   2.0000     -14.412902      -392.1950
  16   2.0000     -14.408344      -392.0710
  17   2.0000     -14.405732      -391.9999
  18   2.0000     -14.386067      -391.4648
  19   2.0000     -10.367740      -282.1205
  20   2.0000     -10.365609      -282.0625
  21   2.0000     -10.357990      -281.8552
  22   2.0000     -10.353362      -281.7293
  23   2.0000     -10.353186      -281.7245
  24   2.0000     -10.344747      -281.4949
  25   2.0000     -10.337731      -281.3040
  26   2.0000     -10.334083      -281.2047
  27   2.0000     -10.333356      -281.1849
  28   2.0000     -10.332970      -281.1744
  29   2.0000     -10.331697      -281.1398
  30   2.0000     -10.330790      -281.1151
  31   2.0000     -10.319254      -280.8012
  32   2.0000     -10.317637      -280.7572
  33   2.0000     -10.316838      -280.7354
  34   2.0000     -10.316074      -280.7146
  35   2.0000     -10.314472      -280.6711
  36   2.0000     -10.312451      -280.6161
  37   2.0000     -10.311736      -280.5966
  38   2.0000     -10.311297      -280.5847
  39   2.0000     -10.311280      -280.5842
  40   2.0000     -10.310830      -280.5720
  41   2.0000     -10.309973      -280.5486
  42   2.0000     -10.305528      -280.4277
  43   2.0000     -10.304095      -280.3887
  44   2.0000     -10.301434      -280.3163
  45   2.0000     -10.301151      -280.3086
  46   2.0000     -10.300328      -280.2862
  47   2.0000     -10.299841      -280.2729
  48   2.0000     -10.298964      -280.2490
  49   2.0000     -10.298853      -280.2460
  50   2.0000     -10.297174      -280.2003
  51   2.0000     -10.295675      -280.1596
  52   2.0000     -10.294085      -280.1163
  53   2.0000     -10.292930      -280.0849
  54   2.0000     -10.291264      -280.0395
  55   2.0000     -10.290733      -280.0251
  56   2.0000     -10.289126      -279.9813
  57   2.0000     -10.288323      -279.9595
  58   2.0000     -10.288266      -279.9580
  59   2.0000     -10.287458      -279.9360
  60   2.0000     -10.285891      -279.8933
  61   2.0000     -10.285812      -279.8912
  62   2.0000     -10.283448      -279.8268
  63   2.0000     -10.282570      -279.8030
  64   2.0000     -10.282243      -279.7940
  65   2.0000     -10.281214      -279.7660
  66   2.0000     -10.281206      -279.7658
  67   2.0000     -10.278670      -279.6968
  68   2.0000     -10.277743      -279.6716
  69   2.0000     -10.277717      -279.6709
  70   2.0000     -10.275957      -279.6230
  71   2.0000     -10.274502      -279.5834
  72   2.0000     -10.272135      -279.5190
  73   2.0000     -10.270285      -279.4687
  74   2.0000     -10.267052      -279.3807
  75   2.0000     -10.265332      -279.3339
  76   2.0000     -10.264295      -279.3057
  77   2.0000      -8.787991      -239.1334
  78   2.0000      -8.072509      -219.6641
  79   2.0000      -8.066143      -219.4909
  80   2.0000      -8.054321      -219.1692
  81   2.0000      -8.050390      -219.0623
  82   2.0000      -6.624286      -180.2560
  83   2.0000      -6.609713      -179.8594
  84   2.0000      -6.609549      -179.8550
  85   2.0000      -6.041448      -164.3962
  86   2.0000      -6.037455      -164.2875
  87   2.0000      -6.035852      -164.2439
  88   2.0000      -6.035260      -164.2278
  89   2.0000      -6.031550      -164.1268
  90   2.0000      -6.027393      -164.0137
  91   2.0000      -6.023970      -163.9206
  92   2.0000      -6.019901      -163.8098
  93   2.0000      -6.019839      -163.8081
  94   2.0000      -6.015608      -163.6930
  95   2.0000      -6.015433      -163.6883
  96   2.0000      -6.012200      -163.6003
  97   2.0000      -2.740141       -74.5630
  98   2.0000      -2.736099       -74.4530
  99   2.0000      -2.735911       -74.4479
 100   2.0000      -2.724363       -74.1337
 101   2.0000      -2.724349       -74.1333
 102   2.0000      -1.308173       -35.5972
 103   2.0000      -1.293066       -35.1861
 104   2.0000      -1.287484       -35.0342
 105   2.0000      -1.121659       -30.5219
 106   2.0000      -1.101935       -29.9852
 107   2.0000      -1.063405       -28.9367
 108   2.0000      -1.017260       -27.6811
 109   2.0000      -1.011888       -27.5349
 110   2.0000      -1.007994       -27.4289
 111   2.0000      -1.005453       -27.3598
 112   2.0000      -0.999837       -27.2070
 113   2.0000      -0.989756       -26.9326
 114   2.0000      -0.983408       -26.7599
 115   2.0000      -0.982886       -26.7457
 116   2.0000      -0.980188       -26.6723
 117   2.0000      -0.970355       -26.4047
 118   2.0000      -0.953983       -25.9592
 119   2.0000      -0.948205       -25.8020
 120   2.0000      -0.939817       -25.5737
 121   2.0000      -0.934795       -25.4371
 122   2.0000      -0.919388       -25.0178
 123   2.0000      -0.909588       -24.7512
 124   2.0000      -0.905767       -24.6472
 125   2.0000      -0.902647       -24.5623
 126   2.0000      -0.890443       -24.2302
 127   2.0000      -0.883550       -24.0426
 128   2.0000      -0.879927       -23.9440
 129   2.0000      -0.874593       -23.7989
 130   2.0000      -0.866820       -23.5874
 131   2.0000      -0.865959       -23.5639
 132   2.0000      -0.857879       -23.3441
 133   2.0000      -0.849016       -23.1029
 134   2.0000      -0.847180       -23.0529
 135   2.0000      -0.839780       -22.8516
 136   2.0000      -0.831064       -22.6144
 137   2.0000      -0.825480       -22.4624
 138   2.0000      -0.823333       -22.4040
 139   2.0000      -0.815138       -22.1810
 140   2.0000      -0.812614       -22.1123
 141   2.0000      -0.802231       -21.8298
 142   2.0000      -0.784244       -21.3404
 143   2.0000      -0.781231       -21.2584
 144   2.0000      -0.759115       -20.6566
 145   2.0000      -0.753910       -20.5149
 146   2.0000      -0.748572       -20.3697
 147   2.0000      -0.738609       -20.0986
 148   2.0000      -0.737361       -20.0646
 149   2.0000      -0.730133       -19.8679
 150   2.0000      -0.717039       -19.5116
 151   2.0000      -0.709835       -19.3156
 152   2.0000      -0.708454       -19.2780
 153   2.0000      -0.697996       -18.9934
 154   2.0000      -0.690159       -18.7802
 155   2.0000      -0.685896       -18.6642
 156   2.0000      -0.685191       -18.6450
 157   2.0000      -0.678075       -18.4514
 158   2.0000      -0.668316       -18.1858
 159   2.0000      -0.667370       -18.1601
 160   2.0000      -0.658588       -17.9211
 161   2.0000      -0.656602       -17.8670
 162   2.0000      -0.649256       -17.6671
 163   2.0000      -0.645413       -17.5626
 164   2.0000      -0.636529       -17.3208
 165   2.0000      -0.634832       -17.2747
 166   2.0000      -0.629072       -17.1179
 167   2.0000      -0.622450       -16.9377
 168   2.0000      -0.620223       -16.8771
 169   2.0000      -0.615732       -16.7549
 170   2.0000      -0.614041       -16.7089
 171   2.0000      -0.613216       -16.6865
 172   2.0000      -0.609613       -16.5884
 173   2.0000      -0.608867       -16.5681
 174   2.0000      -0.597458       -16.2577
 175   2.0000      -0.594017       -16.1640
 176   2.0000      -0.591208       -16.0876
 177   2.0000      -0.586977       -15.9725
 178   2.0000      -0.583870       -15.8879
 179   2.0000      -0.578499       -15.7417
 180   2.0000      -0.573674       -15.6105
 181   2.0000      -0.572380       -15.5752
 182   2.0000      -0.570193       -15.5157
 183   2.0000      -0.561144       -15.2695
 184   2.0000      -0.554149       -15.0792
 185   2.0000      -0.550927       -14.9915
 186   2.0000      -0.546954       -14.8834
 187   2.0000      -0.545225       -14.8363
 188   2.0000      -0.544502       -14.8167
 189   2.0000      -0.541001       -14.7214
 190   2.0000      -0.537490       -14.6259
 191   2.0000      -0.536152       -14.5894
 192   2.0000      -0.534490       -14.5442
 193   2.0000      -0.531217       -14.4551
 194   2.0000      -0.530277       -14.4296
 195   2.0000      -0.527578       -14.3561
 196   2.0000      -0.525645       -14.3035
 197   2.0000      -0.524348       -14.2682
 198   2.0000      -0.519316       -14.1313
 199   2.0000      -0.516382       -14.0515
 200   2.0000      -0.512752       -13.9527
 201   2.0000      -0.509478       -13.8636
 202   2.0000      -0.508343       -13.8327
 203   2.0000      -0.506733       -13.7889
 204   2.0000      -0.504071       -13.7165
 205   2.0000      -0.503611       -13.7040
 206   2.0000      -0.501554       -13.6480
 207   2.0000      -0.499331       -13.5875
 208   2.0000      -0.497901       -13.5486
 209   2.0000      -0.497439       -13.5360
 210   2.0000      -0.492753       -13.4085
 211   2.0000      -0.490623       -13.3505
 212   2.0000      -0.488494       -13.2926
 213   2.0000      -0.487520       -13.2661
 214   2.0000      -0.486382       -13.2351
 215   2.0000      -0.484136       -13.1740
 216   2.0000      -0.480479       -13.0745
 217   2.0000      -0.479536       -13.0488
 218   2.0000      -0.474736       -12.9182
 219   2.0000      -0.472714       -12.8632
 220   2.0000      -0.469470       -12.7749
 221   2.0000      -0.468983       -12.7617
 222   2.0000      -0.462858       -12.5950
 223   2.0000      -0.462534       -12.5862
 224   2.0000      -0.460590       -12.5333
 225   2.0000      -0.459538       -12.5047
 226   2.0000      -0.456791       -12.4299
 227   2.0000      -0.453556       -12.3419
 228   2.0000      -0.451337       -12.2815
 229   2.0000      -0.448790       -12.2122
 230   2.0000      -0.443369       -12.0647
 231   2.0000      -0.442001       -12.0275
 232   2.0000      -0.440462       -11.9856
 233   2.0000      -0.440412       -11.9842
 234   2.0000      -0.437458       -11.9038
 235   2.0000      -0.436535       -11.8787
 236   2.0000      -0.434078       -11.8118
 237   2.0000      -0.433721       -11.8022
 238   2.0000      -0.431957       -11.7541
 239   2.0000      -0.429764       -11.6945
 240   2.0000      -0.428736       -11.6665
 241   2.0000      -0.424833       -11.5603
 242   2.0000      -0.423169       -11.5150
 243   2.0000      -0.422251       -11.4900
 244   2.0000      -0.419369       -11.4116
 245   2.0000      -0.418096       -11.3770
 246   2.0000      -0.416115       -11.3231
 247   2.0000      -0.414258       -11.2725
 248   2.0000      -0.411185       -11.1889
 249   2.0000      -0.408070       -11.1042
 250   2.0000      -0.404880       -11.0174
 251   2.0000      -0.402548       -10.9539
 252   2.0000      -0.401158       -10.9161
 253   2.0000      -0.399337       -10.8665
 254   2.0000      -0.385839       -10.4992
 255   2.0000      -0.384648       -10.4668
 256   2.0000      -0.381571       -10.3831
 257   2.0000      -0.375869       -10.2279
 258   2.0000      -0.370312       -10.0767
 259   2.0000      -0.364945        -9.9307
 260   2.0000      -0.354706        -9.6520
 261   2.0000      -0.349832        -9.5194
 262   2.0000      -0.343702        -9.3526
 263   2.0000      -0.337951        -9.1961
 264   2.0000      -0.324960        -8.8426
 265   2.0000      -0.321690        -8.7536
 266   2.0000      -0.318499        -8.6668
 267   2.0000      -0.315270        -8.5789
 268   2.0000      -0.310857        -8.4588
 269   2.0000      -0.309246        -8.4150
 270   2.0000      -0.306018        -8.3272
 271   2.0000      -0.289276        -7.8716
 272   2.0000      -0.288771        -7.8579
 273   2.0000      -0.282406        -7.6846
 274   2.0000      -0.271241        -7.3808
 275   2.0000      -0.244865        -6.6631
 276   2.0000      -0.220911        -6.0113
 277   0.0000      -0.100255        -2.7281
 278   0.0000      -0.091338        -2.4854
 279   0.0000      -0.063120        -1.7176
 280   0.0000      -0.044614        -1.2140
 281   0.0000      -0.032293        -0.8787

MULLIKEN ATOMIC CHARGES
-----------------------
   0 C :    0.290274
   1 C :   -0.347603
   2 C :   -0.182774
   3 N :    0.145278
   4 C :   -0.193448
   5 N :    0.146888
   6 C :    0.018842
   7 C :   -0.015545
   8 C :   -0.071054
   9 C :    0.115069
  10 C :   -0.090889
  11 C :   -0.024512
  12 S :    0.183384
  13 C :   -0.123873
  14 C :    0.040924
  15 Br:    0.020196
  16 C :    0.128873
  17 O :   -0.147799
  18 C :   -0.130227
  19 C :    0.015035
  20 C :   -0.137185
  21 S :    0.177950
  22 C :   -0.106667
  23 C :    0.152444
  24 C :    0.154748
  25 C :   -0.072047
  26 C :    0.233475
  27 F :   -0.169662
  28 C :    0.223049
  29 F :   -0.170897
  30 C :   -0.101755
  31 C :    0.040829
  32 C :    0.007557
  33 C :   -0.003178
  34 C :   -0.229341
  35 C :    0.106251
  36 C :    0.201203
  37 N :   -0.128202
  38 C :    0.056563
  39 C :   -0.024355
  40 C :    0.025275
  41 C :   -0.059014
  42 C :    0.060729
  43 C :    0.013050
  44 C :   -0.013869
  45 S :    0.100721
  46 C :   -0.071312
  47 C :    0.045123
  48 C :    0.045853
  49 C :   -0.035927
  50 S :    0.118723
  51 C :   -0.008681
  52 C :    0.029179
  53 C :   -0.146208
  54 C :    0.132777
  55 O :   -0.154156
  56 C :    0.023880
  57 C :   -0.104719
  58 C :    0.116891
  59 C :    0.096350
  60 C :   -0.081045
  61 C :    0.285064
  62 C :   -0.029623
  63 C :   -0.029309
  64 F :   -0.204435
  65 C :   -0.107091
  66 C :    0.033949
  67 C :    0.281372
  68 C :   -0.391694
  69 C :   -0.202734
  70 N :    0.157051
  71 C :   -0.144974
  72 N :    0.124857
  73 H :   -0.011395
  74 H :   -0.006275
  75 H :   -0.004015
  76 H :    0.027735
  77 H :   -0.009698
  78 H :   -0.026579
  79 H :   -0.010168
  80 H :    0.014250
  81 H :   -0.025348
  82 H :    0.048145
  83 H :   -0.003397
  84 H :    0.034512
  85 H :    0.018666
  86 H :    0.023535
  87 H :    0.126391
  88 H :    0.012519
  89 H :    0.004521
  90 H :   -0.004098
  91 H :   -0.004474
  92 H :   -0.007772
  93 H :   -0.012284
  94 H :   -0.010895
  95 H :   -0.007001
  96 H :    0.019286
  97 H :   -0.018642
  98 H :   -0.027740
  99 H :    0.006923
 100 H :   -0.012358
 101 H :   -0.028218
Sum of atomic charges:   -0.0000000

LOEWDIN ATOMIC CHARGES
----------------------
   0 C :    0.077553
   1 C :   -0.154752
   2 C :   -0.020519
   3 N :   -0.059061
   4 C :   -0.012638
   5 N :   -0.066556
   6 C :   -0.022343
   7 C :   -0.047198
   8 C :    0.019586
   9 C :   -0.033240
  10 C :   -0.146215
  11 C :   -0.010517
  12 S :    0.430580
  13 C :   -0.272914
  14 C :   -0.069988
  15 Br:    0.134355
  16 C :    0.072691
  17 O :   -0.142515
  18 C :   -0.118373
  19 C :    0.041420
  20 C :   -0.192252
  21 S :    0.514542
  22 C :   -0.131956
  23 C :   -0.046549
  24 C :   -0.006910
  25 C :   -0.020174
  26 C :    0.075306
  27 F :   -0.043707
  28 C :    0.066448
  29 F :   -0.044993
  30 C :   -0.031427
  31 C :   -0.056537
  32 C :    0.006179
  33 C :   -0.058773
  34 C :   -0.019679
  35 C :   -0.063767
  36 C :    0.050768
  37 N :    0.016309
  38 C :    0.068195
  39 C :   -0.119785
  40 C :    0.007552
  41 C :   -0.182283
  42 C :   -0.000133
  43 C :   -0.055424
  44 C :   -0.128125
  45 S :    0.399811
  46 C :   -0.213628
  47 C :   -0.014041
  48 C :   -0.045597
  49 C :   -0.109925
  50 S :    0.470180
  51 C :   -0.080899
  52 C :    0.036206
  53 C :   -0.116137
  54 C :    0.081645
  55 O :   -0.155072
  56 C :   -0.058297
  57 C :    0.026433
  58 C :   -0.024192
  59 C :   -0.002200
  60 C :   -0.051971
  61 C :    0.077435
  62 C :   -0.040219
  63 C :    0.003525
  64 F :   -0.076738
  65 C :   -0.008986
  66 C :   -0.015497
  67 C :    0.041876
  68 C :   -0.187250
  69 C :   -0.034302
  70 N :   -0.073291
  71 C :    0.013371
  72 N :   -0.105610
  73 H :    0.040647
  74 H :    0.040714
  75 H :    0.038734
  76 H :    0.042646
  77 H :    0.040998
  78 H :    0.037659
  79 H :    0.029680
  80 H :    0.033118
  81 H :    0.024244
  82 H :    0.041077
  83 H :    0.024633
  84 H :    0.041720
  85 H :    0.027860
  86 H :    0.030954
  87 H :    0.083346
  88 H :    0.030152
  89 H :    0.022873
  90 H :    0.037211
  91 H :    0.036905
  92 H :    0.033669
  93 H :    0.033006
  94 H :    0.034377
  95 H :    0.038924
  96 H :    0.044823
  97 H :    0.037150
  98 H :    0.032170
  99 H :    0.038599
 100 H :    0.034436
 101 H :    0.028864

  Mayer bond orders larger than 0.100000
B(  0-C ,  1-C ) :   1.6153 B(  0-C ,  6-C ) :   1.0069 B(  0-C , 18-C ) :   1.0941
B(  1-C ,  2-C ) :   1.1373 B(  1-C ,  4-C ) :   1.1551 B(  2-C ,  3-N ) :   2.9754
B(  4-C ,  5-N ) :   2.9627 B(  6-C ,  7-C ) :   1.2743 B(  6-C , 11-C ) :   1.4151
B(  7-C ,  8-C ) :   1.4358 B(  7-C , 16-C ) :   0.9332 B(  8-C ,  9-C ) :   1.2371
B(  8-C , 73-H ) :   1.0165 B(  9-C , 10-C ) :   1.3153 B(  9-C , 14-C ) :   1.1651
B( 10-C , 11-C ) :   1.3208 B( 10-C , 12-S ) :   1.0839 B( 11-C , 74-H ) :   0.9818
B( 12-S , 13-C ) :   1.0880 B( 13-C , 14-C ) :   1.6166 B( 13-C , 15-Br) :   1.0162
B( 14-C , 75-H ) :   0.9994 B( 16-C , 17-O ) :   2.2100 B( 16-C , 18-C ) :   0.9667
B( 18-C , 19-C ) :   1.5041 B( 19-C , 20-C ) :   1.2712 B( 19-C , 76-H ) :   0.9373
B( 20-C , 21-S ) :   1.1014 B( 20-C , 24-C ) :   1.2910 B( 21-S , 22-C ) :   1.2202
B( 22-C , 23-C ) :   1.2843 B( 22-C , 31-C ) :   1.1351 B( 23-C , 24-C ) :   1.2571
B( 23-C , 30-C ) :   1.1689 B( 24-C , 25-C ) :   1.1974 B( 25-C , 26-C ) :   1.4789
B( 25-C , 30-C ) :   0.1090 B( 25-C , 77-H ) :   0.9918 B( 26-C , 27-F ) :   1.1304
B( 26-C , 28-C ) :   1.1779 B( 28-C , 29-F ) :   1.1068 B( 28-C , 30-C ) :   1.4993
B( 30-C , 78-H ) :   0.9941 B( 31-C , 32-C ) :   1.6474 B( 31-C , 79-H ) :   0.9525
B( 32-C , 33-C ) :   1.1389 B( 32-C , 80-H ) :   0.9734 B( 33-C , 34-C ) :   1.7160
B( 33-C , 81-H ) :   0.9800 B( 34-C , 35-C ) :   1.0762 B( 34-C , 36-C ) :   1.0514
B( 35-C , 82-H ) :   0.9072 B( 35-C , 83-H ) :   0.9364 B( 35-C , 84-H ) :   0.9359
B( 36-C , 37-N ) :   0.9959 B( 36-C , 85-H ) :   0.9442 B( 36-C , 86-H ) :   0.9307
B( 37-N , 38-C ) :   1.2704 B( 37-N , 87-H ) :   0.9319 B( 38-C , 39-C ) :   1.5580
B( 38-C , 88-H ) :   0.9714 B( 39-C , 40-C ) :   1.2107 B( 39-C , 89-H ) :   0.9539
B( 40-C , 41-C ) :   1.5447 B( 40-C , 90-H ) :   0.9823 B( 41-C , 42-C ) :   1.1722
B( 41-C , 45-S ) :   1.0184 B( 42-C , 43-C ) :   1.5574 B( 42-C , 91-H ) :   0.9977
B( 43-C , 44-C ) :   1.2151 B( 43-C , 92-H ) :   0.9951 B( 44-C , 45-S ) :   1.1147
B( 44-C , 46-C ) :   1.4245 B( 46-C , 47-C ) :   1.2329 B( 46-C , 50-S ) :   1.0383
B( 47-C , 48-C ) :   1.5347 B( 47-C , 93-H ) :   0.9903 B( 48-C , 49-C ) :   1.2009
B( 48-C , 94-H ) :   0.9967 B( 49-C , 50-S ) :   1.1284 B( 49-C , 51-C ) :   1.3913
B( 51-C , 52-C ) :   1.3909 B( 51-C , 95-H ) :   0.9538 B( 52-C , 53-C ) :   1.4076
B( 52-C , 96-H ) :   0.9272 B( 53-C , 54-C ) :   0.9734 B( 53-C , 67-C ) :   1.1726
B( 54-C , 55-O ) :   2.2485 B( 54-C , 56-C ) :   0.9097 B( 56-C , 57-C ) :   1.4721
B( 56-C , 66-C ) :   1.2383 B( 57-C , 58-C ) :   1.1625 B( 57-C , 97-H ) :   1.0213
B( 58-C , 59-C ) :   1.2791 B( 58-C , 63-C ) :   1.2196 B( 59-C , 60-C ) :   1.2155
B( 59-C , 65-C ) :   1.1796 B( 60-C , 61-C ) :   1.4273 B( 60-C , 98-H ) :   1.0002
B( 61-C , 62-C ) :   1.2557 B( 61-C , 64-F ) :   1.0696 B( 62-C , 63-C ) :   1.4532
B( 62-C , 99-H ) :   0.9866 B( 63-C ,100-H ) :   1.0025 B( 65-C , 66-C ) :   1.4798
B( 65-C ,101-H ) :   0.9940 B( 66-C , 67-C ) :   0.9800 B( 67-C , 68-C ) :   1.4969
B( 68-C , 69-C ) :   1.1583 B( 68-C , 71-C ) :   1.1868 B( 69-C , 70-N ) :   3.0171
B( 71-C , 72-N ) :   2.8734 B( 72-N , 82-H ) :   0.1254

-----------------------------------------------------------------------------
         ABSORPTION SPECTRUM VIA TRANSITION ELECTRIC DIPOLE MOMENTS
-----------------------------------------------------------------------------
State   Energy  Wavelength   fosc         T2         TX        TY        TZ
        (cm-1)    (nm)                  (au**2)     (au)      (au)      (au)
-----------------------------------------------------------------------------
   0   12131.4    824.3   0.269415881   7.31121   0.92262   1.27636  -2.19793
   1   14860.9    672.9   0.416687975   9.23082  -1.33858  -2.62077   0.75539
   2   16017.4    624.3   0.865791073  17.79493  -2.26541  -3.46977   0.78965
   3   20555.4    486.5   0.024650508   0.39480   0.18211  -0.28299  -0.53061
   4   21677.1    461.3   0.096801858   1.47014  -0.71686  -0.76599   0.60787
   5   21988.0    454.8   0.120056728   1.79753   0.65078   1.08366   0.44688
   6   22859.0    437.5   0.055803092   0.80367  -0.12622   0.88742  -0.01472
   7   23695.9    422.0   0.324875341   4.51357   0.92082  -0.26790  -1.89576
   8   24572.4    407.0   0.008629413   0.11561  -0.01943   0.30067  -0.15758
   9   25058.4    399.1   0.048218933   0.63349  -0.20663   0.45156   0.62200
  10   25422.7    393.3   0.140326093   1.81716  -0.24789   0.86072   1.00741
  11   25681.0    389.4   0.074778952   0.95861   0.13362   0.91666   0.31701
  12   26213.7    381.5   0.221866321   2.78636   0.17650   0.31829   1.62908
  13   26788.2    373.3   0.267642369   3.28917  -0.10813  -1.51568  -0.99004
  14   26838.2    372.6   0.186521389   2.28797  -0.48124   0.90114  -1.11550
  15   27825.6    359.4   0.247826738   2.93210   0.02020  -0.62631  -1.59356
  16   28302.6    353.3   0.146134455   1.69981  -0.26964  -0.72918  -1.04661
  17   28582.3    349.9   0.068396068   0.78779   0.32293   0.28913  -0.77454
  18   29061.0    344.1   0.024516349   0.27773   0.30368   0.11029  -0.41635
  19   29450.3    339.6   0.012823548   0.14335  -0.02530   0.07232  -0.37078
  20   29718.3    336.5   0.027563066   0.30534   0.13545   0.20860   0.49343
  21   29956.6    333.8   0.064787258   0.71199  -0.08484  -0.82215  -0.16987
  22   30461.4    328.3   0.133151598   1.43904  -0.84443  -0.33819   0.78205
  23   30730.7    325.4   0.042543179   0.45576  -0.34342   0.16326  -0.55782
  24   31009.2    322.5   0.019366397   0.20560   0.20326  -0.04152  -0.40319
  25   31154.5    321.0   0.025668361   0.27124   0.38892   0.24099   0.24881
  26   31333.7    319.1   0.002032971   0.02136   0.12290  -0.07080   0.03525
  27   31967.6    312.8   0.007180945   0.07395  -0.23429   0.10038  -0.09478
  28   32214.2    310.4   0.095307611   0.97399  -0.16743  -0.97106   0.05479
  29   32304.2    309.6   0.409604109   4.17427  -1.00800   1.64817  -0.66464
  30   32632.5    306.4   0.520437081   5.25041   1.35697   1.14109   1.45153
  31   32856.8    304.4   0.014105822   0.14133   0.22370   0.23794  -0.18622
  32   33111.9    302.0   0.038208062   0.37988  -0.30138   0.18529  -0.50470
  33   33457.1    298.9   0.051344645   0.50522   0.52223  -0.47959  -0.04999
  34   33935.8    294.7   0.015489060   0.15026   0.04660  -0.38418   0.02218
  35   34098.5    293.3   0.127668411   1.23261   0.31348   0.90703  -0.55824
  36   34248.4    292.0   0.084245462   0.80981   0.25095   0.64709  -0.57281
  37   34609.5    288.9   0.032592330   0.31002  -0.01412   0.50933  -0.22453
  38   34874.2    286.7   0.036839787   0.34777  -0.21534  -0.30959   0.45338
  39   35130.8    284.7   0.034310393   0.32152   0.11345   0.47796  -0.28321
  40   35266.5    283.6   0.005617911   0.05244   0.11499   0.19116  -0.05176
  41   35530.1    281.5   0.035462708   0.32859   0.35245   0.08950   0.44312
  42   35577.9    281.1   0.092385451   0.85487   0.71778   0.58269   0.01144
  43   35749.1    279.7   0.066563265   0.61298  -0.69907  -0.31223  -0.16366
  44   36309.4    275.4   0.008413281   0.07628  -0.17458  -0.13210  -0.16838
  45   36452.3    274.3   0.067828791   0.61258  -0.57884  -0.42059  -0.31722
  46   36617.7    273.1   0.269332004   2.42143  -1.48433  -0.39032  -0.25662
  47   36925.8    270.8   0.064545052   0.57545   0.48753   0.57849  -0.05577
  48   37014.1    270.2   0.185670426   1.65140   0.92802   0.58130  -0.67251
  49   37613.9    265.9   0.015989361   0.13995   0.34778   0.13407  -0.03186
  50   37885.8    264.0   0.074684291   0.64898  -0.72131   0.07568  -0.35067
  51   38066.8    262.7   0.101737454   0.87985   0.76525  -0.28215   0.46329
  52   38279.3    261.2   0.007960165   0.06846  -0.01170  -0.25773   0.04359
  53   38315.9    261.0   0.026550096   0.22812   0.06472   0.27563  -0.38466
  54   38634.6    258.8   0.008618631   0.07344   0.22484   0.02433   0.14932
  55   38882.0    257.2   0.150671796   1.27573  -0.56986  -0.68074   0.69828
  56   39000.9    256.4   0.022380280   0.18892   0.19879   0.38596  -0.02076
  57   39326.6    254.3   0.059522618   0.49828   0.52892   0.39542  -0.24933
  58   39657.7    252.2   0.035541856   0.29504   0.05765   0.00336   0.54010
  59   39780.2    251.4   0.026478817   0.21913   0.08043  -0.13718   0.44028
  60   39856.5    250.9   0.015662218   0.12937  -0.11278  -0.14175  -0.31074
  61   39928.4    250.4   0.008869890   0.07313  -0.17066  -0.08370  -0.19236
  62   40101.7    249.4   0.028241740   0.23185  -0.37815  -0.18171  -0.23629
  63   40163.9    249.0   0.019097309   0.15654  -0.11079   0.14499  -0.35106

FINAL SINGLE POINT ENERGY     -7113.761031101729

DIPOLE MOMENT
-------------
                                X             Y             Z
Electronic contribution:    -45.13850    -177.82414      53.86221
Nuclear contribution   :     48.62482     180.84318     -56.62134
                        -----------------------------------------
Total Dipole Moment    :      3.48632       3.01904      -2.75913
                        -----------------------------------------
Magnitude (a.u.)       :      5.37418
Magnitude (Debye)      :     13.66009

Rotational constants in cm-1:     0.001540     0.000373     0.000342
Rotational constants in MHz :    46.174012    11.188270    10.248325

                             ****ORCA TERMINATED NORMALLY****
TOTAL RUN TIME: 0 days 0 hours 13 minutes 9 seconds 631 msec
