                         Program Version 4.2.0 -  RELEASE  -
|  1> # ORCA input file
|  2> # SCF done       -161.396752932180          0.000654092641
|  3> ! CAM-B3LYP def2-SVP def2/J RIJCOSX Grid4 TightSCF
|  4> %maxcore 5000
|  5> %tddft
|  6>     Mode sTDDFT
|  7>     Ethresh 5.0
|  8>     maxcore 5000
|  9> end
| 10>
| 11> %pal
| 12>   nprocs 6
| 13>   end
| 14> * xyz 0 1
| 15>    C       -6.10297       -17.69361         3.42577
| 16>    C       -4.97373       -17.37354         4.06949
| 17>    C       -4.65840       -17.62306         5.44782
| 18>    C       -3.41375       -17.25338         5.81338
| 19>    C       -2.63981       -16.67439         4.76495
| 20>    S       -3.59136       -16.58347         3.29234
| 21>    C       -1.32828       -16.28463         4.84035
| 22>    C       -0.45805       -16.40970         5.95593
| 23>    C        0.82235       -16.04153         5.71385
| 24>    C        1.06024       -15.58450         4.38715
| 25>    S       -0.45276       -15.60468         3.47248
| 26>    C        2.26563       -15.21914         3.88037
| 27>    N        2.47774       -14.76400         2.61582
| 28>    C        3.69684       -14.55803         2.06547
| 29>    S        5.13154       -15.10952         2.87531
| 30>    C        6.08840       -14.52311         1.54914
| 31>    N        7.46782       -14.67033         1.63277
| 32>    O        8.14467       -14.25796         0.70333
| 33>    O        7.90649       -15.20522         2.64225
| 34>    C        5.34013       -13.94321         0.55772
| 35>    C        3.96262       -13.93946         0.83381
| 36>    C        2.95613       -13.31614         0.01407
| 37>    C        3.16621       -12.85958        -1.23383
| 38>    C        2.15967       -12.18115        -1.99763
| 39>    C        2.27607       -11.82898        -3.28569
| 40>    C        3.49369       -12.11787        -4.11260
| 41>    C        1.16397       -11.14100        -4.04984
| 42>    N        0.02842       -10.72278        -3.27200
| 43>    C       -0.79591       -11.62269        -2.68751
| 44>    C       -1.75419       -11.31416        -1.78210
| 45>    C       -2.60680       -12.26953        -1.16632
| 46>    S       -4.19730       -11.81311        -0.67466
| 47>    C       -4.60037       -13.42322        -0.14509
| 48>    C       -3.51656       -14.28656        -0.31960
| 49>    C       -2.37328       -13.62234        -0.87176
| 50>    C       -1.16844       -14.32885        -0.97348
| 51>    C       -1.08620       -15.65567        -0.62095
| 52>    C        0.24878       -16.31367        -0.80365
| 53>    F        1.06878       -15.59898        -1.59763
| 54>    F        0.93847       -16.44574         0.36069
| 55>    F        0.19814       -17.53176        -1.35428
| 56>    C       -2.23950       -16.34413        -0.13068
| 57>    O       -2.30862       -17.66820         0.16345
| 58>    C       -1.34138       -18.27839         1.00297
| 59>    C       -3.41821       -15.64732         0.00938
| 60>    C       -5.89293       -13.64285         0.38475
| 61>    S       -6.51227       -15.17600         0.95374
| 62>    C       -8.05281       -14.54542         1.39611
| 63>    C       -8.11037       -13.20231         1.12242
| 64>    C       -6.89360       -12.70996         0.55528
| 65>    O       -6.97998       -11.38446         0.29437
| 66>    C       -8.23306       -11.03071         0.68687
| 67>    N       -8.61150        -9.67728         0.52882
| 68>    O       -9.73854        -9.38478         0.88472
| 69>    O       -7.80175        -8.90928         0.05539
| 70>    C       -8.96735       -12.06883         1.19381
| 71>    H       -6.90856       -18.17786         3.94897
| 72>    H       -6.24172       -17.48888         2.38083
| 73>    H       -5.37996       -18.08385         6.09862
| 74>    H       -3.01139       -17.37884         6.80253
| 75>    H       -0.80727       -16.78883         6.89877
| 76>    H        1.61997       -16.08808         6.43306
| 77>    H        3.14146       -15.27941         4.51027
| 78>    H        1.66594       -14.65896         2.01888
| 79>    H        5.79685       -13.52053        -0.31760
| 80>    H        1.97673       -13.19096         0.45967
| 81>    H        4.12622       -13.00571        -1.70197
| 82>    H        1.24832       -11.95058        -1.46067
| 83>    H        3.75106       -13.17386        -4.06394
| 84>    H        4.34769       -11.54709        -3.74944
| 85>    H        3.32563       -11.85313        -5.15324
| 86>    H        0.81365       -11.83445        -4.82624
| 87>    H        1.57119       -10.26211        -4.55878
| 88>    H        0.06689        -9.80329        -2.85848
| 89>    H       -0.68635       -12.63385        -3.05156
| 90>    H       -1.94159       -10.27529        -1.54587
| 91>    H       -0.28370       -13.81989        -1.31931
| 92>    H       -0.88794       -17.55661         1.68324
| 93>    H       -0.56605       -18.78488         0.42472
| 94>    H       -1.88511       -19.02286         1.58534
| 95>    H       -4.26828       -16.18326         0.39555
| 96>    H       -8.79403       -15.19125         1.81660
| 97>    H       -9.97168       -12.00990         1.55848
| 98> *
| 99>
|100>                          ****END OF INPUT****

CARTESIAN COORDINATES (ANGSTROEM)
---------------------------------
  C     -6.102970  -17.693610    3.425770
  C     -4.973730  -17.373540    4.069490
  C     -4.658400  -17.623060    5.447820
  C     -3.413750  -17.253380    5.813380
  C     -2.639810  -16.674390    4.764950
  S     -3.591360  -16.583470    3.292340
  C     -1.328280  -16.284630    4.840350
  C     -0.458050  -16.409700    5.955930
  C      0.822350  -16.041530    5.713850
  C      1.060240  -15.584500    4.387150
  S     -0.452760  -15.604680    3.472480
  C      2.265630  -15.219140    3.880370
  N      2.477740  -14.764000    2.615820
  C      3.696840  -14.558030    2.065470
  S      5.131540  -15.109520    2.875310
  C      6.088400  -14.523110    1.549140
  N      7.467820  -14.670330    1.632770
  O      8.144670  -14.257960    0.703330
  O      7.906490  -15.205220    2.642250
  C      5.340130  -13.943210    0.557720
  C      3.962620  -13.939460    0.833810
  C      2.956130  -13.316140    0.014070
  C      3.166210  -12.859580   -1.233830
  C      2.159670  -12.181150   -1.997630
  C      2.276070  -11.828980   -3.285690
  C      3.493690  -12.117870   -4.112600
  C      1.163970  -11.141000   -4.049840
  N      0.028420  -10.722780   -3.272000
  C     -0.795910  -11.622690   -2.687510
  C     -1.754190  -11.314160   -1.782100
  C     -2.606800  -12.269530   -1.166320
  S     -4.197300  -11.813110   -0.674660
  C     -4.600370  -13.423220   -0.145090
  C     -3.516560  -14.286560   -0.319600
  C     -2.373280  -13.622340   -0.871760
  C     -1.168440  -14.328850   -0.973480
  C     -1.086200  -15.655670   -0.620950
  C      0.248780  -16.313670   -0.803650
  F      1.068780  -15.598980   -1.597630
  F      0.938470  -16.445740    0.360690
  F      0.198140  -17.531760   -1.354280
  C     -2.239500  -16.344130   -0.130680
  O     -2.308620  -17.668200    0.163450
  C     -1.341380  -18.278390    1.002970
  C     -3.418210  -15.647320    0.009380
  C     -5.892930  -13.642850    0.384750
  S     -6.512270  -15.176000    0.953740
  C     -8.052810  -14.545420    1.396110
  C     -8.110370  -13.202310    1.122420
  C     -6.893600  -12.709960    0.555280
  O     -6.979980  -11.384460    0.294370
  C     -8.233060  -11.030710    0.686870
  N     -8.611500   -9.677280    0.528820
  O     -9.738540   -9.384780    0.884720
  O     -7.801750   -8.909280    0.055390
  C     -8.967350  -12.068830    1.193810
  H     -6.908560  -18.177860    3.948970
  H     -6.241720  -17.488880    2.380830
  H     -5.379960  -18.083850    6.098620
  H     -3.011390  -17.378840    6.802530
  H     -0.807270  -16.788830    6.898770
  H      1.619970  -16.088080    6.433060
  H      3.141460  -15.279410    4.510270
  H      1.665940  -14.658960    2.018880
  H      5.796850  -13.520530   -0.317600
  H      1.976730  -13.190960    0.459670
  H      4.126220  -13.005710   -1.701970
  H      1.248320  -11.950580   -1.460670
  H      3.751060  -13.173860   -4.063940
  H      4.347690  -11.547090   -3.749440
  H      3.325630  -11.853130   -5.153240
  H      0.813650  -11.834450   -4.826240
  H      1.571190  -10.262110   -4.558780
  H      0.066890   -9.803290   -2.858480
  H     -0.686350  -12.633850   -3.051560
  H     -1.941590  -10.275290   -1.545870
  H     -0.283700  -13.819890   -1.319310
  H     -0.887940  -17.556610    1.683240
  H     -0.566050  -18.784880    0.424720
  H     -1.885110  -19.022860    1.585340
  H     -4.268280  -16.183260    0.395550
  H     -8.794030  -15.191250    1.816600
  H     -9.971680  -12.009900    1.558480

 Total Charge           Charge          ....    0
 Multiplicity           Mult            ....    1
 Number of Electrons    NEL             ....  438
 Basis Dimension        Dim             ....  939

ORBITAL ENERGIES
----------------

  NO   OCC          E(Eh)            E(eV)
   0   2.0000     -88.977076     -2421.1893
   1   2.0000     -88.971980     -2421.0507
   2   2.0000     -88.959783     -2420.7188
   3   2.0000     -88.952334     -2420.5161
   4   2.0000     -88.939178     -2420.1581
   5   2.0000     -24.800585      -674.8582
   6   2.0000     -24.799923      -674.8402
   7   2.0000     -24.798778      -674.8091
   8   2.0000     -19.303263      -525.2685
   9   2.0000     -19.239975      -523.5463
  10   2.0000     -19.237732      -523.4853
  11   2.0000     -19.231118      -523.3053
  12   2.0000     -19.225537      -523.1535
  13   2.0000     -19.224725      -523.1314
  14   2.0000     -14.651357      -398.6837
  15   2.0000     -14.637124      -398.2964
  16   2.0000     -14.483298      -394.1106
  17   2.0000     -14.441325      -392.9684
  18   2.0000     -10.518357      -286.2190
  19   2.0000     -10.382538      -282.5232
  20   2.0000     -10.363307      -281.9999
  21   2.0000     -10.338583      -281.3272
  22   2.0000     -10.335756      -281.2502
  23   2.0000     -10.333304      -281.1835
  24   2.0000     -10.331637      -281.1381
  25   2.0000     -10.323743      -280.9233
  26   2.0000     -10.322309      -280.8843
  27   2.0000     -10.316675      -280.7310
  28   2.0000     -10.313446      -280.6431
  29   2.0000     -10.310753      -280.5699
  30   2.0000     -10.310055      -280.5509
  31   2.0000     -10.308326      -280.5038
  32   2.0000     -10.307427      -280.4793
  33   2.0000     -10.306220      -280.4465
  34   2.0000     -10.303004      -280.3590
  35   2.0000     -10.302261      -280.3388
  36   2.0000     -10.301409      -280.3156
  37   2.0000     -10.297831      -280.2182
  38   2.0000     -10.293749      -280.1071
  39   2.0000     -10.292849      -280.0827
  40   2.0000     -10.292196      -280.0649
  41   2.0000     -10.291263      -280.0395
  42   2.0000     -10.290770      -280.0261
  43   2.0000     -10.289114      -279.9810
  44   2.0000     -10.287974      -279.9500
  45   2.0000     -10.286086      -279.8986
  46   2.0000     -10.285697      -279.8881
  47   2.0000     -10.283308      -279.8230
  48   2.0000     -10.282519      -279.8016
  49   2.0000     -10.277431      -279.6631
  50   2.0000     -10.277106      -279.6543
  51   2.0000     -10.274193      -279.5750
  52   2.0000     -10.269521      -279.4479
  53   2.0000     -10.268288      -279.4143
  54   2.0000     -10.267822      -279.4016
  55   2.0000     -10.265320      -279.3336
  56   2.0000      -8.072561      -219.6656
  57   2.0000      -8.065709      -219.4791
  58   2.0000      -8.054827      -219.1830
  59   2.0000      -8.047623      -218.9870
  60   2.0000      -8.035013      -218.6438
  61   2.0000      -6.042284      -164.4189
  62   2.0000      -6.037897      -164.2995
  63   2.0000      -6.035241      -164.2273
  64   2.0000      -6.033875      -164.1901
  65   2.0000      -6.030743      -164.1048
  66   2.0000      -6.028065      -164.0320
  67   2.0000      -6.023961      -163.9203
  68   2.0000      -6.019654      -163.8031
  69   2.0000      -6.017545      -163.7457
  70   2.0000      -6.017471      -163.7437
  71   2.0000      -6.013564      -163.6374
  72   2.0000      -6.008310      -163.4944
  73   2.0000      -6.004923      -163.4022
  74   2.0000      -6.000900      -163.2928
  75   2.0000      -5.995580      -163.1480
  76   2.0000      -1.388834       -37.7921
  77   2.0000      -1.322674       -35.9918
  78   2.0000      -1.304185       -35.4887
  79   2.0000      -1.292064       -35.1589
  80   2.0000      -1.287484       -35.0342
  81   2.0000      -1.222699       -33.2713
  82   2.0000      -1.138803       -30.9884
  83   2.0000      -1.135678       -30.9034
  84   2.0000      -1.122894       -30.5555
  85   2.0000      -1.089946       -29.6589
  86   2.0000      -1.045226       -28.4420
  87   2.0000      -1.000705       -27.2306
  88   2.0000      -0.999396       -27.1949
  89   2.0000      -0.990371       -26.9494
  90   2.0000      -0.983462       -26.7614
  91   2.0000      -0.968505       -26.3543
  92   2.0000      -0.939614       -25.5682
  93   2.0000      -0.928989       -25.2791
  94   2.0000      -0.925323       -25.1793
  95   2.0000      -0.906572       -24.6691
  96   2.0000      -0.895606       -24.3707
  97   2.0000      -0.888108       -24.1666
  98   2.0000      -0.879013       -23.9192
  99   2.0000      -0.872607       -23.7448
 100   2.0000      -0.861646       -23.4466
 101   2.0000      -0.850562       -23.1450
 102   2.0000      -0.848805       -23.0971
 103   2.0000      -0.845962       -23.0198
 104   2.0000      -0.839420       -22.8418
 105   2.0000      -0.830836       -22.6082
 106   2.0000      -0.823143       -22.3989
 107   2.0000      -0.805324       -21.9140
 108   2.0000      -0.797721       -21.7071
 109   2.0000      -0.784447       -21.3459
 110   2.0000      -0.782404       -21.2903
 111   2.0000      -0.777366       -21.1532
 112   2.0000      -0.767772       -20.8921
 113   2.0000      -0.757139       -20.6028
 114   2.0000      -0.750251       -20.4154
 115   2.0000      -0.723143       -19.6777
 116   2.0000      -0.719970       -19.5914
 117   2.0000      -0.716434       -19.4951
 118   2.0000      -0.710635       -19.3374
 119   2.0000      -0.700922       -19.0731
 120   2.0000      -0.696791       -18.9606
 121   2.0000      -0.684566       -18.6280
 122   2.0000      -0.676322       -18.4037
 123   2.0000      -0.673081       -18.3155
 124   2.0000      -0.670782       -18.2529
 125   2.0000      -0.664992       -18.0954
 126   2.0000      -0.652428       -17.7535
 127   2.0000      -0.650911       -17.7122
 128   2.0000      -0.640823       -17.4377
 129   2.0000      -0.639137       -17.3918
 130   2.0000      -0.636319       -17.3151
 131   2.0000      -0.630757       -17.1638
 132   2.0000      -0.626427       -17.0459
 133   2.0000      -0.620934       -16.8965
 134   2.0000      -0.619915       -16.8687
 135   2.0000      -0.618137       -16.8204
 136   2.0000      -0.616951       -16.7881
 137   2.0000      -0.607840       -16.5402
 138   2.0000      -0.601172       -16.3587
 139   2.0000      -0.599304       -16.3079
 140   2.0000      -0.594418       -16.1749
 141   2.0000      -0.589411       -16.0387
 142   2.0000      -0.584290       -15.8993
 143   2.0000      -0.581723       -15.8295
 144   2.0000      -0.578627       -15.7452
 145   2.0000      -0.576547       -15.6886
 146   2.0000      -0.564278       -15.3548
 147   2.0000      -0.560842       -15.2613
 148   2.0000      -0.559047       -15.2125
 149   2.0000      -0.557056       -15.1583
 150   2.0000      -0.555961       -15.1285
 151   2.0000      -0.549303       -14.9473
 152   2.0000      -0.546637       -14.8748
 153   2.0000      -0.542291       -14.7565
 154   2.0000      -0.537880       -14.6365
 155   2.0000      -0.536589       -14.6013
 156   2.0000      -0.533368       -14.5137
 157   2.0000      -0.528579       -14.3834
 158   2.0000      -0.523866       -14.2551
 159   2.0000      -0.522490       -14.2177
 160   2.0000      -0.515541       -14.0286
 161   2.0000      -0.513812       -13.9815
 162   2.0000      -0.512982       -13.9589
 163   2.0000      -0.508172       -13.8281
 164   2.0000      -0.507233       -13.8025
 165   2.0000      -0.501844       -13.6559
 166   2.0000      -0.501241       -13.6395
 167   2.0000      -0.497078       -13.5262
 168   2.0000      -0.495126       -13.4731
 169   2.0000      -0.491794       -13.3824
 170   2.0000      -0.491142       -13.3646
 171   2.0000      -0.487026       -13.2527
 172   2.0000      -0.485125       -13.2009
 173   2.0000      -0.483966       -13.1694
 174   2.0000      -0.482637       -13.1332
 175   2.0000      -0.479665       -13.0524
 176   2.0000      -0.473876       -12.8948
 177   2.0000      -0.469929       -12.7874
 178   2.0000      -0.467811       -12.7298
 179   2.0000      -0.465486       -12.6665
 180   2.0000      -0.463128       -12.6024
 181   2.0000      -0.461541       -12.5592
 182   2.0000      -0.458779       -12.4840
 183   2.0000      -0.451771       -12.2933
 184   2.0000      -0.446283       -12.1440
 185   2.0000      -0.441999       -12.0274
 186   2.0000      -0.438897       -11.9430
 187   2.0000      -0.433446       -11.7947
 188   2.0000      -0.430031       -11.7017
 189   2.0000      -0.426458       -11.6045
 190   2.0000      -0.425278       -11.5724
 191   2.0000      -0.421420       -11.4674
 192   2.0000      -0.415159       -11.2971
 193   2.0000      -0.413585       -11.2542
 194   2.0000      -0.408683       -11.1208
 195   2.0000      -0.405518       -11.0347
 196   2.0000      -0.399826       -10.8798
 197   2.0000      -0.388895       -10.5824
 198   2.0000      -0.386143       -10.5075
 199   2.0000      -0.383419       -10.4334
 200   2.0000      -0.376408       -10.2426
 201   2.0000      -0.374409       -10.1882
 202   2.0000      -0.367412        -9.9978
 203   2.0000      -0.366778        -9.9805
 204   2.0000      -0.365532        -9.9466
 205   2.0000      -0.357001        -9.7145
 206   2.0000      -0.354112        -9.6359
 207   2.0000      -0.350091        -9.5265
 208   2.0000      -0.340466        -9.2645
 209   2.0000      -0.336201        -9.1485
 210   2.0000      -0.324129        -8.8200
 211   2.0000      -0.322979        -8.7887
 212   2.0000      -0.310624        -8.4525
 213   2.0000      -0.300356        -8.1731
 214   2.0000      -0.297690        -8.1006
 215   2.0000      -0.287537        -7.8243
 216   2.0000      -0.263823        -7.1790
 217   2.0000      -0.217932        -5.9302
 218   2.0000      -0.216915        -5.9026
 219   0.0000      -0.064280        -1.7492
 220   0.0000      -0.063097        -1.7170
 221   0.0000      -0.042196        -1.1482
 222   0.0000      -0.037799        -1.0286
 223   0.0000      -0.017135        -0.4663

MULLIKEN ATOMIC CHARGES
-----------------------
   0 C :   -0.044326
   1 C :   -0.050511
   2 C :    0.048253
   3 C :    0.028395
   4 C :   -0.063362
   5 S :    0.068829
   6 C :   -0.050291
   7 C :    0.027041
   8 C :    0.038353
   9 C :   -0.042910
  10 S :    0.057419
  11 C :    0.011226
  12 N :   -0.035051
  13 C :   -0.110685
  14 S :    0.145185
  15 C :   -0.012543
  16 N :    0.281923
  17 O :   -0.263012
  18 O :   -0.275846
  19 C :    0.002262
  20 C :    0.134826
  21 C :   -0.030117
  22 C :    0.002506
  23 C :    0.015748
  24 C :   -0.240614
  25 C :    0.079170
  26 C :    0.196661
  27 N :   -0.153554
  28 C :    0.041473
  29 C :   -0.016588
  30 C :   -0.105324
  31 S :    0.184920
  32 C :   -0.132928
  33 C :    0.130435
  34 C :    0.120848
  35 C :   -0.089660
  36 C :   -0.158454
  37 C :    0.518536
  38 F :   -0.160634
  39 F :   -0.187012
  40 F :   -0.151212
  41 C :    0.178873
  42 O :   -0.320345
  43 C :    0.195689
  44 C :   -0.090576
  45 C :   -0.141097
  46 S :    0.110135
  47 C :   -0.134969
  48 C :    0.140291
  49 C :    0.138438
  50 O :   -0.197542
  51 C :    0.237634
  52 N :    0.272960
  53 O :   -0.251881
  54 O :   -0.232745
  55 C :   -0.075210
  56 H :    0.016792
  57 H :    0.021335
  58 H :   -0.012823
  59 H :   -0.013440
  60 H :   -0.014721
  61 H :   -0.010102
  62 H :    0.025633
  63 H :    0.147544
  64 H :    0.003821
  65 H :   -0.031534
  66 H :   -0.020521
  67 H :   -0.006926
  68 H :    0.041819
  69 H :    0.038982
  70 H :    0.009597
  71 H :    0.031837
  72 H :    0.024866
  73 H :    0.123016
  74 H :    0.028295
  75 H :   -0.017849
  76 H :   -0.042129
  77 H :    0.011322
  78 H :    0.027744
  79 H :    0.027492
  80 H :   -0.032328
  81 H :    0.023655
  82 H :    0.009594
Sum of atomic charges:   -0.0000000

LOEWDIN ATOMIC CHARGES
----------------------
   0 C :   -0.088302
   1 C :   -0.136248
   2 C :   -0.034005
   3 C :   -0.026019
   4 C :   -0.185613
   5 S :    0.368950
   6 C :   -0.174393
   7 C :   -0.040881
   8 C :   -0.028481
   9 C :   -0.185772
  10 S :    0.356118
  11 C :   -0.014678
  12 N :    0.048730
  13 C :   -0.095874
  14 S :    0.448914
  15 C :   -0.216835
  16 N :    0.274887
  17 O :   -0.229356
  18 O :   -0.242341
  19 C :    0.007018
  20 C :   -0.105176
  21 C :   -0.027581
  22 C :   -0.021809
  23 C :   -0.060622
  24 C :   -0.043457
  25 C :   -0.051239
  26 C :    0.035443
  27 N :   -0.003329
  28 C :    0.050742
  29 C :   -0.144348
  30 C :   -0.145450
  31 S :    0.492467
  32 C :   -0.225417
  33 C :   -0.033686
  34 C :   -0.074756
  35 C :    0.012700
  36 C :   -0.127724
  37 C :    0.177108
  38 F :   -0.058827
  39 F :   -0.082022
  40 F :   -0.046275
  41 C :    0.059179
  42 O :   -0.113726
  43 C :    0.063935
  44 C :   -0.056553
  45 C :   -0.205470
  46 S :    0.491544
  47 C :   -0.202083
  48 C :   -0.079306
  49 C :   -0.002823
  50 O :   -0.008492
  51 C :    0.025268
  52 N :    0.272348
  53 O :   -0.213178
  54 O :   -0.194006
  55 C :   -0.009376
  56 H :    0.027321
  57 H :    0.011279
  58 H :    0.032968
  59 H :    0.031548
  60 H :    0.031938
  61 H :    0.034235
  62 H :    0.029030
  63 H :    0.085512
  64 H :    0.042194
  65 H :    0.020347
  66 H :    0.023698
  67 H :    0.024641
  68 H :    0.040356
  69 H :    0.040849
  70 H :    0.028928
  71 H :    0.035338
  72 H :    0.034485
  73 H :    0.080890
  74 H :    0.033382
  75 H :    0.025242
  76 H :    0.026990
  77 H :   -0.006469
  78 H :    0.008838
  79 H :    0.022343
  80 H :    0.012486
  81 H :    0.025949
  82 H :    0.045861

  Mayer bond orders larger than 0.100000
B(  0-C ,  1-C ) :   1.8693 B(  0-C , 56-H ) :   0.9480 B(  0-C , 57-H ) :   0.9360
B(  1-C ,  2-C ) :   1.0790 B(  1-C ,  5-S ) :   1.0078 B(  2-C ,  3-C ) :   1.6707
B(  2-C , 58-H ) :   0.9922 B(  3-C ,  4-C ) :   1.1432 B(  3-C , 59-H ) :   0.9911
B(  4-C ,  5-S ) :   1.0363 B(  4-C ,  6-C ) :   1.5834 B(  6-C ,  7-C ) :   1.1582
B(  6-C , 10-S ) :   1.0302 B(  7-C ,  8-C ) :   1.6403 B(  7-C , 60-H ) :   0.9895
B(  8-C ,  9-C ) :   1.1313 B(  8-C , 61-H ) :   0.9941 B(  9-C , 10-S ) :   1.0062
B(  9-C , 11-C ) :   1.6417 B( 11-C , 12-N ) :   1.1372 B( 11-C , 62-H ) :   0.9515
B( 12-N , 13-C ) :   1.2351 B( 12-N , 63-H ) :   0.9018 B( 13-C , 14-S ) :   1.1316
B( 13-C , 20-C ) :   1.3460 B( 14-S , 15-C ) :   1.0614 B( 15-C , 16-N ) :   0.9917
B( 15-C , 19-C ) :   1.4795 B( 16-N , 17-O ) :   1.5172 B( 16-N , 18-O ) :   1.4984
B( 17-O , 18-O ) :   0.2499 B( 19-C , 20-C ) :   1.2435 B( 19-C , 64-H ) :   0.9994
B( 20-C , 21-C ) :   1.0475 B( 21-C , 22-C ) :   1.7368 B( 21-C , 65-H ) :   0.9762
B( 22-C , 23-C ) :   1.0958 B( 22-C , 66-H ) :   0.9720 B( 23-C , 24-C ) :   1.7994
B( 23-C , 67-H ) :   0.9504 B( 24-C , 25-C ) :   1.0784 B( 24-C , 26-C ) :   0.9988
B( 25-C , 68-H ) :   0.9478 B( 25-C , 69-H ) :   0.9469 B( 25-C , 70-H ) :   0.9561
B( 26-C , 27-N ) :   1.0486 B( 26-C , 71-H ) :   0.9246 B( 26-C , 72-H ) :   0.9379
B( 27-N , 28-C ) :   1.2200 B( 27-N , 73-H ) :   0.9413 B( 28-C , 29-C ) :   1.6208
B( 28-C , 74-H ) :   0.9701 B( 29-C , 30-C ) :   1.1507 B( 29-C , 75-H ) :   0.9458
B( 30-C , 31-S ) :   1.1790 B( 30-C , 32-C ) :   0.1048 B( 30-C , 34-C ) :   1.3310
B( 31-S , 32-C ) :   1.1178 B( 32-C , 33-C ) :   1.3766 B( 32-C , 45-C ) :   1.1807
B( 33-C , 34-C ) :   1.1941 B( 33-C , 44-C ) :   1.1457 B( 34-C , 35-C ) :   1.1835
B( 35-C , 36-C ) :   1.5185 B( 35-C , 76-H ) :   0.9874 B( 36-C , 37-C ) :   0.9553
B( 36-C , 41-C ) :   1.1697 B( 37-C , 38-F ) :   1.1370 B( 37-C , 39-F ) :   1.0941
B( 37-C , 40-F ) :   1.1617 B( 41-C , 42-O ) :   1.1890 B( 41-C , 44-C ) :   1.5384
B( 42-O , 43-C ) :   0.9231 B( 43-C , 77-H ) :   0.9595 B( 43-C , 78-H ) :   0.9625
B( 43-C , 79-H ) :   0.9746 B( 44-C , 80-H ) :   0.9870 B( 45-C , 46-S ) :   1.1378
B( 45-C , 47-C ) :   0.1134 B( 45-C , 49-C ) :   1.4710 B( 46-S , 47-C ) :   1.1600
B( 47-C , 48-C ) :   1.4407 B( 47-C , 81-H ) :   0.9756 B( 48-C , 49-C ) :   1.2206
B( 48-C , 55-C ) :   1.0576 B( 49-C , 50-O ) :   1.0859 B( 50-O , 51-C ) :   1.1267
B( 51-C , 52-N ) :   0.9164 B( 51-C , 55-C ) :   1.5783 B( 52-N , 53-O ) :   1.5322
B( 52-N , 54-O ) :   1.5142 B( 53-O , 54-O ) :   0.2789 B( 55-C , 82-H ) :   1.0242

-----------------------------------------------------------------------------
         ABSORPTION SPECTRUM VIA TRANSITION ELECTRIC DIPOLE MOMENTS
-----------------------------------------------------------------------------
State   Energy  Wavelength   fosc         T2         TX        TY        TZ
        (cm-1)    (nm)                  (au**2)     (au)      (au)      (au)
-----------------------------------------------------------------------------
   0   17373.0    575.6   0.084320364   1.59784  -1.10286  -0.15157   0.59880
   1   19256.4    519.3   1.211649828  20.71464   4.26260   1.11805  -1.13790
   2   19889.7    502.8   0.006479943   0.10726   0.32199   0.05047  -0.03211
   3   20565.7    486.2   0.045792716   0.73304  -0.82821  -0.14387   0.16253
   4   21305.9    469.4   0.646111877   9.98351  -2.82241  -0.84445   1.14212
   5   24630.9    406.0   0.007989282   0.10678   0.16939   0.17891  -0.21466
   6   25347.9    394.5   0.112481848   1.46088  -0.40859  -0.92126   0.66725
   7   26965.0    370.9   0.000427454   0.00522   0.05167  -0.04497   0.02295
   8   27877.3    358.7   0.018265592   0.21570   0.41262  -0.11427   0.17999
   9   28567.9    350.0   0.002005362   0.02311  -0.13998  -0.00897  -0.05860
  10   29721.7    336.5   0.220859139   2.44634   0.52040   0.02190   1.47480
  11   30406.8    328.9   0.273509284   2.96126   1.55444  -0.65483  -0.34086
  12   30968.8    322.9   0.007788891   0.08280  -0.18626   0.20448   0.07933
  13   31491.3    317.5   0.003540267   0.03701   0.11333  -0.15398  -0.02143
  14   32384.0    308.8   0.262406677   2.66759  -1.08890   1.20692   0.15887
  15   33199.5    301.2   0.419048254   4.15536  -1.09375   0.64386  -1.59515
  16   33863.7    295.3   0.105122156   1.02196   0.70005   0.72512  -0.07809
  17   34833.6    287.1   0.019627662   0.18550  -0.41275   0.08188  -0.09185
  18   34870.6    286.8   0.024583438   0.23209   0.47804  -0.02650   0.05357
  19   35222.5    283.9   0.017506519   0.16363  -0.35235   0.04036  -0.19455
  20   35541.3    281.4   0.000842213   0.00780   0.08465   0.02181  -0.01264
  21   36094.2    277.1   0.236384898   2.15605  -0.84081  -0.98342   0.69424
  22   36173.5    276.4   0.040584699   0.36936   0.17661  -0.55866  -0.16143
  23   36462.2    274.3   0.057254499   0.51694   0.50160   0.47909   0.18924
  24   36679.7    272.6   0.373223082   3.34980   0.58558  -1.61871   0.62184
  25   37580.6    266.1   0.003378133   0.02959  -0.02829   0.14183  -0.09315
  26   37894.6    263.9   0.017148153   0.14898   0.33510  -0.10829   0.15797
  27   38377.7    260.6   0.064022386   0.54920   0.61346  -0.34472   0.23244
  28   38536.5    259.5   0.015228293   0.13009   0.23738  -0.17593   0.20686
  29   39154.9    255.4   0.012121014   0.10191  -0.15078  -0.27404  -0.06386
  30   39306.4    254.4   0.009984766   0.08363  -0.00441   0.27346  -0.09396
  31   39524.8    253.0   0.053572111   0.44622  -0.45592   0.48168  -0.07959
  32   39773.9    251.4   0.035814971   0.29644   0.24134  -0.30725   0.37920
  33   40060.2    249.6   0.227506908   1.86963   0.79861  -0.91584  -0.62697
  34   40231.5    248.6   0.066399553   0.54334  -0.06736   0.16208  -0.71592
  35   40296.5    248.2   0.625602192   5.11101   0.94239  -1.42612   1.47955

FINAL SINGLE POINT ENERGY     -4421.270441130702

DIPOLE MOMENT
-------------
                                X             Y             Z
Electronic contribution:    -11.19700      -4.08709       7.66967
Nuclear contribution   :     10.32796       3.56983      -7.40573
                        -----------------------------------------
Total Dipole Moment    :     -0.86905      -0.51725       0.26393
                        -----------------------------------------
Magnitude (a.u.)       :      1.04520
Magnitude (Debye)      :      2.65670

Rotational constants in cm-1:     0.001826     0.000844     0.000665
Rotational constants in MHz :    54.757010    25.316113    19.944481

                             ****ORCA TERMINATED NORMALLY****
TOTAL RUN TIME: 0 days 0 hours 6 minutes 56 seconds 470 msec
