                         Program Version 4.2.0 -  RELEASE  -
|  1> # ORCA input file
|  2> # SCF done       -189.658592324814          0.000265655522
|  3> ! CAM-B3LYP def2-SVP def2/J RIJCOSX Grid4 TightSCF
|  4> %maxcore 5000
|  5> %tddft
|  6>     Mode sTDDFT
|  7>     Ethresh 5.0
|  8>     maxcore 5000
|  9> end
| 10>
| 11> %pal
| 12>   nprocs 6
| 13>   end
| 14> * xyz 0 1
| 15>    C       -5.04737       -10.63349        -2.13129
| 16>    S       -4.68826        -9.38484        -1.02839
| 17>    C       -4.20823       -10.50195         0.21631
| 18>    C       -4.39230       -11.81541        -0.21902
| 19>    C       -4.85237       -11.87812        -1.57758
| 20>    C       -5.04799       -13.12985        -2.20626
| 21>    C       -4.87134       -14.27869        -1.49609
| 22>    S       -5.05378       -15.89826        -2.17001
| 23>    C       -5.58825       -15.58039        -3.89441
| 24>    C       -5.84145       -16.90199        -4.59215
| 25>    C       -4.51509       -14.21789        -0.11089
| 26>    S       -4.43291       -15.78005         0.70197
| 27>    C       -4.45143       -15.39530         2.49099
| 28>    C       -5.78926       -14.85033         2.95057
| 29>    C       -4.25401       -13.02320         0.49739
| 30>    C       -3.63449        -9.92393         1.38599
| 31>    C       -2.82984       -10.51613         2.28847
| 32>    N       -2.17995        -9.84984         3.31496
| 33>    C       -1.91824        -8.51841         3.42707
| 34>    S       -1.92182        -7.81385         5.01814
| 35>    C       -1.54270        -6.26494         4.32860
| 36>    N       -1.36831        -5.18811         5.19637
| 37>    O       -1.10891        -4.10116         4.70751
| 38>    O       -1.49311        -5.41413         6.39053
| 39>    C       -1.42811        -6.29776         2.96474
| 40>    C       -1.61529        -7.58327         2.42190
| 41>    C       -1.45065        -7.93894         1.04272
| 42>    C       -1.51202        -7.07857        -0.00492
| 43>    C       -1.52544        -7.43498        -1.37359
| 44>    C       -1.49211        -8.68009        -1.94839
| 45>    C       -1.76859        -8.95051        -3.31700
| 46>    C       -1.82615       -10.27024        -3.63980
| 47>    C       -1.55327       -11.13467        -2.55562
| 48>    S       -1.19220       -10.19887        -1.11954
| 49>    C       -1.58870       -12.50878        -2.50025
| 50>    C       -1.96226       -13.43808        -3.49868
| 51>    C       -1.96693       -14.73305        -3.08469
| 52>    C       -1.59030       -14.91014        -1.72815
| 53>    S       -1.19164       -13.34484        -1.01308
| 54>    C       -1.57268       -16.06614        -1.00991
| 55>    N       -1.13515       -16.10069         0.27908
| 56>    C       -1.35135       -17.03936         1.23143
| 57>    S       -0.81170       -16.67481         2.84693
| 58>    C       -1.56133       -18.13357         3.42024
| 59>    N       -1.47305       -18.40816         4.77788
| 60>    O       -1.99936       -19.42886         5.19331
| 61>    O       -0.87628       -17.58877         5.46612
| 62>    C       -2.17956       -18.84221         2.41757
| 63>    C       -2.05345       -18.24537         1.15797
| 64>    C       -2.67587       -18.78342        -0.04550
| 65>    C       -4.00201       -18.98032        -0.10761
| 66>    C       -4.72222       -19.42034        -1.25032
| 67>    S       -3.95017       -20.10292        -2.63851
| 68>    C       -5.43992       -20.28293        -3.50279
| 69>    C       -6.50669       -19.80375        -2.73933
| 70>    C       -6.09815       -19.31575        -1.45824
| 71>    C       -7.05224       -18.73305        -0.60119
| 72>    C       -8.35747       -18.64514        -0.98963
| 73>    S       -9.49971       -17.81006         0.09684
| 74>    C       -9.70218       -16.25628        -0.84950
| 75>    C       -8.44833       -15.40833        -0.79916
| 76>    C       -8.77915       -19.18437        -2.23509
| 77>    S      -10.47466       -19.09714        -2.76803
| 78>    C      -11.31570       -20.10937        -1.48307
| 79>    C      -12.54300       -19.40233        -0.94713
| 80>    C       -7.87072       -19.73999        -3.09306
| 81>    C       -5.48669       -20.84096        -4.81813
| 82>    C       -4.42849       -21.27394        -5.50498
| 83>    H       -5.38671       -10.39712        -3.11960
| 84>    H       -5.34475       -13.13341        -3.24143
| 85>    H       -4.79344       -15.02134        -4.38884
| 86>    H       -6.50013       -14.98459        -3.85415
| 87>    H       -4.94636       -17.52000        -4.58426
| 88>    H       -6.13189       -16.72342        -5.62505
| 89>    H       -6.64044       -17.44715        -4.09569
| 90>    H       -3.62448       -14.72214         2.71425
| 91>    H       -4.24557       -16.35976         2.95586
| 92>    H       -6.02342       -13.91397         2.44822
| 93>    H       -5.76675       -14.67466         4.02404
| 94>    H       -6.57921       -15.56528         2.73320
| 95>    H       -3.97377       -12.98440         1.53518
| 96>    H       -3.79905        -8.85844         1.47715
| 97>    H       -2.61362       -11.57221         2.26499
| 98>    H       -2.02586       -10.38792         4.15764
| 99>    H       -1.17040        -5.42463         2.39416
|100>    H       -1.30879        -8.99047         0.85894
|101>    H       -1.64814        -6.02458         0.19640
|102>    H       -1.67213        -6.61866        -2.06981
|103>    H       -1.95654        -8.14957        -4.01042
|104>    H       -2.05672       -10.64681        -4.62047
|105>    H       -2.22892       -13.11419        -4.48911
|106>    H       -2.23307       -15.57521        -3.69802
|107>    H       -1.94679       -16.97871        -1.43875
|108>    H       -0.72776       -15.23227         0.61036
|109>    H       -2.69222       -19.76976         2.59754
|110>    H       -2.04378       -19.01057        -0.89379
|111>    H       -4.60509       -18.72241         0.75110
|112>    H       -6.75041       -18.31789         0.34673
|113>    H      -10.54430       -15.75309        -0.37538
|114>    H       -9.97098       -16.52720        -1.87021
|115>    H       -8.21117       -15.13592         0.22719
|116>    H       -8.59202       -14.49536        -1.37496
|117>    H       -7.60187       -15.95369        -1.21278
|118>    H      -10.58732       -20.29342        -0.69613
|119>    H      -11.57933       -21.05099        -1.96598
|120>    H      -12.25796       -18.47949        -0.44780
|121>    H      -13.05052       -20.04396        -0.22976
|122>    H      -13.23216       -19.16613        -1.75494
|123>    H       -8.20880       -20.12160        -4.04358
|124>    H       -6.47374       -20.89992        -5.25655
|125>    H       -3.43375       -21.22880        -5.09309
|126>    H       -4.52779       -21.68575        -6.49285
|127> *
|128>
|129>                          ****END OF INPUT****

CARTESIAN COORDINATES (ANGSTROEM)
---------------------------------
  C     -5.047370  -10.633490   -2.131290
  S     -4.688260   -9.384840   -1.028390
  C     -4.208230  -10.501950    0.216310
  C     -4.392300  -11.815410   -0.219020
  C     -4.852370  -11.878120   -1.577580
  C     -5.047990  -13.129850   -2.206260
  C     -4.871340  -14.278690   -1.496090
  S     -5.053780  -15.898260   -2.170010
  C     -5.588250  -15.580390   -3.894410
  C     -5.841450  -16.901990   -4.592150
  C     -4.515090  -14.217890   -0.110890
  S     -4.432910  -15.780050    0.701970
  C     -4.451430  -15.395300    2.490990
  C     -5.789260  -14.850330    2.950570
  C     -4.254010  -13.023200    0.497390
  C     -3.634490   -9.923930    1.385990
  C     -2.829840  -10.516130    2.288470
  N     -2.179950   -9.849840    3.314960
  C     -1.918240   -8.518410    3.427070
  S     -1.921820   -7.813850    5.018140
  C     -1.542700   -6.264940    4.328600
  N     -1.368310   -5.188110    5.196370
  O     -1.108910   -4.101160    4.707510
  O     -1.493110   -5.414130    6.390530
  C     -1.428110   -6.297760    2.964740
  C     -1.615290   -7.583270    2.421900
  C     -1.450650   -7.938940    1.042720
  C     -1.512020   -7.078570   -0.004920
  C     -1.525440   -7.434980   -1.373590
  C     -1.492110   -8.680090   -1.948390
  C     -1.768590   -8.950510   -3.317000
  C     -1.826150  -10.270240   -3.639800
  C     -1.553270  -11.134670   -2.555620
  S     -1.192200  -10.198870   -1.119540
  C     -1.588700  -12.508780   -2.500250
  C     -1.962260  -13.438080   -3.498680
  C     -1.966930  -14.733050   -3.084690
  C     -1.590300  -14.910140   -1.728150
  S     -1.191640  -13.344840   -1.013080
  C     -1.572680  -16.066140   -1.009910
  N     -1.135150  -16.100690    0.279080
  C     -1.351350  -17.039360    1.231430
  S     -0.811700  -16.674810    2.846930
  C     -1.561330  -18.133570    3.420240
  N     -1.473050  -18.408160    4.777880
  O     -1.999360  -19.428860    5.193310
  O     -0.876280  -17.588770    5.466120
  C     -2.179560  -18.842210    2.417570
  C     -2.053450  -18.245370    1.157970
  C     -2.675870  -18.783420   -0.045500
  C     -4.002010  -18.980320   -0.107610
  C     -4.722220  -19.420340   -1.250320
  S     -3.950170  -20.102920   -2.638510
  C     -5.439920  -20.282930   -3.502790
  C     -6.506690  -19.803750   -2.739330
  C     -6.098150  -19.315750   -1.458240
  C     -7.052240  -18.733050   -0.601190
  C     -8.357470  -18.645140   -0.989630
  S     -9.499710  -17.810060    0.096840
  C     -9.702180  -16.256280   -0.849500
  C     -8.448330  -15.408330   -0.799160
  C     -8.779150  -19.184370   -2.235090
  S    -10.474660  -19.097140   -2.768030
  C    -11.315700  -20.109370   -1.483070
  C    -12.543000  -19.402330   -0.947130
  C     -7.870720  -19.739990   -3.093060
  C     -5.486690  -20.840960   -4.818130
  C     -4.428490  -21.273940   -5.504980
  H     -5.386710  -10.397120   -3.119600
  H     -5.344750  -13.133410   -3.241430
  H     -4.793440  -15.021340   -4.388840
  H     -6.500130  -14.984590   -3.854150
  H     -4.946360  -17.520000   -4.584260
  H     -6.131890  -16.723420   -5.625050
  H     -6.640440  -17.447150   -4.095690
  H     -3.624480  -14.722140    2.714250
  H     -4.245570  -16.359760    2.955860
  H     -6.023420  -13.913970    2.448220
  H     -5.766750  -14.674660    4.024040
  H     -6.579210  -15.565280    2.733200
  H     -3.973770  -12.984400    1.535180
  H     -3.799050   -8.858440    1.477150
  H     -2.613620  -11.572210    2.264990
  H     -2.025860  -10.387920    4.157640
  H     -1.170400   -5.424630    2.394160
  H     -1.308790   -8.990470    0.858940
  H     -1.648140   -6.024580    0.196400
  H     -1.672130   -6.618660   -2.069810
  H     -1.956540   -8.149570   -4.010420
  H     -2.056720  -10.646810   -4.620470
  H     -2.228920  -13.114190   -4.489110
  H     -2.233070  -15.575210   -3.698020
  H     -1.946790  -16.978710   -1.438750
  H     -0.727760  -15.232270    0.610360
  H     -2.692220  -19.769760    2.597540
  H     -2.043780  -19.010570   -0.893790
  H     -4.605090  -18.722410    0.751100
  H     -6.750410  -18.317890    0.346730
  H    -10.544300  -15.753090   -0.375380
  H     -9.970980  -16.527200   -1.870210
  H     -8.211170  -15.135920    0.227190
  H     -8.592020  -14.495360   -1.374960
  H     -7.601870  -15.953690   -1.212780
  H    -10.587320  -20.293420   -0.696130
  H    -11.579330  -21.050990   -1.965980
  H    -12.257960  -18.479490   -0.447800
  H    -13.050520  -20.043960   -0.229760
  H    -13.232160  -19.166130   -1.754940
  H     -8.208800  -20.121600   -4.043580
  H     -6.473740  -20.899920   -5.256550
  H     -3.433750  -21.228800   -5.093090
  H     -4.527790  -21.685750   -6.492850

 Total Charge           Charge          ....    0
 Multiplicity           Mult            ....    1
 Number of Electrons    NEL             ....  564
 Basis Dimension        Dim             .... 1212

ORBITAL ENERGIES
----------------

  NO   OCC          E(Eh)            E(eV)
   0   2.0000     -88.981804     -2421.3180
   1   2.0000     -88.971094     -2421.0265
   2   2.0000     -88.970321     -2421.0055
   3   2.0000     -88.958101     -2420.6730
   4   2.0000     -88.950392     -2420.4632
   5   2.0000     -88.944136     -2420.2930
   6   2.0000     -88.932109     -2419.9657
   7   2.0000     -88.930723     -2419.9280
   8   2.0000     -88.912454     -2419.4309
   9   2.0000     -88.910780     -2419.3853
  10   2.0000     -19.227869      -523.2169
  11   2.0000     -19.227459      -523.2057
  12   2.0000     -19.224474      -523.1245
  13   2.0000     -19.223566      -523.0998
  14   2.0000     -14.640075      -398.3767
  15   2.0000     -14.635878      -398.2625
  16   2.0000     -14.486069      -394.1860
  17   2.0000     -14.468391      -393.7049
  18   2.0000     -10.369278      -282.1624
  19   2.0000     -10.355622      -281.7908
  20   2.0000     -10.334900      -281.2269
  21   2.0000     -10.331978      -281.1474
  22   2.0000     -10.329623      -281.0833
  23   2.0000     -10.317420      -280.7513
  24   2.0000     -10.314797      -280.6799
  25   2.0000     -10.308877      -280.5188
  26   2.0000     -10.308559      -280.5101
  27   2.0000     -10.307316      -280.4763
  28   2.0000     -10.306123      -280.4439
  29   2.0000     -10.305543      -280.4281
  30   2.0000     -10.305271      -280.4207
  31   2.0000     -10.305154      -280.4175
  32   2.0000     -10.304779      -280.4073
  33   2.0000     -10.304361      -280.3959
  34   2.0000     -10.303375      -280.3691
  35   2.0000     -10.302362      -280.3415
  36   2.0000     -10.298955      -280.2488
  37   2.0000     -10.297827      -280.2181
  38   2.0000     -10.297503      -280.2093
  39   2.0000     -10.295721      -280.1608
  40   2.0000     -10.293318      -280.0954
  41   2.0000     -10.291374      -280.0425
  42   2.0000     -10.289678      -279.9964
  43   2.0000     -10.288847      -279.9738
  44   2.0000     -10.288037      -279.9517
  45   2.0000     -10.287685      -279.9421
  46   2.0000     -10.287383      -279.9339
  47   2.0000     -10.286473      -279.9092
  48   2.0000     -10.286228      -279.9025
  49   2.0000     -10.285317      -279.8777
  50   2.0000     -10.285240      -279.8756
  51   2.0000     -10.282437      -279.7993
  52   2.0000     -10.281986      -279.7871
  53   2.0000     -10.281675      -279.7786
  54   2.0000     -10.280798      -279.7547
  55   2.0000     -10.277882      -279.6754
  56   2.0000     -10.277353      -279.6610
  57   2.0000     -10.276125      -279.6276
  58   2.0000     -10.275815      -279.6191
  59   2.0000     -10.275084      -279.5992
  60   2.0000     -10.275050      -279.5983
  61   2.0000     -10.274219      -279.5757
  62   2.0000     -10.273901      -279.5671
  63   2.0000     -10.273172      -279.5472
  64   2.0000     -10.270591      -279.4770
  65   2.0000     -10.266076      -279.3541
  66   2.0000     -10.252300      -278.9793
  67   2.0000     -10.246085      -278.8101
  68   2.0000      -8.077311      -219.7948
  69   2.0000      -8.066314      -219.4956
  70   2.0000      -8.066110      -219.4900
  71   2.0000      -8.053006      -219.1334
  72   2.0000      -8.046190      -218.9480
  73   2.0000      -8.039129      -218.7558
  74   2.0000      -8.025612      -218.3880
  75   2.0000      -8.024651      -218.3619
  76   2.0000      -8.007395      -217.8923
  77   2.0000      -8.005349      -217.8366
  78   2.0000      -6.047062      -164.5489
  79   2.0000      -6.042719      -164.4307
  80   2.0000      -6.038594      -164.3185
  81   2.0000      -6.035998      -164.2478
  82   2.0000      -6.034994      -164.2205
  83   2.0000      -6.031647      -164.1295
  84   2.0000      -6.031033      -164.1127
  85   2.0000      -6.029005      -164.0576
  86   2.0000      -6.027628      -164.0201
  87   2.0000      -6.021963      -163.8659
  88   2.0000      -6.017739      -163.7510
  89   2.0000      -6.016060      -163.7053
  90   2.0000      -6.016045      -163.7049
  91   2.0000      -6.012140      -163.5986
  92   2.0000      -6.008946      -163.5117
  93   2.0000      -6.006895      -163.4559
  94   2.0000      -6.004897      -163.4015
  95   2.0000      -6.000117      -163.2715
  96   2.0000      -5.995917      -163.1572
  97   2.0000      -5.995121      -163.1355
  98   2.0000      -5.991872      -163.0471
  99   2.0000      -5.990763      -163.0170
 100   2.0000      -5.985769      -162.8811
 101   2.0000      -5.984744      -162.8532
 102   2.0000      -5.977874      -162.6662
 103   2.0000      -5.975935      -162.6135
 104   2.0000      -5.974139      -162.5646
 105   2.0000      -5.972069      -162.5083
 106   2.0000      -5.966772      -162.3641
 107   2.0000      -5.964725      -162.3084
 108   2.0000      -1.306604       -35.5545
 109   2.0000      -1.303914       -35.4813
 110   2.0000      -1.125480       -30.6259
 111   2.0000      -1.122739       -30.5513
 112   2.0000      -1.091450       -29.6999
 113   2.0000      -1.070625       -29.1332
 114   2.0000      -1.004945       -27.3459
 115   2.0000      -1.002996       -27.2929
 116   2.0000      -0.994633       -27.0653
 117   2.0000      -0.990591       -26.9553
 118   2.0000      -0.987915       -26.8825
 119   2.0000      -0.970801       -26.4168
 120   2.0000      -0.954838       -25.9825
 121   2.0000      -0.954226       -25.9658
 122   2.0000      -0.921964       -25.0879
 123   2.0000      -0.911809       -24.8116
 124   2.0000      -0.908803       -24.7298
 125   2.0000      -0.901209       -24.5231
 126   2.0000      -0.896110       -24.3844
 127   2.0000      -0.893727       -24.3195
 128   2.0000      -0.888640       -24.1811
 129   2.0000      -0.887927       -24.1617
 130   2.0000      -0.883612       -24.0443
 131   2.0000      -0.877299       -23.8725
 132   2.0000      -0.864971       -23.5371
 133   2.0000      -0.855719       -23.2853
 134   2.0000      -0.852621       -23.2010
 135   2.0000      -0.847939       -23.0736
 136   2.0000      -0.847315       -23.0566
 137   2.0000      -0.842200       -22.9174
 138   2.0000      -0.839614       -22.8471
 139   2.0000      -0.833495       -22.6805
 140   2.0000      -0.822574       -22.3834
 141   2.0000      -0.819291       -22.2940
 142   2.0000      -0.804962       -21.9041
 143   2.0000      -0.802437       -21.8354
 144   2.0000      -0.791855       -21.5475
 145   2.0000      -0.780293       -21.2329
 146   2.0000      -0.776930       -21.1413
 147   2.0000      -0.773216       -21.0403
 148   2.0000      -0.769847       -20.9486
 149   2.0000      -0.762950       -20.7609
 150   2.0000      -0.757081       -20.6012
 151   2.0000      -0.739768       -20.1301
 152   2.0000      -0.725382       -19.7386
 153   2.0000      -0.723464       -19.6865
 154   2.0000      -0.715207       -19.4618
 155   2.0000      -0.701258       -19.0822
 156   2.0000      -0.697100       -18.9690
 157   2.0000      -0.692759       -18.8509
 158   2.0000      -0.689729       -18.7685
 159   2.0000      -0.682847       -18.5812
 160   2.0000      -0.671501       -18.2725
 161   2.0000      -0.668379       -18.1875
 162   2.0000      -0.665420       -18.1070
 163   2.0000      -0.662864       -18.0375
 164   2.0000      -0.658826       -17.9276
 165   2.0000      -0.655443       -17.8355
 166   2.0000      -0.648973       -17.6595
 167   2.0000      -0.644273       -17.5316
 168   2.0000      -0.637907       -17.3583
 169   2.0000      -0.630124       -17.1465
 170   2.0000      -0.625850       -17.0302
 171   2.0000      -0.624711       -16.9993
 172   2.0000      -0.621477       -16.9112
 173   2.0000      -0.621207       -16.9039
 174   2.0000      -0.617023       -16.7901
 175   2.0000      -0.616749       -16.7826
 176   2.0000      -0.614166       -16.7123
 177   2.0000      -0.613107       -16.6835
 178   2.0000      -0.609946       -16.5975
 179   2.0000      -0.594008       -16.1638
 180   2.0000      -0.592086       -16.1115
 181   2.0000      -0.584750       -15.9119
 182   2.0000      -0.582759       -15.8577
 183   2.0000      -0.576125       -15.6771
 184   2.0000      -0.575051       -15.6479
 185   2.0000      -0.568416       -15.4674
 186   2.0000      -0.565948       -15.4002
 187   2.0000      -0.564433       -15.3590
 188   2.0000      -0.558808       -15.2059
 189   2.0000      -0.553934       -15.0733
 190   2.0000      -0.551979       -15.0201
 191   2.0000      -0.550082       -14.9685
 192   2.0000      -0.549547       -14.9539
 193   2.0000      -0.545724       -14.8499
 194   2.0000      -0.542709       -14.7679
 195   2.0000      -0.539038       -14.6680
 196   2.0000      -0.535876       -14.5819
 197   2.0000      -0.534470       -14.5437
 198   2.0000      -0.531875       -14.4731
 199   2.0000      -0.525372       -14.2961
 200   2.0000      -0.520961       -14.1761
 201   2.0000      -0.519325       -14.1315
 202   2.0000      -0.516214       -14.0469
 203   2.0000      -0.513185       -13.9645
 204   2.0000      -0.512593       -13.9484
 205   2.0000      -0.512127       -13.9357
 206   2.0000      -0.510650       -13.8955
 207   2.0000      -0.508424       -13.8349
 208   2.0000      -0.501331       -13.6419
 209   2.0000      -0.500006       -13.6058
 210   2.0000      -0.496703       -13.5160
 211   2.0000      -0.496582       -13.5127
 212   2.0000      -0.491585       -13.3767
 213   2.0000      -0.489540       -13.3211
 214   2.0000      -0.485659       -13.2154
 215   2.0000      -0.482943       -13.1415
 216   2.0000      -0.481644       -13.1062
 217   2.0000      -0.480466       -13.0741
 218   2.0000      -0.478342       -13.0163
 219   2.0000      -0.475495       -12.9389
 220   2.0000      -0.474401       -12.9091
 221   2.0000      -0.469115       -12.7653
 222   2.0000      -0.465536       -12.6679
 223   2.0000      -0.465171       -12.6579
 224   2.0000      -0.463640       -12.6163
 225   2.0000      -0.462204       -12.5772
 226   2.0000      -0.454215       -12.3598
 227   2.0000      -0.452819       -12.3218
 228   2.0000      -0.451658       -12.2902
 229   2.0000      -0.448958       -12.2168
 230   2.0000      -0.447432       -12.1752
 231   2.0000      -0.447193       -12.1687
 232   2.0000      -0.444968       -12.1082
 233   2.0000      -0.443031       -12.0555
 234   2.0000      -0.441222       -12.0062
 235   2.0000      -0.433901       -11.8071
 236   2.0000      -0.432970       -11.7817
 237   2.0000      -0.430883       -11.7249
 238   2.0000      -0.429688       -11.6924
 239   2.0000      -0.428211       -11.6522
 240   2.0000      -0.427722       -11.6389
 241   2.0000      -0.427069       -11.6211
 242   2.0000      -0.426008       -11.5923
 243   2.0000      -0.422639       -11.5006
 244   2.0000      -0.422011       -11.4835
 245   2.0000      -0.416064       -11.3217
 246   2.0000      -0.408420       -11.1137
 247   2.0000      -0.407644       -11.0926
 248   2.0000      -0.406684       -11.0664
 249   2.0000      -0.405709       -11.0399
 250   2.0000      -0.398847       -10.8532
 251   2.0000      -0.393917       -10.7190
 252   2.0000      -0.387929       -10.5561
 253   2.0000      -0.383825       -10.4444
 254   2.0000      -0.377350       -10.2682
 255   2.0000      -0.375494       -10.2177
 256   2.0000      -0.374510       -10.1909
 257   2.0000      -0.372553       -10.1377
 258   2.0000      -0.369971       -10.0674
 259   2.0000      -0.367475        -9.9995
 260   2.0000      -0.364636        -9.9223
 261   2.0000      -0.357220        -9.7205
 262   2.0000      -0.356747        -9.7076
 263   2.0000      -0.353875        -9.6294
 264   2.0000      -0.352454        -9.5908
 265   2.0000      -0.343986        -9.3603
 266   2.0000      -0.340545        -9.2667
 267   2.0000      -0.338502        -9.2111
 268   2.0000      -0.333247        -9.0681
 269   2.0000      -0.332562        -9.0495
 270   2.0000      -0.324897        -8.8409
 271   2.0000      -0.322996        -8.7892
 272   2.0000      -0.312465        -8.5026
 273   2.0000      -0.300352        -8.1730
 274   2.0000      -0.297745        -8.1020
 275   2.0000      -0.282882        -7.6976
 276   2.0000      -0.275963        -7.5093
 277   2.0000      -0.273519        -7.4428
 278   2.0000      -0.263540        -7.1713
 279   2.0000      -0.244006        -6.6397
 280   2.0000      -0.230991        -6.2856
 281   2.0000      -0.208390        -5.6706
 282   0.0000      -0.075611        -2.0575
 283   0.0000      -0.061964        -1.6861
 284   0.0000      -0.048789        -1.3276
 285   0.0000      -0.045359        -1.2343
 286   0.0000      -0.029490        -0.8025

MULLIKEN ATOMIC CHARGES
-----------------------
   0 C :   -0.137063
   1 S :    0.151098
   2 C :   -0.181560
   3 C :    0.151217
   4 C :    0.119801
   5 C :   -0.060437
   6 C :    0.013610
   7 S :   -0.045831
   8 C :   -0.121075
   9 C :    0.036542
  10 C :   -0.005482
  11 S :   -0.045429
  12 C :   -0.112314
  13 C :    0.029887
  14 C :   -0.077348
  15 C :    0.051339
  16 C :    0.013318
  17 N :   -0.043406
  18 C :   -0.130649
  19 S :    0.156705
  20 C :   -0.015298
  21 N :    0.280658
  22 O :   -0.259733
  23 O :   -0.273056
  24 C :   -0.006695
  25 C :    0.106770
  26 C :   -0.049306
  27 C :    0.007668
  28 C :   -0.011092
  29 C :   -0.009301
  30 C :    0.024653
  31 C :    0.038053
  32 C :   -0.033404
  33 S :    0.033442
  34 C :   -0.037447
  35 C :    0.029330
  36 C :    0.057827
  37 C :   -0.052964
  38 S :    0.031937
  39 C :    0.058509
  40 N :   -0.002377
  41 C :   -0.092950
  42 S :    0.146425
  43 C :   -0.021690
  44 N :    0.280502
  45 O :   -0.261909
  46 O :   -0.282396
  47 C :    0.002560
  48 C :    0.048195
  49 C :   -0.066795
  50 C :    0.045933
  51 C :   -0.113684
  52 S :    0.130461
  53 C :   -0.134779
  54 C :    0.116172
  55 C :    0.145717
  56 C :    0.017119
  57 C :   -0.110489
  58 S :   -0.033952
  59 C :   -0.099172
  60 C :    0.025595
  61 C :   -0.077155
  62 S :   -0.032629
  63 C :   -0.094186
  64 C :    0.030705
  65 C :   -0.024264
  66 C :    0.000001
  67 C :   -0.027074
  68 H :    0.003113
  69 H :   -0.046116
  70 H :    0.046460
  71 H :    0.056502
  72 H :    0.026246
  73 H :    0.024648
  74 H :    0.038915
  75 H :    0.043773
  76 H :    0.056002
  77 H :    0.035981
  78 H :    0.024701
  79 H :    0.032661
  80 H :   -0.055793
  81 H :    0.007757
  82 H :   -0.003697
  83 H :    0.138450
  84 H :    0.006948
  85 H :    0.025898
  86 H :   -0.019104
  87 H :   -0.019521
  88 H :   -0.018450
  89 H :   -0.022310
  90 H :   -0.021232
  91 H :   -0.014617
  92 H :    0.002447
  93 H :    0.135946
  94 H :    0.007636
  95 H :    0.026360
  96 H :   -0.001988
  97 H :   -0.035403
  98 H :    0.042718
  99 H :    0.047937
 100 H :    0.014299
 101 H :    0.009793
 102 H :    0.040430
 103 H :    0.054082
 104 H :    0.047357
 105 H :    0.022510
 106 H :    0.018015
 107 H :    0.016470
 108 H :   -0.035912
 109 H :   -0.004385
 110 H :    0.020438
 111 H :    0.026677
Sum of atomic charges:   -0.0000000

LOEWDIN ATOMIC CHARGES
----------------------
   0 C :   -0.211700
   1 S :    0.493431
   2 C :   -0.181998
   3 C :   -0.056898
   4 C :   -0.049423
   5 C :   -0.045509
   6 C :   -0.168353
   7 S :    0.313956
   8 C :   -0.126416
   9 C :   -0.067709
  10 C :   -0.172351
  11 S :    0.315243
  12 C :   -0.132714
  13 C :   -0.071137
  14 C :   -0.054635
  15 C :   -0.081418
  16 C :   -0.002417
  17 N :    0.017155
  18 C :   -0.107832
  19 S :    0.437177
  20 C :   -0.214473
  21 N :    0.274352
  22 O :   -0.225726
  23 O :   -0.238355
  24 C :    0.004429
  25 C :   -0.102298
  26 C :   -0.036416
  27 C :   -0.035486
  28 C :   -0.072258
  29 C :   -0.142340
  30 C :   -0.038897
  31 C :   -0.037143
  32 C :   -0.188925
  33 S :    0.395212
  34 C :   -0.162684
  35 C :   -0.046633
  36 C :   -0.023866
  37 C :   -0.188082
  38 S :    0.348767
  39 C :    0.006201
  40 N :    0.048196
  41 C :   -0.097335
  42 S :    0.438452
  43 C :   -0.226117
  44 N :    0.273782
  45 O :   -0.228795
  46 O :   -0.248315
  47 C :    0.002790
  48 C :   -0.112153
  49 C :   -0.045337
  50 C :   -0.022316
  51 C :   -0.178075
  52 S :    0.473936
  53 C :   -0.179041
  54 C :   -0.048018
  55 C :   -0.045591
  56 C :   -0.012808
  57 C :   -0.175591
  58 S :    0.265473
  59 C :   -0.127807
  60 C :   -0.079493
  61 C :   -0.170539
  62 S :    0.261786
  63 C :   -0.124619
  64 C :   -0.072659
  65 C :   -0.033154
  66 C :   -0.039974
  67 C :   -0.050330
  68 H :    0.018018
  69 H :    0.024384
  70 H :    0.014971
  71 H :    0.022451
  72 H :    0.023966
  73 H :    0.032474
  74 H :    0.030925
  75 H :    0.013465
  76 H :    0.030035
  77 H :    0.027716
  78 H :    0.029797
  79 H :    0.029200
  80 H :    0.018938
  81 H :    0.033449
  82 H :    0.019848
  83 H :    0.088825
  84 H :    0.043241
  85 H :    0.010567
  86 H :    0.027735
  87 H :    0.032567
  88 H :    0.030967
  89 H :    0.028905
  90 H :    0.028844
  91 H :    0.030225
  92 H :    0.033947
  93 H :    0.078697
  94 H :    0.046243
  95 H :    0.020864
  96 H :    0.030714
  97 H :    0.025086
  98 H :    0.022507
  99 H :    0.010347
 100 H :    0.022164
 101 H :    0.022913
 102 H :    0.012854
 103 H :    0.021963
 104 H :    0.019349
 105 H :    0.018168
 106 H :    0.027260
 107 H :    0.021781
 108 H :    0.025458
 109 H :    0.035626
 110 H :    0.016692
 111 H :    0.027676

  Mayer bond orders larger than 0.100000
B(  0-C ,  1-S ) :   1.1818 B(  0-C ,  2-C ) :   0.1058 B(  0-C ,  4-C ) :   1.4222
B(  0-C , 68-H ) :   0.9688 B(  1-S ,  2-C ) :   1.1900 B(  2-C ,  3-C ) :   1.3578
B(  2-C , 15-C ) :   1.1525 B(  3-C ,  4-C ) :   1.2150 B(  3-C , 14-C ) :   1.1850
B(  4-C ,  5-C ) :   1.1457 B(  5-C ,  6-C ) :   1.5542 B(  5-C , 69-H ) :   0.9979
B(  6-C ,  7-S ) :   1.0044 B(  6-C , 10-C ) :   1.2374 B(  7-S ,  8-C ) :   1.0113
B(  8-C ,  9-C ) :   1.0822 B(  8-C , 70-H ) :   0.9449 B(  8-C , 71-H ) :   0.9450
B(  9-C , 72-H ) :   0.9648 B(  9-C , 73-H ) :   0.9608 B(  9-C , 74-H ) :   0.9671
B( 10-C , 11-S ) :   1.0063 B( 10-C , 14-C ) :   1.5396 B( 11-S , 12-C ) :   1.0175
B( 12-C , 13-C ) :   1.0671 B( 12-C , 75-H ) :   0.9414 B( 12-C , 76-H ) :   0.9517
B( 13-C , 77-H ) :   0.9715 B( 13-C , 78-H ) :   0.9602 B( 13-C , 79-H ) :   0.9671
B( 14-C , 80-H ) :   0.9841 B( 15-C , 16-C ) :   1.7234 B( 15-C , 81-H ) :   0.9202
B( 16-C , 17-N ) :   1.0879 B( 16-C , 82-H ) :   0.9671 B( 17-N , 18-C ) :   1.1977
B( 17-N , 83-H ) :   0.9166 B( 18-C , 19-S ) :   1.1333 B( 18-C , 25-C ) :   1.3514
B( 19-S , 20-C ) :   1.0731 B( 20-C , 21-N ) :   0.9817 B( 20-C , 24-C ) :   1.4790
B( 21-N , 22-O ) :   1.5249 B( 21-N , 23-O ) :   1.5042 B( 22-O , 23-O ) :   0.2531
B( 24-C , 25-C ) :   1.2319 B( 24-C , 84-H ) :   1.0036 B( 25-C , 26-C ) :   1.1224
B( 26-C , 27-C ) :   1.6514 B( 26-C , 85-H ) :   0.9375 B( 27-C , 28-C ) :   1.1952
B( 27-C , 86-H ) :   0.9698 B( 28-C , 29-C ) :   1.5700 B( 28-C , 87-H ) :   0.9611
B( 29-C , 30-C ) :   1.1418 B( 29-C , 33-S ) :   1.0474 B( 30-C , 31-C ) :   1.5942
B( 30-C , 88-H ) :   0.9982 B( 31-C , 32-C ) :   1.1781 B( 31-C , 89-H ) :   0.9932
B( 32-C , 33-S ) :   1.0327 B( 32-C , 34-C ) :   1.5328 B( 34-C , 35-C ) :   1.1759
B( 34-C , 38-S ) :   1.0536 B( 35-C , 36-C ) :   1.6030 B( 35-C , 90-H ) :   0.9940
B( 36-C , 37-C ) :   1.1428 B( 36-C , 91-H ) :   0.9952 B( 37-C , 38-S ) :   1.0053
B( 37-C , 39-C ) :   1.6154 B( 39-C , 40-N ) :   1.1492 B( 39-C , 92-H ) :   0.9494
B( 40-N , 41-C ) :   1.2168 B( 40-N , 93-H ) :   0.8986 B( 41-C , 42-S ) :   1.1296
B( 41-C , 48-C ) :   1.3878 B( 42-S , 43-C ) :   1.0693 B( 43-C , 44-N ) :   0.9957
B( 43-C , 47-C ) :   1.4302 B( 44-N , 45-O ) :   1.5217 B( 44-N , 46-O ) :   1.4918
B( 45-O , 46-O ) :   0.2476 B( 47-C , 48-C ) :   1.2855 B( 47-C , 94-H ) :   1.0126
B( 48-C , 49-C ) :   1.0092 B( 49-C , 50-C ) :   1.7760 B( 49-C , 95-H ) :   0.9382
B( 50-C , 51-C ) :   1.1645 B( 50-C , 96-H ) :   0.9555 B( 51-C , 52-S ) :   1.1427
B( 51-C , 53-C ) :   0.1106 B( 51-C , 55-C ) :   1.3573 B( 52-S , 53-C ) :   1.1331
B( 53-C , 54-C ) :   1.3596 B( 53-C , 66-C ) :   1.1430 B( 54-C , 55-C ) :   1.1996
B( 54-C , 65-C ) :   1.1631 B( 55-C , 56-C ) :   1.1789 B( 56-C , 57-C ) :   1.5731
B( 56-C , 97-H ) :   0.9860 B( 57-C , 58-S ) :   1.0204 B( 57-C , 61-C ) :   1.2080
B( 58-S , 59-C ) :   0.9955 B( 59-C , 60-C ) :   1.0631 B( 59-C , 98-H ) :   0.9547
B( 59-C , 99-H ) :   0.9443 B( 60-C ,100-H ) :   0.9647 B( 60-C ,101-H ) :   0.9563
B( 60-C ,102-H ) :   0.9672 B( 61-C , 62-S ) :   1.0221 B( 61-C , 65-C ) :   1.5786
B( 62-S , 63-C ) :   0.9645 B( 63-C , 64-C ) :   1.0747 B( 63-C ,103-H ) :   0.9534
B( 63-C ,104-H ) :   0.9553 B( 64-C ,105-H ) :   0.9682 B( 64-C ,106-H ) :   0.9632
B( 64-C ,107-H ) :   0.9707 B( 65-C ,108-H ) :   0.9929 B( 66-C , 67-C ) :   1.9027
B( 66-C ,109-H ) :   0.9599 B( 67-C ,110-H ) :   0.9577 B( 67-C ,111-H ) :   0.9483

-----------------------------------------------------------------------------
         ABSORPTION SPECTRUM VIA TRANSITION ELECTRIC DIPOLE MOMENTS
-----------------------------------------------------------------------------
State   Energy  Wavelength   fosc         T2         TX        TY        TZ
        (cm-1)    (nm)                  (au**2)     (au)      (au)      (au)
-----------------------------------------------------------------------------
   0   13928.3    718.0   0.555607760  13.13247   0.07991  -3.62051  -0.13425
   1   16845.8    593.6   0.242265867   4.73453   0.54489   2.08362  -0.31005
   2   18290.1    546.7   0.130685906   2.35227  -0.82977  -1.28442  -0.11846
   3   19215.1    520.4   0.077739029   1.33190   0.37555  -0.86045   0.67118
   4   21597.4    463.0   0.159083213   2.42492   0.08453  -0.08232  -1.55274
   5   22690.6    440.7   0.390203695   5.66136  -0.92816  -1.89295  -1.10301
   6   22922.4    436.3   0.031847819   0.45740  -0.56455  -0.37084  -0.03412
   7   23770.1    420.7   0.053229667   0.73722   0.09129  -0.76454  -0.37996
   8   24080.7    415.3   0.010166529   0.13899  -0.20493  -0.31143   0.00092
   9   24310.0    411.4   0.494716644   6.69958  -0.68300  -0.90318  -2.32752
  10   24609.3    406.4   0.374994154   5.01651  -0.55978  -1.12548  -1.85377
  11   25615.7    390.4   0.051190036   0.65789  -0.18789  -0.27099  -0.74105
  12   26724.7    374.2   0.122387518   1.50765   0.05562  -0.31975   1.18419
  13   27287.1    366.5   0.052289909   0.63087   0.41450   0.24477   0.63178
  14   28243.0    354.1   0.084289581   0.98252  -0.61318  -0.21810   0.74763
  15   28359.1    352.6   0.108073720   1.25459  -0.98547   0.42937  -0.31476
  16   28662.9    348.9   0.002452345   0.02817  -0.08963  -0.14189   0.00015
  17   29003.3    344.8   0.017429795   0.19784   0.00824  -0.09371   0.43473
  18   29425.1    339.8   0.074209648   0.83027  -0.11446   0.23996   0.87154
  19   29780.1    335.8   0.373853068   4.13286  -0.05039  -0.01439  -2.03227
  20   30394.9    329.0   0.214910365   2.32772  -0.29477  -1.26406   0.80186
  21   31504.3    317.4   0.086719008   0.90619  -0.23242   0.13903  -0.91260
  22   31958.6    312.9   0.027953794   0.28796  -0.41360   0.21227  -0.26801
  23   32150.2    311.0   0.099739400   1.02131  -0.36488  -0.24763   0.90932
  24   32381.3    308.8   0.048712470   0.49525  -0.10581  -0.65693   0.22911
  25   32597.9    306.8   0.111111799   1.12214   0.30749   1.01165   0.06450
  26   33009.4    302.9   0.003854487   0.03844   0.04747  -0.08300   0.17117
  27   33063.1    302.5   0.007182942   0.07152  -0.01779  -0.22350  -0.14579
  28   33366.1    299.7   0.016583189   0.16362  -0.28865   0.09823  -0.26580
  29   33433.0    299.1   0.108018102   1.06365  -0.27913   0.38019  -0.91716
  30   33746.9    296.3   0.081682163   0.79683  -0.51442  -0.05642  -0.72734
  31   34079.5    293.4   0.006168850   0.05959   0.10187   0.16858   0.14420
  32   34366.3    291.0   0.084709609   0.81148  -0.04021   0.14271  -0.88853
  33   34753.7    287.7   0.055184410   0.52275  -0.10019   0.49675   0.51570
  34   34981.8    285.9   0.000252539   0.00238  -0.01106  -0.04268  -0.02080
  35   35087.7    285.0   0.004959071   0.04653  -0.03573  -0.07337   0.19967
  36   35301.7    283.3   0.054461209   0.50789   0.09258  -0.69954  -0.09982
  37   35904.3    278.5   0.091297039   0.83712  -0.88953   0.17170  -0.12794
  38   36253.0    275.8   0.064225906   0.58323   0.40308   0.48189   0.43422
  39   36455.4    274.3   0.054815056   0.49501   0.14068   0.37811   0.57641
  40   36814.1    271.6   0.035171721   0.31453   0.23361   0.45689   0.22628
  41   36885.4    271.1   0.016600658   0.14817   0.28178  -0.16597   0.20303
  42   37110.8    269.5   0.023726992   0.21048   0.07156   0.43189   0.13722
  43   37255.6    268.4   0.019415020   0.17156   0.17797   0.31676   0.19888
  44   37328.8    267.9   0.004134543   0.03646  -0.07960   0.12922  -0.11589
  45   37731.2    265.0   0.052654016   0.45942  -0.22261  -0.35339  -0.53383
  46   37875.3    264.0   0.094858344   0.82451  -0.16965  -0.85816  -0.24351
  47   38096.1    262.5   0.028129534   0.24308  -0.04155   0.27602  -0.40641
  48   38306.2    261.1   0.030269988   0.26015  -0.24302  -0.44413  -0.06193
  49   38470.7    259.9   0.026282559   0.22491   0.27256  -0.30668  -0.23784
  50   38551.3    259.4   0.003568713   0.03048   0.08385  -0.05748   0.14192
  51   38826.1    257.6   0.007359929   0.06241   0.16275  -0.10807   0.15569
  52   38939.4    256.8   0.013427373   0.11352  -0.09249   0.31924  -0.05524
  53   39170.4    255.3   0.033432778   0.28099  -0.16400  -0.04850   0.50174
  54   39241.3    254.8   0.001696927   0.01424   0.11018   0.04477  -0.00968
  55   39417.0    253.7   0.019802376   0.16539   0.01070  -0.28541   0.28951
  56   39688.1    252.0   0.007475513   0.06201   0.00597   0.02530   0.24766
  57   39727.4    251.7   0.023752282   0.19683   0.30385  -0.11732  -0.30123
  58   39976.5    250.1   0.103408166   0.85158  -0.54398  -0.34854  -0.65892

FINAL SINGLE POINT ENERGY     -6428.992026800611

DIPOLE MOMENT
-------------
                                X             Y             Z
Electronic contribution:     58.10427      35.86361      38.89703
Nuclear contribution   :    -59.17138     -37.49840     -43.42076
                        -----------------------------------------
Total Dipole Moment    :     -1.06711      -1.63479      -4.52373
                        -----------------------------------------
Magnitude (a.u.)       :      4.92701
Magnitude (Debye)      :     12.52346

Rotational constants in cm-1:     0.001343     0.000497     0.000466
Rotational constants in MHz :    40.275245    14.909405    13.969427

                             ****ORCA TERMINATED NORMALLY****
TOTAL RUN TIME: 0 days 0 hours 13 minutes 18 seconds 70 msec
