                         Program Version 4.2.0 -  RELEASE  -
|  1> # ORCA input file
|  2> # SCF done       -155.409718895830          0.000931265331
|  3> ! CAM-B3LYP def2-SVP def2/J RIJCOSX Grid4 TightSCF
|  4> %maxcore 5000
|  5> %tddft
|  6>     Mode sTDDFT
|  7>     Ethresh 5.0
|  8>     maxcore 5000
|  9> end
| 10>
| 11> %pal
| 12>   nprocs 6
| 13>   end
| 14> * xyz 0 1
| 15>    C        0.50651         1.08049        -0.67284
| 16>    C        1.40322         0.46681        -1.50655
| 17>    C        2.74789         0.20376        -1.16981
| 18>    N        3.85078        -0.03283        -0.95676
| 19>    C        1.12583         0.02110        -2.81621
| 20>    N        0.99051        -0.36614        -3.88852
| 21>    C        0.77781         1.55230         0.67505
| 22>    C       -0.38696         2.16904         1.19861
| 23>    C       -0.43096         2.72050         2.45629
| 24>    C        0.72448         2.65464         3.24122
| 25>    C        1.88197         2.03250         2.71279
| 26>    C        1.93020         1.48022         1.44092
| 27>    S        3.19769         2.06200         3.84832
| 28>    C        2.18932         2.89782         5.00001
| 29>    C        0.93228         3.14303         4.55989
| 30>   Br        2.89227         3.36909         6.67327
| 31>    C       -1.46404         2.12836         0.19060
| 32>    O       -2.54335         2.66478         0.25812
| 33>    C       -0.89522         1.36834        -0.96514
| 34>    C       -1.59506         1.05920        -2.06919
| 35>    C       -3.04023         1.28301        -2.19646
| 36>    N       -3.82437         0.67599        -1.30941
| 37>    C       -5.12652         0.85846        -1.45706
| 38>    C       -5.66053         1.62094        -2.47864
| 39>    C       -4.75505         2.20029        -3.37865
| 40>    N       -3.44022         2.01246        -3.22185
| 41>    C       -5.19561         2.99102        -4.50366
| 42>    C       -4.33852         3.68293        -5.27632
| 43>    C       -4.73586         4.44235        -6.42275
| 44>    C       -3.95115         5.25893        -7.14530
| 45>    C       -2.54141         5.62030        -6.81943
| 46>    C       -4.47897         5.96352        -8.37138
| 47>    N       -5.65264         5.36053        -8.94227
| 48>    C       -6.83322         5.97296        -9.05338
| 49>    C       -7.95014         5.39633        -9.59909
| 50>    C       -9.20385         6.00147        -9.77355
| 51>    C       -9.63019         7.26522        -9.42417
| 52>    C      -10.91687         7.79794        -9.67212
| 53>    C      -11.10272         9.07734        -9.22966
| 54>    C       -9.96943         9.62519        -8.59915
| 55>    S       -8.66195         8.47167        -8.59229
| 56>    C       -9.77021        10.86816        -8.01801
| 57>    C      -10.63108        11.97357        -7.89778
| 58>    C      -10.07091        13.03382        -7.24379
| 59>    C       -8.73798        12.81806        -6.81152
| 60>    S       -8.22255        11.21388        -7.27882
| 61>    C       -7.96217        13.71608        -6.11726
| 62>    C       -6.64355        13.54079        -5.65768
| 63>    S       -5.88095        14.82333        -4.72060
| 64>    C       -4.39797        13.97316        -4.50109
| 65>    C       -4.46225        12.74803        -5.11797
| 66>    C       -5.71962        12.51260        -5.76524
| 67>    O       -5.72134        11.30269        -6.36264
| 68>    C       -4.50265        10.76049        -6.10665
| 69>    N       -4.24099         9.49155        -6.62589
| 70>    O       -3.14591         8.99679        -6.38718
| 71>    O       -5.10421         8.93883        -7.29291
| 72>    C       -3.69091        11.58080        -5.35876
| 73>    H       -1.33173         3.18682         2.82344
| 74>    H        2.83611         1.01986         1.08368
| 75>    H        0.18138         3.64803         5.13963
| 76>    H       -1.12362         0.61132        -2.93281
| 77>    H       -5.75304         0.36197        -0.72667
| 78>    H       -6.72384         1.76390        -2.58511
| 79>    H       -6.26099         3.01354        -4.69107
| 80>    H       -3.29205         3.63606        -5.01461
| 81>    H       -5.77301         4.32739        -6.71668
| 82>    H       -2.18986         5.13363        -5.91713
| 83>    H       -2.47538         6.69991        -6.67638
| 84>    H       -1.87820         5.35732        -7.64310
| 85>    H       -3.68379         5.99286        -9.12739
| 86>    H       -4.72195         6.99898        -8.10752
| 87>    H       -5.57476         4.39599        -9.23514
| 88>    H       -6.84211         6.98944        -8.69138
| 89>    H       -7.86382         4.37478        -9.94876
| 90>    H       -9.95542         5.39066       -10.25940
| 91>    H      -11.67270         7.21984       -10.17532
| 92>    H      -12.01820         9.63103        -9.33756
| 93>    H      -11.63202        11.96485        -8.29183
| 94>    H      -10.57403        13.96584        -7.05514
| 95>    H       -8.41420        14.66975        -5.88037
| 96>    H       -3.59899        14.41950        -3.94876
| 97>    H       -2.69317        11.36012        -5.04152
| 98> *
| 99>
|100>                          ****END OF INPUT****

CARTESIAN COORDINATES (ANGSTROEM)
---------------------------------
  C      0.506510    1.080490   -0.672840
  C      1.403220    0.466810   -1.506550
  C      2.747890    0.203760   -1.169810
  N      3.850780   -0.032830   -0.956760
  C      1.125830    0.021100   -2.816210
  N      0.990510   -0.366140   -3.888520
  C      0.777810    1.552300    0.675050
  C     -0.386960    2.169040    1.198610
  C     -0.430960    2.720500    2.456290
  C      0.724480    2.654640    3.241220
  C      1.881970    2.032500    2.712790
  C      1.930200    1.480220    1.440920
  S      3.197690    2.062000    3.848320
  C      2.189320    2.897820    5.000010
  C      0.932280    3.143030    4.559890
  Br     2.892270    3.369090    6.673270
  C     -1.464040    2.128360    0.190600
  O     -2.543350    2.664780    0.258120
  C     -0.895220    1.368340   -0.965140
  C     -1.595060    1.059200   -2.069190
  C     -3.040230    1.283010   -2.196460
  N     -3.824370    0.675990   -1.309410
  C     -5.126520    0.858460   -1.457060
  C     -5.660530    1.620940   -2.478640
  C     -4.755050    2.200290   -3.378650
  N     -3.440220    2.012460   -3.221850
  C     -5.195610    2.991020   -4.503660
  C     -4.338520    3.682930   -5.276320
  C     -4.735860    4.442350   -6.422750
  C     -3.951150    5.258930   -7.145300
  C     -2.541410    5.620300   -6.819430
  C     -4.478970    5.963520   -8.371380
  N     -5.652640    5.360530   -8.942270
  C     -6.833220    5.972960   -9.053380
  C     -7.950140    5.396330   -9.599090
  C     -9.203850    6.001470   -9.773550
  C     -9.630190    7.265220   -9.424170
  C    -10.916870    7.797940   -9.672120
  C    -11.102720    9.077340   -9.229660
  C     -9.969430    9.625190   -8.599150
  S     -8.661950    8.471670   -8.592290
  C     -9.770210   10.868160   -8.018010
  C    -10.631080   11.973570   -7.897780
  C    -10.070910   13.033820   -7.243790
  C     -8.737980   12.818060   -6.811520
  S     -8.222550   11.213880   -7.278820
  C     -7.962170   13.716080   -6.117260
  C     -6.643550   13.540790   -5.657680
  S     -5.880950   14.823330   -4.720600
  C     -4.397970   13.973160   -4.501090
  C     -4.462250   12.748030   -5.117970
  C     -5.719620   12.512600   -5.765240
  O     -5.721340   11.302690   -6.362640
  C     -4.502650   10.760490   -6.106650
  N     -4.240990    9.491550   -6.625890
  O     -3.145910    8.996790   -6.387180
  O     -5.104210    8.938830   -7.292910
  C     -3.690910   11.580800   -5.358760
  H     -1.331730    3.186820    2.823440
  H      2.836110    1.019860    1.083680
  H      0.181380    3.648030    5.139630
  H     -1.123620    0.611320   -2.932810
  H     -5.753040    0.361970   -0.726670
  H     -6.723840    1.763900   -2.585110
  H     -6.260990    3.013540   -4.691070
  H     -3.292050    3.636060   -5.014610
  H     -5.773010    4.327390   -6.716680
  H     -2.189860    5.133630   -5.917130
  H     -2.475380    6.699910   -6.676380
  H     -1.878200    5.357320   -7.643100
  H     -3.683790    5.992860   -9.127390
  H     -4.721950    6.998980   -8.107520
  H     -5.574760    4.395990   -9.235140
  H     -6.842110    6.989440   -8.691380
  H     -7.863820    4.374780   -9.948760
  H     -9.955420    5.390660  -10.259400
  H    -11.672700    7.219840  -10.175320
  H    -12.018200    9.631030   -9.337560
  H    -11.632020   11.964850   -8.291830
  H    -10.574030   13.965840   -7.055140
  H     -8.414200   14.669750   -5.880370
  H     -3.598990   14.419500   -3.948760
  H     -2.693170   11.360120   -5.041520

 Total Charge           Charge          ....    0
 Multiplicity           Mult            ....    1
 Number of Electrons    NEL             ....  456
 Basis Dimension        Dim             ....  971

ORBITAL ENERGIES
----------------

  NO   OCC          E(Eh)            E(eV)
   0   2.0000    -482.887499    -13140.0369
   1   2.0000     -88.977669     -2421.2055
   2   2.0000     -88.963345     -2420.8157
   3   2.0000     -88.930085     -2419.9106
   4   2.0000     -88.921846     -2419.6864
   5   2.0000     -62.565212     -1702.4860
   6   2.0000     -56.399163     -1534.6993
   7   2.0000     -56.396441     -1534.6252
   8   2.0000     -56.396414     -1534.6245
   9   2.0000     -19.301267      -525.2142
  10   2.0000     -19.256246      -523.9891
  11   2.0000     -19.254081      -523.9302
  12   2.0000     -19.215997      -522.8939
  13   2.0000     -14.665179      -399.0598
  14   2.0000     -14.441909      -392.9843
  15   2.0000     -14.418492      -392.3471
  16   2.0000     -14.417919      -392.3315
  17   2.0000     -14.404163      -391.9572
  18   2.0000     -14.400731      -391.8638
  19   2.0000     -10.387265      -282.6519
  20   2.0000     -10.366489      -282.0865
  21   2.0000     -10.361468      -281.9499
  22   2.0000     -10.346665      -281.5471
  23   2.0000     -10.344244      -281.4812
  24   2.0000     -10.342202      -281.4256
  25   2.0000     -10.336255      -281.2638
  26   2.0000     -10.328112      -281.0422
  27   2.0000     -10.321577      -280.8644
  28   2.0000     -10.320765      -280.8423
  29   2.0000     -10.319860      -280.8177
  30   2.0000     -10.317378      -280.7501
  31   2.0000     -10.313497      -280.6445
  32   2.0000     -10.313288      -280.6388
  33   2.0000     -10.310793      -280.5709
  34   2.0000     -10.310331      -280.5584
  35   2.0000     -10.310006      -280.5495
  36   2.0000     -10.309361      -280.5320
  37   2.0000     -10.308127      -280.4984
  38   2.0000     -10.302599      -280.3480
  39   2.0000     -10.302400      -280.3426
  40   2.0000     -10.301192      -280.3097
  41   2.0000     -10.298634      -280.2401
  42   2.0000     -10.298405      -280.2338
  43   2.0000     -10.297888      -280.2198
  44   2.0000     -10.295152      -280.1453
  45   2.0000     -10.294240      -280.1205
  46   2.0000     -10.291670      -280.0506
  47   2.0000     -10.282017      -279.7879
  48   2.0000     -10.280785      -279.7544
  49   2.0000     -10.280425      -279.7446
  50   2.0000     -10.278184      -279.6836
  51   2.0000     -10.278074      -279.6806
  52   2.0000     -10.273681      -279.5611
  53   2.0000     -10.273014      -279.5429
  54   2.0000     -10.271951      -279.5140
  55   2.0000     -10.265951      -279.3507
  56   2.0000     -10.264125      -279.3010
  57   2.0000     -10.263764      -279.2912
  58   2.0000     -10.262338      -279.2524
  59   2.0000     -10.260316      -279.1974
  60   2.0000     -10.256522      -279.0941
  61   2.0000     -10.251766      -278.9647
  62   2.0000      -8.794652      -239.3147
  63   2.0000      -8.073544      -219.6923
  64   2.0000      -8.058252      -219.2762
  65   2.0000      -8.025873      -218.3951
  66   2.0000      -8.018222      -218.1869
  67   2.0000      -6.630946      -180.4372
  68   2.0000      -6.616405      -180.0415
  69   2.0000      -6.616172      -180.0352
  70   2.0000      -6.043262      -164.4455
  71   2.0000      -6.038958      -164.3284
  72   2.0000      -6.034777      -164.2146
  73   2.0000      -6.027622      -164.0199
  74   2.0000      -6.023322      -163.9029
  75   2.0000      -6.020512      -163.8265
  76   2.0000      -5.995571      -163.1478
  77   2.0000      -5.991476      -163.0363
  78   2.0000      -5.987961      -162.9407
  79   2.0000      -5.987034      -162.9155
  80   2.0000      -5.983826      -162.8282
  81   2.0000      -5.979026      -162.6976
  82   2.0000      -2.746836       -74.7452
  83   2.0000      -2.742725       -74.6333
  84   2.0000      -2.742575       -74.6293
  85   2.0000      -2.730992       -74.3141
  86   2.0000      -2.730988       -74.3140
  87   2.0000      -1.332776       -36.2667
  88   2.0000      -1.224547       -33.3216
  89   2.0000      -1.146416       -31.1956
  90   2.0000      -1.131778       -30.7972
  91   2.0000      -1.077740       -29.3268
  92   2.0000      -1.041706       -28.3463
  93   2.0000      -1.024882       -27.8885
  94   2.0000      -1.015644       -27.6371
  95   2.0000      -0.996329       -27.1115
  96   2.0000      -0.991026       -26.9672
  97   2.0000      -0.985031       -26.8041
  98   2.0000      -0.977012       -26.5859
  99   2.0000      -0.975128       -26.5346
 100   2.0000      -0.955058       -25.9885
 101   2.0000      -0.944694       -25.7064
 102   2.0000      -0.938837       -25.5471
 103   2.0000      -0.917144       -24.9568
 104   2.0000      -0.910732       -24.7823
 105   2.0000      -0.909188       -24.7403
 106   2.0000      -0.895171       -24.3588
 107   2.0000      -0.888139       -24.1675
 108   2.0000      -0.886961       -24.1354
 109   2.0000      -0.881392       -23.9839
 110   2.0000      -0.865174       -23.5426
 111   2.0000      -0.857590       -23.3362
 112   2.0000      -0.842148       -22.9160
 113   2.0000      -0.836413       -22.7599
 114   2.0000      -0.831117       -22.6158
 115   2.0000      -0.818797       -22.2806
 116   2.0000      -0.807119       -21.9628
 117   2.0000      -0.802950       -21.8494
 118   2.0000      -0.789743       -21.4900
 119   2.0000      -0.782197       -21.2847
 120   2.0000      -0.781292       -21.2600
 121   2.0000      -0.771073       -20.9820
 122   2.0000      -0.760752       -20.7011
 123   2.0000      -0.746207       -20.3053
 124   2.0000      -0.734058       -19.9747
 125   2.0000      -0.727010       -19.7829
 126   2.0000      -0.720822       -19.6146
 127   2.0000      -0.703400       -19.1405
 128   2.0000      -0.698448       -19.0057
 129   2.0000      -0.691873       -18.8268
 130   2.0000      -0.690759       -18.7965
 131   2.0000      -0.676739       -18.4150
 132   2.0000      -0.669973       -18.2309
 133   2.0000      -0.662396       -18.0247
 134   2.0000      -0.658067       -17.9069
 135   2.0000      -0.652104       -17.7447
 136   2.0000      -0.648116       -17.6361
 137   2.0000      -0.647001       -17.6058
 138   2.0000      -0.630184       -17.1482
 139   2.0000      -0.626097       -17.0370
 140   2.0000      -0.623475       -16.9656
 141   2.0000      -0.619825       -16.8663
 142   2.0000      -0.611200       -16.6316
 143   2.0000      -0.609805       -16.5936
 144   2.0000      -0.605617       -16.4797
 145   2.0000      -0.600269       -16.3342
 146   2.0000      -0.598594       -16.2886
 147   2.0000      -0.596497       -16.2315
 148   2.0000      -0.593864       -16.1599
 149   2.0000      -0.588863       -16.0238
 150   2.0000      -0.576888       -15.6979
 151   2.0000      -0.566867       -15.4252
 152   2.0000      -0.564933       -15.3726
 153   2.0000      -0.560829       -15.2609
 154   2.0000      -0.553639       -15.0653
 155   2.0000      -0.550002       -14.9663
 156   2.0000      -0.543306       -14.7841
 157   2.0000      -0.540885       -14.7182
 158   2.0000      -0.540172       -14.6988
 159   2.0000      -0.539609       -14.6835
 160   2.0000      -0.530753       -14.4425
 161   2.0000      -0.526078       -14.3153
 162   2.0000      -0.522341       -14.2136
 163   2.0000      -0.518668       -14.1137
 164   2.0000      -0.513130       -13.9630
 165   2.0000      -0.511286       -13.9128
 166   2.0000      -0.510377       -13.8881
 167   2.0000      -0.509616       -13.8674
 168   2.0000      -0.506082       -13.7712
 169   2.0000      -0.502727       -13.6799
 170   2.0000      -0.501625       -13.6499
 171   2.0000      -0.497436       -13.5359
 172   2.0000      -0.494058       -13.4440
 173   2.0000      -0.489237       -13.3128
 174   2.0000      -0.487515       -13.2660
 175   2.0000      -0.480766       -13.0823
 176   2.0000      -0.477763       -13.0006
 177   2.0000      -0.474680       -12.9167
 178   2.0000      -0.471878       -12.8405
 179   2.0000      -0.468852       -12.7581
 180   2.0000      -0.464021       -12.6266
 181   2.0000      -0.461674       -12.5628
 182   2.0000      -0.459549       -12.5050
 183   2.0000      -0.455195       -12.3865
 184   2.0000      -0.452181       -12.3045
 185   2.0000      -0.450863       -12.2686
 186   2.0000      -0.450066       -12.2469
 187   2.0000      -0.448549       -12.2056
 188   2.0000      -0.445917       -12.1340
 189   2.0000      -0.445560       -12.1243
 190   2.0000      -0.445093       -12.1116
 191   2.0000      -0.441188       -12.0053
 192   2.0000      -0.430599       -11.7172
 193   2.0000      -0.429278       -11.6812
 194   2.0000      -0.425535       -11.5794
 195   2.0000      -0.424555       -11.5527
 196   2.0000      -0.423330       -11.5194
 197   2.0000      -0.419437       -11.4135
 198   2.0000      -0.414279       -11.2731
 199   2.0000      -0.412904       -11.2357
 200   2.0000      -0.410864       -11.1802
 201   2.0000      -0.409751       -11.1499
 202   2.0000      -0.406033       -11.0487
 203   2.0000      -0.401413       -10.9230
 204   2.0000      -0.399904       -10.8819
 205   2.0000      -0.391237       -10.6461
 206   2.0000      -0.390229       -10.6187
 207   2.0000      -0.379824       -10.3355
 208   2.0000      -0.377889       -10.2829
 209   2.0000      -0.376694       -10.2504
 210   2.0000      -0.373331       -10.1588
 211   2.0000      -0.372507       -10.1364
 212   2.0000      -0.371313       -10.1040
 213   2.0000      -0.369880       -10.0649
 214   2.0000      -0.356234        -9.6936
 215   2.0000      -0.340521        -9.2661
 216   2.0000      -0.335480        -9.1289
 217   2.0000      -0.323487        -8.8025
 218   2.0000      -0.321833        -8.7575
 219   2.0000      -0.317620        -8.6429
 220   2.0000      -0.315656        -8.5894
 221   2.0000      -0.314195        -8.5497
 222   2.0000      -0.305001        -8.2995
 223   2.0000      -0.295689        -8.0461
 224   2.0000      -0.295044        -8.0286
 225   2.0000      -0.273148        -7.4327
 226   2.0000      -0.249989        -6.8025
 227   2.0000      -0.186416        -5.0726
 228   0.0000      -0.087315        -2.3760
 229   0.0000      -0.075484        -2.0540
 230   0.0000      -0.055366        -1.5066
 231   0.0000      -0.053546        -1.4571
 232   0.0000      -0.031126        -0.8470

MULLIKEN ATOMIC CHARGES
-----------------------
   0 C :    0.317231
   1 C :   -0.349190
   2 C :   -0.183468
   3 N :    0.153378
   4 C :   -0.186952
   5 N :    0.162668
   6 C :    0.014007
   7 C :   -0.016283
   8 C :   -0.068875
   9 C :    0.119601
  10 C :   -0.090729
  11 C :   -0.019816
  12 S :    0.188247
  13 C :   -0.123883
  14 C :    0.041161
  15 Br:    0.026558
  16 C :    0.152430
  17 O :   -0.126916
  18 C :   -0.058617
  19 C :    0.014101
  20 C :   -0.035326
  21 N :   -0.082748
  22 C :    0.085425
  23 C :   -0.037755
  24 C :    0.058751
  25 N :   -0.068257
  26 C :   -0.030213
  27 C :    0.057186
  28 C :   -0.007029
  29 C :   -0.192703
  30 C :    0.086255
  31 C :    0.204404
  32 N :   -0.140876
  33 C :    0.062314
  34 C :   -0.050412
  35 C :    0.028580
  36 C :   -0.053733
  37 C :    0.047747
  38 C :    0.002112
  39 C :   -0.012992
  40 S :    0.026358
  41 C :   -0.049523
  42 C :    0.041051
  43 C :    0.012680
  44 C :   -0.018449
  45 S :    0.064899
  46 C :    0.021254
  47 C :   -0.215914
  48 S :    0.137311
  49 C :   -0.154817
  50 C :    0.132401
  51 C :    0.186489
  52 O :   -0.193701
  53 C :    0.240326
  54 N :    0.304053
  55 O :   -0.250792
  56 O :   -0.229294
  57 C :   -0.078421
  58 H :   -0.009027
  59 H :   -0.005894
  60 H :   -0.001668
  61 H :    0.049109
  62 H :    0.004899
  63 H :   -0.006738
  64 H :   -0.024724
  65 H :    0.008127
  66 H :   -0.024293
  67 H :    0.010909
  68 H :    0.040465
  69 H :    0.018495
  70 H :    0.013556
  71 H :    0.038728
  72 H :    0.120797
  73 H :    0.048435
  74 H :   -0.034912
  75 H :   -0.016694
  76 H :   -0.019501
  77 H :   -0.024340
  78 H :   -0.021078
  79 H :   -0.024937
  80 H :   -0.034702
  81 H :    0.023762
  82 H :    0.009933
Sum of atomic charges:   -0.0000000

LOEWDIN ATOMIC CHARGES
----------------------
   0 C :    0.076897
   1 C :   -0.130330
   2 C :   -0.016824
   3 N :   -0.048678
   4 C :   -0.019824
   5 N :   -0.042698
   6 C :   -0.022347
   7 C :   -0.049251
   8 C :    0.023259
   9 C :   -0.029863
  10 C :   -0.142729
  11 C :   -0.008168
  12 S :    0.433145
  13 C :   -0.269552
  14 C :   -0.070339
  15 Br:    0.139210
  16 C :    0.086589
  17 O :   -0.122248
  18 C :   -0.067134
  19 C :    0.081548
  20 C :    0.020161
  21 N :   -0.088196
  22 C :    0.053931
  23 C :   -0.060947
  24 C :    0.043263
  25 N :   -0.084810
  26 C :   -0.061363
  27 C :    0.028960
  28 C :   -0.068930
  29 C :   -0.008317
  30 C :   -0.051282
  31 C :    0.037521
  32 N :    0.033296
  33 C :    0.064628
  34 C :   -0.147705
  35 C :   -0.016021
  36 C :   -0.193805
  37 C :   -0.015121
  38 C :   -0.071652
  39 C :   -0.155889
  40 S :    0.382669
  41 C :   -0.213964
  42 C :   -0.023910
  43 C :   -0.061681
  44 C :   -0.132255
  45 S :    0.387837
  46 C :   -0.125289
  47 C :   -0.185849
  48 S :    0.463771
  49 C :   -0.209020
  50 C :   -0.081815
  51 C :   -0.000979
  52 O :   -0.001834
  53 C :    0.016642
  54 N :    0.287639
  55 O :   -0.213205
  56 O :   -0.194296
  57 C :    0.001019
  58 H :    0.041770
  59 H :    0.041161
  60 H :    0.039502
  61 H :    0.051001
  62 H :    0.026254
  63 H :    0.033576
  64 H :    0.025208
  65 H :    0.030088
  66 H :    0.022506
  67 H :    0.030117
  68 H :    0.039637
  69 H :    0.033929
  70 H :    0.026669
  71 H :    0.034849
  72 H :    0.081088
  73 H :    0.018623
  74 H :    0.021203
  75 H :    0.035437
  76 H :    0.030486
  77 H :    0.027585
  78 H :    0.029627
  79 H :    0.027362
  80 H :    0.028228
  81 H :    0.024664
  82 H :    0.045562

  Mayer bond orders larger than 0.100000
B(  0-C ,  1-C ) :   1.6578 B(  0-C ,  6-C ) :   1.0198 B(  0-C , 18-C ) :   1.0239
B(  1-C ,  2-C ) :   1.1397 B(  1-C ,  4-C ) :   1.1452 B(  2-C ,  3-N ) :   2.9711
B(  4-C ,  5-N ) :   2.9748 B(  6-C ,  7-C ) :   1.2711 B(  6-C , 11-C ) :   1.3966
B(  7-C ,  8-C ) :   1.4220 B(  7-C , 16-C ) :   0.9381 B(  8-C ,  9-C ) :   1.2513
B(  8-C , 58-H ) :   1.0162 B(  9-C , 10-C ) :   1.2978 B(  9-C , 14-C ) :   1.1644
B( 10-C , 11-C ) :   1.3447 B( 10-C , 12-S ) :   1.0851 B( 11-C , 59-H ) :   0.9787
B( 12-S , 13-C ) :   1.0864 B( 13-C , 14-C ) :   1.6168 B( 13-C , 15-Br) :   1.0210
B( 14-C , 60-H ) :   0.9997 B( 16-C , 17-O ) :   2.2531 B( 16-C , 18-C ) :   0.9127
B( 18-C , 19-C ) :   1.8320 B( 19-C , 20-C ) :   0.9407 B( 19-C , 61-H ) :   0.9301
B( 20-C , 21-N ) :   1.4944 B( 20-C , 25-N ) :   1.5329 B( 21-N , 22-C ) :   1.5302
B( 22-C , 23-C ) :   1.3854 B( 22-C , 62-H ) :   0.9794 B( 23-C , 24-C ) :   1.3292
B( 23-C , 63-H ) :   0.9750 B( 24-C , 25-N ) :   1.4944 B( 24-C , 26-C ) :   1.0645
B( 26-C , 27-C ) :   1.7203 B( 26-C , 64-H ) :   0.9822 B( 27-C , 28-C ) :   1.0813
B( 27-C , 65-H ) :   0.9645 B( 28-C , 29-C ) :   1.7692 B( 28-C , 66-H ) :   0.9684
B( 29-C , 30-C ) :   1.0887 B( 29-C , 31-C ) :   1.0010 B( 30-C , 67-H ) :   0.9489
B( 30-C , 68-H ) :   0.9358 B( 30-C , 69-H ) :   0.9415 B( 31-C , 32-N ) :   1.0029
B( 31-C , 70-H ) :   0.9323 B( 31-C , 71-H ) :   0.8890 B( 32-N , 33-C ) :   1.2921
B( 32-N , 72-H ) :   0.9399 B( 33-C , 34-C ) :   1.4976 B( 33-C , 73-H ) :   0.9479
B( 34-C , 35-C ) :   1.2713 B( 34-C , 74-H ) :   0.9604 B( 35-C , 36-C ) :   1.5335
B( 35-C , 75-H ) :   0.9599 B( 36-C , 37-C ) :   1.1839 B( 36-C , 40-S ) :   1.0084
B( 37-C , 38-C ) :   1.5524 B( 37-C , 76-H ) :   0.9966 B( 38-C , 39-C ) :   1.2118
B( 38-C , 77-H ) :   0.9941 B( 39-C , 40-S ) :   1.0694 B( 39-C , 41-C ) :   1.4618
B( 41-C , 42-C ) :   1.2179 B( 41-C , 45-S ) :   1.0182 B( 42-C , 43-C ) :   1.5595
B( 42-C , 78-H ) :   0.9931 B( 43-C , 44-C ) :   1.1634 B( 43-C , 79-H ) :   0.9990
B( 44-C , 45-S ) :   1.0661 B( 44-C , 46-C ) :   1.5607 B( 46-C , 47-C ) :   1.1674
B( 46-C , 80-H ) :   0.9432 B( 47-C , 48-S ) :   1.1371 B( 47-C , 49-C ) :   0.1054
B( 47-C , 51-C ) :   1.4172 B( 48-S , 49-C ) :   1.1625 B( 49-C , 50-C ) :   1.4256
B( 49-C , 81-H ) :   0.9780 B( 50-C , 51-C ) :   1.2266 B( 50-C , 57-C ) :   1.0790
B( 51-C , 52-O ) :   1.0734 B( 52-O , 53-C ) :   1.1295 B( 53-C , 54-N ) :   0.9425
B( 53-C , 57-C ) :   1.5321 B( 54-N , 55-O ) :   1.4951 B( 54-N , 56-O ) :   1.4602
B( 55-O , 56-O ) :   0.2554 B( 56-O , 71-H ) :   0.1076 B( 57-C , 82-H ) :   1.0247

-----------------------------------------------------------------------------
         ABSORPTION SPECTRUM VIA TRANSITION ELECTRIC DIPOLE MOMENTS
-----------------------------------------------------------------------------
State   Energy  Wavelength   fosc         T2         TX        TY        TZ
        (cm-1)    (nm)                  (au**2)     (au)      (au)      (au)
-----------------------------------------------------------------------------
   0    7298.4   1370.2   0.044933884   2.02684   0.87088   0.87958   0.70338
   1   14067.5    710.9   0.000983612   0.02302  -0.02316  -0.14300  -0.04509
   2   14425.4    693.2   0.732905217  16.72612  -0.54704  -3.71038  -1.63094
   3   20928.7    477.8   0.001201427   0.01890   0.04975   0.06163  -0.11236
   4   20981.4    476.6   0.013586091   0.21317  -0.37233  -0.08364  -0.25991
   5   21781.1    459.1   0.011194683   0.16920   0.21163  -0.08810   0.34155
   6   24498.6    408.2   0.006037925   0.08114  -0.17574  -0.14282  -0.17279
   7   25496.3    392.2   0.032239910   0.41629   0.62204  -0.05466   0.16238
   8   27415.4    364.8   0.020454918   0.24563  -0.41643   0.23819  -0.12441
   9   27903.1    358.4   0.018952728   0.22361  -0.40445   0.11050  -0.21867
  10   28312.7    353.2   0.918247972  10.67711  -2.53522   0.78919  -1.90446
  11   28337.3    352.9   0.444606107   5.16527   1.72157  -1.34304  -0.63063
  12   28567.9    350.0   0.154068519   1.77546  -0.34848   0.68636   1.08763
  13   29603.7    337.8   0.043900415   0.48820   0.36883  -0.04577   0.59167
  14   30484.2    328.0   0.064857804   0.70043   0.46269  -0.45374  -0.52959
  15   30555.0    327.3   0.103082208   1.11065  -0.84639  -0.33456  -0.53137
  16   30817.4    324.5   0.009625262   0.10282  -0.15999   0.12129  -0.25003
  17   31661.8    315.8   0.001944898   0.02022   0.12716  -0.02486   0.05860
  18   31724.4    315.2   0.000115890   0.00120   0.02421  -0.01355   0.02081
  19   31817.4    314.3   0.002790575   0.02887   0.13316  -0.06785   0.08086
  20   32280.4    309.8   0.000523848   0.00534  -0.01159  -0.05752  -0.04358
  21   33039.9    302.7   0.024365778   0.24278  -0.38417   0.24345  -0.18956
  22   33145.2    301.7   0.013274098   0.13184  -0.05242  -0.17521  -0.31368
  23   33577.4    297.8   0.652747437   6.39991  -0.41138   2.49034   0.16997
  24   33794.0    295.9   0.185299882   1.80514   0.47673  -0.78137   0.98353
  25   34154.8    292.8   0.104570374   1.00793   0.95567  -0.27758   0.13259
  26   34308.5    291.5   0.450198404   4.31994  -0.02677  -0.45328  -2.02824
  27   34428.4    290.5   0.314429329   3.00665  -0.27144   1.07800   1.33074
  28   34540.3    289.5   0.030264436   0.28846  -0.49877  -0.03265   0.19653
  29   34578.0    289.2   0.001185306   0.01129   0.06552   0.08351   0.00436
  30   35281.6    283.4   0.065821312   0.61418  -0.38446  -0.21515   0.64813
  31   35511.6    281.6   0.033334845   0.30903   0.48683   0.24812  -0.10229
  32   35799.7    279.3   0.361406011   3.32346  -0.00067   0.71212  -1.67820
  33   36017.8    277.6   0.188696861   1.72474   0.02581   0.57453  -1.18067
  34   36271.1    275.7   0.098535556   0.89435  -0.39578   0.05197  -0.85733
  35   36946.6    270.7   0.123801021   1.10313   0.82469   0.45130  -0.46835
  36   37554.5    266.3   0.019044336   0.16695  -0.12532  -0.38819  -0.02354
  37   37628.4    265.8   0.000143096   0.00125   0.00987  -0.02308  -0.02494
  38   38578.0    259.2   0.044296625   0.37801   0.40312   0.35768   0.29593
  39   39614.8    252.4   0.267876289   2.22614   0.96201   0.31814   1.09520
  40   39878.9    250.8   0.204149602   1.68531  -1.24904   0.13951  -0.32520
  41   39906.6    250.6   0.041015574   0.33836   0.36319   0.38513   0.24109
  42   39940.2    250.4   0.000434522   0.00358   0.04309   0.03647   0.01987

FINAL SINGLE POINT ENERGY     -6446.166607718542

DIPOLE MOMENT
-------------
                                X             Y             Z
Electronic contribution:    101.47496     -29.50717     148.22295
Nuclear contribution   :   -102.75499      30.84101    -147.40004
                        -----------------------------------------
Total Dipole Moment    :     -1.28003       1.33385       0.82290
                        -----------------------------------------
Magnitude (a.u.)       :      2.02356
Magnitude (Debye)      :      5.14348

Rotational constants in cm-1:     0.001531     0.000342     0.000301
Rotational constants in MHz :    45.897475    10.252217     9.017035

                             ****ORCA TERMINATED NORMALLY****
TOTAL RUN TIME: 0 days 0 hours 6 minutes 58 seconds 888 msec
