                         Program Version 4.2.0 -  RELEASE  -
|  1> # ORCA input file
|  2> # SCF done       -210.310260958508          0.000910169026
|  3> ! CAM-B3LYP def2-SVP def2/J RIJCOSX Grid4 TightSCF
|  4> %maxcore 5000
|  5> %tddft
|  6>     Mode sTDDFT
|  7>     Ethresh 5.0
|  8>     maxcore 5000
|  9> end
| 10>
| 11> %pal
| 12>   nprocs 6
| 13>   end
| 14> * xyz 0 1
| 15>    C       -4.22309        10.92910        -5.62742
| 16>    C       -5.27977        10.05400        -5.69617
| 17>    C       -5.91314         9.67169        -6.89712
| 18>    N       -6.46915         9.32229        -7.83856
| 19>    C       -5.88134         9.42549        -4.59058
| 20>    N       -6.42290         8.88063        -3.73418
| 21>    C       -3.58728        11.60354        -6.75560
| 22>    C       -2.52974        12.41980        -6.27230
| 23>    C       -1.74301        13.17966        -7.10257
| 24>    C       -2.00844        13.13460        -8.47592
| 25>    C       -3.06478        12.31946        -8.94889
| 26>    C       -3.86168        11.55045        -8.10875
| 27>    S       -3.21929        12.41263       -10.67599
| 28>    C       -1.88172        13.52883       -10.74027
| 29>    C       -1.34523        13.81844        -9.52995
| 30>   Br       -1.31958        14.20575       -12.39553
| 31>    C       -2.45778        12.28855        -4.80928
| 32>    O       -1.68808        12.84071        -4.03641
| 33>    C       -3.52208        11.34926        -4.44000
| 34>    C       -3.74679        10.97541        -3.14219
| 35>    N       -3.00414        11.43540        -2.12842
| 36>    C       -3.15359        11.02475        -0.82937
| 37>    S       -2.86483        12.12312         0.47887
| 38>    C       -3.43023        10.91348         1.58431
| 39>    N       -3.41929        11.24455         2.95040
| 40>    O       -3.80890        10.41107         3.74061
| 41>    O       -3.01344        12.35816         3.23160
| 42>    C       -3.80977         9.74373         0.98197
| 43>    C       -3.63421         9.78228        -0.41527
| 44>    C       -3.82118         8.66936        -1.32019
| 45>    C       -4.78471         7.74106        -1.20564
| 46>    C       -4.90699         6.64081        -2.11056
| 47>    O       -3.82370         6.27154        -2.86441
| 48>    C       -4.13623         5.21049        -3.57929
| 49>    C       -5.44590         4.84551        -3.34428
| 50>    N       -6.14435         3.79023        -3.94669
| 51>    O       -5.56509         3.11792        -4.77239
| 52>    O       -7.30945         3.62009        -3.60678
| 53>    C       -5.96844         5.78523        -2.39133
| 54>    N       -7.24436         5.77550        -1.95123
| 55>    C       -7.93484         6.91437        -1.40145
| 56>    C       -7.97553         6.78238         0.13536
| 57>    O       -7.09256         7.04896         0.89573
| 58>    O       -9.15238         6.28822         0.50627
| 59>    C      -10.05431         6.13433        -0.59156
| 60>    C       -9.42016         6.90695        -1.76486
| 61>    C      -10.00086         8.31454        -1.85138
| 62>    C      -11.48126         8.22796        -2.20306
| 63>    C      -12.27637         7.42414        -1.16540
| 64>    C      -11.43440         6.64494        -0.12989
| 65>    O      -12.24040         5.53964         0.25692
| 66>    C      -13.24511         5.31043        -0.59454
| 67>    O      -14.03285         4.42591        -0.46565
| 68>    C      -13.20242         6.33763        -1.73911
| 69>    C      -12.69603         5.64148        -2.95452
| 70>    C      -13.39543         5.55623        -4.09336
| 71>    C      -12.92651         4.87811        -5.26137
| 72>    C      -13.43421         4.99228        -6.51160
| 73>    C      -14.42730         5.89932        -7.05761
| 74>    C      -14.63721         7.19594        -6.66966
| 75>    C      -15.58302         8.05204        -7.27281
| 76>    N      -16.35760         8.77381        -7.71496
| 77>    C      -13.85059         7.85843        -5.70470
| 78>    N      -13.20809         8.45576        -4.96425
| 79>    C      -14.98295         5.26451        -8.24514
| 80>    C      -14.18723         4.13578        -8.57232
| 81>    C      -13.12999         3.96791        -7.55486
| 82>    O      -12.23901         3.15503        -7.53184
| 83>    C      -14.43401         3.35802        -9.67777
| 84>    C      -15.52083         3.70135       -10.48886
| 85>    C      -16.31857         4.82006       -10.14331
| 86>    C      -16.06469         5.61330        -9.03176
| 87>    S      -17.61472         5.05495       -11.27475
| 88>    C      -17.07357         3.67186       -12.18860
| 89>    C      -15.97942         3.06211       -11.67260
| 90>   Br      -18.00489         3.16365       -13.73385
| 91>    H       -0.94634        13.78996        -6.70711
| 92>    H       -4.65437        10.94588        -8.51691
| 93>    H       -0.51593        14.48664        -9.38633
| 94>    H       -4.54776        10.29715        -2.88338
| 95>    H       -2.31616        12.15669        -2.37991
| 96>    H       -4.17517         8.89136         1.52577
| 97>    H       -3.13002         8.61573        -2.15226
| 98>    H       -5.51169         7.79427        -0.40975
| 99>    H       -3.39478         4.76907        -4.21586
|100>    H       -7.79548         5.00487        -2.31684
|101>    H       -7.42135         7.82891        -1.71226
|102>    H      -10.13262         5.05937        -0.79955
|103>    H       -9.58724         6.39378        -2.71418
|104>    H       -9.47640         8.87461        -2.62582
|105>    H       -9.86106         8.83314        -0.90048
|106>    H      -11.58620         7.76906        -3.18706
|107>    H      -11.89769         9.23095        -2.28072
|108>    H      -12.90725         8.10901        -0.59109
|109>    H      -11.26267         7.23757         0.77490
|110>    H      -14.20749         6.71613        -1.93065
|111>    H      -11.71545         5.18984        -2.88864
|112>    H      -14.37336         6.01580        -4.14480
|113>    H      -12.13219         4.15110        -5.13372
|114>    H      -13.80796         2.51107        -9.91053
|115>    H      -16.70089         6.45241        -8.80276
|116>    H      -15.51398         2.19669       -12.10765
|117> *
|118>
|119>                          ****END OF INPUT****

CARTESIAN COORDINATES (ANGSTROEM)
---------------------------------
  C     -4.223090   10.929100   -5.627420
  C     -5.279770   10.054000   -5.696170
  C     -5.913140    9.671690   -6.897120
  N     -6.469150    9.322290   -7.838560
  C     -5.881340    9.425490   -4.590580
  N     -6.422900    8.880630   -3.734180
  C     -3.587280   11.603540   -6.755600
  C     -2.529740   12.419800   -6.272300
  C     -1.743010   13.179660   -7.102570
  C     -2.008440   13.134600   -8.475920
  C     -3.064780   12.319460   -8.948890
  C     -3.861680   11.550450   -8.108750
  S     -3.219290   12.412630  -10.675990
  C     -1.881720   13.528830  -10.740270
  C     -1.345230   13.818440   -9.529950
  Br    -1.319580   14.205750  -12.395530
  C     -2.457780   12.288550   -4.809280
  O     -1.688080   12.840710   -4.036410
  C     -3.522080   11.349260   -4.440000
  C     -3.746790   10.975410   -3.142190
  N     -3.004140   11.435400   -2.128420
  C     -3.153590   11.024750   -0.829370
  S     -2.864830   12.123120    0.478870
  C     -3.430230   10.913480    1.584310
  N     -3.419290   11.244550    2.950400
  O     -3.808900   10.411070    3.740610
  O     -3.013440   12.358160    3.231600
  C     -3.809770    9.743730    0.981970
  C     -3.634210    9.782280   -0.415270
  C     -3.821180    8.669360   -1.320190
  C     -4.784710    7.741060   -1.205640
  C     -4.906990    6.640810   -2.110560
  O     -3.823700    6.271540   -2.864410
  C     -4.136230    5.210490   -3.579290
  C     -5.445900    4.845510   -3.344280
  N     -6.144350    3.790230   -3.946690
  O     -5.565090    3.117920   -4.772390
  O     -7.309450    3.620090   -3.606780
  C     -5.968440    5.785230   -2.391330
  N     -7.244360    5.775500   -1.951230
  C     -7.934840    6.914370   -1.401450
  C     -7.975530    6.782380    0.135360
  O     -7.092560    7.048960    0.895730
  O     -9.152380    6.288220    0.506270
  C    -10.054310    6.134330   -0.591560
  C     -9.420160    6.906950   -1.764860
  C    -10.000860    8.314540   -1.851380
  C    -11.481260    8.227960   -2.203060
  C    -12.276370    7.424140   -1.165400
  C    -11.434400    6.644940   -0.129890
  O    -12.240400    5.539640    0.256920
  C    -13.245110    5.310430   -0.594540
  O    -14.032850    4.425910   -0.465650
  C    -13.202420    6.337630   -1.739110
  C    -12.696030    5.641480   -2.954520
  C    -13.395430    5.556230   -4.093360
  C    -12.926510    4.878110   -5.261370
  C    -13.434210    4.992280   -6.511600
  C    -14.427300    5.899320   -7.057610
  C    -14.637210    7.195940   -6.669660
  C    -15.583020    8.052040   -7.272810
  N    -16.357600    8.773810   -7.714960
  C    -13.850590    7.858430   -5.704700
  N    -13.208090    8.455760   -4.964250
  C    -14.982950    5.264510   -8.245140
  C    -14.187230    4.135780   -8.572320
  C    -13.129990    3.967910   -7.554860
  O    -12.239010    3.155030   -7.531840
  C    -14.434010    3.358020   -9.677770
  C    -15.520830    3.701350  -10.488860
  C    -16.318570    4.820060  -10.143310
  C    -16.064690    5.613300   -9.031760
  S    -17.614720    5.054950  -11.274750
  C    -17.073570    3.671860  -12.188600
  C    -15.979420    3.062110  -11.672600
  Br   -18.004890    3.163650  -13.733850
  H     -0.946340   13.789960   -6.707110
  H     -4.654370   10.945880   -8.516910
  H     -0.515930   14.486640   -9.386330
  H     -4.547760   10.297150   -2.883380
  H     -2.316160   12.156690   -2.379910
  H     -4.175170    8.891360    1.525770
  H     -3.130020    8.615730   -2.152260
  H     -5.511690    7.794270   -0.409750
  H     -3.394780    4.769070   -4.215860
  H     -7.795480    5.004870   -2.316840
  H     -7.421350    7.828910   -1.712260
  H    -10.132620    5.059370   -0.799550
  H     -9.587240    6.393780   -2.714180
  H     -9.476400    8.874610   -2.625820
  H     -9.861060    8.833140   -0.900480
  H    -11.586200    7.769060   -3.187060
  H    -11.897690    9.230950   -2.280720
  H    -12.907250    8.109010   -0.591090
  H    -11.262670    7.237570    0.774900
  H    -14.207490    6.716130   -1.930650
  H    -11.715450    5.189840   -2.888640
  H    -14.373360    6.015800   -4.144800
  H    -12.132190    4.151100   -5.133720
  H    -13.807960    2.511070   -9.910530
  H    -16.700890    6.452410   -8.802760
  H    -15.513980    2.196690  -12.107650

 Total Charge           Charge          ....    0
 Multiplicity           Mult            ....    1
 Number of Electrons    NEL             ....  600
 Basis Dimension        Dim             .... 1242

ORBITAL ENERGIES
----------------

  NO   OCC          E(Eh)            E(eV)
   0   2.0000    -482.892415    -13140.1707
   1   2.0000    -482.890173    -13140.1096
   2   2.0000     -88.989435     -2421.5256
   3   2.0000     -88.984152     -2421.3819
   4   2.0000     -88.981578     -2421.3118
   5   2.0000     -62.570097     -1702.6189
   6   2.0000     -62.567884     -1702.5587
   7   2.0000     -56.404058     -1534.8325
   8   2.0000     -56.401844     -1534.7722
   9   2.0000     -56.401325     -1534.7581
  10   2.0000     -56.401296     -1534.7573
  11   2.0000     -56.399111     -1534.6978
  12   2.0000     -56.399084     -1534.6971
  13   2.0000     -19.317619      -525.6591
  14   2.0000     -19.275412      -524.5106
  15   2.0000     -19.269934      -524.3616
  16   2.0000     -19.251799      -523.8681
  17   2.0000     -19.250144      -523.8230
  18   2.0000     -19.240450      -523.5593
  19   2.0000     -19.239975      -523.5463
  20   2.0000     -19.234839      -523.4066
  21   2.0000     -19.222768      -523.0781
  22   2.0000     -19.214190      -522.8447
  23   2.0000     -19.206105      -522.6247
  24   2.0000     -14.661477      -398.9591
  25   2.0000     -14.651839      -398.6968
  26   2.0000     -14.500560      -394.5803
  27   2.0000     -14.442579      -393.0026
  28   2.0000     -14.435984      -392.8231
  29   2.0000     -14.426927      -392.5766
  30   2.0000     -14.425825      -392.5466
  31   2.0000     -14.421943      -392.4410
  32   2.0000     -10.406157      -283.1659
  33   2.0000     -10.404187      -283.1123
  34   2.0000     -10.382419      -282.5200
  35   2.0000     -10.373633      -282.2809
  36   2.0000     -10.371719      -282.2288
  37   2.0000     -10.367203      -282.1059
  38   2.0000     -10.366893      -282.0975
  39   2.0000     -10.365283      -282.0537
  40   2.0000     -10.364555      -282.0339
  41   2.0000     -10.355223      -281.7799
  42   2.0000     -10.355140      -281.7777
  43   2.0000     -10.353624      -281.7364
  44   2.0000     -10.352501      -281.7059
  45   2.0000     -10.350506      -281.6516
  46   2.0000     -10.348957      -281.6094
  47   2.0000     -10.348502      -281.5971
  48   2.0000     -10.340114      -281.3688
  49   2.0000     -10.339959      -281.3646
  50   2.0000     -10.334155      -281.2067
  51   2.0000     -10.332687      -281.1667
  52   2.0000     -10.331648      -281.1384
  53   2.0000     -10.330470      -281.1064
  54   2.0000     -10.329965      -281.0926
  55   2.0000     -10.329880      -281.0903
  56   2.0000     -10.327883      -281.0360
  57   2.0000     -10.325765      -280.9783
  58   2.0000     -10.322984      -280.9027
  59   2.0000     -10.318244      -280.7737
  60   2.0000     -10.316801      -280.7344
  61   2.0000     -10.316512      -280.7266
  62   2.0000     -10.315564      -280.7008
  63   2.0000     -10.314345      -280.6676
  64   2.0000     -10.314044      -280.6594
  65   2.0000     -10.313579      -280.6468
  66   2.0000     -10.311623      -280.5935
  67   2.0000     -10.309766      -280.5430
  68   2.0000     -10.307984      -280.4945
  69   2.0000     -10.307278      -280.4753
  70   2.0000     -10.306291      -280.4484
  71   2.0000     -10.304582      -280.4019
  72   2.0000     -10.304496      -280.3996
  73   2.0000     -10.303788      -280.3803
  74   2.0000     -10.303178      -280.3637
  75   2.0000     -10.301955      -280.3304
  76   2.0000     -10.301401      -280.3154
  77   2.0000     -10.301151      -280.3086
  78   2.0000     -10.300555      -280.2923
  79   2.0000     -10.300341      -280.2865
  80   2.0000     -10.288339      -279.9599
  81   2.0000     -10.284449      -279.8541
  82   2.0000     -10.284030      -279.8427
  83   2.0000     -10.274945      -279.5955
  84   2.0000      -8.799519      -239.4471
  85   2.0000      -8.797312      -239.3870
  86   2.0000      -8.085177      -220.0089
  87   2.0000      -8.080074      -219.8700
  88   2.0000      -8.077555      -219.8015
  89   2.0000      -6.635835      -180.5702
  90   2.0000      -6.633657      -180.5110
  91   2.0000      -6.621248      -180.1733
  92   2.0000      -6.621031      -180.1674
  93   2.0000      -6.619036      -180.1131
  94   2.0000      -6.618804      -180.1068
  95   2.0000      -6.054748      -164.7581
  96   2.0000      -6.050385      -164.6393
  97   2.0000      -6.049738      -164.6217
  98   2.0000      -6.047257      -164.5542
  99   2.0000      -6.046718      -164.5396
 100   2.0000      -6.045464      -164.5054
 101   2.0000      -6.042952      -164.4371
 102   2.0000      -6.041364      -164.3939
 103   2.0000      -6.038780      -164.3236
 104   2.0000      -2.751737       -74.8786
 105   2.0000      -2.749511       -74.8180
 106   2.0000      -2.747585       -74.7656
 107   2.0000      -2.747443       -74.7617
 108   2.0000      -2.745405       -74.7063
 109   2.0000      -2.745278       -74.7028
 110   2.0000      -2.735841       -74.4460
 111   2.0000      -2.735827       -74.4456
 112   2.0000      -2.733641       -74.3862
 113   2.0000      -2.733618       -74.3855
 114   2.0000      -1.330422       -36.2026
 115   2.0000      -1.322802       -35.9953
 116   2.0000      -1.236914       -33.6581
 117   2.0000      -1.214092       -33.0371
 118   2.0000      -1.204866       -32.7861
 119   2.0000      -1.149470       -31.2787
 120   2.0000      -1.149237       -31.2723
 121   2.0000      -1.142179       -31.0803
 122   2.0000      -1.138672       -30.9848
 123   2.0000      -1.122604       -30.5476
 124   2.0000      -1.114798       -30.3352
 125   2.0000      -1.104317       -30.0500
 126   2.0000      -1.051800       -28.6209
 127   2.0000      -1.033673       -28.1277
 128   2.0000      -1.031672       -28.0732
 129   2.0000      -1.025480       -27.9047
 130   2.0000      -1.022006       -27.8102
 131   2.0000      -1.011479       -27.5237
 132   2.0000      -1.007182       -27.4068
 133   2.0000      -1.005241       -27.3540
 134   2.0000      -0.998418       -27.1683
 135   2.0000      -0.998360       -27.1668
 136   2.0000      -0.961553       -26.1652
 137   2.0000      -0.952717       -25.9248
 138   2.0000      -0.950897       -25.8752
 139   2.0000      -0.947853       -25.7924
 140   2.0000      -0.933003       -25.3883
 141   2.0000      -0.924039       -25.1444
 142   2.0000      -0.918526       -24.9944
 143   2.0000      -0.916479       -24.9387
 144   2.0000      -0.910434       -24.7742
 145   2.0000      -0.907560       -24.6960
 146   2.0000      -0.895474       -24.3671
 147   2.0000      -0.893159       -24.3041
 148   2.0000      -0.892029       -24.2733
 149   2.0000      -0.884900       -24.0794
 150   2.0000      -0.876998       -23.8643
 151   2.0000      -0.868370       -23.6295
 152   2.0000      -0.853862       -23.2348
 153   2.0000      -0.849292       -23.1104
 154   2.0000      -0.839439       -22.8423
 155   2.0000      -0.838337       -22.8123
 156   2.0000      -0.835608       -22.7380
 157   2.0000      -0.824526       -22.4365
 158   2.0000      -0.812385       -22.1061
 159   2.0000      -0.799199       -21.7473
 160   2.0000      -0.791917       -21.5492
 161   2.0000      -0.777145       -21.1472
 162   2.0000      -0.775838       -21.1116
 163   2.0000      -0.771339       -20.9892
 164   2.0000      -0.763565       -20.7777
 165   2.0000      -0.746588       -20.3157
 166   2.0000      -0.733690       -19.9647
 167   2.0000      -0.727187       -19.7878
 168   2.0000      -0.722588       -19.6626
 169   2.0000      -0.714674       -19.4473
 170   2.0000      -0.710133       -19.3237
 171   2.0000      -0.702961       -19.1285
 172   2.0000      -0.701684       -19.0938
 173   2.0000      -0.699509       -19.0346
 174   2.0000      -0.693057       -18.8590
 175   2.0000      -0.679699       -18.4955
 176   2.0000      -0.677161       -18.4265
 177   2.0000      -0.674868       -18.3641
 178   2.0000      -0.670269       -18.2389
 179   2.0000      -0.668341       -18.1865
 180   2.0000      -0.662966       -18.0402
 181   2.0000      -0.654122       -17.7996
 182   2.0000      -0.652329       -17.7508
 183   2.0000      -0.644109       -17.5271
 184   2.0000      -0.641892       -17.4668
 185   2.0000      -0.637798       -17.3554
 186   2.0000      -0.634632       -17.2692
 187   2.0000      -0.633277       -17.2323
 188   2.0000      -0.632158       -17.2019
 189   2.0000      -0.631413       -17.1816
 190   2.0000      -0.629786       -17.1374
 191   2.0000      -0.627550       -17.0765
 192   2.0000      -0.618552       -16.8317
 193   2.0000      -0.612066       -16.6552
 194   2.0000      -0.608483       -16.5577
 195   2.0000      -0.606335       -16.4992
 196   2.0000      -0.601159       -16.3584
 197   2.0000      -0.598244       -16.2790
 198   2.0000      -0.594429       -16.1752
 199   2.0000      -0.591372       -16.0920
 200   2.0000      -0.588482       -16.0134
 201   2.0000      -0.583577       -15.8799
 202   2.0000      -0.580043       -15.7838
 203   2.0000      -0.575291       -15.6545
 204   2.0000      -0.573144       -15.5960
 205   2.0000      -0.568557       -15.4712
 206   2.0000      -0.564114       -15.3503
 207   2.0000      -0.562544       -15.3076
 208   2.0000      -0.560727       -15.2582
 209   2.0000      -0.556680       -15.1480
 210   2.0000      -0.553778       -15.0691
 211   2.0000      -0.549880       -14.9630
 212   2.0000      -0.549200       -14.9445
 213   2.0000      -0.546580       -14.8732
 214   2.0000      -0.544917       -14.8280
 215   2.0000      -0.543647       -14.7934
 216   2.0000      -0.542078       -14.7507
 217   2.0000      -0.540813       -14.7163
 218   2.0000      -0.533901       -14.5282
 219   2.0000      -0.533145       -14.5076
 220   2.0000      -0.530305       -14.4303
 221   2.0000      -0.527937       -14.3659
 222   2.0000      -0.525238       -14.2925
 223   2.0000      -0.522791       -14.2259
 224   2.0000      -0.518958       -14.1216
 225   2.0000      -0.517479       -14.0813
 226   2.0000      -0.515796       -14.0355
 227   2.0000      -0.514617       -14.0034
 228   2.0000      -0.510178       -13.8826
 229   2.0000      -0.507718       -13.8157
 230   2.0000      -0.506131       -13.7725
 231   2.0000      -0.505414       -13.7530
 232   2.0000      -0.503528       -13.7017
 233   2.0000      -0.501287       -13.6407
 234   2.0000      -0.500259       -13.6127
 235   2.0000      -0.490639       -13.3510
 236   2.0000      -0.486054       -13.2262
 237   2.0000      -0.484843       -13.1933
 238   2.0000      -0.477860       -13.0032
 239   2.0000      -0.476512       -12.9666
 240   2.0000      -0.472815       -12.8659
 241   2.0000      -0.471120       -12.8198
 242   2.0000      -0.470172       -12.7940
 243   2.0000      -0.468173       -12.7396
 244   2.0000      -0.466188       -12.6856
 245   2.0000      -0.465189       -12.6584
 246   2.0000      -0.462703       -12.5908
 247   2.0000      -0.461587       -12.5604
 248   2.0000      -0.458742       -12.4830
 249   2.0000      -0.457637       -12.4529
 250   2.0000      -0.454830       -12.3766
 251   2.0000      -0.453352       -12.3363
 252   2.0000      -0.452527       -12.3139
 253   2.0000      -0.451637       -12.2897
 254   2.0000      -0.449343       -12.2272
 255   2.0000      -0.448410       -12.2019
 256   2.0000      -0.448061       -12.1924
 257   2.0000      -0.447085       -12.1658
 258   2.0000      -0.442203       -12.0329
 259   2.0000      -0.441060       -12.0018
 260   2.0000      -0.440135       -11.9767
 261   2.0000      -0.437074       -11.8934
 262   2.0000      -0.433213       -11.7883
 263   2.0000      -0.430665       -11.7190
 264   2.0000      -0.426752       -11.6125
 265   2.0000      -0.421236       -11.4624
 266   2.0000      -0.419934       -11.4270
 267   2.0000      -0.419291       -11.4095
 268   2.0000      -0.413461       -11.2508
 269   2.0000      -0.407397       -11.0858
 270   2.0000      -0.400805       -10.9065
 271   2.0000      -0.399657       -10.8752
 272   2.0000      -0.396692       -10.7945
 273   2.0000      -0.395555       -10.7636
 274   2.0000      -0.392413       -10.6781
 275   2.0000      -0.390638       -10.6298
 276   2.0000      -0.387004       -10.5309
 277   2.0000      -0.386694       -10.5225
 278   2.0000      -0.381619       -10.3844
 279   2.0000      -0.380474       -10.3532
 280   2.0000      -0.380025       -10.3410
 281   2.0000      -0.379466       -10.3258
 282   2.0000      -0.377721       -10.2783
 283   2.0000      -0.375309       -10.2127
 284   2.0000      -0.368495       -10.0273
 285   2.0000      -0.366756        -9.9799
 286   2.0000      -0.364652        -9.9227
 287   2.0000      -0.358973        -9.7682
 288   2.0000      -0.352278        -9.5860
 289   2.0000      -0.351353        -9.5608
 290   2.0000      -0.344204        -9.3663
 291   2.0000      -0.342491        -9.3196
 292   2.0000      -0.326273        -8.8783
 293   2.0000      -0.325318        -8.8524
 294   2.0000      -0.321935        -8.7603
 295   2.0000      -0.312295        -8.4980
 296   2.0000      -0.303447        -8.2572
 297   2.0000      -0.300922        -8.1885
 298   2.0000      -0.295298        -8.0355
 299   2.0000      -0.255018        -6.9394
 300   0.0000      -0.095619        -2.6019
 301   0.0000      -0.091943        -2.5019
 302   0.0000      -0.070251        -1.9116
 303   0.0000      -0.063587        -1.7303
 304   0.0000      -0.050823        -1.3830

MULLIKEN ATOMIC CHARGES
-----------------------
   0 C :    0.341828
   1 C :   -0.360317
   2 C :   -0.196862
   3 N :    0.154138
   4 C :   -0.183695
   5 N :    0.143612
   6 C :    0.007384
   7 C :   -0.013540
   8 C :   -0.067042
   9 C :    0.115547
  10 C :   -0.091305
  11 C :   -0.019713
  12 S :    0.192293
  13 C :   -0.123507
  14 C :    0.037636
  15 Br:    0.030021
  16 C :    0.169047
  17 O :   -0.203231
  18 C :   -0.135973
  19 C :   -0.001218
  20 N :   -0.002002
  21 C :   -0.117083
  22 S :    0.197997
  23 C :   -0.006306
  24 N :    0.276585
  25 O :   -0.236782
  26 O :   -0.261492
  27 C :    0.007292
  28 C :    0.103947
  29 C :   -0.091310
  30 C :   -0.020240
  31 C :   -0.009514
  32 O :   -0.168588
  33 C :    0.081318
  34 C :    0.101674
  35 N :    0.289790
  36 O :   -0.236638
  37 O :   -0.275047
  38 C :    0.089365
  39 N :   -0.075655
  40 C :    0.023055
  41 C :    0.231525
  42 O :   -0.171318
  43 O :   -0.255346
  44 C :    0.164621
  45 C :   -0.128050
  46 C :    0.066248
  47 C :    0.160988
  48 C :   -0.127085
  49 C :    0.194809
  50 O :   -0.249772
  51 C :    0.178691
  52 O :   -0.147385
  53 C :   -0.047929
  54 C :    0.005044
  55 C :    0.032275
  56 C :    0.023296
  57 C :   -0.101039
  58 C :    0.260681
  59 C :   -0.326191
  60 C :   -0.179742
  61 N :    0.158161
  62 C :   -0.194627
  63 N :    0.162703
  64 C :    0.011609
  65 C :   -0.005822
  66 C :    0.140351
  67 O :   -0.127436
  68 C :   -0.066326
  69 C :    0.114638
  70 C :   -0.088432
  71 C :   -0.019981
  72 S :    0.189923
  73 C :   -0.125299
  74 C :    0.042074
  75 Br:    0.029341
  76 H :   -0.007960
  77 H :   -0.003691
  78 H :   -0.000994
  79 H :    0.069031
  80 H :    0.166441
  81 H :    0.029179
  82 H :    0.016564
  83 H :    0.015699
  84 H :    0.026609
  85 H :    0.127428
  86 H :    0.053517
  87 H :    0.028264
  88 H :    0.008613
  89 H :    0.028227
  90 H :    0.001363
  91 H :    0.024483
  92 H :    0.015239
  93 H :    0.022150
  94 H :    0.028736
  95 H :    0.031369
  96 H :    0.005417
  97 H :    0.023765
  98 H :    0.026326
  99 H :   -0.004629
 100 H :   -0.001425
 101 H :   -0.000390
Sum of atomic charges:   -0.0000000

LOEWDIN ATOMIC CHARGES
----------------------
   0 C :    0.087135
   1 C :   -0.161457
   2 C :   -0.022530
   3 N :   -0.056505
   4 C :   -0.001951
   5 N :   -0.068916
   6 C :   -0.021264
   7 C :   -0.050553
   8 C :    0.024071
   9 C :   -0.032256
  10 C :   -0.145138
  11 C :   -0.006041
  12 S :    0.438325
  13 C :   -0.270556
  14 C :   -0.069888
  15 Br:    0.141555
  16 C :    0.091444
  17 O :   -0.172911
  18 C :   -0.157115
  19 C :    0.123455
  20 N :    0.075873
  21 C :   -0.133444
  22 S :    0.469820
  23 C :   -0.198725
  24 N :    0.272565
  25 O :   -0.202390
  26 O :   -0.227683
  27 C :    0.004764
  28 C :   -0.075363
  29 C :   -0.060406
  30 C :   -0.018660
  31 C :   -0.026704
  32 O :    0.045400
  33 C :    0.089029
  34 C :   -0.106208
  35 N :    0.296382
  36 O :   -0.197765
  37 O :   -0.225983
  38 C :    0.015238
  39 N :    0.000317
  40 C :    0.008391
  41 C :    0.072238
  42 O :   -0.149150
  43 O :   -0.060348
  44 C :    0.072433
  45 C :   -0.040537
  46 C :   -0.020584
  47 C :   -0.021732
  48 C :   -0.029063
  49 C :    0.071627
  50 O :   -0.064808
  51 C :    0.077083
  52 O :   -0.138994
  53 C :   -0.053300
  54 C :    0.030802
  55 C :   -0.025418
  56 C :    0.070048
  57 C :   -0.082722
  58 C :    0.074553
  59 C :   -0.137666
  60 C :   -0.020177
  61 N :   -0.044826
  62 C :   -0.012280
  63 N :   -0.050748
  64 C :   -0.020120
  65 C :   -0.052008
  66 C :    0.083994
  67 O :   -0.129224
  68 C :    0.025544
  69 C :   -0.030613
  70 C :   -0.142580
  71 C :   -0.010013
  72 S :    0.435497
  73 C :   -0.269900
  74 C :   -0.069109
  75 Br:    0.141335
  76 H :    0.042193
  77 H :    0.042215
  78 H :    0.039667
  79 H :    0.047074
  80 H :    0.089898
  81 H :    0.053828
  82 H :    0.027825
  83 H :    0.035205
  84 H :    0.037932
  85 H :    0.062828
  86 H :    0.036502
  87 H :    0.025210
  88 H :    0.028647
  89 H :    0.036692
  90 H :    0.021433
  91 H :    0.027033
  92 H :    0.034894
  93 H :    0.039215
  94 H :    0.035864
  95 H :    0.047595
  96 H :    0.025716
  97 H :    0.035984
  98 H :    0.049158
  99 H :    0.043235
 100 H :    0.041470
 101 H :    0.040101

  Mayer bond orders larger than 0.100000
B(  0-C ,  1-C ) :   1.5980 B(  0-C ,  6-C ) :   1.0042 B(  0-C , 18-C ) :   1.1241
B(  1-C ,  2-C ) :   1.1453 B(  1-C ,  4-C ) :   1.1547 B(  2-C ,  3-N ) :   2.9731
B(  4-C ,  5-N ) :   2.9210 B(  6-C ,  7-C ) :   1.2715 B(  6-C , 11-C ) :   1.4216
B(  7-C ,  8-C ) :   1.4290 B(  7-C , 16-C ) :   0.9672 B(  8-C ,  9-C ) :   1.2413
B(  8-C , 76-H ) :   1.0175 B(  9-C , 10-C ) :   1.3090 B(  9-C , 14-C ) :   1.1648
B( 10-C , 11-C ) :   1.3215 B( 10-C , 12-S ) :   1.0892 B( 11-C , 77-H ) :   0.9800
B( 12-S , 13-C ) :   1.0896 B( 13-C , 14-C ) :   1.6142 B( 13-C , 15-Br) :   1.0228
B( 14-C , 78-H ) :   1.0009 B( 16-C , 17-O ) :   2.0989 B( 16-C , 18-C ) :   0.9851
B( 17-O , 80-H ) :   0.1180 B( 18-C , 19-C ) :   1.4342 B( 19-C , 20-N ) :   1.3713
B( 19-C , 79-H ) :   0.9238 B( 20-N , 21-C ) :   1.1155 B( 20-N , 80-H ) :   0.8502
B( 21-C , 22-S ) :   1.1339 B( 21-C , 28-C ) :   1.4157 B( 22-S , 23-C ) :   1.1063
B( 23-C , 24-N ) :   0.9549 B( 23-C , 27-C ) :   1.4766 B( 24-N , 25-O ) :   1.5504
B( 24-N , 26-O ) :   1.5149 B( 25-O , 26-O ) :   0.2643 B( 27-C , 28-C ) :   1.2485
B( 27-C , 81-H ) :   1.0075 B( 28-C , 29-C ) :   1.0185 B( 29-C , 30-C ) :   1.7115
B( 29-C , 82-H ) :   0.9726 B( 30-C , 31-C ) :   1.1547 B( 30-C , 83-H ) :   0.9393
B( 31-C , 32-O ) :   1.0732 B( 31-C , 38-C ) :   1.3820 B( 32-O , 33-C ) :   1.2440
B( 33-C , 34-C ) :   1.4074 B( 33-C , 84-H ) :   1.0143 B( 34-C , 35-N ) :   0.9584
B( 34-C , 38-C ) :   1.2386 B( 35-N , 36-O ) :   1.5563 B( 35-N , 37-O ) :   1.4673
B( 36-O , 37-O ) :   0.2534 B( 37-O , 85-H ) :   0.1012 B( 38-C , 39-N ) :   1.2744
B( 39-N , 40-C ) :   0.9948 B( 39-N , 85-H ) :   0.8753 B( 40-C , 41-C ) :   0.8841
B( 40-C , 45-C ) :   1.0198 B( 40-C , 86-H ) :   0.9105 B( 41-C , 42-O ) :   2.1316
B( 41-C , 43-O ) :   1.1541 B( 42-O , 83-H ) :   0.1046 B( 43-O , 44-C ) :   0.9576
B( 44-C , 45-C ) :   0.9832 B( 44-C , 49-C ) :   0.9981 B( 44-C , 87-H ) :   0.9126
B( 45-C , 46-C ) :   1.0664 B( 45-C , 88-H ) :   0.9096 B( 46-C , 47-C ) :   1.1211
B( 46-C , 89-H ) :   0.9314 B( 46-C , 90-H ) :   0.9159 B( 47-C , 48-C ) :   1.0348
B( 47-C , 91-H ) :   0.9086 B( 47-C , 92-H ) :   0.9272 B( 48-C , 49-C ) :   1.0447
B( 48-C , 53-C ) :   0.9825 B( 48-C , 93-H ) :   0.9034 B( 49-C , 50-O ) :   0.9734
B( 49-C , 94-H ) :   0.8994 B( 50-O , 51-C ) :   1.1330 B( 51-C , 52-O ) :   2.2515
B( 51-C , 53-C ) :   0.8891 B( 53-C , 54-C ) :   0.9932 B( 53-C , 95-H ) :   0.9112
B( 54-C , 55-C ) :   1.8207 B( 54-C , 96-H ) :   0.9578 B( 55-C , 56-C ) :   1.0756
B( 55-C , 97-H ) :   0.9513 B( 56-C , 57-C ) :   1.6847 B( 56-C , 98-H ) :   0.9593
B( 57-C , 58-C ) :   1.0228 B( 57-C , 66-C ) :   0.9250 B( 58-C , 59-C ) :   1.6503
B( 58-C , 64-C ) :   1.0268 B( 59-C , 60-C ) :   1.1258 B( 59-C , 62-C ) :   1.1610
B( 60-C , 61-N ) :   2.9923 B( 62-C , 63-N ) :   2.9817 B( 64-C , 65-C ) :   1.2690
B( 64-C , 71-C ) :   1.4084 B( 65-C , 66-C ) :   0.9214 B( 65-C , 68-C ) :   1.4277
B( 66-C , 67-O ) :   2.2873 B( 68-C , 69-C ) :   1.2536 B( 68-C , 99-H ) :   1.0164
B( 69-C , 70-C ) :   1.3012 B( 69-C , 74-C ) :   1.1656 B( 70-C , 71-C ) :   1.3331
B( 70-C , 72-S ) :   1.0862 B( 71-C ,100-H ) :   0.9836 B( 72-S , 73-C ) :   1.0872
B( 73-C , 74-C ) :   1.6173 B( 73-C , 75-Br) :   1.0220 B( 74-C ,101-H ) :   1.0002

-----------------------------------------------------------------------------
         ABSORPTION SPECTRUM VIA TRANSITION ELECTRIC DIPOLE MOMENTS
-----------------------------------------------------------------------------
State   Energy  Wavelength   fosc         T2         TX        TY        TZ
        (cm-1)    (nm)                  (au**2)     (au)      (au)      (au)
-----------------------------------------------------------------------------
   0   18336.2    545.4   0.083470205   1.49864  -0.06681   0.30127  -1.18466
   1   23753.4    421.0   0.095805272   1.32782   0.15945   1.02319  -0.50545
   2   24065.8    415.5   0.088760684   1.21422   0.49396  -0.08658  -0.98118
   3   24287.0    411.7   0.000158658   0.00215   0.01890   0.00439   0.04212
   4   26435.3    378.3   0.504694644   6.28522   0.35708  -0.02002   2.48139
   5   27763.5    360.2   0.481693886   5.71179   1.15317   0.92541   1.87766
   6   28673.7    348.8   0.071720886   0.82345   0.15021  -0.29036   0.84651
   7   28731.2    348.1   0.173531769   1.98838  -0.78863   0.62566  -0.98741
   8   29377.4    340.4   0.381027489   4.26991   1.05753   1.32752  -1.17867
   9   29753.0    336.1   0.009496489   0.10508  -0.13284   0.27904   0.09782
  10   30594.3    326.9   0.540267639   5.81358  -0.21019  -0.22813   2.39110
  11   30714.5    325.6   0.037564431   0.40263  -0.08319   0.61819  -0.11640
  12   31735.8    315.1   0.000026479   0.00027   0.00339   0.00853   0.01380
  13   32206.5    310.5   0.403600491   4.12556  -0.73585  -0.58830   1.79944
  14   32546.5    307.3   0.075382099   0.76250   0.07380   0.58484   0.64422
  15   33635.7    297.3   0.118584463   1.16065   0.50255   0.87549   0.37631
  16   33671.1    297.0   0.630314104   6.16276   1.19854   2.02547   0.78977
  17   33827.4    295.6   0.321745203   3.13126  -0.22914  -1.17339  -1.30457
  18   34219.0    292.2   0.000531143   0.00511   0.01362   0.04145   0.05662
  19   34506.5    289.8   0.208757429   1.99167   1.13761   0.74128  -0.38473
  20   34954.5    286.1   0.478756867   4.50908   1.22538   1.52015   0.83466
  21   35201.4    284.1   0.598285653   5.59531   0.49801   0.43937   2.27030
  22   35249.6    283.7   0.024346027   0.22738  -0.20362  -0.38828   0.18750
  23   35350.5    282.9   0.006259587   0.05829  -0.07185  -0.11609  -0.19914
  24   35827.8    279.1   0.023297257   0.21407  -0.18905  -0.38727  -0.16839
  25   37079.7    269.7   0.001165768   0.01035  -0.04057   0.00185  -0.09328
  26   37385.6    267.5   0.009215775   0.08115   0.12841   0.23096  -0.10641
  27   37537.0    266.4   0.000001190   0.00001  -0.00099  -0.00228  -0.00206
  28   37719.3    265.1   0.045989366   0.40139  -0.33289  -0.45933  -0.28212
  29   38567.7    259.3   0.069899695   0.59666   0.35053  -0.04786   0.68666
  30   38870.2    257.3   0.000224389   0.00190   0.00561   0.00936  -0.04221
  31   39345.2    254.2   0.248733075   2.08122   0.05034   0.08131   1.43947
  32   39436.2    253.6   0.241917327   2.01952   1.08699  -0.52238   0.75173
  33   39633.3    252.3   0.044531549   0.36990  -0.47417   0.19561  -0.32680
  34   39984.0    250.1   0.016856045   0.13879  -0.13029   0.21743  -0.27301

FINAL SINGLE POINT ENERGY     -9600.552379376286

DIPOLE MOMENT
-------------
                                X             Y             Z
Electronic contribution:    -12.64625      22.81261    -189.01894
Nuclear contribution   :     13.39026     -21.64705     185.33880
                        -----------------------------------------
Total Dipole Moment    :      0.74400       1.16557      -3.68014
                        -----------------------------------------
Magnitude (a.u.)       :      3.93135
Magnitude (Debye)      :      9.99270

Rotational constants in cm-1:     0.000598     0.000301     0.000218
Rotational constants in MHz :    17.915443     9.025262     6.539618

                             ****ORCA TERMINATED NORMALLY****
TOTAL RUN TIME: 0 days 0 hours 12 minutes 31 seconds 652 msec
