                         Program Version 4.2.0 -  RELEASE  -
|  1> # ORCA input file
|  2> # SCF done       -188.653712786580          0.000601150774
|  3> ! CAM-B3LYP def2-SVP def2/J RIJCOSX Grid4 TightSCF
|  4> %maxcore 5000
|  5> %tddft
|  6>     Mode sTDDFT
|  7>     Ethresh 5.0
|  8>     maxcore 5000
|  9> end
| 10>
| 11> %pal
| 12>   nprocs 6
| 13>   end
| 14> * xyz 0 1
| 15>    C        0.94513       -11.13898         8.04799
| 16>    C        1.22102       -10.95955         9.37877
| 17>    C        0.71753       -11.76812        10.41849
| 18>    N        0.36179       -12.38563        11.31932
| 19>    C        2.01166        -9.91214         9.89710
| 20>    N        2.61841        -9.06953        10.38810
| 21>    C        0.01972       -12.11962         7.49974
| 22>    C       -0.14394       -11.86651         6.11611
| 23>    C       -0.98694       -12.60929         5.32672
| 24>    C       -1.70258       -13.64827         5.93197
| 25>    C       -1.51239       -13.90991         7.31061
| 26>    C       -0.65236       -13.16277         8.10500
| 27>    S       -2.47325       -15.25085         7.85037
| 28>    C       -3.11452       -15.43303         6.23932
| 29>    C       -2.63495       -14.54235         5.33934
| 30>   Br       -4.36731       -16.78327         5.89074
| 31>    C        0.74188       -10.75844         5.71085
| 32>    O        0.93165       -10.36844         4.57549
| 33>    C        1.42885       -10.32390         6.94743
| 34>    C        2.50410        -9.47797         7.00376
| 35>    C        2.96260        -8.58213         6.01566
| 36>    S        4.67095        -8.21930         5.99584
| 37>    C        4.46563        -7.20814         4.63289
| 38>    C        3.17309        -7.10603         4.21098
| 39>    C        2.77936        -6.22648         3.07150
| 40>    C        2.28398        -7.88386         5.00958
| 41>    C        0.85098        -7.86639         4.94764
| 42>    C        0.08201        -7.65987         3.85771
| 43>    C       -1.34380        -7.64741         3.92235
| 44>    C       -2.13924        -7.57008         2.83618
| 45>    C       -3.58105        -7.58859         2.84399
| 46>    C       -4.40187        -7.05700         3.76173
| 47>    C       -3.95452        -6.25284         4.94073
| 48>    C       -5.88963        -7.31037         3.68956
| 49>    N       -6.24746        -8.34439         4.64457
| 50>    C       -6.37044        -8.06499         5.96247
| 51>    C       -6.19346        -8.98243         6.94448
| 52>    C       -6.31381        -8.80052         8.34763
| 53>    S       -5.68368       -10.07315         9.34846
| 54>    C       -6.06821        -9.19524        10.80926
| 55>    C       -6.68443        -7.98148        10.50048
| 56>    C       -6.81898        -7.75837         9.12754
| 57>    C       -7.44267        -6.51437         8.57978
| 58>    C       -6.41795        -5.51947         8.03029
| 59>    O       -6.74795        -4.66704         7.24238
| 60>    C       -5.00105        -5.67321         8.50717
| 61>    C       -8.29980        -5.81354         9.65038
| 62>    C       -7.54616        -5.66647        10.96497
| 63>    C       -7.19926        -7.03791        11.54244
| 64>    C       -5.70948        -9.69169        12.07065
| 65>    C       -5.05147       -10.87403        12.27365
| 66>    C       -4.63289       -11.29032        13.54141
| 67>    C       -3.90696       -12.40408        13.88382
| 68>    C       -3.21323       -13.39888        13.10868
| 69>    C       -2.69568       -13.28992        11.83964
| 70>    C       -2.03994       -14.33733        11.16791
| 71>    N       -1.53866       -15.14096        10.51504
| 72>    C       -2.65674       -12.14007        11.02713
| 73>    N       -2.53482       -11.27275        10.28193
| 74>    C       -2.98030       -14.54728        13.98691
| 75>    C       -3.34633       -14.19405        15.30897
| 76>    C       -3.88688       -12.81924        15.30509
| 77>    O       -4.27742       -12.17717        16.25688
| 78>    C       -3.21780       -15.05601        16.36954
| 79>    C       -2.71274       -16.33565        16.11312
| 80>    C       -2.36025       -16.68333        14.78890
| 81>    C       -2.48274       -15.80719        13.71684
| 82>    S       -1.77109       -18.31593        14.69199
| 83>    C       -2.00133       -18.50404        16.40994
| 84>    C       -2.49399       -17.40408        17.02612
| 85>   Br       -1.57257       -20.13740        17.22753
| 86>    H       -1.09211       -12.39554         4.27434
| 87>    H       -0.51854       -13.41386         9.14262
| 88>    H       -2.92046       -14.51668         4.30339
| 89>    H        3.13277        -9.53027         7.88581
| 90>    H        5.32320        -6.72506         4.20532
| 91>    H        3.58215        -5.52854         2.84527
| 92>    H        1.87893        -5.66631         3.31599
| 93>    H        2.58580        -6.82105         2.17935
| 94>    H        0.35454        -8.06428         5.89200
| 95>    H        0.52649        -7.55824         2.88058
| 96>    H       -1.78036        -7.75670         4.90477
| 97>    H       -1.67747        -7.55960         1.85610
| 98>    H       -4.02947        -8.06981         1.98132
| 99>    H       -2.99082        -5.78856         4.74729
|100>    H       -3.85862        -6.88384         5.82564
|101>    H       -4.68338        -5.47595         5.16667
|102>    H       -6.18539        -7.64956         2.69423
|103>    H       -6.45279        -6.40805         3.94053
|104>    H       -5.89725        -9.26674         4.41966
|105>    H       -6.64306        -7.04325         6.16849
|106>    H       -5.86694        -9.97260         6.64927
|107>    H       -8.11096        -6.76984         7.74895
|108>    H       -4.39558        -4.84336         8.15104
|109>    H       -4.59697        -6.60787         8.12244
|110>    H       -4.95927        -5.72822         9.59137
|111>    H       -9.20003        -6.40870         9.81821
|112>    H       -8.60413        -4.83569         9.27344
|113>    H       -6.63910        -5.08093        10.80910
|114>    H       -8.16404        -5.12176        11.68098
|115>    H       -8.09784        -7.48126        11.98479
|116>    H       -6.46621        -6.92752        12.34450
|117>    H       -5.93240        -9.06734        12.92624
|118>    H       -4.85111       -11.50004        11.41713
|119>    H       -4.96839       -10.70114        14.38977
|120>    H       -3.49971       -14.75516        17.36638
|121>    H       -2.20435       -16.12461        12.72607
|122>    H       -2.69661       -17.34620        18.08000
|123> *
|124>
|125>                          ****END OF INPUT****

CARTESIAN COORDINATES (ANGSTROEM)
---------------------------------
  C      0.945130  -11.138980    8.047990
  C      1.221020  -10.959550    9.378770
  C      0.717530  -11.768120   10.418490
  N      0.361790  -12.385630   11.319320
  C      2.011660   -9.912140    9.897100
  N      2.618410   -9.069530   10.388100
  C      0.019720  -12.119620    7.499740
  C     -0.143940  -11.866510    6.116110
  C     -0.986940  -12.609290    5.326720
  C     -1.702580  -13.648270    5.931970
  C     -1.512390  -13.909910    7.310610
  C     -0.652360  -13.162770    8.105000
  S     -2.473250  -15.250850    7.850370
  C     -3.114520  -15.433030    6.239320
  C     -2.634950  -14.542350    5.339340
  Br    -4.367310  -16.783270    5.890740
  C      0.741880  -10.758440    5.710850
  O      0.931650  -10.368440    4.575490
  C      1.428850  -10.323900    6.947430
  C      2.504100   -9.477970    7.003760
  C      2.962600   -8.582130    6.015660
  S      4.670950   -8.219300    5.995840
  C      4.465630   -7.208140    4.632890
  C      3.173090   -7.106030    4.210980
  C      2.779360   -6.226480    3.071500
  C      2.283980   -7.883860    5.009580
  C      0.850980   -7.866390    4.947640
  C      0.082010   -7.659870    3.857710
  C     -1.343800   -7.647410    3.922350
  C     -2.139240   -7.570080    2.836180
  C     -3.581050   -7.588590    2.843990
  C     -4.401870   -7.057000    3.761730
  C     -3.954520   -6.252840    4.940730
  C     -5.889630   -7.310370    3.689560
  N     -6.247460   -8.344390    4.644570
  C     -6.370440   -8.064990    5.962470
  C     -6.193460   -8.982430    6.944480
  C     -6.313810   -8.800520    8.347630
  S     -5.683680  -10.073150    9.348460
  C     -6.068210   -9.195240   10.809260
  C     -6.684430   -7.981480   10.500480
  C     -6.818980   -7.758370    9.127540
  C     -7.442670   -6.514370    8.579780
  C     -6.417950   -5.519470    8.030290
  O     -6.747950   -4.667040    7.242380
  C     -5.001050   -5.673210    8.507170
  C     -8.299800   -5.813540    9.650380
  C     -7.546160   -5.666470   10.964970
  C     -7.199260   -7.037910   11.542440
  C     -5.709480   -9.691690   12.070650
  C     -5.051470  -10.874030   12.273650
  C     -4.632890  -11.290320   13.541410
  C     -3.906960  -12.404080   13.883820
  C     -3.213230  -13.398880   13.108680
  C     -2.695680  -13.289920   11.839640
  C     -2.039940  -14.337330   11.167910
  N     -1.538660  -15.140960   10.515040
  C     -2.656740  -12.140070   11.027130
  N     -2.534820  -11.272750   10.281930
  C     -2.980300  -14.547280   13.986910
  C     -3.346330  -14.194050   15.308970
  C     -3.886880  -12.819240   15.305090
  O     -4.277420  -12.177170   16.256880
  C     -3.217800  -15.056010   16.369540
  C     -2.712740  -16.335650   16.113120
  C     -2.360250  -16.683330   14.788900
  C     -2.482740  -15.807190   13.716840
  S     -1.771090  -18.315930   14.691990
  C     -2.001330  -18.504040   16.409940
  C     -2.493990  -17.404080   17.026120
  Br    -1.572570  -20.137400   17.227530
  H     -1.092110  -12.395540    4.274340
  H     -0.518540  -13.413860    9.142620
  H     -2.920460  -14.516680    4.303390
  H      3.132770   -9.530270    7.885810
  H      5.323200   -6.725060    4.205320
  H      3.582150   -5.528540    2.845270
  H      1.878930   -5.666310    3.315990
  H      2.585800   -6.821050    2.179350
  H      0.354540   -8.064280    5.892000
  H      0.526490   -7.558240    2.880580
  H     -1.780360   -7.756700    4.904770
  H     -1.677470   -7.559600    1.856100
  H     -4.029470   -8.069810    1.981320
  H     -2.990820   -5.788560    4.747290
  H     -3.858620   -6.883840    5.825640
  H     -4.683380   -5.475950    5.166670
  H     -6.185390   -7.649560    2.694230
  H     -6.452790   -6.408050    3.940530
  H     -5.897250   -9.266740    4.419660
  H     -6.643060   -7.043250    6.168490
  H     -5.866940   -9.972600    6.649270
  H     -8.110960   -6.769840    7.748950
  H     -4.395580   -4.843360    8.151040
  H     -4.596970   -6.607870    8.122440
  H     -4.959270   -5.728220    9.591370
  H     -9.200030   -6.408700    9.818210
  H     -8.604130   -4.835690    9.273440
  H     -6.639100   -5.080930   10.809100
  H     -8.164040   -5.121760   11.680980
  H     -8.097840   -7.481260   11.984790
  H     -6.466210   -6.927520   12.344500
  H     -5.932400   -9.067340   12.926240
  H     -4.851110  -11.500040   11.417130
  H     -4.968390  -10.701140   14.389770
  H     -3.499710  -14.755160   17.366380
  H     -2.204350  -16.124610   12.726070
  H     -2.696610  -17.346200   18.080000

 Total Charge           Charge          ....    0
 Multiplicity           Mult            ....    1
 Number of Electrons    NEL             ....  572
 Basis Dimension        Dim             .... 1231

ORBITAL ENERGIES
----------------

  NO   OCC          E(Eh)            E(eV)
   0   2.0000    -482.876183    -13139.7289
   1   2.0000    -482.873572    -13139.6579
   2   2.0000     -88.963874     -2420.8301
   3   2.0000     -88.958097     -2420.6729
   4   2.0000     -88.957099     -2420.6457
   5   2.0000     -88.950548     -2420.4675
   6   2.0000     -62.553897     -1702.1781
   7   2.0000     -62.551252     -1702.1061
   8   2.0000     -56.387832     -1534.3909
   9   2.0000     -56.385152     -1534.3180
  10   2.0000     -56.385144     -1534.3178
  11   2.0000     -56.385106     -1534.3167
  12   2.0000     -56.382500     -1534.2458
  13   2.0000     -56.382489     -1534.2455
  14   2.0000     -19.213238      -522.8188
  15   2.0000     -19.204030      -522.5682
  16   2.0000     -19.195645      -522.3400
  17   2.0000     -14.445439      -393.0804
  18   2.0000     -14.406676      -392.0256
  19   2.0000     -14.403081      -391.9278
  20   2.0000     -14.402323      -391.9071
  21   2.0000     -14.399720      -391.8363
  22   2.0000     -10.362054      -281.9658
  23   2.0000     -10.353088      -281.7218
  24   2.0000     -10.347482      -281.5693
  25   2.0000     -10.346290      -281.5369
  26   2.0000     -10.341435      -281.4048
  27   2.0000     -10.329083      -281.0686
  28   2.0000     -10.328855      -281.0624
  29   2.0000     -10.327676      -281.0303
  30   2.0000     -10.326421      -280.9962
  31   2.0000     -10.324067      -280.9322
  32   2.0000     -10.316456      -280.7250
  33   2.0000     -10.315636      -280.7027
  34   2.0000     -10.313680      -280.6495
  35   2.0000     -10.312390      -280.6144
  36   2.0000     -10.312048      -280.6051
  37   2.0000     -10.308146      -280.4989
  38   2.0000     -10.306363      -280.4504
  39   2.0000     -10.306152      -280.4446
  40   2.0000     -10.304489      -280.3994
  41   2.0000     -10.304304      -280.3944
  42   2.0000     -10.301387      -280.3150
  43   2.0000     -10.299829      -280.2726
  44   2.0000     -10.297722      -280.2153
  45   2.0000     -10.294003      -280.1141
  46   2.0000     -10.293803      -280.1086
  47   2.0000     -10.293685      -280.1054
  48   2.0000     -10.292590      -280.0756
  49   2.0000     -10.291483      -280.0455
  50   2.0000     -10.291444      -280.0444
  51   2.0000     -10.291018      -280.0328
  52   2.0000     -10.290579      -280.0209
  53   2.0000     -10.288687      -279.9694
  54   2.0000     -10.287074      -279.9255
  55   2.0000     -10.286744      -279.9165
  56   2.0000     -10.286298      -279.9044
  57   2.0000     -10.285682      -279.8876
  58   2.0000     -10.285649      -279.8867
  59   2.0000     -10.284546      -279.8567
  60   2.0000     -10.282708      -279.8067
  61   2.0000     -10.281954      -279.7862
  62   2.0000     -10.281912      -279.7851
  63   2.0000     -10.277687      -279.6701
  64   2.0000     -10.277538      -279.6660
  65   2.0000     -10.276940      -279.6497
  66   2.0000     -10.276699      -279.6432
  67   2.0000     -10.276558      -279.6394
  68   2.0000     -10.275223      -279.6030
  69   2.0000     -10.274183      -279.5747
  70   2.0000     -10.273628      -279.5596
  71   2.0000     -10.273423      -279.5540
  72   2.0000     -10.272832      -279.5380
  73   2.0000     -10.272350      -279.5249
  74   2.0000     -10.272316      -279.5239
  75   2.0000     -10.271832      -279.5108
  76   2.0000     -10.270389      -279.4715
  77   2.0000     -10.269924      -279.4588
  78   2.0000     -10.266363      -279.3619
  79   2.0000      -8.783320      -239.0063
  80   2.0000      -8.780680      -238.9344
  81   2.0000      -8.059891      -219.3208
  82   2.0000      -8.054278      -219.1680
  83   2.0000      -8.052194      -219.1113
  84   2.0000      -8.046273      -218.9502
  85   2.0000      -6.619559      -180.1274
  86   2.0000      -6.616807      -180.0525
  87   2.0000      -6.605080      -179.7334
  88   2.0000      -6.604905      -179.7286
  89   2.0000      -6.602544      -179.6643
  90   2.0000      -6.602291      -179.6575
  91   2.0000      -6.029583      -164.0733
  92   2.0000      -6.025333      -163.9576
  93   2.0000      -6.023491      -163.9075
  94   2.0000      -6.022025      -163.8676
  95   2.0000      -6.021092      -163.8422
  96   2.0000      -6.019303      -163.7936
  97   2.0000      -6.017425      -163.7425
  98   2.0000      -6.016504      -163.7174
  99   2.0000      -6.015467      -163.6892
 100   2.0000      -6.013430      -163.6337
 101   2.0000      -6.011527      -163.5820
 102   2.0000      -6.008234      -163.4924
 103   2.0000      -2.735447       -74.4353
 104   2.0000      -2.732729       -74.3613
 105   2.0000      -2.731349       -74.3238
 106   2.0000      -2.731265       -74.3215
 107   2.0000      -2.728712       -74.2520
 108   2.0000      -2.728544       -74.2474
 109   2.0000      -2.719731       -74.0076
 110   2.0000      -2.719717       -74.0073
 111   2.0000      -2.717200       -73.9388
 112   2.0000      -2.717185       -73.9384
 113   2.0000      -1.130942       -30.7745
 114   2.0000      -1.118413       -30.4336
 115   2.0000      -1.110084       -30.2069
 116   2.0000      -1.047990       -28.5173
 117   2.0000      -1.010716       -27.5030
 118   2.0000      -1.008144       -27.4330
 119   2.0000      -1.002416       -27.2771
 120   2.0000      -0.999240       -27.1907
 121   2.0000      -0.994192       -27.0534
 122   2.0000      -0.991072       -26.9684
 123   2.0000      -0.982871       -26.7453
 124   2.0000      -0.980801       -26.6889
 125   2.0000      -0.975438       -26.5430
 126   2.0000      -0.974525       -26.5182
 127   2.0000      -0.932238       -25.3675
 128   2.0000      -0.929174       -25.2841
 129   2.0000      -0.927563       -25.2403
 130   2.0000      -0.924504       -25.1570
 131   2.0000      -0.913768       -24.8649
 132   2.0000      -0.900784       -24.5116
 133   2.0000      -0.895690       -24.3730
 134   2.0000      -0.895230       -24.3605
 135   2.0000      -0.894641       -24.3444
 136   2.0000      -0.889040       -24.1920
 137   2.0000      -0.872624       -23.7453
 138   2.0000      -0.870343       -23.6833
 139   2.0000      -0.869452       -23.6590
 140   2.0000      -0.866335       -23.5742
 141   2.0000      -0.861816       -23.4512
 142   2.0000      -0.852793       -23.2057
 143   2.0000      -0.836454       -22.7611
 144   2.0000      -0.833271       -22.6745
 145   2.0000      -0.830703       -22.6046
 146   2.0000      -0.819869       -22.3098
 147   2.0000      -0.816196       -22.2098
 148   2.0000      -0.814172       -22.1547
 149   2.0000      -0.808867       -22.0104
 150   2.0000      -0.794927       -21.6311
 151   2.0000      -0.780918       -21.2498
 152   2.0000      -0.775434       -21.1006
 153   2.0000      -0.762330       -20.7440
 154   2.0000      -0.750825       -20.4310
 155   2.0000      -0.747965       -20.3532
 156   2.0000      -0.739887       -20.1333
 157   2.0000      -0.738262       -20.0891
 158   2.0000      -0.734682       -19.9917
 159   2.0000      -0.718186       -19.5428
 160   2.0000      -0.703240       -19.1361
 161   2.0000      -0.699697       -19.0397
 162   2.0000      -0.692216       -18.8361
 163   2.0000      -0.687191       -18.6994
 164   2.0000      -0.678959       -18.4754
 165   2.0000      -0.674049       -18.3418
 166   2.0000      -0.669007       -18.2046
 167   2.0000      -0.665604       -18.1120
 168   2.0000      -0.659462       -17.9449
 169   2.0000      -0.656339       -17.8599
 170   2.0000      -0.646143       -17.5824
 171   2.0000      -0.644455       -17.5365
 172   2.0000      -0.635604       -17.2957
 173   2.0000      -0.633228       -17.2310
 174   2.0000      -0.627650       -17.0792
 175   2.0000      -0.623745       -16.9730
 176   2.0000      -0.611657       -16.6440
 177   2.0000      -0.610473       -16.6118
 178   2.0000      -0.608028       -16.5453
 179   2.0000      -0.604210       -16.4414
 180   2.0000      -0.595435       -16.2026
 181   2.0000      -0.592244       -16.1158
 182   2.0000      -0.585165       -15.9231
 183   2.0000      -0.583383       -15.8747
 184   2.0000      -0.581454       -15.8222
 185   2.0000      -0.575205       -15.6521
 186   2.0000      -0.569562       -15.4986
 187   2.0000      -0.566759       -15.4223
 188   2.0000      -0.562961       -15.3189
 189   2.0000      -0.561727       -15.2854
 190   2.0000      -0.552756       -15.0412
 191   2.0000      -0.543992       -14.8028
 192   2.0000      -0.542574       -14.7642
 193   2.0000      -0.541730       -14.7412
 194   2.0000      -0.536887       -14.6094
 195   2.0000      -0.532557       -14.4916
 196   2.0000      -0.529860       -14.4182
 197   2.0000      -0.528451       -14.3799
 198   2.0000      -0.527256       -14.3474
 199   2.0000      -0.526007       -14.3134
 200   2.0000      -0.523971       -14.2580
 201   2.0000      -0.521642       -14.1946
 202   2.0000      -0.519580       -14.1385
 203   2.0000      -0.517645       -14.0858
 204   2.0000      -0.513646       -13.9770
 205   2.0000      -0.511002       -13.9051
 206   2.0000      -0.509355       -13.8603
 207   2.0000      -0.508315       -13.8320
 208   2.0000      -0.506796       -13.7906
 209   2.0000      -0.500737       -13.6257
 210   2.0000      -0.498789       -13.5727
 211   2.0000      -0.497816       -13.5463
 212   2.0000      -0.497524       -13.5383
 213   2.0000      -0.495926       -13.4948
 214   2.0000      -0.492235       -13.3944
 215   2.0000      -0.490070       -13.3355
 216   2.0000      -0.488326       -13.2880
 217   2.0000      -0.485540       -13.2122
 218   2.0000      -0.483308       -13.1515
 219   2.0000      -0.482575       -13.1315
 220   2.0000      -0.481862       -13.1121
 221   2.0000      -0.480980       -13.0881
 222   2.0000      -0.477013       -12.9802
 223   2.0000      -0.476608       -12.9692
 224   2.0000      -0.470599       -12.8057
 225   2.0000      -0.469496       -12.7756
 226   2.0000      -0.467226       -12.7139
 227   2.0000      -0.464046       -12.6273
 228   2.0000      -0.461973       -12.5709
 229   2.0000      -0.461215       -12.5503
 230   2.0000      -0.458786       -12.4842
 231   2.0000      -0.456350       -12.4179
 232   2.0000      -0.452385       -12.3100
 233   2.0000      -0.451428       -12.2840
 234   2.0000      -0.448583       -12.2066
 235   2.0000      -0.447335       -12.1726
 236   2.0000      -0.443813       -12.0768
 237   2.0000      -0.442162       -12.0318
 238   2.0000      -0.440129       -11.9765
 239   2.0000      -0.436996       -11.8913
 240   2.0000      -0.436933       -11.8895
 241   2.0000      -0.435796       -11.8586
 242   2.0000      -0.434025       -11.8104
 243   2.0000      -0.433187       -11.7876
 244   2.0000      -0.431587       -11.7441
 245   2.0000      -0.427928       -11.6445
 246   2.0000      -0.426559       -11.6073
 247   2.0000      -0.421801       -11.4778
 248   2.0000      -0.421157       -11.4603
 249   2.0000      -0.420952       -11.4547
 250   2.0000      -0.419248       -11.4083
 251   2.0000      -0.415977       -11.3193
 252   2.0000      -0.413165       -11.2428
 253   2.0000      -0.410798       -11.1784
 254   2.0000      -0.407765       -11.0959
 255   2.0000      -0.407234       -11.0814
 256   2.0000      -0.405476       -11.0336
 257   2.0000      -0.402533       -10.9535
 258   2.0000      -0.399622       -10.8743
 259   2.0000      -0.399107       -10.8603
 260   2.0000      -0.396898       -10.8001
 261   2.0000      -0.395706       -10.7677
 262   2.0000      -0.393959       -10.7202
 263   2.0000      -0.386002       -10.5037
 264   2.0000      -0.374791       -10.1986
 265   2.0000      -0.374211       -10.1828
 266   2.0000      -0.367389        -9.9972
 267   2.0000      -0.365786        -9.9536
 268   2.0000      -0.362548        -9.8654
 269   2.0000      -0.359626        -9.7859
 270   2.0000      -0.359021        -9.7695
 271   2.0000      -0.337975        -9.1968
 272   2.0000      -0.336480        -9.1561
 273   2.0000      -0.334768        -9.1095
 274   2.0000      -0.329613        -8.9692
 275   2.0000      -0.319752        -8.7009
 276   2.0000      -0.316088        -8.6012
 277   2.0000      -0.307184        -8.3589
 278   2.0000      -0.302369        -8.2279
 279   2.0000      -0.299484        -8.1494
 280   2.0000      -0.290397        -7.9021
 281   2.0000      -0.283583        -7.7167
 282   2.0000      -0.280607        -7.6357
 283   2.0000      -0.277171        -7.5422
 284   2.0000      -0.256971        -6.9925
 285   2.0000      -0.233295        -6.3483
 286   0.0000      -0.083658        -2.2764
 287   0.0000      -0.081279        -2.2117
 288   0.0000      -0.048969        -1.3325
 289   0.0000      -0.046624        -1.2687
 290   0.0000      -0.018106        -0.4927

MULLIKEN ATOMIC CHARGES
-----------------------
   0 C :    0.301773
   1 C :   -0.337691
   2 C :   -0.159628
   3 N :    0.140714
   4 C :   -0.218927
   5 N :    0.157070
   6 C :    0.028616
   7 C :   -0.011533
   8 C :   -0.087027
   9 C :    0.120399
  10 C :   -0.080404
  11 C :   -0.014736
  12 S :    0.195116
  13 C :   -0.112801
  14 C :    0.028289
  15 Br:    0.004637
  16 C :    0.127880
  17 O :   -0.147985
  18 C :   -0.110199
  19 C :    0.017941
  20 C :   -0.165596
  21 S :    0.141156
  22 C :   -0.101756
  23 C :   -0.099739
  24 C :    0.108459
  25 C :    0.178122
  26 C :   -0.022424
  27 C :    0.020979
  28 C :    0.011891
  29 C :   -0.000659
  30 C :    0.006184
  31 C :   -0.199118
  32 C :    0.067727
  33 C :    0.180941
  34 N :   -0.138684
  35 C :    0.024627
  36 C :    0.021939
  37 C :   -0.096341
  38 S :    0.138079
  39 C :   -0.102930
  40 C :   -0.052603
  41 C :   -0.077964
  42 C :    0.007523
  43 C :   -0.074144
  44 O :   -0.194017
  45 C :    0.127927
  46 C :    0.062860
  47 C :    0.012729
  48 C :    0.113261
  49 C :    0.007936
  50 C :   -0.013860
  51 C :    0.021539
  52 C :   -0.125489
  53 C :    0.318116
  54 C :   -0.333695
  55 C :   -0.097834
  56 N :    0.054763
  57 C :   -0.227918
  58 N :    0.159089
  59 C :    0.007403
  60 C :   -0.002464
  61 C :    0.136620
  62 O :   -0.158027
  63 C :   -0.078812
  64 C :    0.118150
  65 C :   -0.088634
  66 C :   -0.025439
  67 S :    0.177596
  68 C :   -0.123834
  69 C :    0.036696
  70 Br:    0.014390
  71 H :   -0.019579
  72 H :   -0.012406
  73 H :   -0.014356
  74 H :    0.028712
  75 H :    0.021849
  76 H :    0.007951
  77 H :    0.032790
  78 H :    0.041228
  79 H :    0.002832
  80 H :   -0.016879
  81 H :   -0.014394
  82 H :   -0.008781
  83 H :   -0.019668
  84 H :    0.035086
  85 H :    0.048217
  86 H :    0.020620
  87 H :    0.011645
  88 H :    0.029398
  89 H :    0.117137
  90 H :    0.013340
  91 H :   -0.025604
  92 H :    0.012398
  93 H :    0.035036
  94 H :    0.042074
  95 H :    0.022367
  96 H :    0.012321
  97 H :    0.016619
  98 H :    0.008821
  99 H :    0.009617
 100 H :    0.025173
 101 H :    0.024636
 102 H :   -0.001896
 103 H :    0.018833
 104 H :    0.006967
 105 H :   -0.014091
 106 H :   -0.008087
 107 H :   -0.006149
Sum of atomic charges:   -0.0000000

LOEWDIN ATOMIC CHARGES
----------------------
   0 C :    0.079348
   1 C :   -0.138474
   2 C :   -0.005870
   3 N :   -0.057777
   4 C :   -0.024244
   5 N :   -0.057575
   6 C :   -0.022474
   7 C :   -0.050465
   8 C :    0.011671
   9 C :   -0.033577
  10 C :   -0.140349
  11 C :    0.001572
  12 S :    0.462676
  13 C :   -0.277577
  14 C :   -0.079387
  15 Br:    0.123986
  16 C :    0.074776
  17 O :   -0.135889
  18 C :   -0.098785
  19 C :    0.044015
  20 C :   -0.178328
  21 S :    0.451864
  22 C :   -0.169389
  23 C :   -0.054908
  24 C :   -0.044606
  25 C :   -0.015991
  26 C :   -0.007020
  27 C :   -0.010640
  28 C :   -0.015642
  29 C :   -0.032510
  30 C :   -0.053885
  31 C :   -0.036597
  32 C :   -0.056571
  33 C :    0.046014
  34 N :    0.007629
  35 C :    0.053057
  36 C :   -0.144999
  37 C :   -0.124602
  38 S :    0.457362
  39 C :   -0.203963
  40 C :   -0.019800
  41 C :   -0.094860
  42 C :   -0.056478
  43 C :    0.085810
  44 O :   -0.150054
  45 C :   -0.076720
  46 C :   -0.009639
  47 C :   -0.030956
  48 C :   -0.026611
  49 C :    0.026299
  50 C :   -0.063684
  51 C :    0.069395
  52 C :   -0.116231
  53 C :    0.077954
  54 C :   -0.150213
  55 C :    0.008051
  56 N :   -0.097686
  57 C :   -0.018853
  58 N :   -0.072698
  59 C :   -0.014563
  60 C :   -0.049629
  61 C :    0.080660
  62 O :   -0.157978
  63 C :    0.019023
  64 C :   -0.035783
  65 C :   -0.144322
  66 C :   -0.015160
  67 S :    0.426019
  68 C :   -0.274747
  69 C :   -0.070486
  70 Br:    0.129565
  71 H :    0.036684
  72 H :    0.037774
  73 H :    0.033540
  74 H :    0.044209
  75 H :    0.025036
  76 H :    0.032527
  77 H :    0.036775
  78 H :    0.036645
  79 H :    0.030728
  80 H :    0.027521
  81 H :    0.028169
  82 H :    0.026810
  83 H :    0.024130
  84 H :    0.037939
  85 H :    0.033445
  86 H :    0.030709
  87 H :    0.027433
  88 H :    0.032415
  89 H :    0.079103
  90 H :    0.028228
  91 H :    0.024900
  92 H :    0.040929
  93 H :    0.037009
  94 H :    0.049049
  95 H :    0.039950
  96 H :    0.027124
  97 H :    0.029838
  98 H :    0.021006
  99 H :    0.029992
 100 H :    0.039563
 101 H :    0.034931
 102 H :    0.036691
 103 H :    0.023891
 104 H :    0.041428
 105 H :    0.039490
 106 H :    0.039203
 107 H :    0.037689

  Mayer bond orders larger than 0.100000
B(  0-C ,  1-C ) :   1.6385 B(  0-C ,  6-C ) :   1.0172 B(  0-C , 18-C ) :   1.0571
B(  1-C ,  2-C ) :   1.1465 B(  1-C ,  4-C ) :   1.1448 B(  2-C ,  3-N ) :   2.9437
B(  4-C ,  5-N ) :   2.9982 B(  6-C ,  7-C ) :   1.2664 B(  6-C , 11-C ) :   1.4035
B(  7-C ,  8-C ) :   1.4269 B(  7-C , 16-C ) :   0.9358 B(  8-C ,  9-C ) :   1.2411
B(  8-C , 71-H ) :   1.0162 B(  9-C , 10-C ) :   1.2957 B(  9-C , 14-C ) :   1.1659
B( 10-C , 11-C ) :   1.3465 B( 10-C , 12-S ) :   1.0935 B( 11-C , 72-H ) :   0.9738
B( 12-S , 13-C ) :   1.0804 B( 13-C , 14-C ) :   1.6097 B( 13-C , 15-Br) :   1.0091
B( 14-C , 73-H ) :   1.0005 B( 16-C , 17-O ) :   2.1964 B( 16-C , 18-C ) :   0.9646
B( 18-C , 19-C ) :   1.5830 B( 19-C , 20-C ) :   1.2083 B( 19-C , 74-H ) :   0.9305
B( 20-C , 21-S ) :   1.1153 B( 20-C , 25-C ) :   1.3892 B( 21-S , 22-C ) :   1.1717
B( 22-C , 23-C ) :   1.5609 B( 22-C , 75-H ) :   0.9668 B( 23-C , 24-C ) :   1.0931
B( 23-C , 25-C ) :   1.2638 B( 24-C , 76-H ) :   0.9458 B( 24-C , 77-H ) :   0.9428
B( 24-C , 78-H ) :   0.9435 B( 25-C , 26-C ) :   1.0974 B( 26-C , 27-C ) :   1.6794
B( 26-C , 79-H ) :   0.9541 B( 27-C , 28-C ) :   1.1174 B( 27-C , 80-H ) :   0.9830
B( 28-C , 29-C ) :   1.7091 B( 28-C , 81-H ) :   0.9845 B( 29-C , 30-C ) :   1.0654
B( 29-C , 82-H ) :   0.9607 B( 30-C , 31-C ) :   1.8380 B( 30-C , 83-H ) :   0.9498
B( 31-C , 32-C ) :   1.0807 B( 31-C , 33-C ) :   1.0398 B( 32-C , 84-H ) :   0.9381
B( 32-C , 85-H ) :   0.9336 B( 32-C , 86-H ) :   0.9446 B( 33-C , 34-N ) :   1.0059
B( 33-C , 87-H ) :   0.9459 B( 33-C , 88-H ) :   0.9332 B( 34-N , 35-C ) :   1.2602
B( 34-N , 89-H ) :   0.9367 B( 35-C , 36-C ) :   1.5626 B( 35-C , 90-H ) :   0.9592
B( 36-C , 37-C ) :   1.1900 B( 36-C , 91-H ) :   0.9352 B( 37-C , 38-S ) :   1.1711
B( 37-C , 41-C ) :   1.4291 B( 38-S , 39-C ) :   1.0717 B( 39-C , 40-C ) :   1.4095
B( 39-C , 49-C ) :   1.2233 B( 40-C , 41-C ) :   1.3693 B( 40-C , 48-C ) :   1.0555
B( 41-C , 42-C ) :   0.9426 B( 42-C , 43-C ) :   0.8992 B( 42-C , 46-C ) :   1.0699
B( 42-C , 92-H ) :   0.8921 B( 43-C , 44-O ) :   2.1306 B( 43-C , 45-C ) :   1.0609
B( 45-C , 93-H ) :   0.9504 B( 45-C , 94-H ) :   0.9085 B( 45-C , 95-H ) :   0.9307
B( 46-C , 47-C ) :   1.0708 B( 46-C , 96-H ) :   0.9474 B( 46-C , 97-H ) :   0.9306
B( 47-C , 48-C ) :   1.0820 B( 47-C , 98-H ) :   0.9490 B( 47-C , 99-H ) :   0.9297
B( 48-C ,100-H ) :   0.9114 B( 48-C ,101-H ) :   0.9130 B( 49-C , 50-C ) :   1.5254
B( 49-C ,102-H ) :   0.9796 B( 50-C , 51-C ) :   1.2114 B( 50-C ,103-H ) :   0.9631
B( 51-C , 52-C ) :   1.5129 B( 51-C ,104-H ) :   0.9549 B( 52-C , 53-C ) :   1.0740
B( 52-C , 61-C ) :   0.9626 B( 53-C , 54-C ) :   1.5882 B( 53-C , 59-C ) :   1.0059
B( 54-C , 55-C ) :   1.1532 B( 54-C , 57-C ) :   1.1828 B( 55-C , 56-N ) :   2.7829
B( 57-C , 58-N ) :   2.9445 B( 59-C , 60-C ) :   1.2782 B( 59-C , 66-C ) :   1.4156
B( 60-C , 61-C ) :   0.9198 B( 60-C , 63-C ) :   1.4311 B( 61-C , 62-O ) :   2.2446
B( 63-C , 64-C ) :   1.2447 B( 63-C ,105-H ) :   1.0167 B( 64-C , 65-C ) :   1.3148
B( 64-C , 69-C ) :   1.1594 B( 65-C , 66-C ) :   1.3266 B( 65-C , 67-S ) :   1.0822
B( 66-C ,106-H ) :   0.9791 B( 67-S , 68-C ) :   1.0850 B( 68-C , 69-C ) :   1.6220
B( 68-C , 70-Br) :   1.0133 B( 69-C ,107-H ) :   1.0007

-----------------------------------------------------------------------------
         ABSORPTION SPECTRUM VIA TRANSITION ELECTRIC DIPOLE MOMENTS
-----------------------------------------------------------------------------
State   Energy  Wavelength   fosc         T2         TX        TY        TZ
        (cm-1)    (nm)                  (au**2)     (au)      (au)      (au)
-----------------------------------------------------------------------------
   0   16566.5    603.6   0.762310629  15.14873  -1.54105   2.59148  -2.46133
   1   19960.1    501.0   0.191642368   3.16086  -0.91113   1.27164  -0.84477
   2   21787.3    459.0   0.388513715   5.87054   0.35529  -1.72836   1.66044
   3   25050.0    399.2   0.241765200   3.17732   0.30500   0.39530  -1.71115
   4   25124.7    398.0   0.250149714   3.27774  -1.33797  -0.75290   0.95954
   5   25941.6    385.5   0.121723063   1.54473  -0.98945   0.50218  -0.55995
   6   26173.0    382.1   0.062341555   0.78415  -0.05944  -0.28306  -0.83696
   7   26723.3    374.2   0.185433621   2.28441  -0.65801  -1.36059   0.01462
   8   27568.4    362.7   0.532174795   6.35503  -0.14767  -1.49203   2.02659
   9   27909.3    358.3   0.050474482   0.59539   0.36382   0.47911   0.48319
  10   28269.3    353.7   0.056784491   0.66129  -0.13414   0.62996  -0.49644
  11   29103.2    343.6   0.213300367   2.41283  -0.73828  -0.95548   0.97715
  12   29329.6    341.0   0.036986889   0.41516   0.58407   0.03506   0.26981
  13   29451.2    339.5   0.088558502   0.98993  -0.30160   0.92332   0.21553
  14   30323.8    329.8   0.019021799   0.20651  -0.37355   0.21463   0.14458
  15   30514.3    327.7   0.003144117   0.03392   0.04736  -0.01935   0.17693
  16   30695.5    325.8   0.023847192   0.25576   0.11079   0.46235  -0.17240
  17   31303.9    319.4   0.235015605   2.47157  -1.24028  -0.93738  -0.23368
  18   31917.4    313.3   0.249909894   2.57769   0.77844  -1.17780  -0.76453
  19   32058.3    311.9   0.004933762   0.05067  -0.13000  -0.17322   0.06133
  20   32225.0    310.3   0.143743264   1.46849   0.12405   0.50234  -1.09579
  21   32419.6    308.5   0.195139265   1.98158   0.30025  -0.82328  -1.10165
  22   32501.1    307.7   0.371570468   3.76374   1.69010   0.70012   0.64586
  23   32905.5    303.9   0.028255290   0.28269  -0.02092  -0.44511  -0.29005
  24   33734.1    296.4   0.428285248   4.17965   0.44532  -0.81625   1.82073
  25   33890.4    295.1   0.047087176   0.45741  -0.06360   0.65350  -0.16218
  26   34214.7    292.3   0.040451252   0.38922  -0.40987  -0.46675   0.05807
  27   34663.3    288.5   0.128059571   1.21624  -0.17154   0.99525  -0.44304
  28   34799.7    287.4   0.054319917   0.51388   0.60918  -0.17693   0.33387
  29   35434.3    282.2   0.122962934   1.14242   0.88591   0.46195   0.37972
  30   36368.8    275.0   0.162214830   1.46837  -1.07778   0.10524  -0.54378
  31   36840.3    271.4   0.230263431   2.05768  -0.21801   0.42716  -1.35192
  32   37050.6    269.9   0.052328312   0.46496   0.59060   0.19793   0.27745
  33   37079.4    269.7   0.581280743   5.16095   2.17011   0.63788   0.21139
  34   37382.6    267.5   0.028827635   0.25387  -0.42010  -0.00301  -0.27818
  35   37578.3    266.1   0.043274346   0.37911  -0.48139  -0.34778   0.16257
  36   37721.0    265.1   0.089176791   0.77830  -0.67196   0.07322  -0.56693
  37   37887.1    263.9   0.012643646   0.10986   0.19902  -0.26450  -0.01725
  38   38591.8    259.1   0.012905789   0.11009   0.08028   0.21256  -0.24180
  39   38799.3    257.7   0.105428667   0.89456   0.59254  -0.65987  -0.32868
  40   39086.4    255.8   0.021005343   0.17692  -0.03404  -0.06406  -0.41432
  41   39815.7    251.2   0.115265117   0.95306   0.20545  -0.04077  -0.95351
  42   40083.5    249.5   0.037254811   0.30598   0.28572   0.02902   0.47276
  43   40207.4    248.7   0.088243206   0.72252  -0.33334   0.15131   0.76715

FINAL SINGLE POINT ENERGY     -9430.417306241938

DIPOLE MOMENT
-------------
                                X             Y             Z
Electronic contribution:     26.41293    -241.30417      99.14413
Nuclear contribution   :    -28.30559     242.64647    -101.77871
                        -----------------------------------------
Total Dipole Moment    :     -1.89266       1.34230      -2.63458
                        -----------------------------------------
Magnitude (a.u.)       :      3.51069
Magnitude (Debye)      :      8.92347

Rotational constants in cm-1:     0.000874     0.000419     0.000368
Rotational constants in MHz :    26.196620    12.562456    11.045638

                             ****ORCA TERMINATED NORMALLY****
TOTAL RUN TIME: 0 days 0 hours 12 minutes 56 seconds 337 msec
