                         Program Version 4.2.0 -  RELEASE  -
|  1> # ORCA input file
|  2> # SCF done       -232.756968797635          0.003809735453
|  3> ! CAM-B3LYP def2-SVP def2/J RIJCOSX Grid4 TightSCF
|  4> %maxcore 5000
|  5> %tddft
|  6>     Mode sTDDFT
|  7>     Ethresh 5.0
|  8>     maxcore 5000
|  9> end
| 10>
| 11> %pal
| 12>   nprocs 6
| 13>   end
| 14> * xyz 0 1
| 15>    C       -0.65044        -5.98691        -4.67883
| 16>    C       -1.54546        -6.93825        -4.24120
| 17>    C       -1.26727        -8.31900        -4.19967
| 18>    N       -1.10029        -9.45418        -4.15781
| 19>    C       -2.86288        -6.69696        -3.81262
| 20>    N       -3.95425        -6.59649        -3.46273
| 21>    C        0.70705        -6.26429        -5.14724
| 22>    C        1.29049        -5.05189        -5.58849
| 23>    C        2.56990        -4.98001        -6.08003
| 24>    C        3.31602        -6.16303        -6.13472
| 25>    C        2.72681        -7.36814        -5.68888
| 26>    C        1.42910        -7.44113        -5.19500
| 27>    S        3.82521        -8.70809        -5.83363
| 28>    C        5.04400        -7.64306        -6.48106
| 29>    C        4.65150        -6.35177        -6.58628
| 30>   Br        6.72147        -8.33701        -6.95789
| 31>    C        0.31967        -3.95045        -5.40569
| 32>    O        0.49494        -2.78258        -5.69646
| 33>    C       -0.87127        -4.56982        -4.79708
| 34>    C       -1.98976        -3.87492        -4.37879
| 35>    C       -2.19350        -2.50744        -4.52191
| 36>    C       -3.32230        -1.87425        -4.03213
| 37>    C       -3.64370        -0.50151        -4.12424
| 38>    C       -4.82480        -0.16262        -3.52665
| 39>    C       -5.48795        -1.25372        -2.93048
| 40>    S       -4.57635        -2.72736        -3.16405
| 41>    C       -6.67737        -1.28077        -2.22038
| 42>    C       -7.56516        -0.22764        -1.90935
| 43>    C       -8.64294        -0.62278        -1.17532
| 44>    C       -8.66349        -2.00688        -0.86303
| 45>    S       -7.25633        -2.78630        -1.55333
| 46>    C       -9.62011        -2.65020        -0.11708
| 47>    C       -9.66123        -4.02200         0.18785
| 48>    S       -8.56152        -5.12945        -0.58120
| 49>    C       -9.34553        -6.50820         0.11839
| 50>    C      -10.40588        -6.11517         0.92282
| 51>    C      -10.54619        -4.71871         1.01658
| 52>    C      -11.47620        -4.09000         2.02624
| 53>    C      -10.80777        -2.94405         2.80798
| 54>    F       -9.47656        -3.04937         2.87866
| 55>    F      -11.07614        -1.73154         2.29389
| 56>    F      -11.23902        -2.87690         4.07804
| 57>    C      -11.92298        -5.15250         3.04125
| 58>    C      -12.48953        -6.35996         2.31881
| 59>    C      -11.39505        -7.08166         1.52051
| 60>    C      -12.11032        -7.86451         0.41384
| 61>    F      -11.32554        -8.68730        -0.28318
| 62>    F      -13.08273        -8.63679         0.93221
| 63>    F      -12.70670        -7.05224        -0.46870
| 64>    C       -8.74681        -7.79159        -0.08129
| 65>    S       -8.59043        -8.90105         1.25216
| 66>    C       -7.56101        -9.96424         0.33940
| 67>    C       -7.31112        -9.43691        -0.91863
| 68>    C       -8.04578        -8.25746        -1.18033
| 69>    C       -8.16539        -7.69563        -2.57485
| 70>    C       -9.62933        -7.63885        -3.02258
| 71>    F      -10.40187        -6.78179        -2.34314
| 72>    F       -9.71844        -7.25427        -4.30871
| 73>    F      -10.22817        -8.83372        -2.94504
| 74>    C       -7.44633        -8.60120        -3.58401
| 75>    C       -6.07276        -8.96457        -3.05726
| 76>    C       -6.19612        -9.88398        -1.83343
| 77>    C       -4.85538        -9.79115        -1.09183
| 78>    F       -4.72981        -8.63019        -0.43240
| 79>    F       -4.64092       -10.76019        -0.19016
| 80>    F       -3.81921        -9.85999        -1.94433
| 81>    C       -7.20423       -11.19889         0.95622
| 82>    C       -6.89534       -12.34467         0.30791
| 83>    C       -6.56028       -13.55959         0.95241
| 84>    O       -6.46605       -13.66096         2.30303
| 85>    C       -6.10728       -14.93265         2.61128
| 86>    C       -5.97113       -15.66630         1.43950
| 87>    C       -6.25928       -14.78908         0.37507
| 88>    O       -6.25167       -15.07257        -0.94364
| 89>    O       -5.62655       -16.97199         1.26220
| 90>    C       -5.92505       -15.33338         3.96632
| 91>    C       -6.03505       -14.50341         5.02388
| 92>    C       -5.85129       -14.92262         6.38198
| 93>    C       -5.94066       -14.09782         7.42648
| 94>    H        2.98556        -4.04033        -6.40864
| 95>    H        1.02883        -8.38476        -4.86425
| 96>    H        5.27587        -5.56307        -6.96476
| 97>    H       -2.77693        -4.43180        -3.88460
| 98>    H       -1.44758        -1.91098        -5.02659
| 99>    H       -2.99320         0.19198        -4.62703
|100>    H       -5.22631         0.83449        -3.49658
|101>    H       -7.38550         0.78320        -2.22831
|102>    H       -9.42424         0.03464        -0.83734
|103>    H      -10.42974        -2.03260         0.23927
|104>    H      -12.35430        -3.65900         1.52892
|105>    H      -12.68235        -4.73313         3.70119
|106>    H      -11.06658        -5.45133         3.64962
|107>    H      -13.27807        -6.02870         1.63877
|108>    H      -12.93278        -7.05269         3.03443
|109>    H      -10.87860        -7.81610         2.14692
|110>    H       -7.76286        -6.67920        -2.63037
|111>    H       -7.35546        -8.08073        -4.53710
|112>    H       -8.03347        -9.50961        -3.74104
|113>    H       -5.53969        -8.05053        -2.78582
|114>    H       -5.49178        -9.46883        -3.82920
|115>    H       -6.32341       -10.92204        -2.15256
|116>    H       -7.26357       -11.22159         2.03515
|117>    H       -6.89765       -12.40961        -0.76835
|118>    H       -5.98192       -15.99385        -1.05185
|119>    H       -5.45247       -17.38090         2.11602
|120>    H       -5.67731       -16.37664         4.12331
|121>    H       -6.27237       -13.46351         4.85018
|122>    H       -5.62750       -15.97065         6.53838
|123>    H       -6.15812       -13.05034         7.29779
|124>    H       -5.79888       -14.43934         8.43685
|125> *
|126>
|127>                          ****END OF INPUT****

CARTESIAN COORDINATES (ANGSTROEM)
---------------------------------
  C     -0.650440   -5.986910   -4.678830
  C     -1.545460   -6.938250   -4.241200
  C     -1.267270   -8.319000   -4.199670
  N     -1.100290   -9.454180   -4.157810
  C     -2.862880   -6.696960   -3.812620
  N     -3.954250   -6.596490   -3.462730
  C      0.707050   -6.264290   -5.147240
  C      1.290490   -5.051890   -5.588490
  C      2.569900   -4.980010   -6.080030
  C      3.316020   -6.163030   -6.134720
  C      2.726810   -7.368140   -5.688880
  C      1.429100   -7.441130   -5.195000
  S      3.825210   -8.708090   -5.833630
  C      5.044000   -7.643060   -6.481060
  C      4.651500   -6.351770   -6.586280
  Br     6.721470   -8.337010   -6.957890
  C      0.319670   -3.950450   -5.405690
  O      0.494940   -2.782580   -5.696460
  C     -0.871270   -4.569820   -4.797080
  C     -1.989760   -3.874920   -4.378790
  C     -2.193500   -2.507440   -4.521910
  C     -3.322300   -1.874250   -4.032130
  C     -3.643700   -0.501510   -4.124240
  C     -4.824800   -0.162620   -3.526650
  C     -5.487950   -1.253720   -2.930480
  S     -4.576350   -2.727360   -3.164050
  C     -6.677370   -1.280770   -2.220380
  C     -7.565160   -0.227640   -1.909350
  C     -8.642940   -0.622780   -1.175320
  C     -8.663490   -2.006880   -0.863030
  S     -7.256330   -2.786300   -1.553330
  C     -9.620110   -2.650200   -0.117080
  C     -9.661230   -4.022000    0.187850
  S     -8.561520   -5.129450   -0.581200
  C     -9.345530   -6.508200    0.118390
  C    -10.405880   -6.115170    0.922820
  C    -10.546190   -4.718710    1.016580
  C    -11.476200   -4.090000    2.026240
  C    -10.807770   -2.944050    2.807980
  F     -9.476560   -3.049370    2.878660
  F    -11.076140   -1.731540    2.293890
  F    -11.239020   -2.876900    4.078040
  C    -11.922980   -5.152500    3.041250
  C    -12.489530   -6.359960    2.318810
  C    -11.395050   -7.081660    1.520510
  C    -12.110320   -7.864510    0.413840
  F    -11.325540   -8.687300   -0.283180
  F    -13.082730   -8.636790    0.932210
  F    -12.706700   -7.052240   -0.468700
  C     -8.746810   -7.791590   -0.081290
  S     -8.590430   -8.901050    1.252160
  C     -7.561010   -9.964240    0.339400
  C     -7.311120   -9.436910   -0.918630
  C     -8.045780   -8.257460   -1.180330
  C     -8.165390   -7.695630   -2.574850
  C     -9.629330   -7.638850   -3.022580
  F    -10.401870   -6.781790   -2.343140
  F     -9.718440   -7.254270   -4.308710
  F    -10.228170   -8.833720   -2.945040
  C     -7.446330   -8.601200   -3.584010
  C     -6.072760   -8.964570   -3.057260
  C     -6.196120   -9.883980   -1.833430
  C     -4.855380   -9.791150   -1.091830
  F     -4.729810   -8.630190   -0.432400
  F     -4.640920  -10.760190   -0.190160
  F     -3.819210   -9.859990   -1.944330
  C     -7.204230  -11.198890    0.956220
  C     -6.895340  -12.344670    0.307910
  C     -6.560280  -13.559590    0.952410
  O     -6.466050  -13.660960    2.303030
  C     -6.107280  -14.932650    2.611280
  C     -5.971130  -15.666300    1.439500
  C     -6.259280  -14.789080    0.375070
  O     -6.251670  -15.072570   -0.943640
  O     -5.626550  -16.971990    1.262200
  C     -5.925050  -15.333380    3.966320
  C     -6.035050  -14.503410    5.023880
  C     -5.851290  -14.922620    6.381980
  C     -5.940660  -14.097820    7.426480
  H      2.985560   -4.040330   -6.408640
  H      1.028830   -8.384760   -4.864250
  H      5.275870   -5.563070   -6.964760
  H     -2.776930   -4.431800   -3.884600
  H     -1.447580   -1.910980   -5.026590
  H     -2.993200    0.191980   -4.627030
  H     -5.226310    0.834490   -3.496580
  H     -7.385500    0.783200   -2.228310
  H     -9.424240    0.034640   -0.837340
  H    -10.429740   -2.032600    0.239270
  H    -12.354300   -3.659000    1.528920
  H    -12.682350   -4.733130    3.701190
  H    -11.066580   -5.451330    3.649620
  H    -13.278070   -6.028700    1.638770
  H    -12.932780   -7.052690    3.034430
  H    -10.878600   -7.816100    2.146920
  H     -7.762860   -6.679200   -2.630370
  H     -7.355460   -8.080730   -4.537100
  H     -8.033470   -9.509610   -3.741040
  H     -5.539690   -8.050530   -2.785820
  H     -5.491780   -9.468830   -3.829200
  H     -6.323410  -10.922040   -2.152560
  H     -7.263570  -11.221590    2.035150
  H     -6.897650  -12.409610   -0.768350
  H     -5.981920  -15.993850   -1.051850
  H     -5.452470  -17.380900    2.116020
  H     -5.677310  -16.376640    4.123310
  H     -6.272370  -13.463510    4.850180
  H     -5.627500  -15.970650    6.538380
  H     -6.158120  -13.050340    7.297790
  H     -5.798880  -14.439340    8.436850

 Total Charge           Charge          ....    0
 Multiplicity           Mult            ....    1
 Number of Electrons    NEL             ....  630
 Basis Dimension        Dim             .... 1299

ORBITAL ENERGIES
----------------

  NO   OCC          E(Eh)            E(eV)
   0   2.0000    -482.875687    -13139.7155
   1   2.0000     -88.963298     -2420.8144
   2   2.0000     -88.963028     -2420.8071
   3   2.0000     -88.961927     -2420.7771
   4   2.0000     -88.955559     -2420.6038
   5   2.0000     -88.952452     -2420.5193
   6   2.0000     -62.553401     -1702.1646
   7   2.0000     -56.387335     -1534.3774
   8   2.0000     -56.384649     -1534.3043
   9   2.0000     -56.384610     -1534.3033
  10   2.0000     -24.808854      -675.0832
  11   2.0000     -24.805469      -674.9911
  12   2.0000     -24.803814      -674.9461
  13   2.0000     -24.792247      -674.6313
  14   2.0000     -24.791467      -674.6101
  15   2.0000     -24.790342      -674.5795
  16   2.0000     -24.786372      -674.4715
  17   2.0000     -24.783778      -674.4009
  18   2.0000     -24.782135      -674.3562
  19   2.0000     -24.776415      -674.2005
  20   2.0000     -24.775875      -674.1858
  21   2.0000     -24.773494      -674.1211
  22   2.0000     -19.279860      -524.6317
  23   2.0000     -19.262923      -524.1708
  24   2.0000     -19.252032      -523.8744
  25   2.0000     -19.197137      -522.3807
  26   2.0000     -14.403883      -391.9496
  27   2.0000     -14.395227      -391.7141
  28   2.0000     -10.521276      -286.2985
  29   2.0000     -10.506476      -285.8957
  30   2.0000     -10.498491      -285.6785
  31   2.0000     -10.490606      -285.4639
  32   2.0000     -10.347335      -281.5653
  33   2.0000     -10.346730      -281.5488
  34   2.0000     -10.332811      -281.1701
  35   2.0000     -10.331981      -281.1475
  36   2.0000     -10.329539      -281.0810
  37   2.0000     -10.325068      -280.9594
  38   2.0000     -10.323948      -280.9289
  39   2.0000     -10.322385      -280.8864
  40   2.0000     -10.319723      -280.8139
  41   2.0000     -10.319357      -280.8040
  42   2.0000     -10.318589      -280.7831
  43   2.0000     -10.318404      -280.7781
  44   2.0000     -10.318093      -280.7696
  45   2.0000     -10.317093      -280.7424
  46   2.0000     -10.313465      -280.6436
  47   2.0000     -10.311001      -280.5766
  48   2.0000     -10.309284      -280.5299
  49   2.0000     -10.307869      -280.4914
  50   2.0000     -10.306860      -280.4639
  51   2.0000     -10.304727      -280.4059
  52   2.0000     -10.303566      -280.3743
  53   2.0000     -10.303413      -280.3701
  54   2.0000     -10.302220      -280.3377
  55   2.0000     -10.301158      -280.3088
  56   2.0000     -10.299826      -280.2725
  57   2.0000     -10.298868      -280.2465
  58   2.0000     -10.294980      -280.1407
  59   2.0000     -10.294793      -280.1356
  60   2.0000     -10.294683      -280.1326
  61   2.0000     -10.293047      -280.0880
  62   2.0000     -10.291636      -280.0497
  63   2.0000     -10.290628      -280.0222
  64   2.0000     -10.289747      -279.9983
  65   2.0000     -10.289556      -279.9930
  66   2.0000     -10.288635      -279.9680
  67   2.0000     -10.285800      -279.8908
  68   2.0000     -10.285746      -279.8894
  69   2.0000     -10.285668      -279.8872
  70   2.0000     -10.285040      -279.8702
  71   2.0000     -10.283174      -279.8194
  72   2.0000     -10.278468      -279.6913
  73   2.0000     -10.276617      -279.6410
  74   2.0000     -10.275485      -279.6102
  75   2.0000     -10.272685      -279.5340
  76   2.0000     -10.270233      -279.4673
  77   2.0000     -10.270221      -279.4669
  78   2.0000     -10.269985      -279.4605
  79   2.0000     -10.269257      -279.4407
  80   2.0000     -10.264769      -279.3186
  81   2.0000     -10.260138      -279.1925
  82   2.0000     -10.255933      -279.0781
  83   2.0000      -8.782829      -238.9929
  84   2.0000      -8.058990      -219.2963
  85   2.0000      -8.058717      -219.2888
  86   2.0000      -8.058130      -219.2729
  87   2.0000      -8.051682      -219.0974
  88   2.0000      -8.048084      -218.9995
  89   2.0000      -6.619044      -180.1134
  90   2.0000      -6.604594      -179.7201
  91   2.0000      -6.604430      -179.7157
  92   2.0000      -6.028705      -164.0494
  93   2.0000      -6.027939      -164.0286
  94   2.0000      -6.027848      -164.0261
  95   2.0000      -6.024417      -163.9327
  96   2.0000      -6.023878      -163.9180
  97   2.0000      -6.023565      -163.9095
  98   2.0000      -6.021252      -163.8466
  99   2.0000      -6.020721      -163.8321
 100   2.0000      -6.020200      -163.8180
 101   2.0000      -6.019179      -163.7902
 102   2.0000      -6.017274      -163.7384
 103   2.0000      -6.017228      -163.7371
 104   2.0000      -6.013341      -163.6313
 105   2.0000      -6.012876      -163.6187
 106   2.0000      -6.010183      -163.5454
 107   2.0000      -2.734949       -74.4218
 108   2.0000      -2.730850       -74.3102
 109   2.0000      -2.730748       -74.3074
 110   2.0000      -2.719240       -73.9943
 111   2.0000      -2.719236       -73.9942
 112   2.0000      -1.398312       -38.0500
 113   2.0000      -1.383382       -37.6438
 114   2.0000      -1.375697       -37.4346
 115   2.0000      -1.366500       -37.1844
 116   2.0000      -1.300455       -35.3872
 117   2.0000      -1.296640       -35.2834
 118   2.0000      -1.285844       -34.9896
 119   2.0000      -1.282719       -34.9046
 120   2.0000      -1.278195       -34.7814
 121   2.0000      -1.274589       -34.6833
 122   2.0000      -1.268573       -34.5196
 123   2.0000      -1.266168       -34.4542
 124   2.0000      -1.200245       -32.6603
 125   2.0000      -1.155567       -31.4446
 126   2.0000      -1.138735       -30.9866
 127   2.0000      -1.110300       -30.2128
 128   2.0000      -1.014639       -27.6097
 129   2.0000      -1.007810       -27.4239
 130   2.0000      -1.007324       -27.4107
 131   2.0000      -0.998963       -27.1832
 132   2.0000      -0.989627       -26.9291
 133   2.0000      -0.984998       -26.8032
 134   2.0000      -0.979161       -26.6443
 135   2.0000      -0.972218       -26.4554
 136   2.0000      -0.947407       -25.7803
 137   2.0000      -0.929650       -25.2971
 138   2.0000      -0.928710       -25.2715
 139   2.0000      -0.920894       -25.0588
 140   2.0000      -0.911944       -24.8153
 141   2.0000      -0.905942       -24.6519
 142   2.0000      -0.898539       -24.4505
 143   2.0000      -0.893658       -24.3177
 144   2.0000      -0.889553       -24.2060
 145   2.0000      -0.884816       -24.0771
 146   2.0000      -0.880487       -23.9593
 147   2.0000      -0.871300       -23.7093
 148   2.0000      -0.868886       -23.6436
 149   2.0000      -0.861512       -23.4429
 150   2.0000      -0.854708       -23.2578
 151   2.0000      -0.845651       -23.0113
 152   2.0000      -0.839324       -22.8392
 153   2.0000      -0.834001       -22.6943
 154   2.0000      -0.827403       -22.5148
 155   2.0000      -0.824373       -22.4323
 156   2.0000      -0.815000       -22.1773
 157   2.0000      -0.809407       -22.0251
 158   2.0000      -0.807558       -21.9748
 159   2.0000      -0.791678       -21.5427
 160   2.0000      -0.786812       -21.4102
 161   2.0000      -0.772884       -21.0313
 162   2.0000      -0.762459       -20.7476
 163   2.0000      -0.754429       -20.5290
 164   2.0000      -0.742836       -20.2136
 165   2.0000      -0.742447       -20.2030
 166   2.0000      -0.734949       -19.9990
 167   2.0000      -0.732119       -19.9220
 168   2.0000      -0.725903       -19.7528
 169   2.0000      -0.714008       -19.4291
 170   2.0000      -0.712630       -19.3916
 171   2.0000      -0.703615       -19.1463
 172   2.0000      -0.702320       -19.1111
 173   2.0000      -0.690938       -18.8014
 174   2.0000      -0.686172       -18.6717
 175   2.0000      -0.683071       -18.5873
 176   2.0000      -0.680947       -18.5295
 177   2.0000      -0.678559       -18.4645
 178   2.0000      -0.677139       -18.4259
 179   2.0000      -0.674263       -18.3476
 180   2.0000      -0.671316       -18.2674
 181   2.0000      -0.668859       -18.2006
 182   2.0000      -0.663307       -18.0495
 183   2.0000      -0.659680       -17.9508
 184   2.0000      -0.656236       -17.8571
 185   2.0000      -0.655897       -17.8479
 186   2.0000      -0.654379       -17.8066
 187   2.0000      -0.653544       -17.7838
 188   2.0000      -0.650887       -17.7115
 189   2.0000      -0.644334       -17.5332
 190   2.0000      -0.643143       -17.5008
 191   2.0000      -0.639901       -17.4126
 192   2.0000      -0.638985       -17.3877
 193   2.0000      -0.633454       -17.2372
 194   2.0000      -0.631460       -17.1829
 195   2.0000      -0.627167       -17.0661
 196   2.0000      -0.617805       -16.8113
 197   2.0000      -0.616717       -16.7817
 198   2.0000      -0.616139       -16.7660
 199   2.0000      -0.610081       -16.6011
 200   2.0000      -0.607900       -16.5418
 201   2.0000      -0.602404       -16.3922
 202   2.0000      -0.594693       -16.1824
 203   2.0000      -0.585435       -15.9305
 204   2.0000      -0.583809       -15.8862
 205   2.0000      -0.579658       -15.7733
 206   2.0000      -0.571806       -15.5596
 207   2.0000      -0.568600       -15.4724
 208   2.0000      -0.565001       -15.3745
 209   2.0000      -0.560294       -15.2464
 210   2.0000      -0.558367       -15.1939
 211   2.0000      -0.557728       -15.1765
 212   2.0000      -0.552708       -15.0399
 213   2.0000      -0.552065       -15.0225
 214   2.0000      -0.547247       -14.8913
 215   2.0000      -0.544471       -14.8158
 216   2.0000      -0.542698       -14.7676
 217   2.0000      -0.541021       -14.7219
 218   2.0000      -0.539300       -14.6751
 219   2.0000      -0.535526       -14.5724
 220   2.0000      -0.532416       -14.4878
 221   2.0000      -0.530689       -14.4408
 222   2.0000      -0.529991       -14.4218
 223   2.0000      -0.526769       -14.3341
 224   2.0000      -0.526141       -14.3170
 225   2.0000      -0.523296       -14.2396
 226   2.0000      -0.522362       -14.2142
 227   2.0000      -0.521821       -14.1995
 228   2.0000      -0.518360       -14.1053
 229   2.0000      -0.517776       -14.0894
 230   2.0000      -0.514922       -14.0117
 231   2.0000      -0.513810       -13.9815
 232   2.0000      -0.513115       -13.9626
 233   2.0000      -0.509041       -13.8517
 234   2.0000      -0.507837       -13.8190
 235   2.0000      -0.505168       -13.7463
 236   2.0000      -0.504311       -13.7230
 237   2.0000      -0.503929       -13.7126
 238   2.0000      -0.498922       -13.5764
 239   2.0000      -0.495801       -13.4914
 240   2.0000      -0.495615       -13.4864
 241   2.0000      -0.494645       -13.4600
 242   2.0000      -0.493585       -13.4311
 243   2.0000      -0.491950       -13.3866
 244   2.0000      -0.489751       -13.3268
 245   2.0000      -0.489367       -13.3163
 246   2.0000      -0.488723       -13.2988
 247   2.0000      -0.484758       -13.1909
 248   2.0000      -0.483050       -13.1445
 249   2.0000      -0.482648       -13.1335
 250   2.0000      -0.482330       -13.1249
 251   2.0000      -0.480638       -13.0788
 252   2.0000      -0.479475       -13.0472
 253   2.0000      -0.478811       -13.0291
 254   2.0000      -0.478239       -13.0135
 255   2.0000      -0.476854       -12.9758
 256   2.0000      -0.476373       -12.9628
 257   2.0000      -0.475974       -12.9519
 258   2.0000      -0.473561       -12.8863
 259   2.0000      -0.471335       -12.8257
 260   2.0000      -0.470043       -12.7905
 261   2.0000      -0.468623       -12.7519
 262   2.0000      -0.466429       -12.6922
 263   2.0000      -0.465100       -12.6560
 264   2.0000      -0.463520       -12.6130
 265   2.0000      -0.462578       -12.5874
 266   2.0000      -0.460690       -12.5360
 267   2.0000      -0.457920       -12.4606
 268   2.0000      -0.457142       -12.4395
 269   2.0000      -0.451523       -12.2866
 270   2.0000      -0.449814       -12.2401
 271   2.0000      -0.448225       -12.1968
 272   2.0000      -0.445402       -12.1200
 273   2.0000      -0.444262       -12.0890
 274   2.0000      -0.437367       -11.9014
 275   2.0000      -0.434811       -11.8318
 276   2.0000      -0.433810       -11.8046
 277   2.0000      -0.432568       -11.7708
 278   2.0000      -0.427647       -11.6369
 279   2.0000      -0.425605       -11.5813
 280   2.0000      -0.424448       -11.5498
 281   2.0000      -0.421861       -11.4794
 282   2.0000      -0.419552       -11.4166
 283   2.0000      -0.418279       -11.3820
 284   2.0000      -0.417176       -11.3519
 285   2.0000      -0.415791       -11.3143
 286   2.0000      -0.412478       -11.2241
 287   2.0000      -0.412341       -11.2204
 288   2.0000      -0.411160       -11.1882
 289   2.0000      -0.409525       -11.1437
 290   2.0000      -0.401570       -10.9273
 291   2.0000      -0.399576       -10.8730
 292   2.0000      -0.397150       -10.8070
 293   2.0000      -0.393828       -10.7166
 294   2.0000      -0.391611       -10.6563
 295   2.0000      -0.386894       -10.5279
 296   2.0000      -0.381258       -10.3746
 297   2.0000      -0.374690       -10.1958
 298   2.0000      -0.368651       -10.0315
 299   2.0000      -0.365260        -9.9392
 300   2.0000      -0.353282        -9.6133
 301   2.0000      -0.349299        -9.5049
 302   2.0000      -0.338356        -9.2071
 303   2.0000      -0.333008        -9.0616
 304   2.0000      -0.324336        -8.8256
 305   2.0000      -0.321750        -8.7553
 306   2.0000      -0.317617        -8.6428
 307   2.0000      -0.311492        -8.4761
 308   2.0000      -0.304921        -8.2973
 309   2.0000      -0.301463        -8.2032
 310   2.0000      -0.287361        -7.8195
 311   2.0000      -0.280219        -7.6252
 312   2.0000      -0.268450        -7.3049
 313   2.0000      -0.229461        -6.2440
 314   2.0000      -0.217582        -5.9207
 315   0.0000      -0.107946        -2.9374
 316   0.0000      -0.059061        -1.6071
 317   0.0000      -0.044926        -1.2225
 318   0.0000      -0.035615        -0.9691
 319   0.0000      -0.010185        -0.2772

MULLIKEN ATOMIC CHARGES
-----------------------
   0 C :    0.333399
   1 C :   -0.376398
   2 C :   -0.191364
   3 N :    0.135281
   4 C :   -0.153896
   5 N :    0.120011
   6 C :    0.010108
   7 C :   -0.005987
   8 C :   -0.080364
   9 C :    0.117637
  10 C :   -0.092164
  11 C :   -0.026673
  12 S :    0.178658
  13 C :   -0.125088
  14 C :    0.039232
  15 Br:    0.012983
  16 C :    0.136090
  17 O :   -0.165873
  18 C :   -0.087539
  19 C :   -0.047769
  20 C :   -0.023483
  21 C :    0.007645
  22 C :    0.024700
  23 C :    0.043971
  24 C :   -0.050742
  25 S :    0.098825
  26 C :   -0.011241
  27 C :    0.025163
  28 C :    0.049959
  29 C :   -0.056827
  30 S :    0.084651
  31 C :    0.020575
  32 C :   -0.109014
  33 S :    0.118713
  34 C :   -0.124422
  35 C :    0.008674
  36 C :   -0.009224
  37 C :   -0.104742
  38 C :    0.489550
  39 F :   -0.146635
  40 F :   -0.163404
  41 F :   -0.159933
  42 C :    0.056776
  43 C :    0.076130
  44 C :   -0.094939
  45 C :    0.494861
  46 F :   -0.138919
  47 F :   -0.171593
  48 F :   -0.163516
  49 C :   -0.139509
  50 S :    0.127787
  51 C :   -0.105479
  52 C :   -0.030751
  53 C :   -0.000767
  54 C :   -0.097544
  55 C :    0.494834
  56 F :   -0.151229
  57 F :   -0.171295
  58 F :   -0.161040
  59 C :    0.060187
  60 C :    0.057943
  61 C :   -0.101609
  62 C :    0.495006
  63 F :   -0.163921
  64 F :   -0.151684
  65 F :   -0.161241
  66 C :    0.030554
  67 C :   -0.001826
  68 C :    0.057430
  69 O :   -0.221594
  70 C :    0.100009
  71 C :    0.076883
  72 C :    0.095495
  73 O :   -0.175979
  74 O :   -0.200059
  75 C :   -0.052884
  76 C :    0.015503
  77 C :    0.004451
  78 C :   -0.018039
  79 H :   -0.016728
  80 H :   -0.009429
  81 H :   -0.007299
  82 H :    0.016771
  83 H :    0.015428
  84 H :   -0.001462
  85 H :   -0.005827
  86 H :   -0.008768
  87 H :   -0.000039
  88 H :   -0.000165
  89 H :    0.041416
  90 H :    0.024844
  91 H :    0.020178
  92 H :    0.018306
  93 H :    0.024418
  94 H :    0.038936
  95 H :    0.048804
  96 H :    0.023000
  97 H :    0.012299
  98 H :    0.038977
  99 H :    0.019632
 100 H :    0.033704
 101 H :   -0.007110
 102 H :   -0.004934
 103 H :    0.194316
 104 H :    0.191434
 105 H :   -0.035053
 106 H :    0.000065
 107 H :   -0.013054
 108 H :    0.015303
 109 H :    0.020564
Sum of atomic charges:   -0.0000000

LOEWDIN ATOMIC CHARGES
----------------------
   0 C :    0.076113
   1 C :   -0.162720
   2 C :   -0.019626
   3 N :   -0.069161
   4 C :   -0.002520
   5 N :   -0.073305
   6 C :   -0.018280
   7 C :   -0.047784
   8 C :    0.016401
   9 C :   -0.036126
  10 C :   -0.146232
  11 C :   -0.013378
  12 S :    0.426568
  13 C :   -0.275170
  14 C :   -0.071000
  15 Br:    0.128372
  16 C :    0.081434
  17 O :   -0.159645
  18 C :   -0.112665
  19 C :    0.047951
  20 C :   -0.076245
  21 C :   -0.101809
  22 C :   -0.045436
  23 C :   -0.006458
  24 C :   -0.196462
  25 S :    0.411006
  26 C :   -0.144251
  27 C :   -0.046425
  28 C :   -0.004195
  29 C :   -0.165747
  30 S :    0.394397
  31 C :   -0.037742
  32 C :   -0.182201
  33 S :    0.472940
  34 C :   -0.167943
  35 C :   -0.067737
  36 C :   -0.041737
  37 C :   -0.058081
  38 C :    0.167548
  39 F :   -0.049333
  40 F :   -0.061479
  41 F :   -0.056113
  42 C :   -0.020059
  43 C :   -0.020796
  44 C :   -0.062140
  45 C :    0.160402
  46 F :   -0.040797
  47 F :   -0.067446
  48 F :   -0.058425
  49 C :   -0.207199
  50 S :    0.449619
  51 C :   -0.149528
  52 C :   -0.065283
  53 C :   -0.046726
  54 C :   -0.063185
  55 C :    0.162650
  56 F :   -0.052783
  57 F :   -0.066521
  58 F :   -0.056693
  59 C :   -0.018569
  60 C :   -0.024061
  61 C :   -0.056131
  62 C :    0.166584
  63 F :   -0.061192
  64 F :   -0.053091
  65 F :   -0.058120
  66 C :   -0.061620
  67 C :   -0.014263
  68 C :   -0.002078
  69 O :    0.004138
  70 C :   -0.011407
  71 C :   -0.020256
  72 C :   -0.001493
  73 O :   -0.046502
  74 O :   -0.063187
  75 C :   -0.052347
  76 C :   -0.017383
  77 C :   -0.028979
  78 C :   -0.045300
  79 H :    0.038378
  80 H :    0.039945
  81 H :    0.037300
  82 H :    0.029808
  83 H :    0.038363
  84 H :    0.038080
  85 H :    0.035445
  86 H :    0.034216
  87 H :    0.038810
  88 H :    0.035423
  89 H :    0.047956
  90 H :    0.031631
  91 H :    0.030562
  92 H :    0.028482
  93 H :    0.034886
  94 H :    0.035208
  95 H :    0.038621
  96 H :    0.033079
  97 H :    0.024767
  98 H :    0.026425
  99 H :    0.032621
 100 H :    0.039376
 101 H :    0.027760
 102 H :    0.037067
 103 H :    0.104422
 104 H :    0.098198
 105 H :    0.023801
 106 H :    0.031806
 107 H :    0.025823
 108 H :    0.022375
 109 H :    0.023802

  Mayer bond orders larger than 0.100000
B(  0-C ,  1-C ) :   1.5652 B(  0-C ,  6-C ) :   0.9868 B(  0-C , 18-C ) :   1.1265
B(  1-C ,  2-C ) :   1.1494 B(  1-C ,  4-C ) :   1.1704 B(  2-C ,  3-N ) :   2.9609
B(  4-C ,  5-N ) :   2.8816 B(  6-C ,  7-C ) :   1.2793 B(  6-C , 11-C ) :   1.4215
B(  7-C ,  8-C ) :   1.4319 B(  7-C , 16-C ) :   0.9325 B(  8-C ,  9-C ) :   1.2367
B(  8-C , 79-H ) :   1.0167 B(  9-C , 10-C ) :   1.3184 B(  9-C , 14-C ) :   1.1610
B( 10-C , 11-C ) :   1.3187 B( 10-C , 12-S ) :   1.0824 B( 11-C , 80-H ) :   0.9791
B( 12-S , 13-C ) :   1.0861 B( 13-C , 14-C ) :   1.6204 B( 13-C , 15-Br) :   1.0127
B( 14-C , 81-H ) :   0.9994 B( 16-C , 17-O ) :   2.1895 B( 16-C , 18-C ) :   0.9703
B( 18-C , 19-C ) :   1.4577 B( 19-C , 20-C ) :   1.2801 B( 19-C , 82-H ) :   0.9423
B( 20-C , 21-C ) :   1.3951 B( 20-C , 83-H ) :   0.9804 B( 21-C , 22-C ) :   1.1910
B( 21-C , 25-S ) :   1.0945 B( 22-C , 23-C ) :   1.5261 B( 22-C , 84-H ) :   1.0018
B( 23-C , 24-C ) :   1.2271 B( 23-C , 85-H ) :   0.9960 B( 24-C , 25-S ) :   1.0450
B( 24-C , 26-C ) :   1.4548 B( 26-C , 27-C ) :   1.1994 B( 26-C , 30-S ) :   1.0806
B( 27-C , 28-C ) :   1.5731 B( 27-C , 86-H ) :   0.9943 B( 28-C , 29-C ) :   1.1557
B( 28-C , 87-H ) :   0.9990 B( 29-C , 30-S ) :   1.0290 B( 29-C , 31-C ) :   1.5704
B( 31-C , 32-C ) :   1.1875 B( 31-C , 88-H ) :   0.9514 B( 32-C , 33-S ) :   1.0952
B( 32-C , 34-C ) :   0.1035 B( 32-C , 36-C ) :   1.4502 B( 33-S , 34-C ) :   1.1701
B( 34-C , 35-C ) :   1.4730 B( 34-C , 49-C ) :   1.0961 B( 35-C , 36-C ) :   1.4013
B( 35-C , 44-C ) :   0.9759 B( 36-C , 37-C ) :   0.9585 B( 37-C , 38-C ) :   0.9849
B( 37-C , 42-C ) :   1.0705 B( 37-C , 89-H ) :   0.8664 B( 38-C , 39-F ) :   1.1716
B( 38-C , 40-F ) :   1.1147 B( 38-C , 41-F ) :   1.1497 B( 42-C , 43-C ) :   1.0976
B( 42-C , 90-H ) :   0.9286 B( 42-C , 91-H ) :   0.9326 B( 43-C , 44-C ) :   1.0424
B( 43-C , 92-H ) :   0.9243 B( 43-C , 93-H ) :   0.9257 B( 44-C , 45-C ) :   0.9981
B( 44-C , 94-H ) :   0.8630 B( 45-C , 46-F ) :   1.1591 B( 45-C , 47-F ) :   1.1324
B( 45-C , 48-F ) :   1.1438 B( 49-C , 50-S ) :   1.1211 B( 49-C , 51-C ) :   0.1087
B( 49-C , 53-C ) :   1.5211 B( 50-S , 51-C ) :   1.1301 B( 51-C , 52-C ) :   1.5016
B( 51-C , 66-C ) :   1.0950 B( 52-C , 53-C ) :   1.3503 B( 52-C , 61-C ) :   0.9768
B( 53-C , 54-C ) :   0.9656 B( 54-C , 55-C ) :   0.9963 B( 54-C , 59-C ) :   1.0525
B( 54-C , 95-H ) :   0.8610 B( 55-C , 56-F ) :   1.1388 B( 55-C , 57-F ) :   1.1334
B( 55-C , 58-F ) :   1.1513 B( 59-C , 60-C ) :   1.0985 B( 59-C , 96-H ) :   0.9265
B( 59-C , 97-H ) :   0.9287 B( 60-C , 61-C ) :   1.0445 B( 60-C , 98-H ) :   0.9073
B( 60-C , 99-H ) :   0.9231 B( 61-C , 62-C ) :   1.0001 B( 61-C ,100-H ) :   0.8689
B( 62-C , 63-F ) :   1.1412 B( 62-C , 64-F ) :   1.1461 B( 62-C , 65-F ) :   1.1400
B( 66-C , 67-C ) :   1.6464 B( 66-C ,101-H ) :   0.9570 B( 67-C , 68-C ) :   1.2101
B( 67-C ,102-H ) :   0.9572 B( 68-C , 69-O ) :   1.1201 B( 68-C , 70-C ) :   0.1135
B( 68-C , 72-C ) :   1.3853 B( 69-O , 70-C ) :   1.1241 B( 70-C , 71-C ) :   1.3258
B( 70-C , 75-C ) :   1.1225 B( 71-C , 72-C ) :   1.2361 B( 71-C , 74-O ) :   1.2300
B( 72-C , 73-O ) :   1.2655 B( 73-O ,103-H ) :   0.9529 B( 74-O ,104-H ) :   0.9582
B( 75-C , 76-C ) :   1.6970 B( 75-C ,105-H ) :   0.9608 B( 76-C , 77-C ) :   1.0988
B( 76-C ,106-H ) :   0.9858 B( 77-C , 78-C ) :   1.8965 B( 77-C ,107-H ) :   0.9740
B( 78-C ,108-H ) :   0.9587 B( 78-C ,109-H ) :   0.9524

-----------------------------------------------------------------------------
         ABSORPTION SPECTRUM VIA TRANSITION ELECTRIC DIPOLE MOMENTS
-----------------------------------------------------------------------------
State   Energy  Wavelength   fosc         T2         TX        TY        TZ
        (cm-1)    (nm)                  (au**2)     (au)      (au)      (au)
-----------------------------------------------------------------------------
   0   10411.9    960.4   0.748095701  23.65391  -4.04234  -0.72944   2.60409
   1   15273.5    654.7   0.503582872  10.85444  -2.26220   2.33352   0.54000
   2   20588.6    485.7   0.357169958   5.71115   0.06549  -2.24948   0.80417
   3   22099.5    452.5   0.519025878   7.73184  -0.12060   2.72257  -0.55220
   4   23113.8    432.6   0.715637523  10.19291   1.41412  -2.72174   0.88618
   5   24960.7    400.6   0.158333385   2.08829   1.33742  -0.08476   0.54075
   6   25151.8    397.6   0.232241920   3.03981  -1.27755   0.63700   1.00096
   7   25991.8    384.7   0.134082683   1.69829   0.08300   0.98064  -0.85425
   8   27101.8    369.0   0.000930680   0.01131   0.01552  -0.08940  -0.05543
   9   27603.5    362.3   0.060272053   0.71883  -0.13342   0.67910   0.48974
  10   28426.4    351.8   0.128419941   1.48726   0.19783   0.89846  -0.80055
  11   28541.0    350.4   0.022866177   0.26375  -0.11279  -0.41410   0.28205
  12   29008.9    344.7   0.029346645   0.33305  -0.38770   0.04245   0.42536
  13   30124.7    332.0   0.155182131   1.69588  -0.47127  -0.02940   1.21364
  14   30430.4    328.6   0.018522485   0.20039   0.18896  -0.23585  -0.33023
  15   31163.3    320.9   0.116100746   1.22650  -0.50824   0.89756  -0.40320
  16   31717.8    315.3   0.015292171   0.15872  -0.29493   0.26440   0.04282
  17   31811.9    314.3   0.019778439   0.20468   0.43327  -0.08596  -0.09783
  18   31932.6    313.2   0.004267055   0.04399  -0.13759   0.13112   0.08870
  19   32054.4    312.0   0.451453335   4.63662   2.05025  -0.29037  -0.59056
  20   32331.5    309.3   0.056948399   0.57987   0.71300  -0.24450  -0.10825
  21   33195.0    301.3   0.104209391   1.03350  -0.86115   0.17671   0.51059
  22   33446.3    299.0   0.041796469   0.41140  -0.04189   0.40599   0.49479
  23   34184.6    292.5   0.043672929   0.42059  -0.53503  -0.26171   0.25659
  24   35083.8    285.0   0.232676761   2.18334   0.19199  -1.08413  -0.98547
  25   35533.3    281.4   0.186362067   1.72663  -0.99524  -0.03616   0.85722
  26   35731.4    279.9   0.085439889   0.78720   0.44955   0.26009  -0.71935
  27   36533.6    273.7   0.032901110   0.29648  -0.32891   0.25823  -0.34874
  28   36843.4    271.4   0.107839902   0.96360  -0.62940  -0.74011   0.14032
  29   37704.5    265.2   0.049957095   0.43619  -0.14965   0.09453   0.63629
  30   38011.3    263.1   0.051906158   0.44955  -0.26366  -0.24094   0.56744
  31   38688.2    258.5   0.215528624   1.83401  -0.02922   1.13180   0.74309
  32   39021.9    256.3   0.153537005   1.29533  -0.65171  -0.93306   0.00065
  33   39241.9    254.8   0.038604155   0.32386  -0.05560  -0.56607  -0.01814
  34   39861.8    250.9   0.068971092   0.56962  -0.39250   0.17380   0.62077
  35   40306.0    248.1   0.085395979   0.69750   0.20523  -0.41428  -0.69552

FINAL SINGLE POINT ENERGY     -8282.940014700169

DIPOLE MOMENT
-------------
                                X             Y             Z
Electronic contribution:     98.72826      10.27877     -71.72405
Nuclear contribution   :    -99.99903      -9.45088      73.20687
                        -----------------------------------------
Total Dipole Moment    :     -1.27077       0.82789       1.48282
                        -----------------------------------------
Magnitude (a.u.)       :      2.12109
Magnitude (Debye)      :      5.39137

Rotational constants in cm-1:     0.000689     0.000350     0.000255
Rotational constants in MHz :    20.644776    10.479385     7.632755

                             ****ORCA TERMINATED NORMALLY****
TOTAL RUN TIME: 0 days 0 hours 14 minutes 48 seconds 670 msec
