                         Program Version 4.2.0 -  RELEASE  -
|  1> # ORCA input file
|  2> # SCF done       -188.999745738048          0.000605224362
|  3> ! CAM-B3LYP def2-SVP def2/J RIJCOSX Grid4 TightSCF
|  4> %maxcore 5000
|  5> %tddft
|  6>     Mode sTDDFT
|  7>     Ethresh 5.0
|  8>     maxcore 5000
|  9> end
| 10>
| 11> %pal
| 12>   nprocs 6
| 13>   end
| 14> * xyz 0 1
| 15>    C       -4.26272         1.50637        -0.84571
| 16>    C       -4.99501         0.38180        -0.56011
| 17>    C       -4.85310        -0.84824        -1.23890
| 18>    N       -4.81290        -1.86771        -1.76426
| 19>    C       -5.98036         0.25093         0.43664
| 20>    N       -6.77068         0.03617         1.24469
| 21>    C       -3.18357         1.56664        -1.82329
| 22>    C       -2.66901         2.88604        -1.84801
| 23>    C       -1.62549         3.26364        -2.65828
| 24>    C       -1.05541         2.28783        -3.48175
| 25>    C       -1.57028         0.96957        -3.44571
| 26>    C       -2.62811         0.59018        -2.62842
| 27>    S       -0.71584        -0.07931        -4.53423
| 28>    C        0.30638         1.24777        -5.01737
| 29>    C        0.02478         2.41812        -4.39622
| 30>   Br        1.64788         0.96563        -6.29590
| 31>    C       -3.41068         3.71635        -0.88969
| 32>    O       -3.25252         4.91900        -0.72883
| 33>    C       -4.37775         2.82067        -0.23342
| 34>    C       -5.21929         3.10644         0.81203
| 35>    C       -5.33693         4.26759         1.59267
| 36>    N       -4.85850         5.51474         1.28886
| 37>    C       -5.27352         6.34620         2.25729
| 38>    N       -5.97720         5.73971         3.18058
| 39>    C       -6.03171         4.43726         2.81890
| 40>    C       -6.62341         3.44096         3.66625
| 41>    C       -6.08821         2.14349         3.79816
| 42>    C       -6.68086         1.14853         4.66354
| 43>    N       -6.17721        -0.08028         4.68420
| 44>    C       -5.13136        -0.39541         3.94715
| 45>    C       -4.48326         0.61851         3.18221
| 46>    N       -4.96154         1.83639         3.13348
| 47>    C       -3.33703         0.33377         2.39767
| 48>    N       -2.45047         0.10877         1.70786
| 49>    C       -4.65957        -1.72656         3.93726
| 50>    N       -4.24830        -2.79642         3.90782
| 51>    C       -7.79667         1.43961         5.49666
| 52>    C       -8.28989         2.77200         5.39504
| 53>    C       -7.72535         3.74508         4.49225
| 54>    N       -8.38642         4.90045         4.53595
| 55>    S       -9.56727         4.78969         5.61143
| 56>    N       -9.32331         3.26390         6.07143
| 57>    C       -8.44693         0.55578         6.36770
| 58>    C       -8.26654        -0.78645         6.64338
| 59>    C       -9.08421        -1.47781         7.57480
| 60>    C       -8.80440        -2.80641         7.70357
| 61>    C       -7.74813        -3.22125         6.87016
| 62>    S       -7.10821        -1.88352         5.94143
| 63>    C       -7.21605        -4.49443         6.71118
| 64>    C       -7.57787        -5.68901         7.37085
| 65>    C       -6.86601        -6.77596         6.95603
| 66>    C       -5.91385        -6.48492         5.95034
| 67>    S       -5.94707        -4.78498         5.55329
| 68>    C       -5.09720        -7.39125         5.30447
| 69>    C       -4.17888        -7.03725         4.31603
| 70>    C       -3.45342        -7.88896         3.51582
| 71>    C       -3.59833        -9.29331         3.23894
| 72>    C       -4.75400       -10.03634         3.31559
| 73>    C       -4.83040       -11.40448         2.98851
| 74>    N       -4.94746       -12.52428         2.76166
| 75>    C       -6.02569        -9.51188         3.62178
| 76>    N       -7.09569        -9.14377         3.81873
| 77>    C       -2.34906        -9.75180         2.63233
| 78>    C       -1.53762        -8.62248         2.35851
| 79>    C       -2.21929        -7.40397         2.84590
| 80>    O       -1.83451        -6.26096         2.76500
| 81>    C       -0.31413        -8.72357         1.74403
| 82>    C        0.13585       -10.00100         1.39181
| 83>    C       -0.67416       -11.12333         1.68424
| 84>    C       -1.91656       -11.02047         2.29962
| 85>    S        0.07773       -12.60449         1.17478
| 86>    C        1.44899       -11.70738         0.57829
| 87>    C        1.35214       -10.36836         0.75318
| 88>   Br        2.87958       -12.62470        -0.21513
| 89>    H       -1.25616         4.27722        -2.65203
| 90>    H       -2.97752        -0.42818        -2.63430
| 91>    H        0.55648         3.33501        -4.57392
| 92>    H       -5.88514         2.31505         1.11994
| 93>    H       -4.24905         5.67658         0.48059
| 94>    H       -5.04731         7.39432         2.27126
| 95>    H       -9.25916         1.02417         6.91330
| 96>    H       -9.86078        -0.96791         8.11778
| 97>    H       -9.33137        -3.47630         8.35943
| 98>    H       -8.34396        -5.71599         8.12469
| 99>    H       -7.00296        -7.77546         7.32820
|100>    H       -5.18086        -8.42495         5.61020
|101>    H       -3.94900        -5.98213         4.19555
|102>    H        0.27698        -7.84501         1.53869
|103>    H       -2.49563       -11.90544         2.50503
|104>    H        2.10547        -9.66643         0.44539
|105> *
|106>
|107>                          ****END OF INPUT****

CARTESIAN COORDINATES (ANGSTROEM)
---------------------------------
  C     -4.262720    1.506370   -0.845710
  C     -4.995010    0.381800   -0.560110
  C     -4.853100   -0.848240   -1.238900
  N     -4.812900   -1.867710   -1.764260
  C     -5.980360    0.250930    0.436640
  N     -6.770680    0.036170    1.244690
  C     -3.183570    1.566640   -1.823290
  C     -2.669010    2.886040   -1.848010
  C     -1.625490    3.263640   -2.658280
  C     -1.055410    2.287830   -3.481750
  C     -1.570280    0.969570   -3.445710
  C     -2.628110    0.590180   -2.628420
  S     -0.715840   -0.079310   -4.534230
  C      0.306380    1.247770   -5.017370
  C      0.024780    2.418120   -4.396220
  Br     1.647880    0.965630   -6.295900
  C     -3.410680    3.716350   -0.889690
  O     -3.252520    4.919000   -0.728830
  C     -4.377750    2.820670   -0.233420
  C     -5.219290    3.106440    0.812030
  C     -5.336930    4.267590    1.592670
  N     -4.858500    5.514740    1.288860
  C     -5.273520    6.346200    2.257290
  N     -5.977200    5.739710    3.180580
  C     -6.031710    4.437260    2.818900
  C     -6.623410    3.440960    3.666250
  C     -6.088210    2.143490    3.798160
  C     -6.680860    1.148530    4.663540
  N     -6.177210   -0.080280    4.684200
  C     -5.131360   -0.395410    3.947150
  C     -4.483260    0.618510    3.182210
  N     -4.961540    1.836390    3.133480
  C     -3.337030    0.333770    2.397670
  N     -2.450470    0.108770    1.707860
  C     -4.659570   -1.726560    3.937260
  N     -4.248300   -2.796420    3.907820
  C     -7.796670    1.439610    5.496660
  C     -8.289890    2.772000    5.395040
  C     -7.725350    3.745080    4.492250
  N     -8.386420    4.900450    4.535950
  S     -9.567270    4.789690    5.611430
  N     -9.323310    3.263900    6.071430
  C     -8.446930    0.555780    6.367700
  C     -8.266540   -0.786450    6.643380
  C     -9.084210   -1.477810    7.574800
  C     -8.804400   -2.806410    7.703570
  C     -7.748130   -3.221250    6.870160
  S     -7.108210   -1.883520    5.941430
  C     -7.216050   -4.494430    6.711180
  C     -7.577870   -5.689010    7.370850
  C     -6.866010   -6.775960    6.956030
  C     -5.913850   -6.484920    5.950340
  S     -5.947070   -4.784980    5.553290
  C     -5.097200   -7.391250    5.304470
  C     -4.178880   -7.037250    4.316030
  C     -3.453420   -7.888960    3.515820
  C     -3.598330   -9.293310    3.238940
  C     -4.754000  -10.036340    3.315590
  C     -4.830400  -11.404480    2.988510
  N     -4.947460  -12.524280    2.761660
  C     -6.025690   -9.511880    3.621780
  N     -7.095690   -9.143770    3.818730
  C     -2.349060   -9.751800    2.632330
  C     -1.537620   -8.622480    2.358510
  C     -2.219290   -7.403970    2.845900
  O     -1.834510   -6.260960    2.765000
  C     -0.314130   -8.723570    1.744030
  C      0.135850  -10.001000    1.391810
  C     -0.674160  -11.123330    1.684240
  C     -1.916560  -11.020470    2.299620
  S      0.077730  -12.604490    1.174780
  C      1.448990  -11.707380    0.578290
  C      1.352140  -10.368360    0.753180
  Br     2.879580  -12.624700   -0.215130
  H     -1.256160    4.277220   -2.652030
  H     -2.977520   -0.428180   -2.634300
  H      0.556480    3.335010   -4.573920
  H     -5.885140    2.315050    1.119940
  H     -4.249050    5.676580    0.480590
  H     -5.047310    7.394320    2.271260
  H     -9.259160    1.024170    6.913300
  H     -9.860780   -0.967910    8.117780
  H     -9.331370   -3.476300    8.359430
  H     -8.343960   -5.715990    8.124690
  H     -7.002960   -7.775460    7.328200
  H     -5.180860   -8.424950    5.610200
  H     -3.949000   -5.982130    4.195550
  H      0.276980   -7.845010    1.538690
  H     -2.495630  -11.905440    2.505030
  H      2.105470   -9.666430    0.445390

 Total Charge           Charge          ....    0
 Multiplicity           Mult            ....    1
 Number of Electrons    NEL             ....  584
 Basis Dimension        Dim             .... 1172

ORBITAL ENERGIES
----------------

  NO   OCC          E(Eh)            E(eV)
   0   2.0000    -482.884717    -13139.9612
   1   2.0000    -482.879641    -13139.8231
   2   2.0000     -89.032379     -2422.6942
   3   2.0000     -88.974518     -2421.1197
   4   2.0000     -88.968439     -2420.9543
   5   2.0000     -88.965760     -2420.8814
   6   2.0000     -88.961319     -2420.7606
   7   2.0000     -62.562438     -1702.4105
   8   2.0000     -62.557362     -1702.2724
   9   2.0000     -56.396387     -1534.6237
  10   2.0000     -56.393672     -1534.5498
  11   2.0000     -56.393639     -1534.5489
  12   2.0000     -56.391305     -1534.4854
  13   2.0000     -56.388603     -1534.4119
  14   2.0000     -56.388567     -1534.4109
  15   2.0000     -19.229728      -523.2675
  16   2.0000     -19.203013      -522.5406
  17   2.0000     -14.466320      -393.6486
  18   2.0000     -14.461397      -393.5146
  19   2.0000     -14.451927      -393.2569
  20   2.0000     -14.445864      -393.0920
  21   2.0000     -14.439145      -392.9091
  22   2.0000     -14.429954      -392.6590
  23   2.0000     -14.424810      -392.5190
  24   2.0000     -14.423401      -392.4807
  25   2.0000     -14.410068      -392.1179
  26   2.0000     -14.408112      -392.0647
  27   2.0000     -14.405827      -392.0025
  28   2.0000     -14.395611      -391.7245
  29   2.0000     -10.377794      -282.3941
  30   2.0000     -10.377151      -282.3766
  31   2.0000     -10.369988      -282.1817
  32   2.0000     -10.357991      -281.8553
  33   2.0000     -10.353748      -281.7398
  34   2.0000     -10.351731      -281.6849
  35   2.0000     -10.346888      -281.5531
  36   2.0000     -10.345582      -281.5176
  37   2.0000     -10.341511      -281.4068
  38   2.0000     -10.339068      -281.3404
  39   2.0000     -10.337472      -281.2969
  40   2.0000     -10.335265      -281.2369
  41   2.0000     -10.334688      -281.2212
  42   2.0000     -10.333678      -281.1937
  43   2.0000     -10.333119      -281.1785
  44   2.0000     -10.332202      -281.1535
  45   2.0000     -10.331729      -281.1406
  46   2.0000     -10.329871      -281.0901
  47   2.0000     -10.327462      -281.0245
  48   2.0000     -10.324665      -280.9484
  49   2.0000     -10.323876      -280.9270
  50   2.0000     -10.323471      -280.9159
  51   2.0000     -10.319484      -280.8074
  52   2.0000     -10.318756      -280.7876
  53   2.0000     -10.318513      -280.7810
  54   2.0000     -10.318298      -280.7752
  55   2.0000     -10.317940      -280.7654
  56   2.0000     -10.315451      -280.6977
  57   2.0000     -10.313543      -280.6458
  58   2.0000     -10.311171      -280.5812
  59   2.0000     -10.308985      -280.5218
  60   2.0000     -10.307615      -280.4845
  61   2.0000     -10.306939      -280.4661
  62   2.0000     -10.306818      -280.4628
  63   2.0000     -10.305029      -280.4141
  64   2.0000     -10.303960      -280.3850
  65   2.0000     -10.303912      -280.3837
  66   2.0000     -10.303900      -280.3834
  67   2.0000     -10.302526      -280.3460
  68   2.0000     -10.301794      -280.3261
  69   2.0000     -10.300552      -280.2923
  70   2.0000     -10.300256      -280.2842
  71   2.0000     -10.299802      -280.2719
  72   2.0000     -10.299291      -280.2580
  73   2.0000     -10.298165      -280.2273
  74   2.0000     -10.297283      -280.2033
  75   2.0000     -10.295944      -280.1669
  76   2.0000     -10.295609      -280.1578
  77   2.0000     -10.293065      -280.0885
  78   2.0000     -10.292299      -280.0677
  79   2.0000     -10.289722      -279.9976
  80   2.0000     -10.288191      -279.9559
  81   2.0000     -10.283403      -279.8256
  82   2.0000      -8.791873      -239.2390
  83   2.0000      -8.786790      -239.1007
  84   2.0000      -8.123905      -221.0627
  85   2.0000      -8.070522      -219.6101
  86   2.0000      -8.064448      -219.4448
  87   2.0000      -8.058840      -219.2922
  88   2.0000      -8.057413      -219.2534
  89   2.0000      -6.628165      -180.3615
  90   2.0000      -6.623070      -180.2229
  91   2.0000      -6.613624      -179.9659
  92   2.0000      -6.613407      -179.9600
  93   2.0000      -6.608527      -179.8272
  94   2.0000      -6.608344      -179.8222
  95   2.0000      -6.094991      -165.8531
  96   2.0000      -6.087261      -165.6428
  97   2.0000      -6.086608      -165.6250
  98   2.0000      -6.040208      -164.3624
  99   2.0000      -6.035902      -164.2452
 100   2.0000      -6.034137      -164.1972
 101   2.0000      -6.031771      -164.1328
 102   2.0000      -6.029876      -164.0813
 103   2.0000      -6.028770      -164.0512
 104   2.0000      -6.026967      -164.0021
 105   2.0000      -6.025665      -163.9667
 106   2.0000      -6.024079      -163.9235
 107   2.0000      -6.022798      -163.8887
 108   2.0000      -6.020227      -163.8187
 109   2.0000      -6.018605      -163.7746
 110   2.0000      -2.744066       -74.6698
 111   2.0000      -2.739937       -74.5575
 112   2.0000      -2.739797       -74.5537
 113   2.0000      -2.738947       -74.5305
 114   2.0000      -2.734869       -74.4196
 115   2.0000      -2.734720       -74.4155
 116   2.0000      -2.728233       -74.2390
 117   2.0000      -2.728228       -74.2389
 118   2.0000      -2.723172       -74.1013
 119   2.0000      -2.723160       -74.1009
 120   2.0000      -1.142926       -31.1006
 121   2.0000      -1.132119       -30.8065
 122   2.0000      -1.121503       -30.5177
 123   2.0000      -1.118345       -30.4317
 124   2.0000      -1.116729       -30.3878
 125   2.0000      -1.045054       -28.4374
 126   2.0000      -1.023544       -27.8520
 127   2.0000      -1.015557       -27.6347
 128   2.0000      -1.015137       -27.6233
 129   2.0000      -1.013038       -27.5662
 130   2.0000      -1.011461       -27.5233
 131   2.0000      -1.005391       -27.3581
 132   2.0000      -1.002143       -27.2697
 133   2.0000      -0.996189       -27.1077
 134   2.0000      -0.991940       -26.9921
 135   2.0000      -0.989155       -26.9163
 136   2.0000      -0.988374       -26.8950
 137   2.0000      -0.985608       -26.8197
 138   2.0000      -0.981051       -26.6958
 139   2.0000      -0.978663       -26.6308
 140   2.0000      -0.964974       -26.2583
 141   2.0000      -0.942556       -25.6483
 142   2.0000      -0.936581       -25.4857
 143   2.0000      -0.918032       -24.9809
 144   2.0000      -0.911060       -24.7912
 145   2.0000      -0.908721       -24.7276
 146   2.0000      -0.903579       -24.5876
 147   2.0000      -0.900574       -24.5059
 148   2.0000      -0.898057       -24.4374
 149   2.0000      -0.885375       -24.0923
 150   2.0000      -0.882309       -24.0089
 151   2.0000      -0.877902       -23.8889
 152   2.0000      -0.872538       -23.7430
 153   2.0000      -0.866337       -23.5742
 154   2.0000      -0.857457       -23.3326
 155   2.0000      -0.841303       -22.8930
 156   2.0000      -0.837858       -22.7993
 157   2.0000      -0.829903       -22.5828
 158   2.0000      -0.825659       -22.4673
 159   2.0000      -0.821122       -22.3439
 160   2.0000      -0.819935       -22.3116
 161   2.0000      -0.805504       -21.9189
 162   2.0000      -0.791032       -21.5251
 163   2.0000      -0.775250       -21.0956
 164   2.0000      -0.764391       -20.8001
 165   2.0000      -0.761874       -20.7317
 166   2.0000      -0.754195       -20.5227
 167   2.0000      -0.744116       -20.2484
 168   2.0000      -0.726408       -19.7666
 169   2.0000      -0.721310       -19.6278
 170   2.0000      -0.715906       -19.4808
 171   2.0000      -0.709113       -19.2959
 172   2.0000      -0.700554       -19.0630
 173   2.0000      -0.696611       -18.9557
 174   2.0000      -0.692095       -18.8329
 175   2.0000      -0.687904       -18.7188
 176   2.0000      -0.684603       -18.6290
 177   2.0000      -0.680824       -18.5262
 178   2.0000      -0.677238       -18.4286
 179   2.0000      -0.666938       -18.1483
 180   2.0000      -0.660221       -17.9655
 181   2.0000      -0.658425       -17.9167
 182   2.0000      -0.650023       -17.6880
 183   2.0000      -0.647867       -17.6294
 184   2.0000      -0.641145       -17.4464
 185   2.0000      -0.635534       -17.2938
 186   2.0000      -0.634306       -17.2603
 187   2.0000      -0.625803       -17.0290
 188   2.0000      -0.622645       -16.9430
 189   2.0000      -0.620844       -16.8940
 190   2.0000      -0.614760       -16.7285
 191   2.0000      -0.611852       -16.6493
 192   2.0000      -0.600775       -16.3479
 193   2.0000      -0.596519       -16.2321
 194   2.0000      -0.591595       -16.0981
 195   2.0000      -0.590131       -16.0583
 196   2.0000      -0.586926       -15.9711
 197   2.0000      -0.577744       -15.7212
 198   2.0000      -0.574590       -15.6354
 199   2.0000      -0.571191       -15.5429
 200   2.0000      -0.558656       -15.2018
 201   2.0000      -0.555533       -15.1168
 202   2.0000      -0.553131       -15.0515
 203   2.0000      -0.546957       -14.8835
 204   2.0000      -0.546227       -14.8636
 205   2.0000      -0.540933       -14.7195
 206   2.0000      -0.539976       -14.6935
 207   2.0000      -0.537092       -14.6150
 208   2.0000      -0.535241       -14.5646
 209   2.0000      -0.531377       -14.4595
 210   2.0000      -0.527985       -14.3672
 211   2.0000      -0.525890       -14.3102
 212   2.0000      -0.523595       -14.2477
 213   2.0000      -0.520243       -14.1565
 214   2.0000      -0.519003       -14.1228
 215   2.0000      -0.515879       -14.0378
 216   2.0000      -0.513941       -13.9850
 217   2.0000      -0.510887       -13.9019
 218   2.0000      -0.508695       -13.8423
 219   2.0000      -0.506013       -13.7693
 220   2.0000      -0.503266       -13.6946
 221   2.0000      -0.500611       -13.6223
 222   2.0000      -0.500029       -13.6065
 223   2.0000      -0.497963       -13.5503
 224   2.0000      -0.493599       -13.4315
 225   2.0000      -0.493059       -13.4168
 226   2.0000      -0.490461       -13.3461
 227   2.0000      -0.488193       -13.2844
 228   2.0000      -0.486341       -13.2340
 229   2.0000      -0.483838       -13.1659
 230   2.0000      -0.480768       -13.0824
 231   2.0000      -0.475263       -12.9326
 232   2.0000      -0.473848       -12.8941
 233   2.0000      -0.472409       -12.8549
 234   2.0000      -0.471213       -12.8224
 235   2.0000      -0.466997       -12.7076
 236   2.0000      -0.462755       -12.5922
 237   2.0000      -0.457812       -12.4577
 238   2.0000      -0.456351       -12.4180
 239   2.0000      -0.456038       -12.4094
 240   2.0000      -0.454598       -12.3702
 241   2.0000      -0.451291       -12.2802
 242   2.0000      -0.449359       -12.2277
 243   2.0000      -0.449005       -12.2181
 244   2.0000      -0.443397       -12.0654
 245   2.0000      -0.442094       -12.0300
 246   2.0000      -0.441341       -12.0095
 247   2.0000      -0.441032       -12.0011
 248   2.0000      -0.438704       -11.9378
 249   2.0000      -0.438193       -11.9238
 250   2.0000      -0.435824       -11.8594
 251   2.0000      -0.432489       -11.7686
 252   2.0000      -0.429091       -11.6762
 253   2.0000      -0.428795       -11.6681
 254   2.0000      -0.426559       -11.6073
 255   2.0000      -0.426318       -11.6007
 256   2.0000      -0.424177       -11.5424
 257   2.0000      -0.418370       -11.3844
 258   2.0000      -0.416471       -11.3328
 259   2.0000      -0.412256       -11.2181
 260   2.0000      -0.411837       -11.2067
 261   2.0000      -0.409919       -11.1545
 262   2.0000      -0.409299       -11.1376
 263   2.0000      -0.406391       -11.0585
 264   2.0000      -0.401283       -10.9195
 265   2.0000      -0.398822       -10.8525
 266   2.0000      -0.393983       -10.7208
 267   2.0000      -0.386959       -10.5297
 268   2.0000      -0.381171       -10.3722
 269   2.0000      -0.379563       -10.3284
 270   2.0000      -0.375139       -10.2081
 271   2.0000      -0.374062       -10.1788
 272   2.0000      -0.371500       -10.1090
 273   2.0000      -0.369154       -10.0452
 274   2.0000      -0.366253        -9.9663
 275   2.0000      -0.357967        -9.7408
 276   2.0000      -0.352083        -9.5807
 277   2.0000      -0.351217        -9.5571
 278   2.0000      -0.348038        -9.4706
 279   2.0000      -0.344102        -9.3635
 280   2.0000      -0.341046        -9.2803
 281   2.0000      -0.336624        -9.1600
 282   2.0000      -0.335658        -9.1337
 283   2.0000      -0.327945        -8.9238
 284   2.0000      -0.318697        -8.6722
 285   2.0000      -0.315967        -8.5979
 286   2.0000      -0.307197        -8.3593
 287   2.0000      -0.297179        -8.0866
 288   2.0000      -0.291206        -7.9241
 289   2.0000      -0.286699        -7.8015
 290   2.0000      -0.273315        -7.4373
 291   2.0000      -0.226167        -6.1543
 292   0.0000      -0.132930        -3.6172
 293   0.0000      -0.088945        -2.4203
 294   0.0000      -0.086368        -2.3502
 295   0.0000      -0.063854        -1.7376
 296   0.0000      -0.060122        -1.6360

MULLIKEN ATOMIC CHARGES
-----------------------
   0 C :    0.336421
   1 C :   -0.371551
   2 C :   -0.183966
   3 N :    0.156303
   4 C :   -0.164883
   5 N :    0.123375
   6 C :    0.017259
   7 C :   -0.012796
   8 C :   -0.068536
   9 C :    0.118285
  10 C :   -0.093519
  11 C :   -0.005875
  12 S :    0.192581
  13 C :   -0.123660
  14 C :    0.038301
  15 Br:    0.024267
  16 C :    0.181640
  17 O :   -0.216704
  18 C :   -0.114620
  19 C :    0.010683
  20 C :    0.029142
  21 N :   -0.015967
  22 C :    0.111617
  23 N :   -0.090970
  24 C :   -0.108448
  25 C :    0.097579
  26 C :   -0.037689
  27 C :   -0.004804
  28 N :   -0.021633
  29 C :   -0.038347
  30 C :   -0.140018
  31 N :    0.025613
  32 C :   -0.223537
  33 N :    0.238034
  34 C :   -0.261255
  35 N :    0.242970
  36 C :    0.109874
  37 C :   -0.012570
  38 C :   -0.001949
  39 N :   -0.235156
  40 S :    0.522905
  41 N :   -0.283358
  42 C :   -0.127501
  43 C :    0.039548
  44 C :    0.023841
  45 C :    0.041369
  46 C :   -0.016128
  47 S :    0.130079
  48 C :   -0.045887
  49 C :    0.028767
  50 C :    0.056739
  51 C :   -0.019304
  52 S :    0.149018
  53 C :    0.004718
  54 C :    0.012067
  55 C :   -0.114171
  56 C :    0.282888
  57 C :   -0.339493
  58 C :   -0.178250
  59 N :    0.143301
  60 C :   -0.220331
  61 N :    0.163093
  62 C :    0.007982
  63 C :   -0.004767
  64 C :    0.140440
  65 O :   -0.132728
  66 C :   -0.071817
  67 C :    0.112586
  68 C :   -0.088985
  69 C :   -0.025176
  70 S :    0.180818
  71 C :   -0.125026
  72 C :    0.042589
  73 Br:    0.018326
  74 H :   -0.011492
  75 H :   -0.004136
  76 H :   -0.003606
  77 H :   -0.001368
  78 H :    0.150301
  79 H :    0.020519
  80 H :    0.004467
  81 H :   -0.000576
  82 H :   -0.008047
  83 H :   -0.000769
  84 H :    0.004716
  85 H :    0.015536
  86 H :    0.041434
  87 H :   -0.009776
  88 H :   -0.006745
  89 H :   -0.004097
Sum of atomic charges:   -0.0000000

LOEWDIN ATOMIC CHARGES
----------------------
   0 C :    0.087484
   1 C :   -0.148411
   2 C :   -0.017418
   3 N :   -0.051251
   4 C :   -0.011884
   5 N :   -0.071889
   6 C :   -0.015426
   7 C :   -0.049309
   8 C :    0.023635
   9 C :   -0.032389
  10 C :   -0.141710
  11 C :   -0.001853
  12 S :    0.438085
  13 C :   -0.271390
  14 C :   -0.070564
  15 Br:    0.137515
  16 C :    0.103677
  17 O :   -0.165040
  18 C :   -0.114450
  19 C :    0.079468
  20 C :   -0.035181
  21 N :    0.101307
  22 C :    0.049395
  23 N :   -0.098390
  24 C :    0.003600
  25 C :   -0.050733
  26 C :    0.004718
  27 C :    0.000576
  28 N :   -0.018341
  29 C :   -0.039340
  30 C :   -0.022132
  31 N :   -0.007717
  32 C :   -0.031558
  33 N :   -0.014076
  34 C :   -0.043215
  35 N :   -0.023386
  36 C :   -0.018832
  37 C :   -0.045101
  38 C :   -0.035633
  39 N :   -0.263649
  40 S :    0.660526
  41 N :   -0.287051
  42 C :   -0.035577
  43 C :   -0.123286
  44 C :   -0.024329
  45 C :   -0.021708
  46 C :   -0.184995
  47 S :    0.475187
  48 C :   -0.159509
  49 C :   -0.015819
  50 C :   -0.013806
  51 C :   -0.112498
  52 S :    0.449454
  53 C :   -0.041336
  54 C :    0.051157
  55 C :   -0.085539
  56 C :    0.067210
  57 C :   -0.145451
  58 C :   -0.019394
  59 N :   -0.057652
  60 C :   -0.024375
  61 N :   -0.056334
  62 C :   -0.017491
  63 C :   -0.050521
  64 C :    0.078692
  65 O :   -0.134089
  66 C :    0.021672
  67 C :   -0.034546
  68 C :   -0.144041
  69 C :   -0.015026
  70 S :    0.428903
  71 C :   -0.273570
  72 C :   -0.069774
  73 Br:    0.132964
  74 H :    0.040377
  75 H :    0.042883
  76 H :    0.038649
  77 H :    0.045156
  78 H :    0.073403
  79 H :    0.023674
  80 H :    0.044522
  81 H :    0.037224
  82 H :    0.033213
  83 H :    0.036755
  84 H :    0.041292
  85 H :    0.039786
  86 H :    0.045800
  87 H :    0.041424
  88 H :    0.039984
  89 H :    0.038616

  Mayer bond orders larger than 0.100000
B(  0-C ,  1-C ) :   1.6094 B(  0-C ,  6-C ) :   1.0001 B(  0-C , 18-C ) :   1.0889
B(  1-C ,  2-C ) :   1.1415 B(  1-C ,  4-C ) :   1.1601 B(  2-C ,  3-N ) :   2.9717
B(  4-C ,  5-N ) :   2.9087 B(  6-C ,  7-C ) :   1.2715 B(  6-C , 11-C ) :   1.4164
B(  7-C ,  8-C ) :   1.4171 B(  7-C , 16-C ) :   0.9794 B(  8-C ,  9-C ) :   1.2456
B(  8-C , 74-H ) :   1.0163 B(  9-C , 10-C ) :   1.3047 B(  9-C , 14-C ) :   1.1635
B( 10-C , 11-C ) :   1.3288 B( 10-C , 12-S ) :   1.0899 B( 11-C , 75-H ) :   0.9778
B( 12-S , 13-C ) :   1.0878 B( 13-C , 14-C ) :   1.6176 B( 13-C , 15-Br) :   1.0196
B( 14-C , 76-H ) :   0.9997 B( 16-C , 17-O ) :   2.0566 B( 16-C , 18-C ) :   0.9669
B( 17-O , 78-H ) :   0.1393 B( 18-C , 19-C ) :   1.5421 B( 19-C , 20-C ) :   1.2498
B( 19-C , 77-H ) :   0.8940 B( 20-C , 21-N ) :   1.2503 B( 20-C , 24-C ) :   1.2770
B( 21-N , 22-C ) :   1.2822 B( 21-N , 78-H ) :   0.8503 B( 22-C , 23-N ) :   1.5656
B( 22-C , 79-H ) :   0.9810 B( 23-N , 24-C ) :   1.5427 B( 24-C , 25-C ) :   1.0275
B( 25-C , 26-C ) :   1.3501 B( 25-C , 36-C ) :   0.1219 B( 25-C , 38-C ) :   1.2160
B( 26-C , 27-C ) :   1.0936 B( 26-C , 31-N ) :   1.4285 B( 27-C , 28-N ) :   1.4434
B( 27-C , 36-C ) :   1.1639 B( 28-N , 29-C ) :   1.5914 B( 28-N , 47-S ) :   0.1018
B( 29-C , 30-C ) :   1.2328 B( 29-C , 34-C ) :   1.1720 B( 30-C , 31-N ) :   1.7138
B( 30-C , 32-C ) :   1.1770 B( 32-C , 33-N ) :   3.0248 B( 34-C , 35-N ) :   2.9848
B( 36-C , 37-C ) :   1.1390 B( 36-C , 42-C ) :   1.3129 B( 37-C , 38-C ) :   1.1033
B( 37-C , 41-N ) :   1.5631 B( 38-C , 39-N ) :   1.5572 B( 39-N , 40-S ) :   1.2791
B( 39-N , 41-N ) :   0.1465 B( 40-S , 41-N ) :   1.2606 B( 42-C , 43-C ) :   1.4176
B( 42-C , 80-H ) :   0.9559 B( 43-C , 44-C ) :   1.1765 B( 43-C , 47-S ) :   1.0874
B( 44-C , 45-C ) :   1.5460 B( 44-C , 81-H ) :   1.0030 B( 45-C , 46-C ) :   1.2109
B( 45-C , 82-H ) :   0.9942 B( 46-C , 47-S ) :   1.0155 B( 46-C , 48-C ) :   1.4432
B( 48-C , 49-C ) :   1.2030 B( 48-C , 52-S ) :   1.0779 B( 49-C , 50-C ) :   1.5613
B( 49-C , 83-H ) :   0.9966 B( 50-C , 51-C ) :   1.1611 B( 50-C , 84-H ) :   1.0000
B( 51-C , 52-S ) :   1.0771 B( 51-C , 53-C ) :   1.5311 B( 53-C , 54-C ) :   1.1811
B( 53-C , 85-H ) :   0.9611 B( 54-C , 55-C ) :   1.5682 B( 54-C , 86-H ) :   0.9421
B( 55-C , 56-C ) :   1.0776 B( 55-C , 64-C ) :   0.9453 B( 56-C , 57-C ) :   1.6066
B( 56-C , 62-C ) :   1.0080 B( 57-C , 58-C ) :   1.1339 B( 57-C , 60-C ) :   1.1643
B( 58-C , 59-N ) :   2.9769 B( 60-C , 61-N ) :   3.0130 B( 62-C , 63-C ) :   1.2767
B( 62-C , 69-C ) :   1.4155 B( 63-C , 64-C ) :   0.9158 B( 63-C , 66-C ) :   1.4317
B( 64-C , 65-O ) :   2.2723 B( 66-C , 67-C ) :   1.2440 B( 66-C , 87-H ) :   1.0166
B( 67-C , 68-C ) :   1.3141 B( 67-C , 72-C ) :   1.1635 B( 68-C , 69-C ) :   1.3231
B( 68-C , 70-S ) :   1.0831 B( 69-C , 88-H ) :   0.9822 B( 70-S , 71-C ) :   1.0861
B( 71-C , 72-C ) :   1.6195 B( 71-C , 73-Br) :   1.0155 B( 72-C , 89-H ) :   0.9997

-----------------------------------------------------------------------------
         ABSORPTION SPECTRUM VIA TRANSITION ELECTRIC DIPOLE MOMENTS
-----------------------------------------------------------------------------
State   Energy  Wavelength   fosc         T2         TX        TY        TZ
        (cm-1)    (nm)                  (au**2)     (au)      (au)      (au)
-----------------------------------------------------------------------------
   0    6575.8   1520.7   0.527071935  26.38733  -0.54426   5.02493  -0.91718
   1   15117.6    661.5   0.120590329   2.62607  -0.81350   1.33936   0.41281
   2   15532.1    643.8   0.064768621   1.37281   0.35759  -0.23177  -1.09143
   3   16410.8    609.4   0.679988949  13.64109   1.94578  -1.88898  -2.50735
   4   20590.4    485.7   0.028729689   0.45935  -0.39799   0.42487   0.34705
   5   21023.3    475.7   0.146553684   2.29494   1.00866  -0.29519  -1.09106
   6   21758.3    459.6   0.021648646   0.32755  -0.25685   0.25731  -0.44201
   7   22214.8    450.1   0.040558066   0.60105   0.44163   0.42133  -0.47801
   8   23257.7    430.0   0.014443222   0.20444   0.27346  -0.18620  -0.30821
   9   23770.1    420.7   0.137944671   1.91051   1.18859  -0.61023  -0.35409
  10   24144.5    414.2   0.010049112   0.13702  -0.19066   0.28558   0.13826
  11   24411.3    409.6   0.002648196   0.03571   0.12140   0.09801   0.10662
  12   25302.8    395.2   0.123023359   1.60064   0.31563  -0.65285  -1.03673
  13   25421.2    393.4   0.168201886   2.17826   0.19550  -1.32500  -0.62002
  14   25817.4    387.3   0.038092721   0.48574   0.55717   0.12365  -0.40001
  15   25981.7    384.9   0.046706769   0.59182  -0.33196  -0.40150   0.56605
  16   26371.8    379.2   0.003225192   0.04026   0.01723   0.16695   0.10997
  17   26966.0    370.8   0.145534652   1.77675  -0.90790   0.47102   0.85475
  18   27874.2    358.8   0.270345404   3.19296   1.41438  -0.03972  -1.09129
  19   28244.7    354.0   0.020265801   0.23621   0.09014  -0.44984  -0.16040
  20   28547.5    350.3   0.058357292   0.67298  -0.41737  -0.14145   0.69193
  21   29098.1    343.7   0.020956496   0.23710  -0.20250   0.35934   0.25879
  22   29514.3    338.8   0.018182542   0.20281  -0.33804   0.22566   0.19396
  23   29565.1    338.2   0.057072927   0.63552  -0.55199  -0.55853   0.13735
  24   30106.6    332.2   0.352854028   3.85841   1.40516  -0.23333  -1.35259
  25   30440.2    328.5   0.105520102   1.14120  -0.50173   0.86524  -0.37527
  26   30502.5    327.8   0.225355585   2.43225  -0.91524   1.08087   0.65292
  27   30838.7    324.3   0.126810590   1.35374   0.39837  -0.46814  -0.98787
  28   30960.8    323.0   0.345655694   3.67542   1.69562  -0.03666  -0.89384
  29   31030.8    322.3   0.441026505   4.67893  -1.56966   1.11831   0.98209
  30   32149.9    311.0   0.002214534   0.02268   0.06220   0.11814  -0.06965
  31   32287.0    309.7   0.126279864   1.28760   1.02375  -0.15708  -0.46353
  32   32675.8    306.0   0.041824910   0.42139  -0.45557   0.40883   0.21612
  33   32837.6    304.5   0.059548987   0.59701  -0.70663   0.10952   0.29273
  34   32953.0    303.5   0.195635151   1.95446   1.06521  -0.66020  -0.61962
  35   33292.4    300.4   0.020559934   0.20331   0.42207   0.14866  -0.05535
  36   33572.6    297.9   0.310277909   3.04258  -1.23393  -0.70586   1.01081
  37   33824.4    295.6   0.090768518   0.88345  -0.52356  -0.76253   0.16699
  38   33923.3    294.8   0.046861816   0.45477  -0.31675   0.59535   0.00100
  39   34138.1    292.9   0.187698289   1.81008  -0.16255   1.33307   0.08109
  40   35107.8    284.8   0.002434239   0.02283  -0.03072  -0.14663   0.01953
  41   35163.6    284.4   0.003315459   0.03104   0.03816   0.02125   0.17068
  42   35221.5    283.9   0.140617874   1.31434   1.09867   0.16721  -0.28160
  43   35284.1    283.4   0.050324369   0.46954   0.23195   0.63789  -0.09400
  44   35395.8    282.5   0.031175742   0.28996  -0.41228  -0.30077   0.17184
  45   35505.0    281.7   0.119698074   1.10987  -0.97041  -0.01167   0.40993
  46   35644.5    280.5   0.091134193   0.84171  -0.68726   0.00158   0.60777
  47   36031.9    277.5   0.012213007   0.11159  -0.13512  -0.18289   0.24471
  48   36105.5    277.0   0.026377711   0.24051  -0.40913   0.13866   0.23216
  49   36338.8    275.2   0.022564988   0.20443   0.30097   0.06023  -0.33199
  50   36778.0    271.9   0.034141605   0.30561   0.34101   0.39024  -0.19245
  51   36878.0    271.2   0.094444438   0.84311   0.65774  -0.43020  -0.47479
  52   37137.9    269.3   0.021351089   0.18927  -0.25905   0.26915  -0.22298
  53   37392.9    267.4   0.075159074   0.66171   0.47630  -0.44173  -0.48961
  54   37719.0    265.1   0.018228596   0.15910  -0.23413   0.25095   0.20324
  55   37878.5    264.0   0.016324600   0.14188   0.01380  -0.36009  -0.10965
  56   38053.1    262.8   0.050196034   0.43427  -0.05697  -0.51494   0.40725
  57   38315.3    261.0   0.011480416   0.09864   0.06508   0.06494   0.30032
  58   38474.0    259.9   0.207733968   1.77753   0.01759  -1.29843  -0.30216
  59   38724.7    258.2   0.011966597   0.10173  -0.12358   0.16242   0.24511
  60   38813.0    257.6   0.132218826   1.12148   0.94157  -0.38616  -0.29294
  61   38883.3    257.2   0.198835781   1.68348   0.12190  -1.25236  -0.31658
  62   39147.3    255.4   0.009950307   0.08368   0.11005  -0.23951  -0.11916
  63   39315.2    254.4   0.134042077   1.12242   0.77029  -0.58698  -0.42957
  64   39575.4    252.7   0.021319015   0.17734   0.40028  -0.07779  -0.10522
  65   39639.9    252.3   0.006414311   0.05327   0.10978  -0.18596  -0.08149
  66   39768.3    251.5   0.056923375   0.47123  -0.61377   0.12982   0.27867
  67   39947.9    250.3   0.003062813   0.02524  -0.00288  -0.15819   0.01445
  68   40232.7    248.6   0.024614471   0.20141  -0.30641  -0.29454   0.14414
  69   40298.9    248.1   0.345441683   2.82200  -0.85690   1.36428   0.47587

FINAL SINGLE POINT ENERGY     -9971.293166644507

DIPOLE MOMENT
-------------
                                X             Y             Z
Electronic contribution:    122.76680     -60.45863    -109.01104
Nuclear contribution   :   -122.48277      63.40047     110.60652
                        -----------------------------------------
Total Dipole Moment    :      0.28403       2.94184       1.59547
                        -----------------------------------------
Magnitude (a.u.)       :      3.35866
Magnitude (Debye)      :      8.53704

Rotational constants in cm-1:     0.000612     0.000376     0.000241
Rotational constants in MHz :    18.352821    11.278941     7.221125

                             ****ORCA TERMINATED NORMALLY****
TOTAL RUN TIME: 0 days 0 hours 17 minutes 7 seconds 687 msec
