                         Program Version 4.2.0 -  RELEASE  -
|  1> # ORCA input file
|  2> # SCF done       -177.094971118496          0.000643266628
|  3> ! CAM-B3LYP def2-SVP def2/J RIJCOSX Grid4 TightSCF
|  4> %maxcore 5000
|  5> %tddft
|  6>     Mode sTDDFT
|  7>     Ethresh 5.0
|  8>     maxcore 5000
|  9> end
| 10>
| 11> %pal
| 12>   nprocs 6
| 13>   end
| 14> * xyz 0 1
| 15>    C       -6.29949         0.55190         7.12034
| 16>    C       -6.97580         0.10620         8.24539
| 17>    C       -7.07908        -1.24903         8.53028
| 18>    C       -6.50169        -2.19859         7.70153
| 19>    C       -5.82067        -1.76634         6.57492
| 20>    C       -5.72243        -0.38652         6.27779
| 21>    C       -4.98388        -0.22077         5.03514
| 22>    C       -4.54503         0.95505         4.49717
| 23>    C       -4.75960         2.22055         5.08675
| 24>    N       -4.90183         3.27530         5.51493
| 25>    C       -3.78544         1.07088         3.31144
| 26>    N       -3.16388         1.24338         2.36263
| 27>    C       -4.80637        -1.56349         4.47776
| 28>    C       -5.10300        -2.51265         5.55542
| 29>    C       -4.58790        -3.76777         5.69346
| 30>    C       -3.68052        -4.35519         4.78425
| 31>    N       -2.90386        -4.85808         4.10591
| 32>    C       -4.83577        -4.59848         6.80736
| 33>    N       -5.00683        -5.31191         7.68922
| 34>    C       -4.57675        -1.83723         3.17228
| 35>    C       -4.76335        -3.11546         2.54346
| 36>    N       -5.70986        -3.93278         2.98834
| 37>    N       -5.90170        -5.11185         2.50801
| 38>    C       -5.25312        -5.59835         1.46258
| 39>    C       -4.32215        -4.76014         0.79187
| 40>    C       -4.03160        -3.49065         1.38812
| 41>    N       -3.10591        -2.81555         0.71325
| 42>    S       -2.67616        -3.68351        -0.56702
| 43>    N       -3.63501        -4.94801        -0.33325
| 44>    C       -5.52017        -6.96162         1.07130
| 45>    C       -4.53920        -7.78576         0.48840
| 46>    C       -4.83495        -9.13663         0.07907
| 47>    N       -3.96400        -9.77622        -0.71521
| 48>    C       -2.79821        -9.24801        -0.96287
| 49>    C       -2.40022        -8.03620        -0.29141
| 50>    N       -3.28021        -7.33720         0.36674
| 51>    C       -1.06718        -7.56376        -0.37508
| 52>    N        0.00563        -7.17942        -0.48979
| 53>    C       -1.93367        -9.86728        -1.89830
| 54>    N       -1.21176       -10.33566        -2.65414
| 55>    C       -6.05632        -9.76847         0.40507
| 56>    C       -7.03354        -8.94388         0.99070
| 57>    C       -6.77227        -7.55288         1.30388
| 58>    N       -7.84482        -6.95532         1.82681
| 59>    S       -9.02700        -8.01863         1.95366
| 60>    N       -8.27764        -9.29459         1.33757
| 61>    C       -6.27518       -11.17061         0.14808
| 62>    C       -7.51914       -11.70136        -0.15026
| 63>    C       -7.73242       -13.05827        -0.40137
| 64>    C       -6.72842       -14.01378        -0.35086
| 65>    C       -5.43758       -13.51778        -0.01213
| 66>    C       -5.21336       -12.11335         0.22502
| 67>    N       -3.94529       -11.97826         0.56286
| 68>    O       -3.41533       -13.19362         0.52532
| 69>    N       -4.28755       -14.13294         0.18136
| 70>    C       -6.94919       -15.40102        -0.59505
| 71>    C       -6.02037       -16.42572        -0.54497
| 72>    C       -6.59523       -17.66425        -0.82535
| 73>    C       -7.97177       -17.58081        -1.09369
| 74>    S       -8.55922       -15.98636        -1.00137
| 75>    C       -8.46183       -18.88882        -1.36109
| 76>    C       -7.39758       -19.79339        -1.26083
| 77>    C       -6.18926       -19.06119        -0.92115
| 78>    C       -4.94103       -19.57330        -0.72666
| 79>    C       -4.67343       -20.95419        -0.84402
| 80>    N       -4.45584       -22.07592        -0.93755
| 81>    C       -3.83082       -18.76808        -0.39094
| 82>    N       -2.91863       -18.13142        -0.11535
| 83>    C       -7.79675       -21.11973        -1.50853
| 84>    C       -9.12907       -21.19221        -1.78598
| 85>    S       -9.93373       -19.66034        -1.75498
| 86>    H       -6.23585         1.60691         6.90982
| 87>    H       -7.43271         0.82669         8.90633
| 88>    H       -7.61833        -1.56992         9.40833
| 89>    H       -6.59564        -3.24869         7.92579
| 90>    H       -4.28740        -1.04360         2.49747
| 91>    H       -8.36250       -11.03204        -0.20547
| 92>    H       -8.73509       -13.37763        -0.64703
| 93>    H       -4.98658       -16.24725        -0.31044
| 94>    H       -7.14531       -21.97390        -1.48475
| 95>    H       -9.70442       -22.06767        -2.01200
| 96> *
| 97>
| 98>                          ****END OF INPUT****

CARTESIAN COORDINATES (ANGSTROEM)
---------------------------------
  C     -6.299490    0.551900    7.120340
  C     -6.975800    0.106200    8.245390
  C     -7.079080   -1.249030    8.530280
  C     -6.501690   -2.198590    7.701530
  C     -5.820670   -1.766340    6.574920
  C     -5.722430   -0.386520    6.277790
  C     -4.983880   -0.220770    5.035140
  C     -4.545030    0.955050    4.497170
  C     -4.759600    2.220550    5.086750
  N     -4.901830    3.275300    5.514930
  C     -3.785440    1.070880    3.311440
  N     -3.163880    1.243380    2.362630
  C     -4.806370   -1.563490    4.477760
  C     -5.103000   -2.512650    5.555420
  C     -4.587900   -3.767770    5.693460
  C     -3.680520   -4.355190    4.784250
  N     -2.903860   -4.858080    4.105910
  C     -4.835770   -4.598480    6.807360
  N     -5.006830   -5.311910    7.689220
  C     -4.576750   -1.837230    3.172280
  C     -4.763350   -3.115460    2.543460
  N     -5.709860   -3.932780    2.988340
  N     -5.901700   -5.111850    2.508010
  C     -5.253120   -5.598350    1.462580
  C     -4.322150   -4.760140    0.791870
  C     -4.031600   -3.490650    1.388120
  N     -3.105910   -2.815550    0.713250
  S     -2.676160   -3.683510   -0.567020
  N     -3.635010   -4.948010   -0.333250
  C     -5.520170   -6.961620    1.071300
  C     -4.539200   -7.785760    0.488400
  C     -4.834950   -9.136630    0.079070
  N     -3.964000   -9.776220   -0.715210
  C     -2.798210   -9.248010   -0.962870
  C     -2.400220   -8.036200   -0.291410
  N     -3.280210   -7.337200    0.366740
  C     -1.067180   -7.563760   -0.375080
  N      0.005630   -7.179420   -0.489790
  C     -1.933670   -9.867280   -1.898300
  N     -1.211760  -10.335660   -2.654140
  C     -6.056320   -9.768470    0.405070
  C     -7.033540   -8.943880    0.990700
  C     -6.772270   -7.552880    1.303880
  N     -7.844820   -6.955320    1.826810
  S     -9.027000   -8.018630    1.953660
  N     -8.277640   -9.294590    1.337570
  C     -6.275180  -11.170610    0.148080
  C     -7.519140  -11.701360   -0.150260
  C     -7.732420  -13.058270   -0.401370
  C     -6.728420  -14.013780   -0.350860
  C     -5.437580  -13.517780   -0.012130
  C     -5.213360  -12.113350    0.225020
  N     -3.945290  -11.978260    0.562860
  O     -3.415330  -13.193620    0.525320
  N     -4.287550  -14.132940    0.181360
  C     -6.949190  -15.401020   -0.595050
  C     -6.020370  -16.425720   -0.544970
  C     -6.595230  -17.664250   -0.825350
  C     -7.971770  -17.580810   -1.093690
  S     -8.559220  -15.986360   -1.001370
  C     -8.461830  -18.888820   -1.361090
  C     -7.397580  -19.793390   -1.260830
  C     -6.189260  -19.061190   -0.921150
  C     -4.941030  -19.573300   -0.726660
  C     -4.673430  -20.954190   -0.844020
  N     -4.455840  -22.075920   -0.937550
  C     -3.830820  -18.768080   -0.390940
  N     -2.918630  -18.131420   -0.115350
  C     -7.796750  -21.119730   -1.508530
  C     -9.129070  -21.192210   -1.785980
  S     -9.933730  -19.660340   -1.754980
  H     -6.235850    1.606910    6.909820
  H     -7.432710    0.826690    8.906330
  H     -7.618330   -1.569920    9.408330
  H     -6.595640   -3.248690    7.925790
  H     -4.287400   -1.043600    2.497470
  H     -8.362500  -11.032040   -0.205470
  H     -8.735090  -13.377630   -0.647030
  H     -4.986580  -16.247250   -0.310440
  H     -7.145310  -21.973900   -1.484750
  H     -9.704420  -22.067670   -2.012000

 Total Charge           Charge          ....    0
 Multiplicity           Mult            ....    1
 Number of Electrons    NEL             ....  496
 Basis Dimension        Dim             .... 1060

ORBITAL ENERGIES
----------------

  NO   OCC          E(Eh)            E(eV)
   0   2.0000     -89.054817     -2423.3048
   1   2.0000     -89.052178     -2423.2329
   2   2.0000     -88.996033     -2421.7052
   3   2.0000     -88.993082     -2421.6249
   4   2.0000     -19.363937      -526.9195
   5   2.0000     -14.488936      -394.2640
   6   2.0000     -14.485976      -394.1834
   7   2.0000     -14.464171      -393.5901
   8   2.0000     -14.462096      -393.5336
   9   2.0000     -14.462045      -393.5323
  10   2.0000     -14.461632      -393.5210
  11   2.0000     -14.461626      -393.5209
  12   2.0000     -14.460797      -393.4983
  13   2.0000     -14.457874      -393.4187
  14   2.0000     -14.455441      -393.3526
  15   2.0000     -14.431908      -392.7122
  16   2.0000     -14.430966      -392.6865
  17   2.0000     -14.429620      -392.6499
  18   2.0000     -14.429354      -392.6427
  19   2.0000     -14.428464      -392.6185
  20   2.0000     -14.428128      -392.6093
  21   2.0000     -14.427238      -392.5851
  22   2.0000     -14.426235      -392.5578
  23   2.0000     -10.383562      -282.5511
  24   2.0000     -10.380899      -282.4786
  25   2.0000     -10.366400      -282.0841
  26   2.0000     -10.362411      -281.9755
  27   2.0000     -10.358313      -281.8640
  28   2.0000     -10.357971      -281.8547
  29   2.0000     -10.357302      -281.8365
  30   2.0000     -10.354374      -281.7569
  31   2.0000     -10.353929      -281.7447
  32   2.0000     -10.353402      -281.7304
  33   2.0000     -10.353314      -281.7280
  34   2.0000     -10.352856      -281.7155
  35   2.0000     -10.352467      -281.7049
  36   2.0000     -10.351255      -281.6720
  37   2.0000     -10.348974      -281.6099
  38   2.0000     -10.348665      -281.6015
  39   2.0000     -10.340572      -281.3813
  40   2.0000     -10.336440      -281.2688
  41   2.0000     -10.336283      -281.2645
  42   2.0000     -10.334876      -281.2263
  43   2.0000     -10.334794      -281.2240
  44   2.0000     -10.333742      -281.1954
  45   2.0000     -10.332460      -281.1605
  46   2.0000     -10.331043      -281.1220
  47   2.0000     -10.331003      -281.1209
  48   2.0000     -10.330937      -281.1191
  49   2.0000     -10.330504      -281.1073
  50   2.0000     -10.329239      -281.0729
  51   2.0000     -10.329013      -281.0667
  52   2.0000     -10.327725      -281.0317
  53   2.0000     -10.327442      -281.0240
  54   2.0000     -10.325320      -280.9662
  55   2.0000     -10.324863      -280.9538
  56   2.0000     -10.321623      -280.8657
  57   2.0000     -10.321609      -280.8653
  58   2.0000     -10.321023      -280.8493
  59   2.0000     -10.320371      -280.8316
  60   2.0000     -10.318267      -280.7743
  61   2.0000     -10.311065      -280.5784
  62   2.0000     -10.308588      -280.5109
  63   2.0000     -10.308464      -280.5076
  64   2.0000     -10.307877      -280.4916
  65   2.0000     -10.307352      -280.4773
  66   2.0000     -10.306447      -280.4527
  67   2.0000     -10.306172      -280.4452
  68   2.0000     -10.306032      -280.4414
  69   2.0000     -10.304730      -280.4060
  70   2.0000     -10.302317      -280.3403
  71   2.0000      -8.146052      -221.6653
  72   2.0000      -8.143510      -221.5962
  73   2.0000      -8.090643      -220.1576
  74   2.0000      -8.088128      -220.0891
  75   2.0000      -6.116989      -166.4517
  76   2.0000      -6.114512      -166.3843
  77   2.0000      -6.109301      -166.2425
  78   2.0000      -6.109050      -166.2357
  79   2.0000      -6.106665      -166.1708
  80   2.0000      -6.106430      -166.1644
  81   2.0000      -6.059861      -164.8972
  82   2.0000      -6.057356      -164.8290
  83   2.0000      -6.055709      -164.7842
  84   2.0000      -6.053067      -164.7123
  85   2.0000      -6.052951      -164.7092
  86   2.0000      -6.050738      -164.6489
  87   2.0000      -1.319120       -35.8951
  88   2.0000      -1.157745       -31.5039
  89   2.0000      -1.151074       -31.3223
  90   2.0000      -1.136196       -30.9175
  91   2.0000      -1.125031       -30.6136
  92   2.0000      -1.051853       -28.6224
  93   2.0000      -1.047929       -28.5156
  94   2.0000      -1.044831       -28.4313
  95   2.0000      -1.025202       -27.8972
  96   2.0000      -1.023583       -27.8531
  97   2.0000      -1.021172       -27.7875
  98   2.0000      -1.018736       -27.7212
  99   2.0000      -1.014732       -27.6123
 100   2.0000      -1.014703       -27.6115
 101   2.0000      -1.009391       -27.4669
 102   2.0000      -1.007239       -27.4084
 103   2.0000      -1.006750       -27.3951
 104   2.0000      -1.004801       -27.3420
 105   2.0000      -1.003320       -27.3017
 106   2.0000      -1.002334       -27.2749
 107   2.0000      -0.996321       -27.1113
 108   2.0000      -0.985174       -26.8079
 109   2.0000      -0.970727       -26.4148
 110   2.0000      -0.959812       -26.1178
 111   2.0000      -0.952829       -25.9278
 112   2.0000      -0.947180       -25.7741
 113   2.0000      -0.936207       -25.4755
 114   2.0000      -0.931362       -25.3436
 115   2.0000      -0.919293       -25.0152
 116   2.0000      -0.910458       -24.7748
 117   2.0000      -0.903166       -24.5764
 118   2.0000      -0.900428       -24.5019
 119   2.0000      -0.885177       -24.0869
 120   2.0000      -0.873870       -23.7792
 121   2.0000      -0.873094       -23.7581
 122   2.0000      -0.862247       -23.4629
 123   2.0000      -0.856625       -23.3100
 124   2.0000      -0.839780       -22.8516
 125   2.0000      -0.823308       -22.4033
 126   2.0000      -0.811800       -22.0902
 127   2.0000      -0.799231       -21.7482
 128   2.0000      -0.797752       -21.7079
 129   2.0000      -0.785554       -21.3760
 130   2.0000      -0.781480       -21.2651
 131   2.0000      -0.778224       -21.1766
 132   2.0000      -0.763778       -20.7835
 133   2.0000      -0.758695       -20.6451
 134   2.0000      -0.752923       -20.4881
 135   2.0000      -0.737475       -20.0677
 136   2.0000      -0.728874       -19.8337
 137   2.0000      -0.723403       -19.6848
 138   2.0000      -0.720633       -19.6094
 139   2.0000      -0.711402       -19.3582
 140   2.0000      -0.705583       -19.1999
 141   2.0000      -0.703368       -19.1396
 142   2.0000      -0.696252       -18.9460
 143   2.0000      -0.684253       -18.6195
 144   2.0000      -0.683133       -18.5890
 145   2.0000      -0.675400       -18.3786
 146   2.0000      -0.673117       -18.3164
 147   2.0000      -0.664120       -18.0716
 148   2.0000      -0.662125       -18.0173
 149   2.0000      -0.655769       -17.8444
 150   2.0000      -0.649411       -17.6714
 151   2.0000      -0.645240       -17.5579
 152   2.0000      -0.638881       -17.3848
 153   2.0000      -0.633431       -17.2365
 154   2.0000      -0.627381       -17.0719
 155   2.0000      -0.618496       -16.8301
 156   2.0000      -0.617224       -16.7955
 157   2.0000      -0.615700       -16.7541
 158   2.0000      -0.608608       -16.5611
 159   2.0000      -0.598974       -16.2989
 160   2.0000      -0.595816       -16.2130
 161   2.0000      -0.592022       -16.1097
 162   2.0000      -0.588655       -16.0181
 163   2.0000      -0.587093       -15.9756
 164   2.0000      -0.580080       -15.7848
 165   2.0000      -0.576825       -15.6962
 166   2.0000      -0.575244       -15.6532
 167   2.0000      -0.564882       -15.3712
 168   2.0000      -0.562365       -15.3027
 169   2.0000      -0.555893       -15.1266
 170   2.0000      -0.553539       -15.0626
 171   2.0000      -0.549528       -14.9534
 172   2.0000      -0.547077       -14.8867
 173   2.0000      -0.545276       -14.8377
 174   2.0000      -0.541655       -14.7392
 175   2.0000      -0.529483       -14.4080
 176   2.0000      -0.526991       -14.3401
 177   2.0000      -0.523168       -14.2361
 178   2.0000      -0.522042       -14.2055
 179   2.0000      -0.514637       -14.0040
 180   2.0000      -0.510374       -13.8880
 181   2.0000      -0.509753       -13.8711
 182   2.0000      -0.501344       -13.6423
 183   2.0000      -0.500938       -13.6312
 184   2.0000      -0.500167       -13.6102
 185   2.0000      -0.497341       -13.5333
 186   2.0000      -0.494921       -13.4675
 187   2.0000      -0.492448       -13.4002
 188   2.0000      -0.489918       -13.3313
 189   2.0000      -0.488423       -13.2907
 190   2.0000      -0.484854       -13.1936
 191   2.0000      -0.481577       -13.1044
 192   2.0000      -0.474670       -12.9164
 193   2.0000      -0.474214       -12.9040
 194   2.0000      -0.471290       -12.8245
 195   2.0000      -0.466833       -12.7032
 196   2.0000      -0.462989       -12.5986
 197   2.0000      -0.460622       -12.5342
 198   2.0000      -0.460389       -12.5278
 199   2.0000      -0.459064       -12.4918
 200   2.0000      -0.457083       -12.4379
 201   2.0000      -0.456652       -12.4261
 202   2.0000      -0.455566       -12.3966
 203   2.0000      -0.453369       -12.3368
 204   2.0000      -0.453221       -12.3328
 205   2.0000      -0.452445       -12.3117
 206   2.0000      -0.450820       -12.2674
 207   2.0000      -0.447514       -12.1775
 208   2.0000      -0.445586       -12.1250
 209   2.0000      -0.443729       -12.0745
 210   2.0000      -0.443052       -12.0561
 211   2.0000      -0.440316       -11.9816
 212   2.0000      -0.439189       -11.9509
 213   2.0000      -0.438487       -11.9318
 214   2.0000      -0.437793       -11.9130
 215   2.0000      -0.437251       -11.8982
 216   2.0000      -0.435443       -11.8490
 217   2.0000      -0.434002       -11.8098
 218   2.0000      -0.431974       -11.7546
 219   2.0000      -0.426836       -11.6148
 220   2.0000      -0.425553       -11.5799
 221   2.0000      -0.422775       -11.5043
 222   2.0000      -0.419896       -11.4259
 223   2.0000      -0.418438       -11.3863
 224   2.0000      -0.417158       -11.3514
 225   2.0000      -0.414642       -11.2830
 226   2.0000      -0.412069       -11.2130
 227   2.0000      -0.407766       -11.0959
 228   2.0000      -0.404685       -11.0121
 229   2.0000      -0.396018       -10.7762
 230   2.0000      -0.392936       -10.6923
 231   2.0000      -0.389973       -10.6117
 232   2.0000      -0.385538       -10.4910
 233   2.0000      -0.381099       -10.3702
 234   2.0000      -0.379884       -10.3372
 235   2.0000      -0.376078       -10.2336
 236   2.0000      -0.369706       -10.0602
 237   2.0000      -0.353977        -9.6322
 238   2.0000      -0.351738        -9.5713
 239   2.0000      -0.350659        -9.5419
 240   2.0000      -0.342643        -9.3238
 241   2.0000      -0.341332        -9.2881
 242   2.0000      -0.335153        -9.1200
 243   2.0000      -0.323746        -8.8096
 244   2.0000      -0.320017        -8.7081
 245   2.0000      -0.303740        -8.2652
 246   2.0000      -0.296854        -8.0778
 247   2.0000      -0.264013        -7.1841
 248   0.0000      -0.135540        -3.6882
 249   0.0000      -0.110512        -3.0072
 250   0.0000      -0.105390        -2.8678
 251   0.0000      -0.092710        -2.5228
 252   0.0000      -0.077508        -2.1091

MULLIKEN ATOMIC CHARGES
-----------------------
   0 C :   -0.033110
   1 C :    0.048382
   2 C :    0.049752
   3 C :   -0.028049
   4 C :    0.008160
   5 C :    0.015088
   6 C :    0.274967
   7 C :   -0.327399
   8 C :   -0.189567
   9 N :    0.169064
  10 C :   -0.187295
  11 N :    0.175743
  12 C :   -0.033210
  13 C :    0.255389
  14 C :   -0.291278
  15 C :   -0.167045
  16 N :    0.165427
  17 C :   -0.196424
  18 N :    0.170019
  19 C :    0.017180
  20 C :   -0.109459
  21 N :   -0.048416
  22 N :   -0.017727
  23 C :   -0.125538
  24 C :    0.099170
  25 C :    0.075783
  26 N :   -0.243093
  27 S :    0.566719
  28 N :   -0.247531
  29 C :    0.085286
  30 C :   -0.034972
  31 C :   -0.104362
  32 N :    0.057288
  33 C :   -0.119813
  34 C :   -0.125138
  35 N :    0.062888
  36 C :   -0.196401
  37 N :    0.225865
  38 C :   -0.196617
  39 N :    0.227425
  40 C :    0.146868
  41 C :   -0.013412
  42 C :   -0.003763
  43 N :   -0.223468
  44 S :    0.554006
  45 N :   -0.289252
  46 C :   -0.019443
  47 C :    0.007994
  48 C :   -0.080239
  49 C :    0.175570
  50 C :   -0.058041
  51 C :   -0.014029
  52 N :    0.052543
  53 O :   -0.079655
  54 N :    0.050781
  55 C :   -0.127163
  56 C :   -0.048476
  57 C :    0.020481
  58 C :   -0.082060
  59 S :    0.166569
  60 C :   -0.120355
  61 C :   -0.025908
  62 C :    0.300150
  63 C :   -0.294824
  64 C :   -0.190936
  65 N :    0.175169
  66 C :   -0.191775
  67 N :    0.191090
  68 C :    0.036422
  69 C :   -0.077698
  70 S :    0.184298
  71 H :    0.009212
  72 H :    0.007456
  73 H :    0.007708
  74 H :    0.011665
  75 H :    0.039144
  76 H :   -0.004599
  77 H :   -0.005410
  78 H :    0.031796
  79 H :    0.015366
  80 H :    0.039067
Sum of atomic charges:   -0.0000000

LOEWDIN ATOMIC CHARGES
----------------------
   0 C :    0.006192
   1 C :    0.004281
   2 C :    0.008473
   3 C :    0.005430
   4 C :   -0.005362
   5 C :   -0.013285
   6 C :    0.076057
   7 C :   -0.119486
   8 C :   -0.018321
   9 N :   -0.037014
  10 C :   -0.024635
  11 N :   -0.029246
  12 C :   -0.009900
  13 C :    0.077864
  14 C :   -0.107497
  15 C :   -0.015857
  16 N :   -0.044013
  17 C :   -0.017142
  18 N :   -0.038678
  19 C :    0.052074
  20 C :   -0.018225
  21 N :   -0.036714
  22 N :   -0.025685
  23 C :    0.013994
  24 C :   -0.049400
  25 C :   -0.051256
  26 N :   -0.269454
  27 S :    0.702597
  28 N :   -0.260191
  29 C :   -0.030741
  30 C :    0.008847
  31 C :   -0.007324
  32 N :    0.015689
  33 C :   -0.022623
  34 C :   -0.017117
  35 N :    0.014909
  36 C :   -0.035091
  37 N :   -0.003152
  38 C :   -0.035180
  39 N :   -0.003043
  40 C :    0.006982
  41 C :   -0.041614
  42 C :   -0.031071
  43 N :   -0.258010
  44 S :    0.693199
  45 N :   -0.290413
  46 C :   -0.034390
  47 C :    0.027331
  48 C :   -0.031332
  49 C :   -0.015926
  50 C :   -0.047764
  51 C :   -0.040604
  52 N :   -0.019737
  53 O :    0.090065
  54 N :   -0.016437
  55 C :   -0.171992
  56 C :   -0.005336
  57 C :   -0.072488
  58 C :   -0.166118
  59 S :    0.476130
  60 C :   -0.190852
  61 C :   -0.067002
  62 C :    0.078027
  63 C :   -0.095185
  64 C :   -0.015981
  65 N :   -0.030550
  66 C :   -0.022074
  67 N :   -0.017816
  68 C :   -0.034084
  69 C :   -0.171783
  70 S :    0.479466
  71 H :    0.042261
  72 H :    0.038990
  73 H :    0.039026
  74 H :    0.042840
  75 H :    0.053398
  76 H :    0.036633
  77 H :    0.026896
  78 H :    0.043737
  79 H :    0.043702
  80 H :    0.029103

  Mayer bond orders larger than 0.100000
B(  0-C ,  1-C ) :   1.3775 B(  0-C ,  5-C ) :   1.3746 B(  0-C , 71-H ) :   0.9852
B(  1-C ,  2-C ) :   1.3698 B(  1-C , 72-H ) :   0.9864 B(  2-C ,  3-C ) :   1.3707
B(  2-C , 73-H ) :   0.9865 B(  3-C ,  4-C ) :   1.3793 B(  3-C , 74-H ) :   0.9872
B(  4-C ,  5-C ) :   1.3036 B(  4-C , 13-C ) :   1.0158 B(  5-C ,  6-C ) :   1.0102
B(  6-C ,  7-C ) :   1.6728 B(  6-C , 12-C ) :   1.0175 B(  7-C ,  8-C ) :   1.1429
B(  7-C , 10-C ) :   1.1301 B(  8-C ,  9-N ) :   2.9838 B( 10-C , 11-N ) :   2.9910
B( 12-C , 13-C ) :   0.9817 B( 12-C , 19-C ) :   1.7211 B( 13-C , 14-C ) :   1.7032
B( 14-C , 15-C ) :   1.1490 B( 14-C , 17-C ) :   1.1436 B( 15-C , 16-N ) :   2.9811
B( 17-C , 18-N ) :   2.9974 B( 19-C , 20-C ) :   1.0914 B( 19-C , 75-H ) :   0.9326
B( 20-C , 21-N ) :   1.6046 B( 20-C , 23-C ) :   0.1207 B( 20-C , 25-C ) :   1.1120
B( 21-N , 22-N ) :   1.2340 B( 22-N , 23-C ) :   1.7079 B( 23-C , 24-C ) :   1.1289
B( 23-C , 29-C ) :   1.0329 B( 24-C , 25-C ) :   1.2037 B( 24-C , 28-N ) :   1.5112
B( 25-C , 26-N ) :   1.5529 B( 26-N , 27-S ) :   1.2869 B( 26-N , 28-N ) :   0.1473
B( 27-S , 28-N ) :   1.3038 B( 29-C , 30-C ) :   1.3360 B( 29-C , 40-C ) :   0.1352
B( 29-C , 42-C ) :   1.2439 B( 30-C , 31-C ) :   1.1000 B( 30-C , 35-N ) :   1.4019
B( 31-C , 32-N ) :   1.4211 B( 31-C , 40-C ) :   1.2853 B( 32-N , 33-C ) :   1.7351
B( 33-C , 34-C ) :   1.1612 B( 33-C , 38-C ) :   1.1443 B( 34-C , 35-N ) :   1.7427
B( 34-C , 36-C ) :   1.1418 B( 36-C , 37-N ) :   3.0513 B( 38-C , 39-N ) :   3.0510
B( 40-C , 41-C ) :   1.2585 B( 40-C , 46-C ) :   1.0253 B( 41-C , 42-C ) :   1.1001
B( 41-C , 45-N ) :   1.4893 B( 42-C , 43-N ) :   1.5219 B( 43-N , 44-S ) :   1.3089
B( 43-N , 45-N ) :   0.1557 B( 44-S , 45-N ) :   1.2874 B( 46-C , 47-C ) :   1.4951
B( 46-C , 49-C ) :   0.1071 B( 46-C , 51-C ) :   1.1751 B( 47-C , 48-C ) :   1.2220
B( 47-C , 76-H ) :   0.9830 B( 48-C , 49-C ) :   1.4488 B( 48-C , 77-H ) :   0.9882
B( 49-C , 50-C ) :   1.1466 B( 49-C , 55-C ) :   1.1436 B( 50-C , 51-C ) :   1.1580
B( 50-C , 54-N ) :   1.5917 B( 51-C , 52-N ) :   1.5711 B( 52-N , 53-O ) :   1.0748
B( 52-N , 54-N ) :   0.1830 B( 53-O , 54-N ) :   1.0732 B( 55-C , 56-C ) :   1.4757
B( 55-C , 59-S ) :   1.0798 B( 56-C , 57-C ) :   1.2555 B( 56-C , 78-H ) :   0.9817
B( 57-C , 58-C ) :   1.4438 B( 57-C , 62-C ) :   0.9949 B( 58-C , 59-S ) :   1.1404
B( 58-C , 60-C ) :   1.1863 B( 60-C , 61-C ) :   1.4549 B( 60-C , 70-S ) :   1.1290
B( 61-C , 62-C ) :   1.0110 B( 61-C , 68-C ) :   1.2828 B( 62-C , 63-C ) :   1.7170
B( 63-C , 64-C ) :   1.1311 B( 63-C , 66-C ) :   1.1340 B( 64-C , 65-N ) :   3.0004
B( 66-C , 67-N ) :   2.9936 B( 68-C , 69-C ) :   1.5397 B( 68-C , 79-H ) :   0.9964
B( 69-C , 70-S ) :   1.1578 B( 69-C , 80-H ) :   0.9644

-----------------------------------------------------------------------------
         ABSORPTION SPECTRUM VIA TRANSITION ELECTRIC DIPOLE MOMENTS
-----------------------------------------------------------------------------
State   Energy  Wavelength   fosc         T2         TX        TY        TZ
        (cm-1)    (nm)                  (au**2)     (au)      (au)      (au)
-----------------------------------------------------------------------------
   0   13377.5    747.5   0.954416988  23.48753  -0.87808  -4.63120  -1.12627
   1   15039.4    664.9   0.005699954   0.12477   0.23137   0.23473   0.12707
   2   15937.4    627.5   0.001492385   0.03083   0.13216  -0.05218  -0.10314
   3   19758.3    506.1   0.143971390   2.39885  -0.11081  -1.09568  -1.08906
   4   20692.6    483.3   0.010031282   0.15959  -0.07016   0.14148   0.36695
   5   21134.0    473.2   0.043273521   0.67409  -0.04113  -0.79433  -0.20358
   6   23470.1    426.1   0.332460307   4.66337   0.41556   2.11006   0.19576
   7   23997.6    416.7   0.161134532   2.21053   0.10263   1.46237   0.24793
   8   24220.5    412.9   0.011239091   0.15277   0.18079   0.26393   0.22455
   9   26474.7    377.7   0.056007136   0.69645   0.66930   0.24840  -0.43219
  10   26566.4    376.4   0.096921087   1.20105  -0.09770   1.01655  -0.39767
  11   27128.8    368.6   0.020035032   0.24313   0.17422  -0.45329   0.08548
  12   27500.9    363.6   0.054504695   0.65247   0.10830  -0.59573  -0.53465
  13   27814.9    359.5   0.098291488   1.16336   0.83910  -0.24358  -0.63241
  14   27999.8    357.1   0.022347050   0.26275  -0.47094  -0.00749  -0.20226
  15   28375.3    352.4   0.078937405   0.91584  -0.22920  -0.78203  -0.50173
  16   28780.0    347.5   0.009177506   0.10498  -0.23680   0.22028   0.01957
  17   29574.8    338.1   0.032545234   0.36228   0.37743   0.12058   0.45308
  18   29731.7    336.3   0.034110269   0.37769  -0.37979  -0.38080  -0.29740
  19   30141.2    331.8   0.162025150   1.76969   0.83861  -0.95607  -0.39032
  20   30298.0    330.1   0.010454435   0.11360   0.29929  -0.08580   0.12906
  21   31010.4    322.5   0.039969599   0.42432   0.14049  -0.13472  -0.62164
  22   31308.7    319.4   0.003856866   0.04056  -0.17723   0.04819   0.08261
  23   31438.0    318.1   0.072675503   0.76104   0.78888  -0.37185  -0.02104
  24   31860.6    313.9   0.152468391   1.57544  -0.46363   1.03277  -0.54210
  25   32010.2    312.4   0.278388263   2.86311   0.87913   1.42689  -0.23288
  26   32465.5    308.0   0.391422842   3.96916  -1.90913   0.55936  -0.10715
  27   32523.2    307.5   0.069950496   0.70806  -0.45003  -0.08230  -0.70623
  28   33021.5    302.8   0.234432843   2.33721  -1.42336   0.35887   0.42717
  29   33314.0    300.2   0.027355613   0.27033  -0.24513  -0.34742   0.29923
  30   33794.7    295.9   0.238138161   2.31983   0.39360  -1.46507  -0.13597
  31   33970.5    294.4   0.155904372   1.51089  -0.18934   1.21451  -0.00260
  32   34538.5    289.5   0.091438005   0.87156   0.37806   0.23542  -0.82049
  33   34653.9    288.6   0.004964485   0.04716   0.00368   0.07716  -0.20297
  34   34972.9    285.9   0.073885583   0.69551   0.47842   0.41099  -0.54562
  35   35270.0    283.5   0.042652126   0.39812   0.11267   0.27954  -0.55433
  36   35453.6    282.1   0.028500097   0.26464  -0.41856   0.03514   0.29702
  37   35702.2    280.1   0.098119456   0.90476   0.80813  -0.37419  -0.33417
  38   35924.3    278.4   0.158365940   1.45127  -0.51911   0.70354   0.82875
  39   36236.2    276.0   0.032899223   0.29889   0.20230   0.21825  -0.45862
  40   36346.3    275.1   0.229609425   2.07972  -0.99067   0.17028   1.03407
  41   36475.1    274.2   0.104503211   0.94321   0.24596   0.93887   0.03510
  42   36625.2    273.0   0.024503247   0.22025  -0.05409   0.20204   0.42013
  43   36853.8    271.3   0.052279390   0.46701  -0.59975   0.25102   0.21046
  44   36975.5    270.4   0.007355718   0.06549  -0.12439  -0.11261  -0.19323
  45   37510.5    266.6   0.001663046   0.01460  -0.10849  -0.02285   0.04800
  46   37768.7    264.8   0.107591678   0.93783  -0.13687   0.58933   0.75617
  47   38051.1    262.8   0.084651403   0.73239   0.32962   0.78567  -0.08044
  48   38066.8    262.7   0.141090732   1.22019  -0.64294   0.87507   0.20266
  49   38237.5    261.5   0.029826221   0.25679  -0.16563  -0.31931   0.35693
  50   38318.2    261.0   0.013075325   0.11234  -0.31833   0.10340  -0.01761
  51   38596.7    259.1   0.118115156   1.00747  -0.04206   0.94909   0.32392
  52   38935.0    256.8   0.016747794   0.14161   0.25698   0.21844  -0.16690
  53   39008.2    256.4   0.132958130   1.12211   0.91886  -0.12070  -0.51306
  54   39166.9    255.3   0.045472214   0.38221   0.49652   0.36788   0.01864
  55   39245.7    254.8   0.201712284   1.69206  -1.16635   0.31235   0.48388
  56   39508.5    253.1   0.147315993   1.22754   0.70897   0.84324  -0.11768
  57   39592.0    252.6   0.016905341   0.14057  -0.07965  -0.32761  -0.16401
  58   39781.7    251.4   0.096169472   0.79585   0.70351  -0.06302  -0.54493
  59   40098.9    249.4   0.033625291   0.27606  -0.51693  -0.08838   0.03218
  60   40148.1    249.1   0.057268463   0.46960   0.10302  -0.54350  -0.40447

FINAL SINGLE POINT ENERGY     -4484.141114658731

DIPOLE MOMENT
-------------
                                X             Y             Z
Electronic contribution:      9.26097      -2.70546     -15.95388
Nuclear contribution   :    -15.60582       2.26623      15.94283
                        -----------------------------------------
Total Dipole Moment    :     -6.34484      -0.43922      -0.01105
                        -----------------------------------------
Magnitude (a.u.)       :      6.36004
Magnitude (Debye)      :     16.16593

Rotational constants in cm-1:     0.002287     0.000317     0.000298
Rotational constants in MHz :    68.563089     9.496931     8.938180

                             ****ORCA TERMINATED NORMALLY****
TOTAL RUN TIME: 0 days 0 hours 8 minutes 11 seconds 979 msec
