                         Program Version 4.2.0 -  RELEASE  -
|  1> # ORCA input file
|  2> # SCF done       -213.730589889958          0.000778916571
|  3> ! CAM-B3LYP def2-SVP def2/J RIJCOSX Grid4 TightSCF
|  4> %maxcore 5000
|  5> %tddft
|  6>     Mode sTDDFT
|  7>     Ethresh 5.0
|  8>     maxcore 5000
|  9> end
| 10>
| 11> %pal
| 12>   nprocs 6
| 13>   end
| 14> * xyz 0 1
| 15>    C       -8.29104         2.61283         4.13095
| 16>    C       -9.03588         2.76149         5.29115
| 17>    C       -9.27635         1.68334         6.13123
| 18>    C       -8.77117         0.42514         5.83940
| 19>    C       -8.02353         0.26527         4.68475
| 20>    C       -7.78542         1.35922         3.82254
| 21>    C       -7.00189         0.90014         2.68430
| 22>    C       -6.45798         1.69616         1.71389
| 23>    C       -6.58313         3.10283         1.68468
| 24>    N       -6.64190         4.24528         1.59539
| 25>    C       -5.66352         1.25955         0.63157
| 26>    N       -5.00427         0.98820        -0.26839
| 27>    C       -6.91564        -0.55709         2.79365
| 28>    C       -7.35783        -0.90675         4.13770
| 29>    C       -6.99921        -2.01796         4.85126
| 30>    C       -6.14001        -3.02379         4.36812
| 31>    N       -5.43154        -3.85392         4.01192
| 32>    C       -7.38079        -2.25188         6.18977
| 33>    N       -7.66077        -2.49814         7.27465
| 34>    C       -6.57309        -1.36625         1.74801
| 35>    C       -6.79714        -2.74945         1.55604
| 36>    C       -7.74123        -3.61031         2.10153
| 37>    F       -8.65928        -3.21425         2.98971
| 38>    C       -7.69559        -4.90125         1.57836
| 39>    C       -6.69317        -5.04677         0.60825
| 40>    S       -5.84192        -3.57884         0.33773
| 41>    C       -6.65682        -6.34388         0.09040
| 42>    C       -7.62954        -7.16760         0.66742
| 43>    S       -8.59912        -6.36083         1.86334
| 44>    C       -7.61741        -8.46013         0.12790
| 45>    F       -8.45936        -9.42544         0.51075
| 46>    C       -6.65902        -8.64244        -0.85010
| 47>    S       -5.73238        -7.17875        -1.10454
| 48>    C       -6.40753        -9.80104        -1.63802
| 49>    C       -5.45682        -9.92465        -2.61611
| 50>    C       -5.49451       -11.17493        -3.26905
| 51>    C       -6.50261       -12.00875        -2.75322
| 52>    S       -7.38152       -11.24817        -1.46289
| 53>    C       -6.77341       -13.28465        -3.23687
| 54>    O       -7.77776       -13.91815        -2.58323
| 55>    C       -8.03725       -15.29354        -2.73399
| 56>    C       -6.00395       -13.71301        -4.33542
| 57>    C       -4.96143       -12.86960        -4.84705
| 58>    C       -4.67284       -11.61817        -4.33029
| 59>    O       -3.71980       -10.73082        -4.70329
| 60>    C       -2.76569       -11.05340        -5.68790
| 61>    S       -4.18110       -13.62546        -6.22696
| 62>    C       -5.25149       -14.99893        -6.14011
| 63>    C       -6.12933       -14.90199        -5.09820
| 64>    C       -5.16664       -16.02510        -7.12454
| 65>    C       -5.94710       -17.15931        -7.25261
| 66>    F       -6.92005       -17.48228        -6.38846
| 67>    C       -5.63497       -17.92996        -8.37779
| 68>    C       -4.58933       -17.37629        -9.12545
| 69>    S       -4.00085       -15.91463        -8.42350
| 70>    C       -4.30226       -18.13144       -10.26528
| 71>    C       -5.13609       -19.25392       -10.37019
| 72>    S       -6.27670       -19.39344        -9.06343
| 73>    C       -4.86036       -20.01336       -11.50573
| 74>    F       -5.57418       -21.08909       -11.85495
| 75>    C       -3.82921       -19.50419       -12.28496
| 76>    S       -3.20718       -18.01848       -11.58477
| 77>    C       -3.30546       -19.91865       -13.53175
| 78>    C       -3.35608       -21.13693       -14.14678
| 79>    C       -3.14704       -21.31711       -15.58467
| 80>    C       -2.54739       -20.44780       -16.45395
| 81>    C       -1.96990       -19.20460       -16.11601
| 82>    N       -1.47555       -18.18663       -15.92171
| 83>    C       -2.37949       -20.70131       -17.83337
| 84>    N       -2.20765       -20.84007       -18.95934
| 85>    C       -3.69855       -22.62055       -15.92687
| 86>    C       -4.06745       -23.28743       -14.73683
| 87>    C       -4.64444       -24.54551       -14.78121
| 88>    C       -4.84730       -25.13652       -16.01938
| 89>    C       -4.47647       -24.48822       -17.18909
| 90>    C       -3.90038       -23.22720       -17.15711
| 91>    C       -3.71712       -22.44154       -13.60645
| 92>    C       -3.52146       -22.87572       -12.32361
| 93>    C       -3.80106       -24.18753       -11.88439
| 94>    N       -4.01325       -25.23481       -11.46722
| 95>    C       -2.94441       -22.09303       -11.30498
| 96>    N       -2.46497       -21.48717       -10.45584
| 97>    H       -8.12198         3.45970         3.48668
| 98>    H       -9.43792         3.73192         5.53887
| 99>    H       -9.86673         1.82256         7.02383
|100>    H       -8.97344        -0.40739         6.49324
|101>    H       -6.10858        -0.89067         0.89375
|102>    H       -4.76097        -9.14691        -2.87288
|103>    H       -8.68657       -15.55209        -1.89757
|104>    H       -7.12214       -15.88798        -2.67593
|105>    H       -8.56776       -15.50321        -3.66739
|106>    H       -2.08778       -10.20119        -5.71554
|107>    H       -3.22299       -11.17883        -6.67267
|108>    H       -2.20189       -11.95254        -5.42711
|109>    H       -6.86097       -15.66284        -4.91715
|110>    H       -2.84930       -19.10964       -14.08774
|111>    H       -4.94599       -25.05344       -13.87972
|112>    H       -5.30247       -26.11366       -16.07114
|113>    H       -4.64244       -24.96797       -18.14146
|114>    H       -3.62685       -22.73596       -18.07620
|115> *
|116>
|117>                          ****END OF INPUT****

CARTESIAN COORDINATES (ANGSTROEM)
---------------------------------
  C     -8.291040    2.612830    4.130950
  C     -9.035880    2.761490    5.291150
  C     -9.276350    1.683340    6.131230
  C     -8.771170    0.425140    5.839400
  C     -8.023530    0.265270    4.684750
  C     -7.785420    1.359220    3.822540
  C     -7.001890    0.900140    2.684300
  C     -6.457980    1.696160    1.713890
  C     -6.583130    3.102830    1.684680
  N     -6.641900    4.245280    1.595390
  C     -5.663520    1.259550    0.631570
  N     -5.004270    0.988200   -0.268390
  C     -6.915640   -0.557090    2.793650
  C     -7.357830   -0.906750    4.137700
  C     -6.999210   -2.017960    4.851260
  C     -6.140010   -3.023790    4.368120
  N     -5.431540   -3.853920    4.011920
  C     -7.380790   -2.251880    6.189770
  N     -7.660770   -2.498140    7.274650
  C     -6.573090   -1.366250    1.748010
  C     -6.797140   -2.749450    1.556040
  C     -7.741230   -3.610310    2.101530
  F     -8.659280   -3.214250    2.989710
  C     -7.695590   -4.901250    1.578360
  C     -6.693170   -5.046770    0.608250
  S     -5.841920   -3.578840    0.337730
  C     -6.656820   -6.343880    0.090400
  C     -7.629540   -7.167600    0.667420
  S     -8.599120   -6.360830    1.863340
  C     -7.617410   -8.460130    0.127900
  F     -8.459360   -9.425440    0.510750
  C     -6.659020   -8.642440   -0.850100
  S     -5.732380   -7.178750   -1.104540
  C     -6.407530   -9.801040   -1.638020
  C     -5.456820   -9.924650   -2.616110
  C     -5.494510  -11.174930   -3.269050
  C     -6.502610  -12.008750   -2.753220
  S     -7.381520  -11.248170   -1.462890
  C     -6.773410  -13.284650   -3.236870
  O     -7.777760  -13.918150   -2.583230
  C     -8.037250  -15.293540   -2.733990
  C     -6.003950  -13.713010   -4.335420
  C     -4.961430  -12.869600   -4.847050
  C     -4.672840  -11.618170   -4.330290
  O     -3.719800  -10.730820   -4.703290
  C     -2.765690  -11.053400   -5.687900
  S     -4.181100  -13.625460   -6.226960
  C     -5.251490  -14.998930   -6.140110
  C     -6.129330  -14.901990   -5.098200
  C     -5.166640  -16.025100   -7.124540
  C     -5.947100  -17.159310   -7.252610
  F     -6.920050  -17.482280   -6.388460
  C     -5.634970  -17.929960   -8.377790
  C     -4.589330  -17.376290   -9.125450
  S     -4.000850  -15.914630   -8.423500
  C     -4.302260  -18.131440  -10.265280
  C     -5.136090  -19.253920  -10.370190
  S     -6.276700  -19.393440   -9.063430
  C     -4.860360  -20.013360  -11.505730
  F     -5.574180  -21.089090  -11.854950
  C     -3.829210  -19.504190  -12.284960
  S     -3.207180  -18.018480  -11.584770
  C     -3.305460  -19.918650  -13.531750
  C     -3.356080  -21.136930  -14.146780
  C     -3.147040  -21.317110  -15.584670
  C     -2.547390  -20.447800  -16.453950
  C     -1.969900  -19.204600  -16.116010
  N     -1.475550  -18.186630  -15.921710
  C     -2.379490  -20.701310  -17.833370
  N     -2.207650  -20.840070  -18.959340
  C     -3.698550  -22.620550  -15.926870
  C     -4.067450  -23.287430  -14.736830
  C     -4.644440  -24.545510  -14.781210
  C     -4.847300  -25.136520  -16.019380
  C     -4.476470  -24.488220  -17.189090
  C     -3.900380  -23.227200  -17.157110
  C     -3.717120  -22.441540  -13.606450
  C     -3.521460  -22.875720  -12.323610
  C     -3.801060  -24.187530  -11.884390
  N     -4.013250  -25.234810  -11.467220
  C     -2.944410  -22.093030  -11.304980
  N     -2.464970  -21.487170  -10.455840
  H     -8.121980    3.459700    3.486680
  H     -9.437920    3.731920    5.538870
  H     -9.866730    1.822560    7.023830
  H     -8.973440   -0.407390    6.493240
  H     -6.108580   -0.890670    0.893750
  H     -4.760970   -9.146910   -2.872880
  H     -8.686570  -15.552090   -1.897570
  H     -7.122140  -15.887980   -2.675930
  H     -8.567760  -15.503210   -3.667390
  H     -2.087780  -10.201190   -5.715540
  H     -3.222990  -11.178830   -6.672670
  H     -2.201890  -11.952540   -5.427110
  H     -6.860970  -15.662840   -4.917150
  H     -2.849300  -19.109640  -14.087740
  H     -4.945990  -25.053440  -13.879720
  H     -5.302470  -26.113660  -16.071140
  H     -4.642440  -24.967970  -18.141460
  H     -3.626850  -22.735960  -18.076200

 Total Charge           Charge          ....    0
 Multiplicity           Mult            ....    1
 Number of Electrons    NEL             ....  614
 Basis Dimension        Dim             .... 1270

ORBITAL ENERGIES
----------------

  NO   OCC          E(Eh)            E(eV)
   0   2.0000     -88.991040     -2421.5693
   1   2.0000     -88.990596     -2421.5572
   2   2.0000     -88.990299     -2421.5491
   3   2.0000     -88.987711     -2421.4787
   4   2.0000     -88.986657     -2421.4500
   5   2.0000     -88.984085     -2421.3801
   6   2.0000     -88.962847     -2420.8021
   7   2.0000     -88.955784     -2420.6099
   8   2.0000     -24.830141      -675.6625
   9   2.0000     -24.827517      -675.5911
  10   2.0000     -24.817268      -675.3122
  11   2.0000     -24.809752      -675.1077
  12   2.0000     -19.257596      -524.0258
  13   2.0000     -19.256993      -524.0094
  14   2.0000     -14.428383      -392.6163
  15   2.0000     -14.426596      -392.5676
  16   2.0000     -14.426322      -392.5602
  17   2.0000     -14.424168      -392.5016
  18   2.0000     -14.424157      -392.5013
  19   2.0000     -14.423902      -392.4943
  20   2.0000     -14.421935      -392.4408
  21   2.0000     -14.421899      -392.4398
  22   2.0000     -10.404230      -283.1135
  23   2.0000     -10.401556      -283.0407
  24   2.0000     -10.388745      -282.6921
  25   2.0000     -10.383556      -282.5509
  26   2.0000     -10.355748      -281.7942
  27   2.0000     -10.355096      -281.7765
  28   2.0000     -10.353578      -281.7352
  29   2.0000     -10.353554      -281.7345
  30   2.0000     -10.352721      -281.7119
  31   2.0000     -10.351441      -281.6770
  32   2.0000     -10.349504      -281.6243
  33   2.0000     -10.347200      -281.5616
  34   2.0000     -10.346988      -281.5559
  35   2.0000     -10.346736      -281.5490
  36   2.0000     -10.345345      -281.5112
  37   2.0000     -10.341936      -281.4184
  38   2.0000     -10.338811      -281.3333
  39   2.0000     -10.338283      -281.3190
  40   2.0000     -10.337788      -281.3055
  41   2.0000     -10.336956      -281.2829
  42   2.0000     -10.336523      -281.2711
  43   2.0000     -10.335853      -281.2529
  44   2.0000     -10.334939      -281.2280
  45   2.0000     -10.334205      -281.2080
  46   2.0000     -10.333728      -281.1950
  47   2.0000     -10.332847      -281.1711
  48   2.0000     -10.332606      -281.1645
  49   2.0000     -10.332176      -281.1528
  50   2.0000     -10.331725      -281.1405
  51   2.0000     -10.330865      -281.1171
  52   2.0000     -10.330332      -281.1026
  53   2.0000     -10.328326      -281.0480
  54   2.0000     -10.326979      -281.0114
  55   2.0000     -10.326411      -280.9959
  56   2.0000     -10.326402      -280.9957
  57   2.0000     -10.326246      -280.9914
  58   2.0000     -10.324551      -280.9453
  59   2.0000     -10.324502      -280.9440
  60   2.0000     -10.324394      -280.9410
  61   2.0000     -10.324092      -280.9328
  62   2.0000     -10.323823      -280.9255
  63   2.0000     -10.319135      -280.7979
  64   2.0000     -10.315999      -280.7126
  65   2.0000     -10.315686      -280.7041
  66   2.0000     -10.314947      -280.6840
  67   2.0000     -10.313904      -280.6556
  68   2.0000     -10.313589      -280.6470
  69   2.0000     -10.304158      -280.3904
  70   2.0000     -10.303666      -280.3770
  71   2.0000     -10.302903      -280.3562
  72   2.0000     -10.302143      -280.3356
  73   2.0000     -10.301777      -280.3256
  74   2.0000     -10.301593      -280.3206
  75   2.0000     -10.300967      -280.3036
  76   2.0000     -10.300578      -280.2930
  77   2.0000     -10.299883      -280.2741
  78   2.0000     -10.299806      -280.2720
  79   2.0000     -10.291962      -280.0585
  80   2.0000     -10.286817      -279.9185
  81   2.0000     -10.283690      -279.8334
  82   2.0000      -8.086066      -220.0330
  83   2.0000      -8.085225      -220.0102
  84   2.0000      -8.084966      -220.0031
  85   2.0000      -8.082824      -219.9448
  86   2.0000      -8.081116      -219.8984
  87   2.0000      -8.078960      -219.8397
  88   2.0000      -8.058201      -219.2748
  89   2.0000      -8.050696      -219.0706
  90   2.0000      -6.055731      -164.7848
  91   2.0000      -6.054953      -164.7636
  92   2.0000      -6.054932      -164.7631
  93   2.0000      -6.052497      -164.6968
  94   2.0000      -6.051711      -164.6754
  95   2.0000      -6.051083      -164.6583
  96   2.0000      -6.050860      -164.6523
  97   2.0000      -6.050843      -164.6518
  98   2.0000      -6.048706      -164.5937
  99   2.0000      -6.048468      -164.5872
 100   2.0000      -6.047261      -164.5543
 101   2.0000      -6.046989      -164.5469
 102   2.0000      -6.046450      -164.5323
 103   2.0000      -6.045715      -164.5123
 104   2.0000      -6.044656      -164.4835
 105   2.0000      -6.043979      -164.4650
 106   2.0000      -6.041862      -164.4074
 107   2.0000      -6.040064      -164.3585
 108   2.0000      -6.028189      -164.0353
 109   2.0000      -6.023872      -163.9179
 110   2.0000      -6.020474      -163.8254
 111   2.0000      -6.019031      -163.7862
 112   2.0000      -6.016180      -163.7086
 113   2.0000      -6.011891      -163.5919
 114   2.0000      -1.343402       -36.5558
 115   2.0000      -1.340712       -36.4826
 116   2.0000      -1.329705       -36.1831
 117   2.0000      -1.324027       -36.0286
 118   2.0000      -1.162171       -31.6243
 119   2.0000      -1.160908       -31.5899
 120   2.0000      -1.051489       -28.6125
 121   2.0000      -1.047532       -28.5048
 122   2.0000      -1.040332       -28.3089
 123   2.0000      -1.037999       -28.2454
 124   2.0000      -1.023182       -27.8422
 125   2.0000      -1.021016       -27.7833
 126   2.0000      -1.015296       -27.6276
 127   2.0000      -1.012309       -27.5463
 128   2.0000      -1.010465       -27.4961
 129   2.0000      -1.009943       -27.4819
 130   2.0000      -1.004163       -27.3247
 131   2.0000      -1.003737       -27.3131
 132   2.0000      -1.002216       -27.2717
 133   2.0000      -1.001467       -27.2513
 134   2.0000      -0.999279       -27.1918
 135   2.0000      -0.985898       -26.8276
 136   2.0000      -0.966065       -26.2880
 137   2.0000      -0.963099       -26.2072
 138   2.0000      -0.955956       -26.0129
 139   2.0000      -0.951430       -25.8897
 140   2.0000      -0.944649       -25.7052
 141   2.0000      -0.942447       -25.6453
 142   2.0000      -0.917346       -24.9623
 143   2.0000      -0.908011       -24.7082
 144   2.0000      -0.905134       -24.6300
 145   2.0000      -0.897234       -24.4150
 146   2.0000      -0.894887       -24.3511
 147   2.0000      -0.885932       -24.1074
 148   2.0000      -0.882926       -24.0256
 149   2.0000      -0.876459       -23.8497
 150   2.0000      -0.869607       -23.6632
 151   2.0000      -0.867587       -23.6082
 152   2.0000      -0.862516       -23.4703
 153   2.0000      -0.857740       -23.3403
 154   2.0000      -0.851229       -23.1631
 155   2.0000      -0.847568       -23.0635
 156   2.0000      -0.830364       -22.5954
 157   2.0000      -0.826518       -22.4907
 158   2.0000      -0.823553       -22.4100
 159   2.0000      -0.812888       -22.1198
 160   2.0000      -0.812073       -22.0976
 161   2.0000      -0.802355       -21.8332
 162   2.0000      -0.795901       -21.6576
 163   2.0000      -0.793772       -21.5996
 164   2.0000      -0.792033       -21.5523
 165   2.0000      -0.776669       -21.1342
 166   2.0000      -0.755833       -20.5673
 167   2.0000      -0.751211       -20.4415
 168   2.0000      -0.735526       -20.0147
 169   2.0000      -0.722203       -19.6521
 170   2.0000      -0.719989       -19.5919
 171   2.0000      -0.718032       -19.5386
 172   2.0000      -0.715882       -19.4801
 173   2.0000      -0.713720       -19.4213
 174   2.0000      -0.705189       -19.1892
 175   2.0000      -0.697852       -18.9895
 176   2.0000      -0.695568       -18.9274
 177   2.0000      -0.690168       -18.7804
 178   2.0000      -0.685739       -18.6599
 179   2.0000      -0.685362       -18.6496
 180   2.0000      -0.679209       -18.4822
 181   2.0000      -0.677110       -18.4251
 182   2.0000      -0.671610       -18.2754
 183   2.0000      -0.670477       -18.2446
 184   2.0000      -0.669308       -18.2128
 185   2.0000      -0.667832       -18.1726
 186   2.0000      -0.657681       -17.8964
 187   2.0000      -0.656722       -17.8703
 188   2.0000      -0.645189       -17.5565
 189   2.0000      -0.640908       -17.4400
 190   2.0000      -0.639409       -17.3992
 191   2.0000      -0.633877       -17.2487
 192   2.0000      -0.616309       -16.7706
 193   2.0000      -0.614540       -16.7225
 194   2.0000      -0.611062       -16.6279
 195   2.0000      -0.603226       -16.4146
 196   2.0000      -0.601786       -16.3754
 197   2.0000      -0.600253       -16.3337
 198   2.0000      -0.598069       -16.2743
 199   2.0000      -0.595842       -16.2137
 200   2.0000      -0.590120       -16.0580
 201   2.0000      -0.588896       -16.0247
 202   2.0000      -0.587966       -15.9994
 203   2.0000      -0.587616       -15.9899
 204   2.0000      -0.582967       -15.8633
 205   2.0000      -0.581755       -15.8304
 206   2.0000      -0.580885       -15.8067
 207   2.0000      -0.572806       -15.5868
 208   2.0000      -0.569870       -15.5070
 209   2.0000      -0.566697       -15.4206
 210   2.0000      -0.563022       -15.3206
 211   2.0000      -0.557292       -15.1647
 212   2.0000      -0.552899       -15.0451
 213   2.0000      -0.550479       -14.9793
 214   2.0000      -0.549330       -14.9480
 215   2.0000      -0.547768       -14.9055
 216   2.0000      -0.546148       -14.8614
 217   2.0000      -0.541578       -14.7371
 218   2.0000      -0.539820       -14.6892
 219   2.0000      -0.539555       -14.6820
 220   2.0000      -0.535484       -14.5713
 221   2.0000      -0.532897       -14.5009
 222   2.0000      -0.530547       -14.4369
 223   2.0000      -0.526756       -14.3338
 224   2.0000      -0.526016       -14.3136
 225   2.0000      -0.524119       -14.2620
 226   2.0000      -0.521506       -14.1909
 227   2.0000      -0.518066       -14.0973
 228   2.0000      -0.514310       -13.9951
 229   2.0000      -0.511927       -13.9302
 230   2.0000      -0.510752       -13.8983
 231   2.0000      -0.508335       -13.8325
 232   2.0000      -0.506727       -13.7887
 233   2.0000      -0.505482       -13.7549
 234   2.0000      -0.504090       -13.7170
 235   2.0000      -0.502660       -13.6781
 236   2.0000      -0.499580       -13.5943
 237   2.0000      -0.493955       -13.4412
 238   2.0000      -0.488259       -13.2862
 239   2.0000      -0.486465       -13.2374
 240   2.0000      -0.484916       -13.1952
 241   2.0000      -0.484508       -13.1841
 242   2.0000      -0.483236       -13.1495
 243   2.0000      -0.476860       -12.9760
 244   2.0000      -0.476021       -12.9532
 245   2.0000      -0.474442       -12.9102
 246   2.0000      -0.467788       -12.7292
 247   2.0000      -0.466817       -12.7027
 248   2.0000      -0.465306       -12.6616
 249   2.0000      -0.462695       -12.5906
 250   2.0000      -0.462112       -12.5747
 251   2.0000      -0.460005       -12.5174
 252   2.0000      -0.458773       -12.4839
 253   2.0000      -0.457912       -12.4604
 254   2.0000      -0.456866       -12.4320
 255   2.0000      -0.455708       -12.4004
 256   2.0000      -0.454429       -12.3656
 257   2.0000      -0.452691       -12.3183
 258   2.0000      -0.451111       -12.2754
 259   2.0000      -0.450848       -12.2682
 260   2.0000      -0.450344       -12.2545
 261   2.0000      -0.448894       -12.2150
 262   2.0000      -0.446232       -12.1426
 263   2.0000      -0.444745       -12.1021
 264   2.0000      -0.442435       -12.0393
 265   2.0000      -0.441113       -12.0033
 266   2.0000      -0.438972       -11.9450
 267   2.0000      -0.437203       -11.8969
 268   2.0000      -0.436673       -11.8825
 269   2.0000      -0.435739       -11.8571
 270   2.0000      -0.434901       -11.8343
 271   2.0000      -0.434883       -11.8338
 272   2.0000      -0.432721       -11.7749
 273   2.0000      -0.432547       -11.7702
 274   2.0000      -0.431087       -11.7305
 275   2.0000      -0.430348       -11.7104
 276   2.0000      -0.426732       -11.6120
 277   2.0000      -0.423761       -11.5311
 278   2.0000      -0.419908       -11.4263
 279   2.0000      -0.419038       -11.4026
 280   2.0000      -0.417388       -11.3577
 281   2.0000      -0.415955       -11.3187
 282   2.0000      -0.414891       -11.2898
 283   2.0000      -0.413574       -11.2539
 284   2.0000      -0.409469       -11.1422
 285   2.0000      -0.403815       -10.9884
 286   2.0000      -0.391558       -10.6548
 287   2.0000      -0.388237       -10.5645
 288   2.0000      -0.387284       -10.5385
 289   2.0000      -0.383857       -10.4453
 290   2.0000      -0.373600       -10.1662
 291   2.0000      -0.362968        -9.8769
 292   2.0000      -0.354954        -9.6588
 293   2.0000      -0.349874        -9.5206
 294   2.0000      -0.347889        -9.4665
 295   2.0000      -0.339858        -9.2480
 296   2.0000      -0.336534        -9.1575
 297   2.0000      -0.335358        -9.1256
 298   2.0000      -0.327289        -8.9060
 299   2.0000      -0.321234        -8.7412
 300   2.0000      -0.311474        -8.4756
 301   2.0000      -0.307846        -8.3769
 302   2.0000      -0.303825        -8.2675
 303   2.0000      -0.301010        -8.1909
 304   2.0000      -0.275492        -7.4965
 305   2.0000      -0.266823        -7.2606
 306   2.0000      -0.236548        -6.4368
 307   0.0000      -0.106288        -2.8922
 308   0.0000      -0.101828        -2.7709
 309   0.0000      -0.090019        -2.4496
 310   0.0000      -0.087945        -2.3931
 311   0.0000      -0.058484        -1.5914

MULLIKEN ATOMIC CHARGES
-----------------------
   0 C :   -0.034637
   1 C :    0.047918
   2 C :    0.048266
   3 C :   -0.034444
   4 C :    0.008596
   5 C :    0.012755
   6 C :    0.288004
   7 C :   -0.343803
   8 C :   -0.189207
   9 N :    0.162371
  10 C :   -0.176924
  11 N :    0.154941
  12 C :   -0.058865
  13 C :    0.238794
  14 C :   -0.321764
  15 C :   -0.206883
  16 N :    0.178016
  17 C :   -0.183966
  18 N :    0.167196
  19 C :    0.071969
  20 C :   -0.204810
  21 C :    0.230701
  22 F :   -0.155992
  23 C :   -0.088506
  24 C :   -0.048736
  25 S :    0.208514
  26 C :   -0.083841
  27 C :   -0.065036
  28 S :    0.222227
  29 C :    0.173854
  30 F :   -0.169361
  31 C :   -0.117755
  32 S :    0.186825
  33 C :   -0.016628
  34 C :   -0.092361
  35 C :    0.070739
  36 C :   -0.118125
  37 S :    0.167999
  38 C :    0.123747
  39 O :   -0.312064
  40 C :    0.183931
  41 C :    0.065754
  42 C :   -0.131169
  43 C :    0.122156
  44 O :   -0.309749
  45 C :    0.166559
  46 S :    0.065418
  47 C :   -0.002252
  48 C :   -0.105879
  49 C :   -0.105147
  50 C :    0.174525
  51 F :   -0.174774
  52 C :   -0.064752
  53 C :   -0.085976
  54 S :    0.192206
  55 C :   -0.050386
  56 C :   -0.087915
  57 S :    0.220979
  58 C :    0.229423
  59 F :   -0.155782
  60 C :   -0.204400
  61 S :    0.209314
  62 C :    0.075421
  63 C :   -0.056291
  64 C :    0.290529
  65 C :   -0.345628
  66 C :   -0.175923
  67 N :    0.156014
  68 C :   -0.188255
  69 N :    0.161446
  70 C :    0.008437
  71 C :    0.008927
  72 C :   -0.033888
  73 C :    0.051207
  74 C :    0.045179
  75 C :   -0.030947
  76 C :    0.238276
  77 C :   -0.321674
  78 C :   -0.180700
  79 N :    0.166502
  80 C :   -0.208965
  81 N :    0.177792
  82 H :    0.007025
  83 H :    0.003702
  84 H :    0.005494
  85 H :    0.008531
  86 H :    0.016380
  87 H :   -0.008177
  88 H :    0.040042
  89 H :    0.032386
  90 H :    0.036233
  91 H :    0.043004
  92 H :    0.038743
  93 H :    0.037392
  94 H :   -0.028567
  95 H :    0.014766
  96 H :    0.007755
  97 H :    0.005475
  98 H :    0.004591
  99 H :    0.005957
Sum of atomic charges:   -0.0000000

LOEWDIN ATOMIC CHARGES
----------------------
   0 C :    0.005630
   1 C :    0.000904
   2 C :    0.005785
   3 C :    0.001465
   4 C :   -0.008106
   5 C :   -0.015508
   6 C :    0.080132
   7 C :   -0.132099
   8 C :   -0.018904
   9 N :   -0.044633
  10 C :   -0.022444
  11 N :   -0.043280
  12 C :   -0.054364
  13 C :    0.064605
  14 C :   -0.128361
  15 C :   -0.021141
  16 N :   -0.040070
  17 C :   -0.019214
  18 N :   -0.043580
  19 C :    0.033297
  20 C :   -0.211453
  21 C :    0.065987
  22 F :   -0.030135
  23 C :   -0.215866
  24 C :   -0.184650
  25 S :    0.471479
  26 C :   -0.215110
  27 C :   -0.200723
  28 S :    0.448011
  29 C :    0.027591
  30 F :   -0.048628
  31 C :   -0.195516
  32 S :    0.454943
  33 C :   -0.175876
  34 C :   -0.046527
  35 C :   -0.057996
  36 C :   -0.174095
  37 S :    0.433456
  38 C :    0.027072
  39 O :   -0.104640
  40 C :    0.081098
  41 C :   -0.073128
  42 C :   -0.182564
  43 C :    0.026720
  44 O :   -0.101776
  45 C :    0.065518
  46 S :    0.387533
  47 C :   -0.183096
  48 C :   -0.046857
  49 C :   -0.199130
  50 C :    0.034572
  51 F :   -0.050668
  52 C :   -0.200550
  53 C :   -0.216895
  54 S :    0.449915
  55 C :   -0.185077
  56 C :   -0.215629
  57 S :    0.446335
  58 C :    0.065509
  59 F :   -0.030016
  60 C :   -0.210742
  61 S :    0.472428
  62 C :    0.032471
  63 C :   -0.053218
  64 C :    0.080107
  65 C :   -0.131619
  66 C :   -0.022350
  67 N :   -0.042834
  68 C :   -0.018794
  69 N :   -0.043812
  70 C :   -0.015660
  71 C :   -0.008258
  72 C :    0.001623
  73 C :    0.006245
  74 C :    0.001079
  75 C :    0.006318
  76 C :    0.064923
  77 C :   -0.128236
  78 C :   -0.019257
  79 N :   -0.043069
  80 C :   -0.021092
  81 N :   -0.040368
  82 H :    0.041585
  83 H :    0.037596
  84 H :    0.037996
  85 H :    0.041482
  86 H :    0.046980
  87 H :    0.028640
  88 H :    0.032014
  89 H :    0.019759
  90 H :    0.017504
  91 H :    0.032693
  92 H :    0.012448
  93 H :    0.014455
  94 H :    0.025853
  95 H :    0.046875
  96 H :    0.041409
  97 H :    0.038141
  98 H :    0.037913
  99 H :    0.041515

  Mayer bond orders larger than 0.100000
B(  0-C ,  1-C ) :   1.3733 B(  0-C ,  5-C ) :   1.3797 B(  0-C , 82-H ) :   0.9830
B(  1-C ,  2-C ) :   1.3782 B(  1-C , 83-H ) :   0.9856 B(  2-C ,  3-C ) :   1.3643
B(  2-C , 84-H ) :   0.9863 B(  3-C ,  4-C ) :   1.3845 B(  3-C , 85-H ) :   0.9861
B(  4-C ,  5-C ) :   1.3104 B(  4-C , 13-C ) :   1.0063 B(  5-C ,  6-C ) :   1.0006
B(  6-C ,  7-C ) :   1.6401 B(  6-C , 12-C ) :   1.0564 B(  7-C ,  8-C ) :   1.1466
B(  7-C , 10-C ) :   1.1324 B(  8-C ,  9-N ) :   2.9789 B( 10-C , 11-N ) :   2.9679
B( 12-C , 13-C ) :   1.0271 B( 12-C , 19-C ) :   1.6264 B( 13-C , 14-C ) :   1.6493
B( 14-C , 15-C ) :   1.1622 B( 14-C , 17-C ) :   1.1420 B( 15-C , 16-N ) :   3.0073
B( 17-C , 18-N ) :   2.9957 B( 19-C , 20-C ) :   1.1907 B( 19-C , 86-H ) :   0.9045
B( 20-C , 21-C ) :   1.4010 B( 20-C , 25-S ) :   1.0722 B( 21-C , 22-F ) :   1.1714
B( 21-C , 23-C ) :   1.3203 B( 23-C , 24-C ) :   1.4656 B( 23-C , 28-S ) :   1.0250
B( 24-C , 25-S ) :   1.0891 B( 24-C , 26-C ) :   1.3309 B( 26-C , 27-C ) :   1.4904
B( 26-C , 32-S ) :   1.0641 B( 27-C , 28-S ) :   1.0383 B( 27-C , 29-C ) :   1.2631
B( 29-C , 30-F ) :   1.1728 B( 29-C , 31-C ) :   1.4821 B( 31-C , 32-S ) :   1.0918
B( 31-C , 33-C ) :   1.1582 B( 33-C , 34-C ) :   1.5268 B( 33-C , 37-S ) :   1.0714
B( 34-C , 35-C ) :   1.1920 B( 34-C , 87-H ) :   1.0028 B( 35-C , 36-C ) :   1.3795
B( 35-C , 43-C ) :   1.2628 B( 36-C , 37-S ) :   1.0300 B( 36-C , 38-C ) :   1.3845
B( 38-C , 39-O ) :   1.2604 B( 38-C , 41-C ) :   1.2414 B( 39-O , 40-C ) :   0.9445
B( 40-C , 88-H ) :   0.9737 B( 40-C , 89-H ) :   0.9680 B( 40-C , 90-H ) :   0.9688
B( 41-C , 42-C ) :   1.2566 B( 41-C , 48-C ) :   1.1447 B( 42-C , 43-C ) :   1.4041
B( 42-C , 46-S ) :   1.0047 B( 43-C , 44-O ) :   1.2295 B( 44-O , 45-C ) :   0.9423
B( 45-C , 91-H ) :   0.9758 B( 45-C , 92-H ) :   0.9663 B( 45-C , 93-H ) :   0.9675
B( 46-S , 47-C ) :   1.0426 B( 47-C , 48-C ) :   1.6015 B( 47-C , 49-C ) :   1.1121
B( 48-C , 94-H ) :   0.9938 B( 49-C , 50-C ) :   1.5001 B( 49-C , 53-C ) :   0.1037
B( 49-C , 54-S ) :   1.0888 B( 50-C , 51-F ) :   1.1510 B( 50-C , 52-C ) :   1.2773
B( 52-C , 53-C ) :   1.4896 B( 52-C , 57-S ) :   1.0355 B( 53-C , 54-S ) :   1.0664
B( 53-C , 55-C ) :   1.3313 B( 55-C , 56-C ) :   1.4679 B( 55-C , 61-S ) :   1.0903
B( 56-C , 57-S ) :   1.0239 B( 56-C , 58-C ) :   1.3188 B( 58-C , 59-F ) :   1.1712
B( 58-C , 60-C ) :   1.4027 B( 60-C , 61-S ) :   1.0727 B( 60-C , 62-C ) :   1.1888
B( 62-C , 63-C ) :   1.6293 B( 62-C , 95-H ) :   0.9045 B( 63-C , 64-C ) :   1.0547
B( 63-C , 76-C ) :   1.0269 B( 64-C , 65-C ) :   1.6428 B( 64-C , 70-C ) :   0.9989
B( 65-C , 66-C ) :   1.1315 B( 65-C , 68-C ) :   1.1472 B( 66-C , 67-N ) :   2.9688
B( 68-C , 69-N ) :   2.9796 B( 70-C , 71-C ) :   1.3116 B( 70-C , 75-C ) :   1.3799
B( 71-C , 72-C ) :   1.3816 B( 71-C , 76-C ) :   1.0073 B( 72-C , 73-C ) :   1.3651
B( 72-C , 96-H ) :   0.9871 B( 73-C , 74-C ) :   1.3774 B( 73-C , 97-H ) :   0.9861
B( 74-C , 75-C ) :   1.3715 B( 74-C , 98-H ) :   0.9864 B( 75-C , 99-H ) :   0.9844
B( 76-C , 77-C ) :   1.6512 B( 77-C , 78-C ) :   1.1385 B( 77-C , 80-C ) :   1.1641
B( 78-C , 79-N ) :   2.9965 B( 80-C , 81-N ) :   3.0067

-----------------------------------------------------------------------------
         ABSORPTION SPECTRUM VIA TRANSITION ELECTRIC DIPOLE MOMENTS
-----------------------------------------------------------------------------
State   Energy  Wavelength   fosc         T2         TX        TY        TZ
        (cm-1)    (nm)                  (au**2)     (au)      (au)      (au)
-----------------------------------------------------------------------------
   0   16413.0    609.3   2.218771963  44.50406  -1.26482   4.77295   4.48589
   1   18400.4    543.5   0.122152053   2.18550  -0.35168  -1.43190   0.10718
   2   21618.7    462.6   0.660728972  10.06166   0.04892   2.69445   1.67308
   3   22037.1    453.8   0.026955678   0.40269  -0.18052   0.28236  -0.53887
   4   22307.9    448.3   0.108494235   1.60112   0.24020  -1.04424  -0.67304
   5   22481.3    444.8   0.177412308   2.59799   0.60548   0.84211  -1.23379
   6   25635.1    390.1   0.544771430   6.99608  -0.89922   1.54907   1.94625
   7   26463.0    377.9   0.045639784   0.56778   0.11288  -0.74293   0.05566
   8   26536.9    376.8   0.035550204   0.44103  -0.01077  -0.12393  -0.65234
   9   26679.6    374.8   0.045046318   0.55585  -0.02135   0.41304   0.62031
  10   26823.4    372.8   0.107187871   1.31555   0.36100   0.72371  -0.81331
  11   27337.5    365.8   0.082833893   0.99753   0.12797   0.96685   0.21529
  12   27716.6    360.8   0.123706526   1.46936   0.88921  -0.09394  -0.81844
  13   28336.4    352.9   0.109738276   1.27494  -0.51675  -0.91227  -0.41914
  14   29011.4    344.7   0.018123030   0.20565   0.33647   0.28275  -0.11179
  15   29903.6    334.4   0.014651110   0.16130  -0.22593   0.33129  -0.02234
  16   31050.8    322.1   0.268523596   2.84698  -0.11886   1.29032  -1.08070
  17   31209.5    320.4   0.165177969   1.74237   0.10513  -0.06127  -1.31437
  18   31988.5    312.6   0.306513115   3.15450  -0.02669  -1.58034  -0.81012
  19   32185.7    310.7   0.031207865   0.31921  -0.07382   0.40677   0.38509
  20   32511.4    307.6   0.065847144   0.66677  -0.32729  -0.49875   0.55759
  21   32555.2    307.2   0.108879648   1.10104   0.32889   0.99412  -0.06782
  22   32663.7    306.2   0.016067102   0.16194   0.28100   0.26558  -0.11155
  23   32997.0    303.1   0.065934913   0.65783   0.34747  -0.07309  -0.72922
  24   33787.4    296.0   0.417641941   4.06935   0.45760   0.87880  -1.75717
  25   33855.2    295.4   0.171789183   1.67050  -0.24302  -1.03480   0.73527
  26   34009.9    294.0   0.022532739   0.21811  -0.02437   0.25883  -0.38798
  27   34201.6    292.4   0.464768809   4.47369   0.17063   1.50543  -1.47589
  28   35238.4    283.8   0.448354428   4.18872   0.90980  -1.49894  -1.05554
  29   35332.3    283.0   0.310973795   2.89753  -0.84232  -0.81019  -1.23759
  30   36121.7    276.8   0.010090405   0.09196   0.06514   0.29616   0.00275
  31   36380.1    274.9   0.004825515   0.04367   0.19605  -0.06167   0.03781
  32   36647.5    272.9   0.027332317   0.24553  -0.04495   0.31006   0.38389
  33   36669.2    272.7   0.034510372   0.30983   0.41029   0.07363  -0.36887
  34   36813.4    271.6   0.044315460   0.39630  -0.05630   0.61534   0.12034
  35   37064.0    269.8   0.006058951   0.05382  -0.16163   0.14786  -0.07637
  36   37219.6    268.7   0.044702307   0.39540   0.35008  -0.34865  -0.38895
  37   37392.3    267.4   0.114648651   1.00940   0.16223  -0.72834  -0.67276
  38   37599.4    266.0   0.000155261   0.00136   0.01282  -0.02420  -0.02468
  39   37843.8    264.2   0.038980385   0.33910  -0.33610  -0.47489  -0.02486
  40   38278.0    261.2   0.023442555   0.20162  -0.31597  -0.31704  -0.03563
  41   38772.7    257.9   0.191008951   1.62182  -0.01073  -1.04819  -0.72319
  42   39567.2    252.7   0.032042081   0.26660  -0.17235   0.36231   0.32501
  43   40150.3    249.1   0.175826806   1.44169  -0.96102  -0.35651   0.62533

FINAL SINGLE POINT ENERGY     -6465.323171900385

DIPOLE MOMENT
-------------
                                X             Y             Z
Electronic contribution:     -3.92847      -0.76754       8.33838
Nuclear contribution   :      1.32880      -0.50440      -8.63542
                        -----------------------------------------
Total Dipole Moment    :     -2.59967      -1.27194      -0.29703
                        -----------------------------------------
Magnitude (a.u.)       :      2.90936
Magnitude (Debye)      :      7.39500

Rotational constants in cm-1:     0.002429     0.000117     0.000113
Rotational constants in MHz :    72.825806     3.495511     3.378701

                             ****ORCA TERMINATED NORMALLY****
TOTAL RUN TIME: 0 days 0 hours 10 minutes 58 seconds 755 msec
