                         Program Version 4.2.0 -  RELEASE  -
|  1> # ORCA input file
|  2> # SCF done       -202.454063657165          0.000865958024
|  3> ! CAM-B3LYP def2-SVP def2/J RIJCOSX Grid4 TightSCF
|  4> %maxcore 5000
|  5> %tddft
|  6>     Mode sTDDFT
|  7>     Ethresh 5.0
|  8>     maxcore 5000
|  9> end
| 10>
| 11> %pal
| 12>   nprocs 6
| 13>   end
| 14> * xyz 0 1
| 15>    C       -2.28301         3.13380         2.05972
| 16>    C       -1.76758         3.90377         1.02758
| 17>    C       -1.97563         3.55647        -0.29995
| 18>    C       -2.71734         2.43368        -0.63509
| 19>    C       -3.24167         1.66097         0.38759
| 20>    C       -3.01830         2.00280         1.74065
| 21>    C       -3.64776         1.00060         2.59046
| 22>    C       -3.75156         1.05663         3.95444
| 23>    C       -3.26126         2.12142         4.74118
| 24>    N       -2.88772         2.95016         5.44171
| 25>    C       -4.38841         0.09783         4.77040
| 26>    N       -4.89022        -0.63841         5.49492
| 27>    C       -4.12526        -0.05946         1.70699
| 28>    C       -4.06715         0.46463         0.34579
| 29>    C       -4.85399         0.08939        -0.70966
| 30>    C       -5.84066        -0.91574        -0.65277
| 31>    N       -6.68365        -1.69538        -0.65486
| 32>    C       -4.84455         0.73220        -1.96646
| 33>    N       -4.88720         1.21393        -3.00664
| 34>    C       -4.45252        -1.31929         2.12722
| 35>    C       -4.51885        -2.49435         1.34885
| 36>    C       -3.92053        -2.77695         0.12709
| 37>    C       -4.18348        -4.06945        -0.29956
| 38>    C       -4.98837        -4.79520         0.60525
| 39>    S       -5.39380        -3.88562         1.98304
| 40>    C       -5.20664        -6.08583         0.06695
| 41>    C       -4.54472        -6.17944        -1.17086
| 42>    C       -3.89016        -4.91024        -1.44717
| 43>    C       -3.18011        -4.55896        -2.55712
| 44>    C       -2.96099        -5.45358        -3.62590
| 45>    N       -2.77755        -6.18455        -4.48955
| 46>    C       -2.62598        -3.26813        -2.69270
| 47>    N       -2.18194        -2.21463        -2.78118
| 48>    C       -4.69682        -7.42508        -1.77648
| 49>    C       -5.47026        -8.28041        -1.01136
| 50>    S       -6.02125        -7.53079         0.47765
| 51>    C       -5.81568        -9.62398        -1.30646
| 52>    C       -6.61708       -10.46992        -0.56851
| 53>    C       -6.72107       -11.72988        -1.15717
| 54>    C       -5.99492       -11.85619        -2.34894
| 55>    S       -5.18011       -10.39241        -2.75242
| 56>    C       -6.10613       -13.13383        -2.90336
| 57>    C       -6.92048       -13.97667        -2.13518
| 58>    S       -7.55712       -13.19209        -0.71768
| 59>    C       -7.04127       -15.26523        -2.65475
| 60>    C       -6.31812       -15.41815        -3.81928
| 61>    S       -5.48049       -13.94692        -4.28773
| 62>    C       -6.18630       -16.58703        -4.61165
| 63>    C       -5.41686       -16.74468        -5.75117
| 64>    C       -5.50412       -18.03765        -6.26294
| 65>    C       -6.35209       -18.87043        -5.51035
| 66>    S       -7.03757       -18.05820        -4.17190
| 67>    C       -6.37363       -20.15541        -6.10326
| 68>    C       -5.52902       -20.13464        -7.23447
| 69>    C       -4.96349       -18.80410        -7.37470
| 70>    C       -4.12324       -18.37213        -8.35797
| 71>    C       -3.69830       -19.23664        -9.38926
| 72>    N       -3.36133       -19.95661       -10.21564
| 73>    C       -3.63059       -17.05075        -8.40118
| 74>    N       -3.22456       -15.97908        -8.42821
| 75>    C       -5.48816       -21.34899        -7.90212
| 76>    C       -6.29936       -22.30569        -7.30450
| 77>    S       -7.09477       -21.67597        -5.86337
| 78>    C       -6.49622       -23.66048        -7.64500
| 79>    C       -6.23516       -24.27476        -8.83864
| 80>    C       -6.04846       -25.71578        -8.98838
| 81>    C       -6.44088       -26.69993        -8.12175
| 82>    C       -7.15049       -26.49897        -6.91882
| 83>    N       -7.72803       -26.40999        -5.93028
| 84>    C       -6.22550       -28.07773        -8.34220
| 85>    N       -6.08658       -29.21108        -8.45703
| 86>    C       -5.35798       -25.91888       -10.25505
| 87>    C       -5.28542       -24.68411       -10.93867
| 88>    C       -4.64652       -24.58834       -12.16354
| 89>    C       -4.08587       -25.73475       -12.70646
| 90>    C       -4.16705       -26.95153       -12.04389
| 91>    C       -4.80081       -27.05801       -10.81472
| 92>    C       -5.97228       -23.67776       -10.14434
| 93>    C       -6.50718       -22.51782       -10.63620
| 94>    C       -6.33012       -22.07184       -11.96395
| 95>    N       -6.22667       -21.66100       -13.02979
| 96>    C       -7.37957       -21.67608        -9.91707
| 97>    N       -8.12273       -20.97932        -9.38760
| 98>    H       -2.10282         3.41520         3.08405
| 99>    H       -1.19001         4.78403         1.26490
|100>    H       -1.55369         4.16553        -1.08449
|101>    H       -2.86351         2.16532        -1.66873
|102>    H       -4.62121        -1.46663         3.18553
|103>    H       -3.28979        -2.07916        -0.39324
|104>    H       -4.27464        -7.71253        -2.72275
|105>    H       -7.09761       -10.18069         0.34816
|106>    H       -7.61974       -16.05354        -2.20887
|107>    H       -4.82701       -15.94859        -6.16900
|108>    H       -4.86757       -21.55412        -8.75541
|109>    H       -6.83352       -24.28460        -6.82813
|110>    H       -4.56751       -23.64551       -12.67990
|111>    H       -3.57729       -25.67627       -13.65642
|112>    H       -3.72512       -27.83095       -12.48663
|113>    H       -4.84548       -28.00958       -10.31126
|114> *
|115>
|116>                          ****END OF INPUT****

CARTESIAN COORDINATES (ANGSTROEM)
---------------------------------
  C     -2.283010    3.133800    2.059720
  C     -1.767580    3.903770    1.027580
  C     -1.975630    3.556470   -0.299950
  C     -2.717340    2.433680   -0.635090
  C     -3.241670    1.660970    0.387590
  C     -3.018300    2.002800    1.740650
  C     -3.647760    1.000600    2.590460
  C     -3.751560    1.056630    3.954440
  C     -3.261260    2.121420    4.741180
  N     -2.887720    2.950160    5.441710
  C     -4.388410    0.097830    4.770400
  N     -4.890220   -0.638410    5.494920
  C     -4.125260   -0.059460    1.706990
  C     -4.067150    0.464630    0.345790
  C     -4.853990    0.089390   -0.709660
  C     -5.840660   -0.915740   -0.652770
  N     -6.683650   -1.695380   -0.654860
  C     -4.844550    0.732200   -1.966460
  N     -4.887200    1.213930   -3.006640
  C     -4.452520   -1.319290    2.127220
  C     -4.518850   -2.494350    1.348850
  C     -3.920530   -2.776950    0.127090
  C     -4.183480   -4.069450   -0.299560
  C     -4.988370   -4.795200    0.605250
  S     -5.393800   -3.885620    1.983040
  C     -5.206640   -6.085830    0.066950
  C     -4.544720   -6.179440   -1.170860
  C     -3.890160   -4.910240   -1.447170
  C     -3.180110   -4.558960   -2.557120
  C     -2.960990   -5.453580   -3.625900
  N     -2.777550   -6.184550   -4.489550
  C     -2.625980   -3.268130   -2.692700
  N     -2.181940   -2.214630   -2.781180
  C     -4.696820   -7.425080   -1.776480
  C     -5.470260   -8.280410   -1.011360
  S     -6.021250   -7.530790    0.477650
  C     -5.815680   -9.623980   -1.306460
  C     -6.617080  -10.469920   -0.568510
  C     -6.721070  -11.729880   -1.157170
  C     -5.994920  -11.856190   -2.348940
  S     -5.180110  -10.392410   -2.752420
  C     -6.106130  -13.133830   -2.903360
  C     -6.920480  -13.976670   -2.135180
  S     -7.557120  -13.192090   -0.717680
  C     -7.041270  -15.265230   -2.654750
  C     -6.318120  -15.418150   -3.819280
  S     -5.480490  -13.946920   -4.287730
  C     -6.186300  -16.587030   -4.611650
  C     -5.416860  -16.744680   -5.751170
  C     -5.504120  -18.037650   -6.262940
  C     -6.352090  -18.870430   -5.510350
  S     -7.037570  -18.058200   -4.171900
  C     -6.373630  -20.155410   -6.103260
  C     -5.529020  -20.134640   -7.234470
  C     -4.963490  -18.804100   -7.374700
  C     -4.123240  -18.372130   -8.357970
  C     -3.698300  -19.236640   -9.389260
  N     -3.361330  -19.956610  -10.215640
  C     -3.630590  -17.050750   -8.401180
  N     -3.224560  -15.979080   -8.428210
  C     -5.488160  -21.348990   -7.902120
  C     -6.299360  -22.305690   -7.304500
  S     -7.094770  -21.675970   -5.863370
  C     -6.496220  -23.660480   -7.645000
  C     -6.235160  -24.274760   -8.838640
  C     -6.048460  -25.715780   -8.988380
  C     -6.440880  -26.699930   -8.121750
  C     -7.150490  -26.498970   -6.918820
  N     -7.728030  -26.409990   -5.930280
  C     -6.225500  -28.077730   -8.342200
  N     -6.086580  -29.211080   -8.457030
  C     -5.357980  -25.918880  -10.255050
  C     -5.285420  -24.684110  -10.938670
  C     -4.646520  -24.588340  -12.163540
  C     -4.085870  -25.734750  -12.706460
  C     -4.167050  -26.951530  -12.043890
  C     -4.800810  -27.058010  -10.814720
  C     -5.972280  -23.677760  -10.144340
  C     -6.507180  -22.517820  -10.636200
  C     -6.330120  -22.071840  -11.963950
  N     -6.226670  -21.661000  -13.029790
  C     -7.379570  -21.676080   -9.917070
  N     -8.122730  -20.979320   -9.387600
  H     -2.102820    3.415200    3.084050
  H     -1.190010    4.784030    1.264900
  H     -1.553690    4.165530   -1.084490
  H     -2.863510    2.165320   -1.668730
  H     -4.621210   -1.466630    3.185530
  H     -3.289790   -2.079160   -0.393240
  H     -4.274640   -7.712530   -2.722750
  H     -7.097610  -10.180690    0.348160
  H     -7.619740  -16.053540   -2.208870
  H     -4.827010  -15.948590   -6.169000
  H     -4.867570  -21.554120   -8.755410
  H     -6.833520  -24.284600   -6.828130
  H     -4.567510  -23.645510  -12.679900
  H     -3.577290  -25.676270  -13.656420
  H     -3.725120  -27.830950  -12.486630
  H     -4.845480  -28.009580  -10.311260

 Total Charge           Charge          ....    0
 Multiplicity           Mult            ....    1
 Number of Electrons    NEL             ....  596
 Basis Dimension        Dim             .... 1270

ORBITAL ENERGIES
----------------

  NO   OCC          E(Eh)            E(eV)
   0   2.0000     -89.005940     -2421.9748
   1   2.0000     -89.005717     -2421.9687
   2   2.0000     -89.004606     -2421.9385
   3   2.0000     -89.004599     -2421.9383
   4   2.0000     -88.985121     -2421.4082
   5   2.0000     -88.985057     -2421.4065
   6   2.0000     -88.979274     -2421.2491
   7   2.0000     -14.442706      -393.0060
   8   2.0000     -14.442683      -393.0054
   9   2.0000     -14.440883      -392.9564
  10   2.0000     -14.440735      -392.9524
  11   2.0000     -14.428385      -392.6163
  12   2.0000     -14.428258      -392.6129
  13   2.0000     -14.427713      -392.5980
  14   2.0000     -14.427522      -392.5928
  15   2.0000     -14.423359      -392.4796
  16   2.0000     -14.423222      -392.4758
  17   2.0000     -14.422866      -392.4661
  18   2.0000     -14.422816      -392.4648
  19   2.0000     -10.377830      -282.3951
  20   2.0000     -10.377773      -282.3936
  21   2.0000     -10.364585      -282.0347
  22   2.0000     -10.364525      -282.0331
  23   2.0000     -10.356388      -281.8116
  24   2.0000     -10.356193      -281.8064
  25   2.0000     -10.354716      -281.7661
  26   2.0000     -10.354665      -281.7648
  27   2.0000     -10.354618      -281.7635
  28   2.0000     -10.354573      -281.7623
  29   2.0000     -10.353683      -281.7380
  30   2.0000     -10.353672      -281.7377
  31   2.0000     -10.352790      -281.7137
  32   2.0000     -10.352760      -281.7129
  33   2.0000     -10.346167      -281.5335
  34   2.0000     -10.346058      -281.5306
  35   2.0000     -10.344862      -281.4980
  36   2.0000     -10.344812      -281.4966
  37   2.0000     -10.342746      -281.4404
  38   2.0000     -10.342724      -281.4398
  39   2.0000     -10.340687      -281.3844
  40   2.0000     -10.340478      -281.3787
  41   2.0000     -10.338462      -281.3239
  42   2.0000     -10.338314      -281.3198
  43   2.0000     -10.337955      -281.3101
  44   2.0000     -10.337903      -281.3086
  45   2.0000     -10.337360      -281.2939
  46   2.0000     -10.337257      -281.2911
  47   2.0000     -10.330549      -281.1085
  48   2.0000     -10.330421      -281.1051
  49   2.0000     -10.329967      -281.0927
  50   2.0000     -10.329665      -281.0845
  51   2.0000     -10.328931      -281.0645
  52   2.0000     -10.328836      -281.0619
  53   2.0000     -10.326169      -280.9893
  54   2.0000     -10.326041      -280.9859
  55   2.0000     -10.326031      -280.9856
  56   2.0000     -10.325856      -280.9808
  57   2.0000     -10.325799      -280.9793
  58   2.0000     -10.325758      -280.9782
  59   2.0000     -10.324838      -280.9531
  60   2.0000     -10.324728      -280.9501
  61   2.0000     -10.323085      -280.9054
  62   2.0000     -10.322936      -280.9014
  63   2.0000     -10.321714      -280.8681
  64   2.0000     -10.321658      -280.8666
  65   2.0000     -10.317627      -280.7569
  66   2.0000     -10.317500      -280.7534
  67   2.0000     -10.316707      -280.7319
  68   2.0000     -10.316695      -280.7315
  69   2.0000     -10.316232      -280.7189
  70   2.0000     -10.316191      -280.7178
  71   2.0000     -10.314858      -280.6816
  72   2.0000     -10.314815      -280.6804
  73   2.0000     -10.310688      -280.5681
  74   2.0000     -10.310582      -280.5652
  75   2.0000     -10.304226      -280.3922
  76   2.0000     -10.304222      -280.3921
  77   2.0000     -10.303831      -280.3815
  78   2.0000     -10.303800      -280.3807
  79   2.0000     -10.302754      -280.3522
  80   2.0000     -10.302727      -280.3515
  81   2.0000     -10.302216      -280.3376
  82   2.0000     -10.302139      -280.3354
  83   2.0000      -8.100544      -220.4270
  84   2.0000      -8.100375      -220.4224
  85   2.0000      -8.099216      -220.3909
  86   2.0000      -8.099167      -220.3895
  87   2.0000      -8.080097      -219.8706
  88   2.0000      -8.080042      -219.8691
  89   2.0000      -8.074509      -219.7186
  90   2.0000      -6.069694      -165.1648
  91   2.0000      -6.069527      -165.1602
  92   2.0000      -6.068538      -165.1333
  93   2.0000      -6.068479      -165.1317
  94   2.0000      -6.065521      -165.0512
  95   2.0000      -6.065359      -165.0468
  96   2.0000      -6.064343      -165.0192
  97   2.0000      -6.064299      -165.0180
  98   2.0000      -6.063041      -164.9837
  99   2.0000      -6.062853      -164.9786
 100   2.0000      -6.061414      -164.9395
 101   2.0000      -6.061390      -164.9388
 102   2.0000      -6.049703      -164.6208
 103   2.0000      -6.049680      -164.6202
 104   2.0000      -6.045612      -164.5095
 105   2.0000      -6.045603      -164.5092
 106   2.0000      -6.044256      -164.4726
 107   2.0000      -6.041480      -164.3970
 108   2.0000      -6.041475      -164.3969
 109   2.0000      -6.040384      -164.3672
 110   2.0000      -6.035446      -164.2328
 111   2.0000      -1.060602       -28.8605
 112   2.0000      -1.060476       -28.8570
 113   2.0000      -1.042592       -28.3704
 114   2.0000      -1.041526       -28.3414
 115   2.0000      -1.041122       -28.3304
 116   2.0000      -1.033869       -28.1330
 117   2.0000      -1.033488       -28.1227
 118   2.0000      -1.023647       -27.8549
 119   2.0000      -1.023343       -27.8466
 120   2.0000      -1.019907       -27.7531
 121   2.0000      -1.019292       -27.7363
 122   2.0000      -1.018081       -27.7034
 123   2.0000      -1.013685       -27.5838
 124   2.0000      -1.012576       -27.5536
 125   2.0000      -1.012396       -27.5487
 126   2.0000      -1.003891       -27.3173
 127   2.0000      -1.003777       -27.3142
 128   2.0000      -1.003160       -27.2974
 129   2.0000      -1.002390       -27.2764
 130   2.0000      -0.997647       -27.1474
 131   2.0000      -0.976740       -26.5784
 132   2.0000      -0.972075       -26.4515
 133   2.0000      -0.962295       -26.1854
 134   2.0000      -0.962195       -26.1827
 135   2.0000      -0.948661       -25.8144
 136   2.0000      -0.945198       -25.7201
 137   2.0000      -0.945167       -25.7193
 138   2.0000      -0.930960       -25.3327
 139   2.0000      -0.927557       -25.2401
 140   2.0000      -0.902740       -24.5648
 141   2.0000      -0.902233       -24.5510
 142   2.0000      -0.896268       -24.3887
 143   2.0000      -0.895181       -24.3591
 144   2.0000      -0.889181       -24.1959
 145   2.0000      -0.884451       -24.0671
 146   2.0000      -0.877279       -23.8720
 147   2.0000      -0.873811       -23.7776
 148   2.0000      -0.871297       -23.7092
 149   2.0000      -0.869721       -23.6663
 150   2.0000      -0.869547       -23.6616
 151   2.0000      -0.856046       -23.2942
 152   2.0000      -0.847713       -23.0675
 153   2.0000      -0.832504       -22.6536
 154   2.0000      -0.817828       -22.2542
 155   2.0000      -0.811250       -22.0752
 156   2.0000      -0.799496       -21.7554
 157   2.0000      -0.796318       -21.6689
 158   2.0000      -0.795922       -21.6581
 159   2.0000      -0.789135       -21.4735
 160   2.0000      -0.785878       -21.3848
 161   2.0000      -0.770468       -20.9655
 162   2.0000      -0.750748       -20.4289
 163   2.0000      -0.731676       -19.9099
 164   2.0000      -0.725506       -19.7420
 165   2.0000      -0.720667       -19.6103
 166   2.0000      -0.719371       -19.5751
 167   2.0000      -0.718477       -19.5507
 168   2.0000      -0.718427       -19.5494
 169   2.0000      -0.714771       -19.4499
 170   2.0000      -0.703814       -19.1517
 171   2.0000      -0.697353       -18.9759
 172   2.0000      -0.696438       -18.9510
 173   2.0000      -0.691585       -18.8190
 174   2.0000      -0.676122       -18.3982
 175   2.0000      -0.673071       -18.3152
 176   2.0000      -0.672180       -18.2909
 177   2.0000      -0.670638       -18.2490
 178   2.0000      -0.670434       -18.2434
 179   2.0000      -0.662345       -18.0233
 180   2.0000      -0.660659       -17.9774
 181   2.0000      -0.650570       -17.7029
 182   2.0000      -0.646090       -17.5810
 183   2.0000      -0.645466       -17.5640
 184   2.0000      -0.643180       -17.5018
 185   2.0000      -0.632510       -17.2115
 186   2.0000      -0.631984       -17.1972
 187   2.0000      -0.630867       -17.1668
 188   2.0000      -0.621599       -16.9146
 189   2.0000      -0.619320       -16.8526
 190   2.0000      -0.598211       -16.2781
 191   2.0000      -0.598108       -16.2754
 192   2.0000      -0.590853       -16.0779
 193   2.0000      -0.590633       -16.0719
 194   2.0000      -0.589455       -16.0399
 195   2.0000      -0.583924       -15.8894
 196   2.0000      -0.572634       -15.5822
 197   2.0000      -0.572045       -15.5661
 198   2.0000      -0.562751       -15.3132
 199   2.0000      -0.562274       -15.3003
 200   2.0000      -0.555926       -15.1275
 201   2.0000      -0.553400       -15.0588
 202   2.0000      -0.552974       -15.0472
 203   2.0000      -0.548106       -14.9147
 204   2.0000      -0.545963       -14.8564
 205   2.0000      -0.542588       -14.7646
 206   2.0000      -0.541891       -14.7456
 207   2.0000      -0.540859       -14.7175
 208   2.0000      -0.539151       -14.6710
 209   2.0000      -0.537564       -14.6279
 210   2.0000      -0.532152       -14.4806
 211   2.0000      -0.524528       -14.2731
 212   2.0000      -0.521094       -14.1797
 213   2.0000      -0.519515       -14.1367
 214   2.0000      -0.519279       -14.1303
 215   2.0000      -0.518047       -14.0968
 216   2.0000      -0.516743       -14.0613
 217   2.0000      -0.515013       -14.0142
 218   2.0000      -0.514009       -13.9869
 219   2.0000      -0.511648       -13.9227
 220   2.0000      -0.508790       -13.8449
 221   2.0000      -0.505872       -13.7655
 222   2.0000      -0.505357       -13.7515
 223   2.0000      -0.502491       -13.6735
 224   2.0000      -0.500651       -13.6234
 225   2.0000      -0.497640       -13.5415
 226   2.0000      -0.490886       -13.3577
 227   2.0000      -0.490412       -13.3448
 228   2.0000      -0.489025       -13.3071
 229   2.0000      -0.485537       -13.2121
 230   2.0000      -0.482780       -13.1371
 231   2.0000      -0.481374       -13.0989
 232   2.0000      -0.476357       -12.9623
 233   2.0000      -0.472286       -12.8515
 234   2.0000      -0.472219       -12.8497
 235   2.0000      -0.469514       -12.7761
 236   2.0000      -0.469382       -12.7725
 237   2.0000      -0.469277       -12.7697
 238   2.0000      -0.467560       -12.7230
 239   2.0000      -0.462808       -12.5936
 240   2.0000      -0.462701       -12.5907
 241   2.0000      -0.462116       -12.5748
 242   2.0000      -0.460800       -12.5390
 243   2.0000      -0.459597       -12.5063
 244   2.0000      -0.459339       -12.4993
 245   2.0000      -0.458632       -12.4800
 246   2.0000      -0.458521       -12.4770
 247   2.0000      -0.454925       -12.3791
 248   2.0000      -0.454557       -12.3691
 249   2.0000      -0.452976       -12.3261
 250   2.0000      -0.452231       -12.3058
 251   2.0000      -0.451581       -12.2882
 252   2.0000      -0.451388       -12.2829
 253   2.0000      -0.451317       -12.2809
 254   2.0000      -0.450317       -12.2537
 255   2.0000      -0.450303       -12.2534
 256   2.0000      -0.450267       -12.2524
 257   2.0000      -0.449985       -12.2447
 258   2.0000      -0.446748       -12.1566
 259   2.0000      -0.441572       -12.0158
 260   2.0000      -0.440318       -11.9817
 261   2.0000      -0.438120       -11.9218
 262   2.0000      -0.437865       -11.9149
 263   2.0000      -0.437138       -11.8951
 264   2.0000      -0.436739       -11.8843
 265   2.0000      -0.436430       -11.8759
 266   2.0000      -0.435506       -11.8507
 267   2.0000      -0.435366       -11.8469
 268   2.0000      -0.433123       -11.7859
 269   2.0000      -0.432068       -11.7572
 270   2.0000      -0.430873       -11.7246
 271   2.0000      -0.425482       -11.5780
 272   2.0000      -0.420813       -11.4509
 273   2.0000      -0.419489       -11.4149
 274   2.0000      -0.419135       -11.4052
 275   2.0000      -0.416987       -11.3468
 276   2.0000      -0.415773       -11.3138
 277   2.0000      -0.415667       -11.3109
 278   2.0000      -0.400199       -10.8900
 279   2.0000      -0.395637       -10.7658
 280   2.0000      -0.389572       -10.6008
 281   2.0000      -0.389335       -10.5943
 282   2.0000      -0.382411       -10.4059
 283   2.0000      -0.365836        -9.9549
 284   2.0000      -0.362894        -9.8748
 285   2.0000      -0.361619        -9.8402
 286   2.0000      -0.355161        -9.6644
 287   2.0000      -0.344246        -9.3674
 288   2.0000      -0.338220        -9.2034
 289   2.0000      -0.337897        -9.1947
 290   2.0000      -0.335511        -9.1297
 291   2.0000      -0.334031        -9.0894
 292   2.0000      -0.323963        -8.8155
 293   2.0000      -0.314991        -8.5713
 294   2.0000      -0.305856        -8.3228
 295   2.0000      -0.298381        -8.1194
 296   2.0000      -0.275153        -7.4873
 297   2.0000      -0.250057        -6.8044
 298   0.0000      -0.125448        -3.4136
 299   0.0000      -0.120671        -3.2836
 300   0.0000      -0.100456        -2.7335
 301   0.0000      -0.099569        -2.7094
 302   0.0000      -0.091750        -2.4966

MULLIKEN ATOMIC CHARGES
-----------------------
   0 C :   -0.034946
   1 C :    0.047873
   2 C :    0.048662
   3 C :   -0.027270
   4 C :   -0.001467
   5 C :    0.016458
   6 C :    0.295407
   7 C :   -0.346664
   8 C :   -0.186734
   9 N :    0.159538
  10 C :   -0.176388
  11 N :    0.152926
  12 C :   -0.074490
  13 C :    0.231408
  14 C :   -0.339989
  15 C :   -0.195230
  16 N :    0.180595
  17 C :   -0.181550
  18 N :    0.174588
  19 C :    0.084715
  20 C :   -0.144973
  21 C :   -0.002530
  22 C :   -0.005218
  23 C :   -0.059950
  24 S :    0.232482
  25 C :   -0.110151
  26 C :    0.025950
  27 C :    0.302579
  28 C :   -0.286471
  29 C :   -0.185382
  30 N :    0.180628
  31 C :   -0.184075
  32 N :    0.173646
  33 C :   -0.066698
  34 C :   -0.034265
  35 S :    0.197966
  36 C :   -0.051957
  37 C :   -0.062099
  38 C :   -0.023071
  39 C :   -0.071542
  40 S :    0.169140
  41 C :   -0.071098
  42 C :   -0.023182
  43 S :    0.168692
  44 C :   -0.061379
  45 C :   -0.054436
  46 S :    0.168885
  47 C :   -0.033681
  48 C :   -0.067381
  49 C :    0.025761
  50 C :   -0.108828
  51 S :    0.197865
  52 C :   -0.060955
  53 C :   -0.008623
  54 C :    0.304294
  55 C :   -0.283615
  56 C :   -0.182661
  57 N :    0.168870
  58 C :   -0.188313
  59 N :    0.182814
  60 C :   -0.000438
  61 C :   -0.141314
  62 S :    0.229964
  63 C :    0.089628
  64 C :   -0.074419
  65 C :    0.290460
  66 C :   -0.342792
  67 C :   -0.177599
  68 N :    0.152526
  69 C :   -0.188048
  70 N :    0.160271
  71 C :    0.015224
  72 C :   -0.002021
  73 C :   -0.028517
  74 C :    0.048790
  75 C :    0.049374
  76 C :   -0.035389
  77 C :    0.228838
  78 C :   -0.334353
  79 C :   -0.180209
  80 N :    0.174438
  81 C :   -0.196327
  82 N :    0.179656
  83 H :    0.006050
  84 H :    0.005673
  85 H :    0.007572
  86 H :    0.014393
  87 H :    0.014540
  88 H :    0.031138
  89 H :    0.018464
  90 H :   -0.003567
  91 H :   -0.003149
  92 H :    0.019029
  93 H :    0.031075
  94 H :    0.012546
  95 H :    0.014352
  96 H :    0.007270
  97 H :    0.005267
  98 H :    0.007124
Sum of atomic charges:   -0.0000000

LOEWDIN ATOMIC CHARGES
----------------------
   0 C :    0.005418
   1 C :    0.003158
   2 C :    0.006896
   3 C :    0.005656
   4 C :   -0.010149
   5 C :   -0.013809
   6 C :    0.078949
   7 C :   -0.134794
   8 C :   -0.019320
   9 N :   -0.045125
  10 C :   -0.020998
  11 N :   -0.046608
  12 C :   -0.057419
  13 C :    0.066168
  14 C :   -0.128637
  15 C :   -0.017494
  16 N :   -0.042754
  17 C :   -0.020638
  18 N :   -0.037741
  19 C :    0.035227
  20 C :   -0.184195
  21 C :    0.008311
  22 C :   -0.067885
  23 C :   -0.151643
  24 S :    0.513117
  25 C :   -0.189112
  26 C :   -0.050827
  27 C :    0.080658
  28 C :   -0.094229
  29 C :   -0.017684
  30 N :   -0.023964
  31 C :   -0.012692
  32 N :   -0.029606
  33 C :   -0.038316
  34 C :   -0.163350
  35 S :    0.485290
  36 C :   -0.178553
  37 C :   -0.065503
  38 C :   -0.188407
  39 C :   -0.212331
  40 S :    0.445537
  41 C :   -0.212428
  42 C :   -0.188528
  43 S :    0.415877
  44 C :   -0.065522
  45 C :   -0.178434
  46 S :    0.445669
  47 C :   -0.163360
  48 C :   -0.038383
  49 C :   -0.050870
  50 C :   -0.189442
  51 S :    0.485120
  52 C :   -0.152163
  53 C :   -0.067810
  54 C :    0.080719
  55 C :   -0.094140
  56 C :   -0.012567
  57 N :   -0.029699
  58 C :   -0.017814
  59 N :   -0.023858
  60 C :    0.008838
  61 C :   -0.183544
  62 S :    0.511939
  63 C :    0.034537
  64 C :   -0.057509
  65 C :    0.079402
  66 C :   -0.134823
  67 C :   -0.021317
  68 N :   -0.046587
  69 C :   -0.019569
  70 N :   -0.045175
  71 C :   -0.013821
  72 C :   -0.010106
  73 C :    0.005551
  74 C :    0.006700
  75 C :    0.003374
  76 C :    0.005207
  77 C :    0.065908
  78 C :   -0.128454
  79 C :   -0.020686
  80 N :   -0.037212
  81 C :   -0.017533
  82 N :   -0.041166
  83 H :    0.041617
  84 H :    0.038324
  85 H :    0.038931
  86 H :    0.043681
  87 H :    0.045635
  88 H :    0.042995
  89 H :    0.038474
  90 H :    0.031959
  91 H :    0.032032
  92 H :    0.038462
  93 H :    0.042952
  94 H :    0.045497
  95 H :    0.043655
  96 H :    0.038865
  97 H :    0.038198
  98 H :    0.041797

  Mayer bond orders larger than 0.100000
B(  0-C ,  1-C ) :   1.3718 B(  0-C ,  5-C ) :   1.3807 B(  0-C , 83-H ) :   0.9848
B(  1-C ,  2-C ) :   1.3752 B(  1-C , 84-H ) :   0.9861 B(  2-C ,  3-C ) :   1.3658
B(  2-C , 85-H ) :   0.9871 B(  3-C ,  4-C ) :   1.3814 B(  3-C , 86-H ) :   0.9878
B(  4-C ,  5-C ) :   1.3106 B(  4-C , 13-C ) :   1.0080 B(  5-C ,  6-C ) :   0.9985
B(  6-C ,  7-C ) :   1.6352 B(  6-C , 12-C ) :   1.0644 B(  7-C ,  8-C ) :   1.1466
B(  7-C , 10-C ) :   1.1356 B(  8-C ,  9-N ) :   2.9770 B( 10-C , 11-N ) :   2.9648
B( 12-C , 13-C ) :   1.0157 B( 12-C , 19-C ) :   1.6210 B( 13-C , 14-C ) :   1.6584
B( 14-C , 15-C ) :   1.1606 B( 14-C , 17-C ) :   1.1390 B( 15-C , 16-N ) :   3.0074
B( 17-C , 18-N ) :   3.0002 B( 19-C , 20-C ) :   1.1816 B( 19-C , 87-H ) :   0.9123
B( 20-C , 21-C ) :   1.3782 B( 20-C , 24-S ) :   1.0929 B( 21-C , 22-C ) :   1.3705
B( 21-C , 88-H ) :   0.9825 B( 22-C , 23-C ) :   1.3934 B( 22-C , 27-C ) :   0.9968
B( 23-C , 24-S ) :   1.1628 B( 23-C , 25-C ) :   1.2052 B( 25-C , 26-C ) :   1.4405
B( 25-C , 35-S ) :   1.1081 B( 26-C , 27-C ) :   0.9912 B( 26-C , 33-C ) :   1.3055
B( 27-C , 28-C ) :   1.7233 B( 28-C , 29-C ) :   1.1285 B( 28-C , 31-C ) :   1.1370
B( 29-C , 30-N ) :   2.9936 B( 31-C , 32-N ) :   2.9784 B( 33-C , 34-C ) :   1.4476
B( 33-C , 89-H ) :   0.9882 B( 34-C , 35-S ) :   1.1202 B( 34-C , 36-C ) :   1.1773
B( 36-C , 37-C ) :   1.5035 B( 36-C , 40-S ) :   1.0987 B( 37-C , 38-C ) :   1.2798
B( 37-C , 90-H ) :   0.9945 B( 38-C , 39-C ) :   1.4591 B( 38-C , 43-S ) :   1.0530
B( 39-C , 40-S ) :   1.0733 B( 39-C , 41-C ) :   1.3058 B( 41-C , 42-C ) :   1.4579
B( 41-C , 46-S ) :   1.0739 B( 42-C , 43-S ) :   1.0536 B( 42-C , 44-C ) :   1.2810
B( 44-C , 45-C ) :   1.5037 B( 44-C , 91-H ) :   0.9940 B( 45-C , 46-S ) :   1.0984
B( 45-C , 47-C ) :   1.1781 B( 47-C , 48-C ) :   1.4458 B( 47-C , 51-S ) :   1.1198
B( 48-C , 49-C ) :   1.3074 B( 48-C , 92-H ) :   0.9882 B( 49-C , 50-C ) :   1.4381
B( 49-C , 54-C ) :   0.9915 B( 50-C , 51-S ) :   1.1084 B( 50-C , 52-C ) :   1.2044
B( 52-C , 53-C ) :   1.3941 B( 52-C , 62-S ) :   1.1616 B( 53-C , 54-C ) :   0.9978
B( 53-C , 60-C ) :   1.3728 B( 54-C , 55-C ) :   1.7209 B( 55-C , 56-C ) :   1.1345
B( 55-C , 58-C ) :   1.1307 B( 56-C , 57-N ) :   2.9772 B( 58-C , 59-N ) :   2.9933
B( 60-C , 61-C ) :   1.3747 B( 60-C , 93-H ) :   0.9811 B( 61-C , 62-S ) :   1.0922
B( 61-C , 63-C ) :   1.1884 B( 63-C , 64-C ) :   1.6232 B( 63-C , 94-H ) :   0.9095
B( 64-C , 65-C ) :   1.0629 B( 64-C , 77-C ) :   1.0148 B( 65-C , 66-C ) :   1.6377
B( 65-C , 71-C ) :   0.9986 B( 66-C , 67-C ) :   1.1353 B( 66-C , 69-C ) :   1.1448
B( 67-C , 68-N ) :   2.9674 B( 69-C , 70-N ) :   2.9792 B( 71-C , 72-C ) :   1.3119
B( 71-C , 76-C ) :   1.3807 B( 72-C , 73-C ) :   1.3848 B( 72-C , 77-C ) :   1.0057
B( 73-C , 74-C ) :   1.3646 B( 73-C , 95-H ) :   0.9873 B( 74-C , 75-C ) :   1.3774
B( 74-C , 96-H ) :   0.9865 B( 75-C , 76-C ) :   1.3708 B( 75-C , 97-H ) :   0.9863
B( 76-C , 98-H ) :   0.9842 B( 77-C , 78-C ) :   1.6610 B( 78-C , 79-C ) :   1.1369
B( 78-C , 81-C ) :   1.1600 B( 79-C , 80-N ) :   3.0009 B( 81-C , 82-N ) :   3.0057

-----------------------------------------------------------------------------
         ABSORPTION SPECTRUM VIA TRANSITION ELECTRIC DIPOLE MOMENTS
-----------------------------------------------------------------------------
State   Energy  Wavelength   fosc         T2         TX        TY        TZ
        (cm-1)    (nm)                  (au**2)     (au)      (au)      (au)
-----------------------------------------------------------------------------
   0   11697.1    854.9   0.900666974  25.34910  -0.39723  -4.60126  -2.00493
   1   12458.3    802.7   0.005209033   0.13765   0.19023   0.10025  -0.30234
   2   17593.0    568.4   1.701246667  31.83482  -0.41848  -5.17786  -2.20216
   3   18614.9    537.2   0.056431184   0.99801   0.09568   0.02797   0.99402
   4   20376.6    490.8   0.006847342   0.11063   0.10499  -0.11120   0.29537
   5   20897.8    478.5   0.000249331   0.00393   0.03701   0.03590  -0.03563
   6   22061.8    453.3   0.395004179   5.89435  -0.35841  -2.02181  -1.29545
   7   22171.2    451.0   0.134310540   1.99433   0.12779  -1.22086   0.69821
   8   25185.4    397.1   0.201658101   2.63599   0.10017   1.49639   0.62191
   9   25526.9    391.7   0.078027322   1.00629  -0.33782  -0.88784  -0.32235
  10   25589.6    390.8   0.051446875   0.66187   0.17816  -0.73446  -0.30115
  11   26060.9    383.7   0.024199780   0.30570  -0.48727   0.23204   0.12011
  12   26439.0    378.2   0.006723926   0.08372  -0.21112  -0.10605   0.16705
  13   27003.7    370.3   0.239331880   2.91779   0.12860   1.56555   0.67104
  14   27536.9    363.1   0.125234610   1.49722   0.09031   1.12273   0.47806
  15   28518.0    350.7   0.079133439   0.91352   0.05542   0.89598   0.32814
  16   28852.8    346.6   0.016972022   0.19365  -0.07138   0.12342  -0.41632
  17   29465.9    339.4   0.101601449   1.13516  -0.66155  -0.25743  -0.79450
  18   29572.7    338.1   0.135327822   1.50651  -0.12681   1.19138   0.26654
  19   29941.3    334.0   0.135165986   1.48618  -0.47709  -0.90938   0.65696
  20   30001.7    333.3   0.111924613   1.22816   0.27342  -0.58211  -0.90253
  21   30461.8    328.3   0.323420850   3.49533   0.95146   0.24602  -1.59045
  22   30512.3    327.7   0.407857631   4.40057  -1.29080  -0.88247   1.39845
  23   31423.0    318.2   0.074200419   0.77738  -0.56403  -0.34590   0.58276
  24   31525.9    317.2   0.023020885   0.24040  -0.26716   0.14207   0.38580
  25   31988.5    312.6   0.023055432   0.23728  -0.42045  -0.06241   0.23791
  26   32457.5    308.1   0.023422995   0.23758  -0.45554   0.15634  -0.07495
  27   32754.3    305.3   0.384375399   3.86333   0.20580   1.79347   0.77746
  28   33135.5    301.8   0.146146726   1.45202  -0.36486  -0.79922  -0.82471
  29   33270.4    300.6   0.669272579   6.62248  -0.51274   1.21283  -2.21102
  30   33519.7    298.3   0.091452432   0.89820  -0.63397  -0.31288   0.63117
  31   33573.7    297.9   0.084608794   0.82964  -0.04769  -0.63315  -0.65306
  32   33925.5    294.8   0.723888650   7.02459   1.32772   0.87214  -2.12158
  33   34364.1    291.0   0.012776348   0.12240   0.02894   0.15344  -0.31308
  34   34657.5    288.5   0.009907973   0.09412  -0.05768   0.25743   0.15659
  35   34726.6    288.0   0.008610476   0.08163  -0.27370   0.03968   0.07171
  36   35000.9    285.7   0.121177506   1.13977   0.17748   0.97621   0.39405
  37   35259.8    283.6   0.148086377   1.38264  -0.72938  -0.88806  -0.24899
  38   35379.6    282.6   0.215588899   2.00608   0.29458  -1.26954  -0.55459
  39   35623.9    280.7   0.114557524   1.05866  -0.32309  -0.96308  -0.16355
  40   35688.3    280.2   0.173929590   1.60444   1.10774  -0.23706  -0.56670
  41   36348.4    275.1   0.105152130   0.95238   0.40063   0.64336  -0.61479
  42   36409.7    274.7   0.020571852   0.18601  -0.08002  -0.41706   0.07528
  43   36427.1    274.5   0.139330922   1.25921   0.56821   0.14171  -0.95722
  44   36510.8    273.9   0.153367752   1.38289  -0.64417  -0.21229   0.96066
  45   36860.2    271.3   0.000262730   0.00235   0.04793   0.00423   0.00562
  46   37112.5    269.5   0.036533079   0.32407   0.40456   0.12149  -0.38164
  47   37505.2    266.6   0.018580531   0.16310  -0.16713  -0.22484   0.29088
  48   37517.1    266.5   0.016929021   0.14855   0.16675   0.02879  -0.34629
  49   38155.0    262.1   0.000683605   0.00590  -0.07361   0.00472  -0.02139
  50   38293.9    261.1   0.000598648   0.00515   0.01257   0.06250  -0.03289
  51   38502.0    259.7   0.039145833   0.33472  -0.37532  -0.14174   0.41684
  52   38597.3    259.1   0.005117053   0.04365   0.13571   0.02775  -0.15639
  53   38709.6    258.3   0.037096924   0.31550   0.32466   0.16562  -0.42739
  54   39132.1    255.5   0.148370202   1.24822   0.10492   1.02293   0.43684
  55   39319.0    254.3   0.008106200   0.06787  -0.03015   0.18430   0.18165
  56   39398.4    253.8   0.004206792   0.03515   0.08709   0.15038  -0.07038
  57   39581.6    252.6   0.074564865   0.62018  -0.15440  -0.77210  -0.01431
  58   39633.0    252.3   0.122474369   1.01733  -0.01245   0.84919   0.54411
  59   40022.4    249.9   0.029716714   0.24444  -0.28955  -0.13255   0.37820
  60   40122.1    249.2   0.021440411   0.17592  -0.23023  -0.04615   0.34755
  61   40175.9    248.9   0.109295184   0.89559  -0.47483  -0.31323   0.75632

FINAL SINGLE POINT ENERGY     -5887.666130962834

DIPOLE MOMENT
-------------
                                X             Y             Z
Electronic contribution:    -13.33765      -4.38276      12.87460
Nuclear contribution   :     14.37267       3.60190     -11.26391
                        -----------------------------------------
Total Dipole Moment    :      1.03503      -0.78086       1.61069
                        -----------------------------------------
Magnitude (a.u.)       :      2.06769
Magnitude (Debye)      :      5.25566

Rotational constants in cm-1:     0.002476     0.000124     0.000120
Rotational constants in MHz :    74.223809     3.728783     3.601503

                             ****ORCA TERMINATED NORMALLY****
TOTAL RUN TIME: 0 days 0 hours 11 minutes 42 seconds 170 msec
