                         Program Version 4.2.0 -  RELEASE  -
|  1> # ORCA input file
|  2> # SCF done       -210.764469250529          0.000655477288
|  3> ! CAM-B3LYP def2-SVP def2/J RIJCOSX Grid4 TightSCF
|  4> %maxcore 5000
|  5> %tddft
|  6>     Mode sTDDFT
|  7>     Ethresh 5.0
|  8>     maxcore 5000
|  9> end
| 10>
| 11> %pal
| 12>   nprocs 6
| 13>   end
| 14> * xyz 0 1
| 15>    C       -9.45958         2.06353         0.39166
| 16>    C       -9.00672         3.00551         1.27211
| 17>    F       -9.57913         4.21519         1.31722
| 18>    C       -7.93530         2.71866         2.14224
| 19>    F       -7.51374         3.66092         2.99572
| 20>    C       -7.33089         1.49316         2.11889
| 21>    C       -7.77503         0.50104         1.22317
| 22>    C       -8.85826         0.78960         0.34251
| 23>    C       -9.32024        -0.19038        -0.56532
| 24>    C       -8.71660        -1.42033        -0.59050
| 25>    C       -7.63996        -1.70138         0.29547
| 26>    C       -7.17132        -0.77506         1.18218
| 27>    C       -7.16659        -3.08441         0.08592
| 28>    O       -6.24955        -3.61961         0.66774
| 29>    C       -8.09515        -3.66766        -0.92025
| 30>    C       -8.96561        -2.60636        -1.40021
| 31>    C       -9.79421        -2.68037        -2.48703
| 32>    C       -9.90687        -3.80720        -3.33070
| 33>    N      -10.01701        -4.67085        -4.07866
| 34>    C      -10.59867        -1.61143        -2.93499
| 35>    N      -11.27265        -0.77378        -3.33655
| 36>    C       -8.29151        -4.99445        -1.15836
| 37>    C       -7.46176        -6.09133        -0.77740
| 38>    C       -8.06840        -7.35902        -0.55543
| 39>    N       -9.33719        -7.70910        -0.57739
| 40>    O       -9.37215        -8.99407        -0.22777
| 41>    N       -8.16846        -9.49772         0.02806
| 42>    C       -7.30597        -8.52400        -0.17055
| 43>    C       -5.88799        -8.44897        -0.03941
| 44>    C       -5.33843        -7.19581        -0.28679
| 45>    C       -6.08122        -6.06955        -0.64044
| 46>    C       -5.07586        -9.56220         0.32083
| 47>    S       -3.44881        -9.30570         0.87171
| 48>    C       -3.12739       -10.98978         1.09228
| 49>    C       -4.25298       -11.73442         0.73685
| 50>    C       -5.34906       -10.93220         0.28969
| 51>    N       -6.48312       -11.50102        -0.16198
| 52>    C       -6.55310       -12.80341        -0.11994
| 53>    O       -7.63497       -13.44211        -0.54164
| 54>    C       -8.71527       -12.64453        -1.03684
| 55>    C       -8.44973       -12.13209        -2.44447
| 56>    C       -5.47428       -13.61900         0.40027
| 57>    C       -5.65545       -15.09998         0.48702
| 58>    N       -4.44965       -15.76574         0.92640
| 59>    N       -4.36336       -13.08236         0.80328
| 60>    C       -1.85496       -11.45068         1.56790
| 61>    C       -0.84947       -10.54074         1.91304
| 62>    C        0.37684       -10.98305         2.36380
| 63>    N        1.39634        -9.97387         2.53209
| 64>    O        2.49848       -10.21354         2.08799
| 65>    O        1.07020        -8.93579         3.06321
| 66>    C        0.65242       -12.35122         2.54065
| 67>    C       -0.35077       -13.24818         2.14589
| 68>    C       -1.56765       -12.82142         1.66940
| 69>    C        1.84945       -12.86387         3.15859
| 70>    C        2.57174       -12.23528         4.11156
| 71>    C        3.73426       -12.80897         4.68782
| 72>    C        4.48031       -12.29500         5.70073
| 73>    C        5.87434       -12.78103         5.91055
| 74>    O        6.35581       -13.80293         5.48282
| 75>    C        6.53570       -11.71900         6.69491
| 76>    C        7.85265       -11.59886         7.03397
| 77>    C        8.27480       -10.46001         7.75541
| 78>    C        7.32037        -9.46156         8.10790
| 79>    C        7.75146        -8.32141         8.81573
| 80>    C        9.06649        -8.18078         9.15990
| 81>    C       10.00890        -9.17018         8.81312
| 82>    C        9.62271       -10.28654         8.12592
| 83>    F       11.29128        -9.00539         9.16336
| 84>    F        9.47444        -7.09713         9.83245
| 85>    C        5.96131        -9.61761         7.75166
| 86>    C        5.57308       -10.73451         7.06091
| 87>    C        4.26098       -11.16809         6.58608
| 88>    C        3.05877       -10.72453         7.06755
| 89>    C        1.81733       -11.33535         6.78748
| 90>    N        0.79293       -11.82688         6.62549
| 91>    C        2.93306        -9.66951         7.99721
| 92>    N        2.78014        -8.81430         8.74660
| 93>    H      -10.27959         2.30026        -0.26819
| 94>    H       -6.51236         1.28877         2.79117
| 95>    H      -10.14645         0.05351        -1.21358
| 96>    H       -6.35184        -1.01398         1.84290
| 97>    H       -9.21756        -5.29469        -1.63559
| 98>    H       -4.26614        -7.08751        -0.21122
| 99>    H       -5.54682        -5.15641        -0.84020
|100>    H       -8.87267       -11.80312        -0.35707
|101>    H       -9.57581       -13.31634        -1.02153
|102>    H       -7.60285       -11.45121        -2.43620
|103>    H       -9.32559       -11.59924        -2.80228
|104>    H       -8.23694       -12.95862        -3.11832
|105>    H       -5.92101       -15.47344        -0.50878
|106>    H       -6.53645       -15.27655         1.13312
|107>    H       -4.10311       -15.33584         1.77651
|108>    H       -4.62985       -16.74628         1.10582
|109>    H       -1.01297        -9.47749         1.80802
|110>    H       -0.16282       -14.30639         2.24586
|111>    H       -2.32131       -13.53087         1.36635
|112>    H        2.11876       -13.87679         2.88804
|113>    H        2.28181       -11.25429         4.45687
|114>    H        4.13239       -13.70203         4.21841
|115>    H        8.56371       -12.36002         6.75110
|116>    H        7.04298        -7.55596         9.09132
|117>    H       10.35605       -11.03406         7.86684
|118>    H        5.26222        -8.84224         8.02177
|119> *
|120>
|121>                          ****END OF INPUT****

CARTESIAN COORDINATES (ANGSTROEM)
---------------------------------
  C     -9.459580    2.063530    0.391660
  C     -9.006720    3.005510    1.272110
  F     -9.579130    4.215190    1.317220
  C     -7.935300    2.718660    2.142240
  F     -7.513740    3.660920    2.995720
  C     -7.330890    1.493160    2.118890
  C     -7.775030    0.501040    1.223170
  C     -8.858260    0.789600    0.342510
  C     -9.320240   -0.190380   -0.565320
  C     -8.716600   -1.420330   -0.590500
  C     -7.639960   -1.701380    0.295470
  C     -7.171320   -0.775060    1.182180
  C     -7.166590   -3.084410    0.085920
  O     -6.249550   -3.619610    0.667740
  C     -8.095150   -3.667660   -0.920250
  C     -8.965610   -2.606360   -1.400210
  C     -9.794210   -2.680370   -2.487030
  C     -9.906870   -3.807200   -3.330700
  N    -10.017010   -4.670850   -4.078660
  C    -10.598670   -1.611430   -2.934990
  N    -11.272650   -0.773780   -3.336550
  C     -8.291510   -4.994450   -1.158360
  C     -7.461760   -6.091330   -0.777400
  C     -8.068400   -7.359020   -0.555430
  N     -9.337190   -7.709100   -0.577390
  O     -9.372150   -8.994070   -0.227770
  N     -8.168460   -9.497720    0.028060
  C     -7.305970   -8.524000   -0.170550
  C     -5.887990   -8.448970   -0.039410
  C     -5.338430   -7.195810   -0.286790
  C     -6.081220   -6.069550   -0.640440
  C     -5.075860   -9.562200    0.320830
  S     -3.448810   -9.305700    0.871710
  C     -3.127390  -10.989780    1.092280
  C     -4.252980  -11.734420    0.736850
  C     -5.349060  -10.932200    0.289690
  N     -6.483120  -11.501020   -0.161980
  C     -6.553100  -12.803410   -0.119940
  O     -7.634970  -13.442110   -0.541640
  C     -8.715270  -12.644530   -1.036840
  C     -8.449730  -12.132090   -2.444470
  C     -5.474280  -13.619000    0.400270
  C     -5.655450  -15.099980    0.487020
  N     -4.449650  -15.765740    0.926400
  N     -4.363360  -13.082360    0.803280
  C     -1.854960  -11.450680    1.567900
  C     -0.849470  -10.540740    1.913040
  C      0.376840  -10.983050    2.363800
  N      1.396340   -9.973870    2.532090
  O      2.498480  -10.213540    2.087990
  O      1.070200   -8.935790    3.063210
  C      0.652420  -12.351220    2.540650
  C     -0.350770  -13.248180    2.145890
  C     -1.567650  -12.821420    1.669400
  C      1.849450  -12.863870    3.158590
  C      2.571740  -12.235280    4.111560
  C      3.734260  -12.808970    4.687820
  C      4.480310  -12.295000    5.700730
  C      5.874340  -12.781030    5.910550
  O      6.355810  -13.802930    5.482820
  C      6.535700  -11.719000    6.694910
  C      7.852650  -11.598860    7.033970
  C      8.274800  -10.460010    7.755410
  C      7.320370   -9.461560    8.107900
  C      7.751460   -8.321410    8.815730
  C      9.066490   -8.180780    9.159900
  C     10.008900   -9.170180    8.813120
  C      9.622710  -10.286540    8.125920
  F     11.291280   -9.005390    9.163360
  F      9.474440   -7.097130    9.832450
  C      5.961310   -9.617610    7.751660
  C      5.573080  -10.734510    7.060910
  C      4.260980  -11.168090    6.586080
  C      3.058770  -10.724530    7.067550
  C      1.817330  -11.335350    6.787480
  N      0.792930  -11.826880    6.625490
  C      2.933060   -9.669510    7.997210
  N      2.780140   -8.814300    8.746600
  H    -10.279590    2.300260   -0.268190
  H     -6.512360    1.288770    2.791170
  H    -10.146450    0.053510   -1.213580
  H     -6.351840   -1.013980    1.842900
  H     -9.217560   -5.294690   -1.635590
  H     -4.266140   -7.087510   -0.211220
  H     -5.546820   -5.156410   -0.840200
  H     -8.872670  -11.803120   -0.357070
  H     -9.575810  -13.316340   -1.021530
  H     -7.602850  -11.451210   -2.436200
  H     -9.325590  -11.599240   -2.802280
  H     -8.236940  -12.958620   -3.118320
  H     -5.921010  -15.473440   -0.508780
  H     -6.536450  -15.276550    1.133120
  H     -4.103110  -15.335840    1.776510
  H     -4.629850  -16.746280    1.105820
  H     -1.012970   -9.477490    1.808020
  H     -0.162820  -14.306390    2.245860
  H     -2.321310  -13.530870    1.366350
  H      2.118760  -13.876790    2.888040
  H      2.281810  -11.254290    4.456870
  H      4.132390  -13.702030    4.218410
  H      8.563710  -12.360020    6.751100
  H      7.042980   -7.555960    9.091320
  H     10.356050  -11.034060    7.866840
  H      5.262220   -8.842240    8.021770

 Total Charge           Charge          ....    0
 Multiplicity           Mult            ....    1
 Number of Electrons    NEL             ....  538
 Basis Dimension        Dim             .... 1226

ORBITAL ENERGIES
----------------

  NO   OCC          E(Eh)            E(eV)
   0   2.0000     -88.989211     -2421.5195
   1   2.0000     -24.800593      -674.8584
   2   2.0000     -24.799682      -674.8337
   3   2.0000     -24.799163      -674.8195
   4   2.0000     -24.798449      -674.8001
   5   2.0000     -19.360869      -526.8360
   6   2.0000     -19.272521      -524.4320
   7   2.0000     -19.254545      -523.9428
   8   2.0000     -19.252782      -523.8948
   9   2.0000     -19.224210      -523.1174
  10   2.0000     -19.219035      -522.9765
  11   2.0000     -14.657743      -398.8575
  12   2.0000     -14.486347      -394.1935
  13   2.0000     -14.482507      -394.0891
  14   2.0000     -14.438918      -392.9029
  15   2.0000     -14.423304      -392.4781
  16   2.0000     -14.419703      -392.3801
  17   2.0000     -14.419163      -392.3654
  18   2.0000     -14.418332      -392.3427
  19   2.0000     -14.416789      -392.3008
  20   2.0000     -14.393588      -391.6694
  21   2.0000     -10.391528      -282.7679
  22   2.0000     -10.383962      -282.5620
  23   2.0000     -10.383361      -282.5456
  24   2.0000     -10.382521      -282.5228
  25   2.0000     -10.381959      -282.5075
  26   2.0000     -10.376222      -282.3514
  27   2.0000     -10.370108      -282.1850
  28   2.0000     -10.349832      -281.6333
  29   2.0000     -10.347185      -281.5612
  30   2.0000     -10.346139      -281.5328
  31   2.0000     -10.344226      -281.4807
  32   2.0000     -10.343564      -281.4627
  33   2.0000     -10.342938      -281.4456
  34   2.0000     -10.335398      -281.2405
  35   2.0000     -10.334438      -281.2143
  36   2.0000     -10.334148      -281.2065
  37   2.0000     -10.333419      -281.1866
  38   2.0000     -10.332292      -281.1560
  39   2.0000     -10.327724      -281.0316
  40   2.0000     -10.325620      -280.9744
  41   2.0000     -10.324911      -280.9551
  42   2.0000     -10.324208      -280.9360
  43   2.0000     -10.321767      -280.8696
  44   2.0000     -10.321519      -280.8628
  45   2.0000     -10.320483      -280.8346
  46   2.0000     -10.319163      -280.7987
  47   2.0000     -10.319063      -280.7960
  48   2.0000     -10.318850      -280.7902
  49   2.0000     -10.318630      -280.7842
  50   2.0000     -10.313537      -280.6456
  51   2.0000     -10.313284      -280.6387
  52   2.0000     -10.312135      -280.6075
  53   2.0000     -10.312117      -280.6070
  54   2.0000     -10.311800      -280.5983
  55   2.0000     -10.311523      -280.5908
  56   2.0000     -10.310933      -280.5747
  57   2.0000     -10.310678      -280.5678
  58   2.0000     -10.310246      -280.5561
  59   2.0000     -10.310054      -280.5508
  60   2.0000     -10.308725      -280.5147
  61   2.0000     -10.306117      -280.4437
  62   2.0000     -10.305932      -280.4387
  63   2.0000     -10.305589      -280.4293
  64   2.0000     -10.304494      -280.3995
  65   2.0000     -10.304180      -280.3910
  66   2.0000     -10.303616      -280.3757
  67   2.0000     -10.303487      -280.3721
  68   2.0000     -10.302806      -280.3536
  69   2.0000     -10.302255      -280.3386
  70   2.0000     -10.302200      -280.3371
  71   2.0000     -10.301494      -280.3179
  72   2.0000     -10.301344      -280.3138
  73   2.0000     -10.299912      -280.2749
  74   2.0000     -10.297029      -280.1964
  75   2.0000     -10.295883      -280.1652
  76   2.0000     -10.294182      -280.1189
  77   2.0000     -10.261349      -279.2255
  78   2.0000      -8.083873      -219.9734
  79   2.0000      -6.052890      -164.7075
  80   2.0000      -6.048899      -164.5989
  81   2.0000      -6.046529      -164.5344
  82   2.0000      -1.334772       -36.3210
  83   2.0000      -1.323178       -36.0055
  84   2.0000      -1.321901       -35.9708
  85   2.0000      -1.314550       -35.7707
  86   2.0000      -1.308298       -35.6006
  87   2.0000      -1.307037       -35.5663
  88   2.0000      -1.189854       -32.3776
  89   2.0000      -1.153321       -31.3835
  90   2.0000      -1.140154       -31.0252
  91   2.0000      -1.134623       -30.8747
  92   2.0000      -1.090441       -29.6724
  93   2.0000      -1.025617       -27.9085
  94   2.0000      -1.023160       -27.8416
  95   2.0000      -1.022997       -27.8372
  96   2.0000      -1.016793       -27.6684
  97   2.0000      -1.012413       -27.5492
  98   2.0000      -1.006916       -27.3996
  99   2.0000      -1.006292       -27.3826
 100   2.0000      -1.005861       -27.3709
 101   2.0000      -0.997572       -27.1453
 102   2.0000      -0.996410       -27.1137
 103   2.0000      -0.991099       -26.9692
 104   2.0000      -0.984275       -26.7835
 105   2.0000      -0.983726       -26.7685
 106   2.0000      -0.970934       -26.4204
 107   2.0000      -0.941297       -25.6140
 108   2.0000      -0.938040       -25.5254
 109   2.0000      -0.932096       -25.3636
 110   2.0000      -0.926682       -25.2163
 111   2.0000      -0.919752       -25.0277
 112   2.0000      -0.910719       -24.7819
 113   2.0000      -0.902793       -24.5662
 114   2.0000      -0.898816       -24.4580
 115   2.0000      -0.894516       -24.3410
 116   2.0000      -0.892801       -24.2943
 117   2.0000      -0.887330       -24.1455
 118   2.0000      -0.881700       -23.9923
 119   2.0000      -0.865107       -23.5408
 120   2.0000      -0.849546       -23.1173
 121   2.0000      -0.845352       -23.0032
 122   2.0000      -0.843334       -22.9483
 123   2.0000      -0.842256       -22.9189
 124   2.0000      -0.827974       -22.5303
 125   2.0000      -0.807614       -21.9763
 126   2.0000      -0.804706       -21.8972
 127   2.0000      -0.800230       -21.7754
 128   2.0000      -0.784752       -21.3542
 129   2.0000      -0.777215       -21.1491
 130   2.0000      -0.770393       -20.9635
 131   2.0000      -0.769119       -20.9288
 132   2.0000      -0.761069       -20.7097
 133   2.0000      -0.755275       -20.5521
 134   2.0000      -0.748000       -20.3541
 135   2.0000      -0.740648       -20.1540
 136   2.0000      -0.733302       -19.9542
 137   2.0000      -0.723291       -19.6817
 138   2.0000      -0.720297       -19.6003
 139   2.0000      -0.717483       -19.5237
 140   2.0000      -0.713861       -19.4251
 141   2.0000      -0.705558       -19.1992
 142   2.0000      -0.702130       -19.1059
 143   2.0000      -0.696778       -18.9603
 144   2.0000      -0.688528       -18.7358
 145   2.0000      -0.686273       -18.6744
 146   2.0000      -0.678858       -18.4727
 147   2.0000      -0.673608       -18.3298
 148   2.0000      -0.667704       -18.1691
 149   2.0000      -0.661004       -17.9868
 150   2.0000      -0.657341       -17.8872
 151   2.0000      -0.656332       -17.8597
 152   2.0000      -0.649881       -17.6842
 153   2.0000      -0.645269       -17.5587
 154   2.0000      -0.644187       -17.5292
 155   2.0000      -0.640452       -17.4276
 156   2.0000      -0.635070       -17.2811
 157   2.0000      -0.631685       -17.1890
 158   2.0000      -0.630200       -17.1486
 159   2.0000      -0.624014       -16.9803
 160   2.0000      -0.617757       -16.8100
 161   2.0000      -0.616707       -16.7815
 162   2.0000      -0.612736       -16.6734
 163   2.0000      -0.609343       -16.5811
 164   2.0000      -0.607504       -16.5310
 165   2.0000      -0.602162       -16.3856
 166   2.0000      -0.593170       -16.1410
 167   2.0000      -0.591340       -16.0912
 168   2.0000      -0.590628       -16.0718
 169   2.0000      -0.588529       -16.0147
 170   2.0000      -0.587651       -15.9908
 171   2.0000      -0.586315       -15.9544
 172   2.0000      -0.583043       -15.8654
 173   2.0000      -0.576526       -15.6881
 174   2.0000      -0.575954       -15.6725
 175   2.0000      -0.573580       -15.6079
 176   2.0000      -0.571183       -15.5427
 177   2.0000      -0.566945       -15.4274
 178   2.0000      -0.556998       -15.1567
 179   2.0000      -0.555648       -15.1200
 180   2.0000      -0.553759       -15.0686
 181   2.0000      -0.550439       -14.9782
 182   2.0000      -0.549232       -14.9454
 183   2.0000      -0.548105       -14.9147
 184   2.0000      -0.547940       -14.9102
 185   2.0000      -0.544103       -14.8058
 186   2.0000      -0.542124       -14.7519
 187   2.0000      -0.541608       -14.7379
 188   2.0000      -0.538122       -14.6431
 189   2.0000      -0.535312       -14.5666
 190   2.0000      -0.534796       -14.5525
 191   2.0000      -0.533529       -14.5181
 192   2.0000      -0.532116       -14.4796
 193   2.0000      -0.530921       -14.4471
 194   2.0000      -0.527434       -14.3522
 195   2.0000      -0.525499       -14.2996
 196   2.0000      -0.520281       -14.1576
 197   2.0000      -0.518667       -14.1137
 198   2.0000      -0.517414       -14.0795
 199   2.0000      -0.515248       -14.0206
 200   2.0000      -0.510897       -13.9022
 201   2.0000      -0.508206       -13.8290
 202   2.0000      -0.504842       -13.7375
 203   2.0000      -0.502126       -13.6635
 204   2.0000      -0.500924       -13.6308
 205   2.0000      -0.499693       -13.5973
 206   2.0000      -0.496371       -13.5069
 207   2.0000      -0.491973       -13.3873
 208   2.0000      -0.488525       -13.2935
 209   2.0000      -0.486807       -13.2467
 210   2.0000      -0.484770       -13.1913
 211   2.0000      -0.482181       -13.1208
 212   2.0000      -0.480400       -13.0724
 213   2.0000      -0.476136       -12.9563
 214   2.0000      -0.473860       -12.8944
 215   2.0000      -0.472339       -12.8530
 216   2.0000      -0.468544       -12.7497
 217   2.0000      -0.466443       -12.6926
 218   2.0000      -0.465436       -12.6651
 219   2.0000      -0.464432       -12.6378
 220   2.0000      -0.460258       -12.5243
 221   2.0000      -0.459069       -12.4919
 222   2.0000      -0.457334       -12.4447
 223   2.0000      -0.452593       -12.3157
 224   2.0000      -0.451873       -12.2961
 225   2.0000      -0.449884       -12.2420
 226   2.0000      -0.448776       -12.2118
 227   2.0000      -0.446980       -12.1630
 228   2.0000      -0.445532       -12.1235
 229   2.0000      -0.445284       -12.1168
 230   2.0000      -0.438860       -11.9420
 231   2.0000      -0.436632       -11.8814
 232   2.0000      -0.432828       -11.7778
 233   2.0000      -0.430415       -11.7122
 234   2.0000      -0.429566       -11.6891
 235   2.0000      -0.428182       -11.6514
 236   2.0000      -0.427982       -11.6460
 237   2.0000      -0.426054       -11.5935
 238   2.0000      -0.423980       -11.5371
 239   2.0000      -0.421232       -11.4623
 240   2.0000      -0.414238       -11.2720
 241   2.0000      -0.413920       -11.2633
 242   2.0000      -0.410677       -11.1751
 243   2.0000      -0.408466       -11.1149
 244   2.0000      -0.403680       -10.9847
 245   2.0000      -0.398775       -10.8512
 246   2.0000      -0.396968       -10.8020
 247   2.0000      -0.392626       -10.6839
 248   2.0000      -0.390252       -10.6193
 249   2.0000      -0.387812       -10.5529
 250   2.0000      -0.387123       -10.5342
 251   2.0000      -0.382834       -10.4175
 252   2.0000      -0.376527       -10.2458
 253   2.0000      -0.374155       -10.1813
 254   2.0000      -0.364886        -9.9290
 255   2.0000      -0.354422        -9.6443
 256   2.0000      -0.349847        -9.5198
 257   2.0000      -0.346670        -9.4334
 258   2.0000      -0.340658        -9.2698
 259   2.0000      -0.333039        -9.0624
 260   2.0000      -0.326025        -8.8716
 261   2.0000      -0.322045        -8.7633
 262   2.0000      -0.319844        -8.7034
 263   2.0000      -0.318527        -8.6676
 264   2.0000      -0.312032        -8.4908
 265   2.0000      -0.306017        -8.3271
 266   2.0000      -0.302323        -8.2266
 267   2.0000      -0.295355        -8.0370
 268   2.0000      -0.260270        -7.0823
 269   0.0000      -0.115404        -3.1403
 270   0.0000      -0.098500        -2.6803
 271   0.0000      -0.076148        -2.0721
 272   0.0000      -0.064029        -1.7423
 273   0.0000      -0.059581        -1.6213

MULLIKEN ATOMIC CHARGES
-----------------------
   0 C :   -0.111088
   1 C :    0.244949
   2 F :   -0.169790
   3 C :    0.243004
   4 F :   -0.170576
   5 C :   -0.109962
   6 C :    0.118990
   7 C :    0.116295
   8 C :   -0.085801
   9 C :    0.059604
  10 C :   -0.011771
  11 C :   -0.081060
  12 C :    0.153562
  13 O :   -0.148293
  14 C :   -0.086932
  15 C :    0.289191
  16 C :   -0.329032
  17 C :   -0.207241
  18 N :    0.169867
  19 C :   -0.182299
  20 N :    0.149008
  21 C :   -0.034874
  22 C :    0.036127
  23 C :   -0.043387
  24 N :    0.051704
  25 O :   -0.103069
  26 N :    0.073433
  27 C :   -0.036225
  28 C :    0.134333
  29 C :   -0.072726
  30 C :    0.045102
  31 C :   -0.203713
  32 S :    0.149950
  33 C :   -0.113477
  34 C :    0.013678
  35 C :    0.074208
  36 N :   -0.012365
  37 C :    0.110156
  38 O :   -0.279149
  39 C :    0.178508
  40 C :   -0.031456
  41 C :   -0.168449
  42 C :    0.182359
  43 N :   -0.204976
  44 N :   -0.008304
  45 C :    0.100898
  46 C :   -0.066735
  47 C :    0.121499
  48 N :    0.218529
  49 O :   -0.220737
  50 O :   -0.226280
  51 C :    0.099680
  52 C :   -0.011685
  53 C :    0.007311
  54 C :    0.002142
  55 C :    0.032265
  56 C :    0.017531
  57 C :   -0.108091
  58 C :    0.143774
  59 O :   -0.135318
  60 C :    0.007781
  61 C :   -0.080313
  62 C :    0.112620
  63 C :    0.111678
  64 C :   -0.105864
  65 C :    0.241506
  66 C :    0.238957
  67 C :   -0.103412
  68 F :   -0.171285
  69 F :   -0.170417
  70 C :   -0.078760
  71 C :    0.040714
  72 C :    0.275936
  73 C :   -0.320587
  74 C :   -0.217348
  75 N :    0.173015
  76 C :   -0.177650
  77 N :    0.155184
  78 H :    0.007883
  79 H :    0.000813
  80 H :   -0.004505
  81 H :   -0.009305
  82 H :    0.047383
  83 H :    0.000871
  84 H :    0.005130
  85 H :    0.044861
  86 H :    0.023025
  87 H :    0.032205
  88 H :    0.030230
  89 H :    0.021788
  90 H :    0.026211
  91 H :    0.018312
  92 H :    0.106129
  93 H :    0.096096
  94 H :    0.008982
  95 H :   -0.009332
  96 H :    0.003304
  97 H :    0.007483
  98 H :    0.033123
  99 H :    0.016932
 100 H :   -0.008085
 101 H :    0.007547
 102 H :   -0.000070
 103 H :   -0.001561
Sum of atomic charges:   -0.0000000

LOEWDIN ATOMIC CHARGES
----------------------
   0 C :   -0.029275
   1 C :    0.067539
   2 F :   -0.047829
   3 C :    0.068170
   4 F :   -0.048400
   5 C :   -0.032802
   6 C :   -0.008518
   7 C :   -0.005766
   8 C :    0.017898
   9 C :   -0.022795
  10 C :   -0.053126
  11 C :    0.031010
  12 C :    0.083686
  13 O :   -0.137617
  14 C :   -0.088287
  15 C :    0.073353
  16 C :   -0.132423
  17 C :   -0.026695
  18 N :   -0.043618
  19 C :   -0.017038
  20 N :   -0.049914
  21 C :    0.082356
  22 C :   -0.058013
  23 C :   -0.042872
  24 N :   -0.030102
  25 O :    0.071632
  26 N :    0.002886
  27 C :   -0.051248
  28 C :   -0.006925
  29 C :   -0.031496
  30 C :    0.051695
  31 C :   -0.193108
  32 S :    0.499526
  33 C :   -0.157738
  34 C :   -0.052865
  35 C :   -0.024813
  36 N :   -0.077654
  37 C :    0.061908
  38 O :   -0.067935
  39 C :    0.088306
  40 C :   -0.068407
  41 C :    0.001282
  42 C :    0.013624
  43 N :   -0.112035
  44 N :   -0.039801
  45 C :   -0.029319
  46 C :    0.000622
  47 C :   -0.011889
  48 N :    0.278818
  49 O :   -0.191773
  50 O :   -0.194523
  51 C :   -0.013389
  52 C :    0.004594
  53 C :    0.014130
  54 C :    0.029609
  55 C :   -0.013969
  56 C :    0.070364
  57 C :   -0.083106
  58 C :    0.083378
  59 O :   -0.137746
  60 C :   -0.053828
  61 C :    0.031141
  62 C :   -0.008756
  63 C :   -0.005222
  64 C :   -0.029644
  65 C :    0.067343
  66 C :    0.067597
  67 C :   -0.032825
  68 F :   -0.048935
  69 F :   -0.048214
  70 C :    0.016203
  71 C :   -0.019564
  72 C :    0.070864
  73 C :   -0.131422
  74 C :   -0.024932
  75 N :   -0.045491
  76 C :   -0.017814
  77 N :   -0.046392
  78 H :    0.047986
  79 H :    0.045290
  80 H :    0.040304
  81 H :    0.040536
  82 H :    0.051109
  83 H :    0.028443
  84 H :    0.040873
  85 H :    0.023033
  86 H :    0.023994
  87 H :    0.026789
  88 H :    0.036657
  89 H :    0.026111
  90 H :    0.038563
  91 H :    0.022987
  92 H :    0.052402
  93 H :    0.060520
  94 H :    0.031997
  95 H :    0.037160
  96 H :    0.035244
  97 H :    0.038476
  98 H :    0.029712
  99 H :    0.045913
 100 H :    0.041031
 101 H :    0.047807
 102 H :    0.045040
 103 H :    0.040358

  Mayer bond orders larger than 0.100000
B(  0-C ,  1-C ) :   1.4407 B(  0-C ,  5-C ) :   0.1089 B(  0-C ,  7-C ) :   1.1853
B(  0-C , 78-H ) :   1.0086 B(  1-C ,  2-F ) :   1.1362 B(  1-C ,  3-C ) :   1.1893
B(  3-C ,  4-F ) :   1.1344 B(  3-C ,  5-C ) :   1.4424 B(  5-C ,  6-C ) :   1.1901
B(  5-C , 79-H ) :   1.0089 B(  6-C ,  7-C ) :   1.2548 B(  6-C , 11-C ) :   1.1891
B(  7-C ,  8-C ) :   1.2163 B(  8-C ,  9-C ) :   1.4459 B(  8-C , 80-H ) :   0.9931
B(  9-C , 10-C ) :   1.2170 B(  9-C , 15-C ) :   0.9928 B( 10-C , 11-C ) :   1.4702
B( 10-C , 12-C ) :   0.9452 B( 11-C , 81-H ) :   1.0178 B( 12-C , 13-O ) :   2.2136
B( 12-C , 14-C ) :   0.9383 B( 14-C , 15-C ) :   1.0451 B( 14-C , 21-C ) :   1.6002
B( 15-C , 16-C ) :   1.6602 B( 16-C , 17-C ) :   1.1361 B( 16-C , 19-C ) :   1.1404
B( 17-C , 18-N ) :   3.0058 B( 19-C , 20-N ) :   2.9695 B( 21-C , 22-C ) :   1.1522
B( 21-C , 82-H ) :   0.9495 B( 22-C , 23-C ) :   1.1178 B( 22-C , 28-C ) :   0.1003
B( 22-C , 30-C ) :   1.4349 B( 23-C , 24-N ) :   1.6340 B( 23-C , 27-C ) :   1.1396
B( 24-N , 25-O ) :   1.0520 B( 24-N , 26-N ) :   0.1803 B( 25-O , 26-N ) :   1.0575
B( 26-N , 27-C ) :   1.5999 B( 27-C , 28-C ) :   1.1459 B( 28-C , 29-C ) :   1.4385
B( 28-C , 31-C ) :   1.1366 B( 29-C , 30-C ) :   1.2579 B( 29-C , 83-H ) :   0.9871
B( 30-C , 84-H ) :   0.9787 B( 31-C , 32-S ) :   1.1360 B( 31-C , 33-C ) :   0.1421
B( 31-C , 35-C ) :   1.3670 B( 32-S , 33-C ) :   1.1663 B( 33-C , 34-C ) :   1.3910
B( 33-C , 45-C ) :   1.1139 B( 34-C , 35-C ) :   1.2182 B( 34-C , 44-N ) :   1.3335
B( 35-C , 36-N ) :   1.4045 B( 36-N , 37-C ) :   1.6172 B( 37-C , 38-O ) :   1.2959
B( 37-C , 41-C ) :   1.0815 B( 38-O , 39-C ) :   0.8835 B( 39-C , 40-C ) :   1.1208
B( 39-C , 85-H ) :   0.9423 B( 39-C , 86-H ) :   0.9588 B( 40-C , 87-H ) :   0.9654
B( 40-C , 88-H ) :   0.9632 B( 40-C , 89-H ) :   0.9652 B( 41-C , 42-C ) :   1.0071
B( 41-C , 44-N ) :   1.7763 B( 42-C , 43-N ) :   1.1264 B( 42-C , 90-H ) :   0.9106
B( 42-C , 91-H ) :   0.9186 B( 43-N , 92-H ) :   0.9479 B( 43-N , 93-H ) :   0.9621
B( 45-C , 46-C ) :   1.2485 B( 45-C , 53-C ) :   1.3535 B( 46-C , 47-C ) :   1.4375
B( 46-C , 94-H ) :   0.9843 B( 47-C , 48-N ) :   0.8528 B( 47-C , 51-C ) :   1.3409
B( 48-N , 49-O ) :   1.5459 B( 48-N , 50-O ) :   1.5312 B( 49-O , 50-O ) :   0.2747
B( 51-C , 52-C ) :   1.3232 B( 51-C , 54-C ) :   1.0578 B( 52-C , 53-C ) :   1.3805
B( 52-C , 95-H ) :   0.9956 B( 53-C , 96-H ) :   0.9729 B( 54-C , 55-C ) :   1.6983
B( 54-C , 97-H ) :   0.9701 B( 55-C , 56-C ) :   1.1399 B( 55-C , 98-H ) :   0.9457
B( 56-C , 57-C ) :   1.6361 B( 56-C , 99-H ) :   0.9589 B( 57-C , 58-C ) :   0.9350
B( 57-C , 72-C ) :   1.0266 B( 58-C , 59-O ) :   2.2779 B( 58-C , 60-C ) :   0.9181
B( 60-C , 61-C ) :   1.4756 B( 60-C , 71-C ) :   1.2196 B( 61-C , 62-C ) :   1.1970
B( 61-C ,100-H ) :   1.0152 B( 62-C , 63-C ) :   1.2558 B( 62-C , 67-C ) :   1.1925
B( 63-C , 64-C ) :   1.1898 B( 63-C , 70-C ) :   1.2160 B( 64-C , 65-C ) :   1.4422
B( 64-C , 67-C ) :   0.1088 B( 64-C ,101-H ) :   1.0062 B( 65-C , 66-C ) :   1.1922
B( 65-C , 69-F ) :   1.1344 B( 66-C , 67-C ) :   1.4442 B( 66-C , 68-F ) :   1.1338
B( 67-C ,102-H ) :   1.0064 B( 70-C , 71-C ) :   1.4577 B( 70-C ,103-H ) :   0.9925
B( 71-C , 72-C ) :   0.9996 B( 72-C , 73-C ) :   1.6617 B( 73-C , 74-C ) :   1.1547
B( 73-C , 76-C ) :   1.1312 B( 74-C , 75-N ) :   3.0131 B( 76-C , 77-N ) :   2.9880

-----------------------------------------------------------------------------
         ABSORPTION SPECTRUM VIA TRANSITION ELECTRIC DIPOLE MOMENTS
-----------------------------------------------------------------------------
State   Energy  Wavelength   fosc         T2         TX        TY        TZ
        (cm-1)    (nm)                  (au**2)     (au)      (au)      (au)
-----------------------------------------------------------------------------
   0   16243.6    615.6   1.585913935  32.14207  -3.71713   3.83563  -1.90078
   1   21753.7    459.7   0.521959429   7.89913  -1.62596  -1.62132  -1.62071
   2   25165.2    397.4   0.025999736   0.34013   0.47130   0.23705   0.24864
   3   25620.6    390.3   0.037263476   0.47882  -0.09596   0.30107   0.61560
   4   26422.6    378.5   0.120735553   1.50430  -0.08562  -0.96270  -0.75511
   5   26958.6    370.9   0.016261926   0.19859   0.07960  -0.43079  -0.08169
   6   27073.9    369.4   0.150018660   1.82419   0.97832   0.78382   0.50269
   7   27296.6    366.3   0.065281472   0.78733   0.68471   0.56226  -0.04860
   8   28032.6    356.7   0.100756843   1.18328  -0.90289  -0.56867  -0.21135
   9   28317.6    353.1   0.091353748   1.06205  -0.39354  -0.56064  -0.76997
  10   28398.9    352.1   0.058255783   0.67532   0.16077   0.62115   0.51346
  11   28797.2    347.3   0.080550850   0.92086  -0.73960  -0.29097  -0.53776
  12   29019.6    344.6   0.106132568   1.20402   0.43964   0.55405   0.83891
  13   29648.5    337.3   0.021327014   0.23681   0.07778   0.41625   0.23978
  14   29776.3    335.8   0.031234340   0.34533   0.49866  -0.29027  -0.11140
  15   29933.8    334.1   0.060190128   0.66197   0.69716  -0.41940   0.00605
  16   30489.5    328.0   0.130822261   1.41256   0.69717   0.95892  -0.08358
  17   32085.0    311.7   0.314751354   3.22955  -1.55248  -0.17418  -0.88826
  18   32648.1    306.3   0.113610495   1.14561   0.86385  -0.60696   0.17600
  19   33353.8    299.8   0.388411085   3.83373   0.38687   1.47369   1.22975
  20   33554.8    298.0   0.219537067   2.15391  -0.68096  -1.09058  -0.70770
  21   33976.7    294.3   0.313831240   3.04082   1.74244   0.02020   0.06563
  22   34145.4    292.9   0.182380994   1.75842  -1.15566  -0.51602  -0.39572
  23   34229.6    292.1   0.024027805   0.23109  -0.21382  -0.32759  -0.27939
  24   34574.4    289.2   0.029528861   0.28117   0.22358   0.47704  -0.06012
  25   34621.0    288.8   0.113257473   1.07697  -0.63882  -0.57084  -0.58568
  26   35005.2    285.7   0.106131843   0.99813   0.98795   0.05711   0.13725
  27   35035.3    285.4   0.010383380   0.09757  -0.19822  -0.19266  -0.14546
  28   35607.2    280.8   0.010956412   0.10130  -0.05540   0.27073   0.15791
  29   35976.4    278.0   0.198499814   1.81643  -0.66857  -0.81649  -0.83832
  30   36303.3    275.5   0.175891270   1.59505  -0.94471  -0.67537  -0.49643
  31   36704.0    272.4   0.110120714   0.98771   0.28979  -0.93409  -0.17669
  32   36929.1    270.8   0.041488181   0.36985   0.43448   0.26300  -0.33454
  33   37373.7    267.6   0.029642373   0.26111   0.24246  -0.42203  -0.15563
  34   37546.2    266.3   0.082911782   0.72698   0.71694   0.29796   0.35243
  35   37776.9    264.7   0.049297253   0.42961  -0.59781  -0.00842   0.26863
  36   37901.1    263.8   0.148717326   1.29177  -0.99153  -0.38932  -0.39633
  37   38370.6    260.6   0.259811177   2.22913   1.38594   0.20797   0.51483
  38   38454.0    260.1   0.034401225   0.29452  -0.26025  -0.15350   0.45080
  39   38619.1    258.9   0.109603890   0.93433   0.55606   0.30701   0.72861
  40   38689.4    258.5   0.164551944   1.40019   0.70185  -0.37439   0.87602
  41   39008.5    256.4   0.008405626   0.07094  -0.20464   0.04973  -0.16306
  42   39071.8    255.9   0.010814999   0.09113  -0.25629   0.14702  -0.06186
  43   39137.1    255.5   0.021282418   0.17902  -0.29794   0.28822  -0.08476
  44   39372.9    254.0   0.016351566   0.13672   0.28531   0.14144   0.18791
  45   39514.5    253.1   0.070250796   0.58529   0.42789  -0.63050  -0.06835
  46   39863.4    250.9   0.037858313   0.31265   0.18621   0.46623   0.24620
  47   40099.9    249.4   0.013691143   0.11240   0.02227   0.16875  -0.28884
  48   40243.2    248.5   0.064114049   0.52449   0.43775   0.56029   0.13764

FINAL SINGLE POINT ENERGY     -3979.372962463561

DIPOLE MOMENT
-------------
                                X             Y             Z
Electronic contribution:     28.46228      66.24052      30.02086
Nuclear contribution   :    -27.74576     -68.42850     -30.05916
                        -----------------------------------------
Total Dipole Moment    :      0.71652      -2.18797      -0.03831
                        -----------------------------------------
Magnitude (a.u.)       :      2.30263
Magnitude (Debye)      :      5.85282

Rotational constants in cm-1:     0.000833     0.000257     0.000201
Rotational constants in MHz :    24.981513     7.697842     6.037408

                             ****ORCA TERMINATED NORMALLY****
TOTAL RUN TIME: 0 days 0 hours 16 minutes 48 seconds 376 msec
