                         Program Version 4.2.0 -  RELEASE  -
|  1> # ORCA input file
|  2> # SCF done       -198.612138673277          0.000712291319
|  3> ! CAM-B3LYP def2-SVP def2/J RIJCOSX Grid4 TightSCF
|  4> %maxcore 5000
|  5> %tddft
|  6>     Mode sTDDFT
|  7>     Ethresh 5.0
|  8>     maxcore 5000
|  9> end
| 10>
| 11> %pal
| 12>   nprocs 6
| 13>   end
| 14> * xyz 0 1
| 15>    C       -3.10890         0.69715        -1.24391
| 16>    F       -3.72154         1.74776        -0.70071
| 17>    C       -1.97746         0.88513        -2.03504
| 18>    F       -1.50364         2.11246        -2.23999
| 19>    C       -1.34811        -0.21170        -2.61778
| 20>    F       -0.26718        -0.03457        -3.37727
| 21>    C       -1.85432        -1.48824        -2.40381
| 22>    F       -1.23925        -2.53893        -2.95562
| 23>    C       -2.98188        -1.70029        -1.61162
| 24>    C       -3.59684        -0.58660        -1.03769
| 25>    F       -4.69727        -0.76016        -0.30429
| 26>    C       -3.48435        -3.04940        -1.36084
| 27>    C       -3.58512        -3.66854        -0.13977
| 28>    N       -3.21850        -3.13316         1.11973
| 29>    O       -3.53134        -3.76917         2.10418
| 30>    O       -2.59789        -2.08584         1.13244
| 31>    C       -4.07449        -5.01851        -0.32058
| 32>    C       -4.20810        -5.24260        -1.64548
| 33>    C       -3.86110        -4.03301        -2.36567
| 34>    C       -3.99887        -3.80652        -3.71695
| 35>    C       -4.28053        -2.54752        -4.33083
| 36>    C       -4.75403        -2.76792        -5.59054
| 37>    C       -4.71253        -4.17039        -5.87005
| 38>    N       -5.09957        -4.70496        -7.11471
| 39>    O       -5.09144        -5.91836        -7.25860
| 40>    O       -5.45332        -3.91739        -7.97051
| 41>    C       -4.17605        -4.84037        -4.76767
| 42>    C       -3.70031        -6.15659        -4.79465
| 43>    C       -2.79694        -6.73283        -3.93566
| 44>    C       -2.30993        -8.03500        -4.12747
| 45>    S       -1.91710        -8.96390        -2.71474
| 46>    C       -1.92304       -10.45148        -3.59517
| 47>    C       -2.03626       -10.22166        -4.98104
| 48>    C       -2.22190        -8.83433        -5.29314
| 49>    C       -2.21640        -8.43151        -6.64752
| 50>    N       -2.01751        -7.08065        -7.08306
| 51>    O       -1.57194        -6.28124        -6.27815
| 52>    O       -2.24370        -6.82377        -8.24519
| 53>    C       -2.21495        -9.40325        -7.64112
| 54>    C       -2.07506       -10.74058        -7.34436
| 55>    C       -1.88815       -11.17581        -6.02985
| 56>    N       -1.55492       -12.46296        -5.79734
| 57>    C       -1.91702       -11.65247        -2.83561
| 58>    C       -1.31677       -11.82600        -1.60328
| 59>    C       -1.60335       -13.12939        -1.11849
| 60>    C       -2.47910       -13.75235        -2.12596
| 61>    C       -2.65422       -12.86934        -3.14524
| 62>    C       -3.06207       -15.02401        -2.07070
| 63>    N       -3.54838       -16.06415        -2.06649
| 64>    C       -1.16856       -13.70910         0.05470
| 65>    C       -1.44169       -15.02388         0.52720
| 66>    C       -0.82841       -15.20350         1.74767
| 67>    C       -0.13206       -13.96647         2.08188
| 68>    C       -0.32172       -13.06952         1.08107
| 69>    C        0.19788       -11.77108         1.04165
| 70>    N        0.63594       -10.70939         1.02315
| 71>    C       -0.81945       -16.34358         2.60276
| 72>    C       -1.40375       -17.52178         2.28769
| 73>    C       -1.44076       -18.72079         3.09010
| 74>    C       -1.02493       -18.82552         4.42677
| 75>    C       -1.09963       -20.01851         5.13386
| 76>    C       -1.59663       -21.16755         4.52493
| 77>    C       -2.02141       -21.10154         3.19985
| 78>    C       -1.94321       -19.90049         2.51115
| 79>    F       -2.35520       -19.87332         1.24047
| 80>    F       -2.49997       -22.19097         2.59878
| 81>    F       -1.66555       -22.31215         5.19980
| 82>    F       -0.69301       -20.06275         6.40338
| 83>    F       -0.54761       -17.75898         5.07680
| 84>    H       -4.27900        -5.68549         0.49422
| 85>    H       -4.60988        -6.12224        -2.10869
| 86>    H       -4.25348        -1.59987        -3.82978
| 87>    H       -5.11257        -2.03545        -6.28971
| 88>    H       -4.05568        -6.74642        -5.62995
| 89>    H       -2.46319        -6.21011        -3.05184
| 90>    H       -2.25805        -9.07263        -8.66795
| 91>    H       -2.02411       -11.46395        -8.14306
| 92>    H       -1.34461       -13.05022        -6.58628
| 93>    H       -1.21068       -12.74735        -4.89612
| 94>    H       -0.70080       -11.10350        -1.10527
| 95>    H       -3.29436       -13.00531        -3.99698
| 96>    H       -2.03923       -15.74076         0.00078
| 97>    H        0.43603       -13.81137         2.98046
| 98>    H       -0.29546       -16.21346         3.53753
| 99>    H       -1.89095       -17.61599         1.32719
|100> *
|101>
|102>                          ****END OF INPUT****

CARTESIAN COORDINATES (ANGSTROEM)
---------------------------------
  C     -3.108900    0.697150   -1.243910
  F     -3.721540    1.747760   -0.700710
  C     -1.977460    0.885130   -2.035040
  F     -1.503640    2.112460   -2.239990
  C     -1.348110   -0.211700   -2.617780
  F     -0.267180   -0.034570   -3.377270
  C     -1.854320   -1.488240   -2.403810
  F     -1.239250   -2.538930   -2.955620
  C     -2.981880   -1.700290   -1.611620
  C     -3.596840   -0.586600   -1.037690
  F     -4.697270   -0.760160   -0.304290
  C     -3.484350   -3.049400   -1.360840
  C     -3.585120   -3.668540   -0.139770
  N     -3.218500   -3.133160    1.119730
  O     -3.531340   -3.769170    2.104180
  O     -2.597890   -2.085840    1.132440
  C     -4.074490   -5.018510   -0.320580
  C     -4.208100   -5.242600   -1.645480
  C     -3.861100   -4.033010   -2.365670
  C     -3.998870   -3.806520   -3.716950
  C     -4.280530   -2.547520   -4.330830
  C     -4.754030   -2.767920   -5.590540
  C     -4.712530   -4.170390   -5.870050
  N     -5.099570   -4.704960   -7.114710
  O     -5.091440   -5.918360   -7.258600
  O     -5.453320   -3.917390   -7.970510
  C     -4.176050   -4.840370   -4.767670
  C     -3.700310   -6.156590   -4.794650
  C     -2.796940   -6.732830   -3.935660
  C     -2.309930   -8.035000   -4.127470
  S     -1.917100   -8.963900   -2.714740
  C     -1.923040  -10.451480   -3.595170
  C     -2.036260  -10.221660   -4.981040
  C     -2.221900   -8.834330   -5.293140
  C     -2.216400   -8.431510   -6.647520
  N     -2.017510   -7.080650   -7.083060
  O     -1.571940   -6.281240   -6.278150
  O     -2.243700   -6.823770   -8.245190
  C     -2.214950   -9.403250   -7.641120
  C     -2.075060  -10.740580   -7.344360
  C     -1.888150  -11.175810   -6.029850
  N     -1.554920  -12.462960   -5.797340
  C     -1.917020  -11.652470   -2.835610
  C     -1.316770  -11.826000   -1.603280
  C     -1.603350  -13.129390   -1.118490
  C     -2.479100  -13.752350   -2.125960
  C     -2.654220  -12.869340   -3.145240
  C     -3.062070  -15.024010   -2.070700
  N     -3.548380  -16.064150   -2.066490
  C     -1.168560  -13.709100    0.054700
  C     -1.441690  -15.023880    0.527200
  C     -0.828410  -15.203500    1.747670
  C     -0.132060  -13.966470    2.081880
  C     -0.321720  -13.069520    1.081070
  C      0.197880  -11.771080    1.041650
  N      0.635940  -10.709390    1.023150
  C     -0.819450  -16.343580    2.602760
  C     -1.403750  -17.521780    2.287690
  C     -1.440760  -18.720790    3.090100
  C     -1.024930  -18.825520    4.426770
  C     -1.099630  -20.018510    5.133860
  C     -1.596630  -21.167550    4.524930
  C     -2.021410  -21.101540    3.199850
  C     -1.943210  -19.900490    2.511150
  F     -2.355200  -19.873320    1.240470
  F     -2.499970  -22.190970    2.598780
  F     -1.665550  -22.312150    5.199800
  F     -0.693010  -20.062750    6.403380
  F     -0.547610  -17.758980    5.076800
  H     -4.279000   -5.685490    0.494220
  H     -4.609880   -6.122240   -2.108690
  H     -4.253480   -1.599870   -3.829780
  H     -5.112570   -2.035450   -6.289710
  H     -4.055680   -6.746420   -5.629950
  H     -2.463190   -6.210110   -3.051840
  H     -2.258050   -9.072630   -8.667950
  H     -2.024110  -11.463950   -8.143060
  H     -1.344610  -13.050220   -6.586280
  H     -1.210680  -12.747350   -4.896120
  H     -0.700800  -11.103500   -1.105270
  H     -3.294360  -13.005310   -3.996980
  H     -2.039230  -15.740760    0.000780
  H      0.436030  -13.811370    2.980460
  H     -0.295460  -16.213460    3.537530
  H     -1.890950  -17.615990    1.327190

 Total Charge           Charge          ....    0
 Multiplicity           Mult            ....    1
 Number of Electrons    NEL             ....  488
 Basis Dimension        Dim             .... 1050

ORBITAL ENERGIES
----------------

  NO   OCC          E(Eh)            E(eV)
   0   2.0000     -88.998712     -2421.7781
   1   2.0000     -24.825310      -675.5310
   2   2.0000     -24.823637      -675.4855
   3   2.0000     -24.821056      -675.4153
   4   2.0000     -24.817780      -675.3261
   5   2.0000     -24.817172      -675.3096
   6   2.0000     -24.807943      -675.0585
   7   2.0000     -24.807389      -675.0434
   8   2.0000     -24.805106      -674.9813
   9   2.0000     -24.803112      -674.9270
  10   2.0000     -24.802610      -674.9133
  11   2.0000     -19.244559      -523.6711
  12   2.0000     -19.241507      -523.5880
  13   2.0000     -19.232798      -523.3510
  14   2.0000     -19.231567      -523.3175
  15   2.0000     -19.229716      -523.2672
  16   2.0000     -19.229009      -523.2479
  17   2.0000     -14.651156      -398.6782
  18   2.0000     -14.639404      -398.3584
  19   2.0000     -14.639136      -398.3512
  20   2.0000     -14.467412      -393.6783
  21   2.0000     -14.426879      -392.5753
  22   2.0000     -14.421282      -392.4230
  23   2.0000     -10.407015      -283.1893
  24   2.0000     -10.404433      -283.1190
  25   2.0000     -10.402550      -283.0678
  26   2.0000     -10.400044      -282.9996
  27   2.0000     -10.399736      -282.9912
  28   2.0000     -10.390805      -282.7482
  29   2.0000     -10.387815      -282.6668
  30   2.0000     -10.387029      -282.6454
  31   2.0000     -10.384371      -282.5731
  32   2.0000     -10.383755      -282.5563
  33   2.0000     -10.369245      -282.1615
  34   2.0000     -10.350376      -281.6480
  35   2.0000     -10.339892      -281.3628
  36   2.0000     -10.338016      -281.3117
  37   2.0000     -10.336618      -281.2737
  38   2.0000     -10.336412      -281.2681
  39   2.0000     -10.335959      -281.2557
  40   2.0000     -10.335042      -281.2308
  41   2.0000     -10.334509      -281.2163
  42   2.0000     -10.330698      -281.1126
  43   2.0000     -10.329237      -281.0728
  44   2.0000     -10.328607      -281.0557
  45   2.0000     -10.328470      -281.0520
  46   2.0000     -10.326461      -280.9973
  47   2.0000     -10.325596      -280.9737
  48   2.0000     -10.324931      -280.9557
  49   2.0000     -10.324125      -280.9337
  50   2.0000     -10.323234      -280.9095
  51   2.0000     -10.323142      -280.9070
  52   2.0000     -10.322236      -280.8823
  53   2.0000     -10.322161      -280.8803
  54   2.0000     -10.322089      -280.8783
  55   2.0000     -10.320580      -280.8373
  56   2.0000     -10.318284      -280.7748
  57   2.0000     -10.316983      -280.7394
  58   2.0000     -10.314126      -280.6616
  59   2.0000     -10.311271      -280.5840
  60   2.0000     -10.308172      -280.4996
  61   2.0000     -10.302878      -280.3556
  62   2.0000     -10.302754      -280.3522
  63   2.0000     -10.298012      -280.2232
  64   2.0000     -10.296184      -280.1734
  65   2.0000     -10.296080      -280.1706
  66   2.0000     -10.294899      -280.1384
  67   2.0000     -10.290187      -280.0102
  68   2.0000     -10.285151      -279.8732
  69   2.0000      -8.094026      -220.2496
  70   2.0000      -6.062958      -164.9815
  71   2.0000      -6.058877      -164.8704
  72   2.0000      -6.056727      -164.8119
  73   2.0000      -1.351107       -36.7655
  74   2.0000      -1.345344       -36.6087
  75   2.0000      -1.339891       -36.4603
  76   2.0000      -1.335315       -36.3358
  77   2.0000      -1.328625       -36.1537
  78   2.0000      -1.328411       -36.1479
  79   2.0000      -1.324502       -36.0415
  80   2.0000      -1.323723       -36.0203
  81   2.0000      -1.322442       -35.9855
  82   2.0000      -1.313820       -35.7509
  83   2.0000      -1.313474       -35.7414
  84   2.0000      -1.309224       -35.6258
  85   2.0000      -1.308863       -35.6160
  86   2.0000      -1.142281       -31.0830
  87   2.0000      -1.132037       -30.8043
  88   2.0000      -1.127096       -30.6698
  89   2.0000      -1.066715       -29.0268
  90   2.0000      -1.034616       -28.1533
  91   2.0000      -1.023557       -27.8524
  92   2.0000      -1.020137       -27.7593
  93   2.0000      -1.015581       -27.6354
  94   2.0000      -1.010181       -27.4884
  95   2.0000      -1.002115       -27.2689
  96   2.0000      -1.000835       -27.2341
  97   2.0000      -0.996043       -27.1037
  98   2.0000      -0.988189       -26.8900
  99   2.0000      -0.965473       -26.2719
 100   2.0000      -0.936005       -25.4700
 101   2.0000      -0.929457       -25.2918
 102   2.0000      -0.909373       -24.7453
 103   2.0000      -0.898184       -24.4408
 104   2.0000      -0.895401       -24.3651
 105   2.0000      -0.891228       -24.2515
 106   2.0000      -0.885692       -24.1009
 107   2.0000      -0.877575       -23.8800
 108   2.0000      -0.877261       -23.8715
 109   2.0000      -0.872452       -23.7406
 110   2.0000      -0.866680       -23.5836
 111   2.0000      -0.862455       -23.4686
 112   2.0000      -0.850631       -23.1468
 113   2.0000      -0.840095       -22.8601
 114   2.0000      -0.829063       -22.5600
 115   2.0000      -0.813869       -22.1465
 116   2.0000      -0.799822       -21.7643
 117   2.0000      -0.793227       -21.5848
 118   2.0000      -0.780494       -21.2383
 119   2.0000      -0.771046       -20.9812
 120   2.0000      -0.760776       -20.7018
 121   2.0000      -0.749582       -20.3972
 122   2.0000      -0.746579       -20.3155
 123   2.0000      -0.745402       -20.2834
 124   2.0000      -0.734509       -19.9870
 125   2.0000      -0.730597       -19.8806
 126   2.0000      -0.729360       -19.8469
 127   2.0000      -0.722753       -19.6671
 128   2.0000      -0.717205       -19.5161
 129   2.0000      -0.702703       -19.1215
 130   2.0000      -0.691106       -18.8059
 131   2.0000      -0.690012       -18.7762
 132   2.0000      -0.686308       -18.6754
 133   2.0000      -0.681756       -18.5515
 134   2.0000      -0.680863       -18.5272
 135   2.0000      -0.672652       -18.3038
 136   2.0000      -0.668337       -18.1864
 137   2.0000      -0.666837       -18.1456
 138   2.0000      -0.662131       -18.0175
 139   2.0000      -0.657862       -17.9013
 140   2.0000      -0.653432       -17.7808
 141   2.0000      -0.648227       -17.6392
 142   2.0000      -0.642634       -17.4870
 143   2.0000      -0.640217       -17.4212
 144   2.0000      -0.638161       -17.3653
 145   2.0000      -0.637946       -17.3594
 146   2.0000      -0.632772       -17.2186
 147   2.0000      -0.629694       -17.1348
 148   2.0000      -0.627587       -17.0775
 149   2.0000      -0.627202       -17.0670
 150   2.0000      -0.624172       -16.9846
 151   2.0000      -0.622906       -16.9501
 152   2.0000      -0.620749       -16.8914
 153   2.0000      -0.617377       -16.7997
 154   2.0000      -0.615782       -16.7563
 155   2.0000      -0.613935       -16.7060
 156   2.0000      -0.612137       -16.6571
 157   2.0000      -0.609583       -16.5876
 158   2.0000      -0.602473       -16.3941
 159   2.0000      -0.597111       -16.2482
 160   2.0000      -0.596940       -16.2436
 161   2.0000      -0.593566       -16.1517
 162   2.0000      -0.587011       -15.9734
 163   2.0000      -0.586822       -15.9682
 164   2.0000      -0.584986       -15.9183
 165   2.0000      -0.583007       -15.8644
 166   2.0000      -0.580040       -15.7837
 167   2.0000      -0.575423       -15.6580
 168   2.0000      -0.571909       -15.5624
 169   2.0000      -0.567486       -15.4421
 170   2.0000      -0.564697       -15.3662
 171   2.0000      -0.564463       -15.3598
 172   2.0000      -0.558503       -15.1976
 173   2.0000      -0.553872       -15.0716
 174   2.0000      -0.549869       -14.9627
 175   2.0000      -0.548475       -14.9248
 176   2.0000      -0.546015       -14.8578
 177   2.0000      -0.544660       -14.8209
 178   2.0000      -0.543663       -14.7938
 179   2.0000      -0.539509       -14.6808
 180   2.0000      -0.538164       -14.6442
 181   2.0000      -0.536999       -14.6125
 182   2.0000      -0.534485       -14.5441
 183   2.0000      -0.533417       -14.5150
 184   2.0000      -0.530840       -14.4449
 185   2.0000      -0.526112       -14.3162
 186   2.0000      -0.524472       -14.2716
 187   2.0000      -0.522899       -14.2288
 188   2.0000      -0.519773       -14.1438
 189   2.0000      -0.518601       -14.1118
 190   2.0000      -0.516777       -14.0622
 191   2.0000      -0.513827       -13.9819
 192   2.0000      -0.507154       -13.8004
 193   2.0000      -0.505880       -13.7657
 194   2.0000      -0.503823       -13.7097
 195   2.0000      -0.499749       -13.5989
 196   2.0000      -0.496352       -13.5064
 197   2.0000      -0.495860       -13.4930
 198   2.0000      -0.492797       -13.4097
 199   2.0000      -0.487024       -13.2526
 200   2.0000      -0.485038       -13.1986
 201   2.0000      -0.480193       -13.0667
 202   2.0000      -0.478721       -13.0267
 203   2.0000      -0.477165       -12.9843
 204   2.0000      -0.475360       -12.9352
 205   2.0000      -0.468546       -12.7498
 206   2.0000      -0.468211       -12.7407
 207   2.0000      -0.464876       -12.6499
 208   2.0000      -0.460435       -12.5291
 209   2.0000      -0.458135       -12.4665
 210   2.0000      -0.456776       -12.4295
 211   2.0000      -0.455475       -12.3941
 212   2.0000      -0.452159       -12.3039
 213   2.0000      -0.450554       -12.2602
 214   2.0000      -0.448774       -12.2118
 215   2.0000      -0.447263       -12.1706
 216   2.0000      -0.432003       -11.7554
 217   2.0000      -0.428865       -11.6700
 218   2.0000      -0.426180       -11.5969
 219   2.0000      -0.413043       -11.2395
 220   2.0000      -0.412079       -11.2132
 221   2.0000      -0.405040       -11.0217
 222   2.0000      -0.389365       -10.5952
 223   2.0000      -0.381648       -10.3852
 224   2.0000      -0.381332       -10.3766
 225   2.0000      -0.377601       -10.2751
 226   2.0000      -0.376059       -10.2331
 227   2.0000      -0.372345       -10.1320
 228   2.0000      -0.371216       -10.1013
 229   2.0000      -0.363732        -9.8976
 230   2.0000      -0.357578        -9.7302
 231   2.0000      -0.354851        -9.6560
 232   2.0000      -0.351587        -9.5672
 233   2.0000      -0.347359        -9.4521
 234   2.0000      -0.342444        -9.3184
 235   2.0000      -0.340088        -9.2543
 236   2.0000      -0.339149        -9.2287
 237   2.0000      -0.337790        -9.1917
 238   2.0000      -0.323720        -8.8089
 239   2.0000      -0.322570        -8.7776
 240   2.0000      -0.309478        -8.4213
 241   2.0000      -0.297917        -8.1067
 242   2.0000      -0.292214        -7.9515
 243   2.0000      -0.249714        -6.7951
 244   0.0000      -0.148075        -4.0293
 245   0.0000      -0.126597        -3.4449
 246   0.0000      -0.078827        -2.1450
 247   0.0000      -0.051976        -1.4143
 248   0.0000      -0.048038        -1.3072

MULLIKEN ATOMIC CHARGES
-----------------------
   0 C :    0.154931
   1 F :   -0.155281
   2 C :    0.145593
   3 F :   -0.152065
   4 C :    0.160702
   5 F :   -0.155841
   6 C :    0.211175
   7 F :   -0.158466
   8 C :   -0.188619
   9 C :    0.233694
  10 F :   -0.156341
  11 C :    0.042956
  12 C :    0.090097
  13 N :    0.265925
  14 O :   -0.234129
  15 O :   -0.239201
  16 C :    0.008774
  17 C :   -0.011616
  18 C :    0.030205
  19 C :    0.031714
  20 C :    0.003043
  21 C :    0.038806
  22 C :    0.078787
  23 N :    0.278988
  24 O :   -0.260795
  25 O :   -0.248650
  26 C :    0.026556
  27 C :   -0.050683
  28 C :    0.089832
  29 C :   -0.192447
  30 S :    0.223932
  31 C :   -0.188076
  32 C :    0.141880
  33 C :    0.114276
  34 C :    0.077063
  35 N :    0.233138
  36 O :   -0.246904
  37 O :   -0.234910
  38 C :    0.003538
  39 C :   -0.041237
  40 C :    0.001296
  41 N :   -0.022330
  42 C :    0.044375
  43 C :   -0.119336
  44 C :    0.124247
  45 C :   -0.100874
  46 C :   -0.053050
  47 C :   -0.169516
  48 N :    0.148137
  49 C :    0.112764
  50 C :   -0.128616
  51 C :    0.111895
  52 C :   -0.001538
  53 C :   -0.091969
  54 C :   -0.176163
  55 N :    0.137600
  56 C :    0.016368
  57 C :    0.000998
  58 C :   -0.022728
  59 C :    0.166654
  60 C :    0.180475
  61 C :    0.130826
  62 C :    0.178080
  63 C :    0.168176
  64 F :   -0.159624
  65 F :   -0.153836
  66 F :   -0.146125
  67 F :   -0.155461
  68 F :   -0.163868
  69 H :   -0.000934
  70 H :    0.002426
  71 H :   -0.006068
  72 H :    0.010607
  73 H :    0.035840
  74 H :    0.025086
  75 H :    0.025535
  76 H :   -0.027662
  77 H :    0.127824
  78 H :    0.136303
  79 H :    0.009714
  80 H :    0.013995
  81 H :    0.004162
  82 H :    0.003622
  83 H :   -0.001298
  84 H :    0.013651
Sum of atomic charges:   -0.0000000

LOEWDIN ATOMIC CHARGES
----------------------
   0 C :    0.026999
   1 F :   -0.034655
   2 C :    0.044192
   3 F :   -0.029779
   4 C :    0.025127
   5 F :   -0.035591
   6 C :    0.067632
   7 F :   -0.038503
   8 C :   -0.086479
   9 C :    0.069256
  10 F :   -0.036087
  11 C :    0.000416
  12 C :   -0.019714
  13 N :    0.283667
  14 O :   -0.196691
  15 O :   -0.204486
  16 C :   -0.009319
  17 C :   -0.034004
  18 C :    0.015690
  19 C :    0.064938
  20 C :   -0.052901
  21 C :    0.042750
  22 C :   -0.056815
  23 N :    0.286719
  24 O :   -0.223568
  25 O :   -0.210968
  26 C :    0.022917
  27 C :   -0.014587
  28 C :    0.002430
  29 C :   -0.163724
  30 S :    0.528269
  31 C :   -0.156269
  32 C :   -0.062060
  33 C :   -0.023204
  34 C :   -0.074448
  35 N :    0.281917
  36 O :   -0.207490
  37 O :   -0.204356
  38 C :    0.042112
  39 C :   -0.082692
  40 C :    0.069324
  41 N :    0.025591
  42 C :   -0.057896
  43 C :   -0.033678
  44 C :    0.025625
  45 C :   -0.075052
  46 C :    0.029515
  47 C :   -0.031876
  48 N :   -0.055765
  49 C :    0.046622
  50 C :   -0.032213
  51 C :   -0.007695
  52 C :    0.057217
  53 C :   -0.081998
  54 C :   -0.031031
  55 N :   -0.059111
  56 C :   -0.015925
  57 C :    0.013802
  58 C :   -0.078382
  59 C :    0.070931
  60 C :    0.027468
  61 C :    0.045667
  62 C :    0.026903
  63 C :    0.069860
  64 F :   -0.034984
  65 F :   -0.033581
  66 F :   -0.025158
  67 F :   -0.034927
  68 F :   -0.033864
  69 H :    0.037346
  70 H :    0.029896
  71 H :    0.029365
  72 H :    0.041461
  73 H :    0.032409
  74 H :    0.037149
  75 H :    0.049001
  76 H :    0.031464
  77 H :    0.087594
  78 H :    0.079466
  79 H :    0.032694
  80 H :    0.038436
  81 H :    0.032523
  82 H :    0.039307
  83 H :    0.029988
  84 H :    0.039869

  Mayer bond orders larger than 0.100000
B(  0-C ,  1-F ) :   1.1740 B(  0-C ,  2-C ) :   1.2715 B(  0-C ,  9-C ) :   1.2823
B(  2-C ,  3-F ) :   1.1765 B(  2-C ,  4-C ) :   1.2803 B(  2-C ,  8-C ) :   0.1171
B(  4-C ,  5-F ) :   1.1739 B(  4-C ,  6-C ) :   1.2762 B(  6-C ,  7-F ) :   1.1789
B(  6-C ,  8-C ) :   1.3496 B(  8-C ,  9-C ) :   1.3319 B(  8-C , 11-C ) :   0.9423
B(  9-C , 10-F ) :   1.1939 B( 11-C , 12-C ) :   1.6508 B( 11-C , 18-C ) :   1.1097
B( 12-C , 13-N ) :   0.9190 B( 12-C , 16-C ) :   1.1206 B( 13-N , 14-O ) :   1.5405
B( 13-N , 15-O ) :   1.5228 B( 14-O , 15-O ) :   0.2719 B( 16-C , 17-C ) :   1.6010
B( 16-C , 69-H ) :   1.0171 B( 17-C , 18-C ) :   1.1010 B( 17-C , 70-H ) :   1.0004
B( 18-C , 19-C ) :   1.4961 B( 19-C , 20-C ) :   1.1658 B( 19-C , 26-C ) :   0.9725
B( 20-C , 21-C ) :   1.5399 B( 20-C , 71-H ) :   1.0003 B( 21-C , 22-C ) :   1.1441
B( 21-C , 72-H ) :   1.0093 B( 22-C , 23-N ) :   0.9594 B( 22-C , 26-C ) :   1.4717
B( 23-N , 24-O ) :   1.4854 B( 23-N , 25-O ) :   1.5374 B( 24-O , 25-O ) :   0.2525
B( 26-C , 27-C ) :   1.2987 B( 27-C , 28-C ) :   1.5052 B( 27-C , 73-H ) :   0.9321
B( 28-C , 29-C ) :   1.2118 B( 28-C , 74-H ) :   0.9371 B( 29-C , 30-S ) :   1.1357
B( 29-C , 31-C ) :   0.1061 B( 29-C , 33-C ) :   1.2927 B( 30-S , 31-C ) :   1.2156
B( 31-C , 32-C ) :   1.3056 B( 31-C , 42-C ) :   1.0803 B( 32-C , 33-C ) :   1.2569
B( 32-C , 40-C ) :   1.1356 B( 33-C , 34-C ) :   1.2006 B( 34-C , 35-N ) :   0.9181
B( 34-C , 38-C ) :   1.4255 B( 35-N , 36-O ) :   1.5054 B( 35-N , 37-O ) :   1.5438
B( 36-O , 37-O ) :   0.2446 B( 38-C , 39-C ) :   1.2923 B( 38-C , 75-H ) :   0.9765
B( 39-C , 40-C ) :   1.3424 B( 39-C , 76-H ) :   0.9953 B( 40-C , 41-N ) :   1.3573
B( 41-N , 77-H ) :   0.9302 B( 41-N , 78-H ) :   0.9333 B( 42-C , 43-C ) :   1.5121
B( 42-C , 46-C ) :   1.0677 B( 43-C , 44-C ) :   1.1452 B( 43-C , 79-H ) :   0.9999
B( 44-C , 45-C ) :   1.1135 B( 44-C , 49-C ) :   1.3774 B( 45-C , 46-C ) :   1.6472
B( 45-C , 47-C ) :   1.0906 B( 46-C , 80-H ) :   1.0228 B( 47-C , 48-N ) :   2.9723
B( 49-C , 50-C ) :   1.1397 B( 49-C , 53-C ) :   1.1026 B( 50-C , 51-C ) :   1.5438
B( 50-C , 81-H ) :   0.9963 B( 51-C , 52-C ) :   1.0291 B( 51-C , 56-C ) :   1.0999
B( 52-C , 53-C ) :   1.6658 B( 52-C , 82-H ) :   1.0242 B( 53-C , 54-C ) :   1.0911
B( 54-C , 55-N ) :   2.9602 B( 56-C , 57-C ) :   1.6605 B( 56-C , 83-H ) :   0.9731
B( 57-C , 58-C ) :   1.1201 B( 57-C , 84-H ) :   0.9769 B( 58-C , 59-C ) :   1.2647
B( 58-C , 61-C ) :   0.1060 B( 58-C , 63-C ) :   1.2848 B( 59-C , 60-C ) :   1.3048
B( 59-C , 68-F ) :   1.1339 B( 60-C , 61-C ) :   1.2754 B( 60-C , 67-F ) :   1.1717
B( 61-C , 62-C ) :   1.2678 B( 61-C , 66-F ) :   1.1860 B( 62-C , 63-C ) :   1.2955
B( 62-C , 65-F ) :   1.1780 B( 63-C , 64-F ) :   1.1504

-----------------------------------------------------------------------------
         ABSORPTION SPECTRUM VIA TRANSITION ELECTRIC DIPOLE MOMENTS
-----------------------------------------------------------------------------
State   Energy  Wavelength   fosc         T2         TX        TY        TZ
        (cm-1)    (nm)                  (au**2)     (au)      (au)      (au)
-----------------------------------------------------------------------------
   0    7724.6   1294.6   0.462455010  19.70920   1.22624  -4.07747   1.25688
   1   10834.7    923.0   0.192246254   5.84139   0.13163  -0.54593   2.35075
   2   14870.1    672.5   0.116017033   2.56852  -0.22902   0.99509  -1.23526
   3   16802.3    595.2   0.003508612   0.06875   0.19407   0.11638  -0.13243
   4   18426.0    542.7   0.002507071   0.04479  -0.19826  -0.02091  -0.07106
   5   19674.6    508.3   0.285463660   4.77663  -0.55998   2.08420  -0.34520
   6   20395.4    490.3   0.051654663   0.83378   0.40085  -0.67021   0.47320
   7   21361.7    468.1   0.014030251   0.21622   0.04049  -0.35665   0.29561
   8   22421.6    446.0   0.001823979   0.02678  -0.08684   0.13708   0.02119
   9   24008.0    416.5   0.587266992   8.05296  -0.11609   1.99547  -2.01434
  10   24924.4    401.2   0.010235474   0.13519   0.05331  -0.31856  -0.17571
  11   25193.7    396.9   0.066324206   0.86667  -0.63470   0.49313  -0.46973
  12   25232.1    396.3   0.038892654   0.50745  -0.00221  -0.10880   0.70399
  13   25565.8    391.1   0.023081292   0.29722   0.29528   0.30363  -0.34328
  14   26271.4    380.6   0.012449583   0.15601   0.28384  -0.14247   0.23483
  15   27115.6    368.8   0.011493110   0.13954   0.33425  -0.16654   0.00902
  16   27811.3    359.6   0.042015286   0.49735   0.34903  -0.31234   0.52723
  17   28396.7    352.2   0.070712594   0.81979  -0.21472  -0.15441  -0.86594
  18   28497.1    350.9   0.189984398   2.19479   0.21538  -0.01671   1.46565
  19   28725.2    348.1   0.011343169   0.13000  -0.18722  -0.16430   0.26068
  20   29086.2    343.8   0.112710072   1.27571   0.44715  -0.21211   1.01527
  21   29435.6    339.7   0.017370280   0.19427   0.23081  -0.07109   0.36871
  22   30241.1    330.7   0.085689334   0.93284   0.24087   0.77621   0.52183
  23   30401.5    328.9   0.008311321   0.09000   0.13395   0.22405   0.14785
  24   30800.1    324.7   0.050272489   0.53735  -0.01833   0.66936  -0.29827
  25   30933.9    323.3   0.059122755   0.62921   0.11170  -0.28309   0.73253
  26   31661.8    315.8   0.027008052   0.28082   0.15341   0.08342   0.50033
  27   31840.4    314.1   0.023596375   0.24397  -0.00843   0.16416   0.46578
  28   32297.3    309.6   0.110186501   1.12315  -0.34218   0.63621  -0.77543
  29   32543.8    307.3   0.099043247   1.00192  -0.06993  -0.99286   0.10605
  30   32730.1    305.5   0.180348385   1.81401   0.16980   1.10135  -0.75644
  31   32939.8    303.6   0.061431100   0.61396   0.14478   0.61112  -0.46854
  32   33084.9    302.3   0.019456705   0.19360   0.30373  -0.28744  -0.13686
  33   33292.4    300.4   0.006175617   0.06107  -0.19650   0.08211  -0.12535
  34   33516.7    298.4   0.007251085   0.07122   0.01237   0.21597  -0.15629
  35   33604.7    297.6   0.116029512   1.13669  -0.28969  -0.17759  -1.01056
  36   33948.6    294.6   0.013577919   0.13167   0.03527  -0.06439   0.35536
  37   34220.9    292.2   0.062604075   0.60226   0.34920   0.07469   0.68902
  38   34512.9    289.7   0.019903875   0.18986   0.07640   0.19862   0.38023
  39   34673.6    288.4   0.013822284   0.13124   0.14497   0.03765   0.32985
  40   34913.6    286.4   0.056979828   0.53728  -0.20261  -0.48946  -0.50661
  41   35514.0    281.6   0.021480333   0.19912  -0.15067   0.26737  -0.32393
  42   35630.2    280.7   0.235307462   2.17417  -0.31623   0.52254  -1.34206
  43   35927.8    278.3   0.011115499   0.10185  -0.02136  -0.19708   0.25011
  44   36091.4    277.1   0.012038237   0.10981  -0.19942  -0.25814  -0.05833
  45   36165.3    276.5   0.094107713   0.85666  -0.35167  -0.80757   0.28430
  46   36246.8    275.9   0.004381579   0.03980  -0.14042   0.02169  -0.14002
  47   36538.3    273.7   0.038907902   0.35056   0.08358  -0.52586   0.25893
  48   36863.6    271.3   0.135616295   1.21113   0.00255  -0.87842  -0.66294
  49   37540.3    266.4   0.027389968   0.24020  -0.11939  -0.38046   0.28494
  50   37758.8    264.8   0.148790760   1.29728  -0.20951  -0.88600   0.68439
  51   38042.0    262.9   0.171951859   1.48806  -0.25983   0.41523  -1.11720
  52   38240.4    261.5   0.254599154   2.19185  -0.01700   1.18434  -0.88819
  53   38436.2    260.2   0.015479447   0.13258  -0.08558   0.16110  -0.31513
  54   38579.0    259.2   0.021389862   0.18253  -0.01806  -0.04053   0.42492
  55   39230.2    254.9   0.015758550   0.13224  -0.14707  -0.03387   0.33086
  56   39264.7    254.7   0.001716485   0.01439   0.04153  -0.06731   0.09020
  57   39283.0    254.6   0.013858981   0.11615  -0.07501  -0.03148  -0.33095
  58   39957.0    250.3   0.008536949   0.07034   0.00962   0.18835   0.18647
  59   39961.6    250.2   0.022349193   0.18412  -0.08827  -0.40795  -0.09952
  60   40272.8    248.3   0.028770966   0.23519   0.22368  -0.29217   0.31590

FINAL SINGLE POINT ENERGY     -3934.162839046440

DIPOLE MOMENT
-------------
                                X             Y             Z
Electronic contribution:      6.49547       0.22936      44.64446
Nuclear contribution   :     -5.72606      -4.55204     -44.55462
                        -----------------------------------------
Total Dipole Moment    :      0.76941      -4.32268       0.08984
                        -----------------------------------------
Magnitude (a.u.)       :      4.39154
Magnitude (Debye)      :     11.16241

Rotational constants in cm-1:     0.001685     0.000313     0.000276
Rotational constants in MHz :    50.529532     9.380166     8.263637

                             ****ORCA TERMINATED NORMALLY****
TOTAL RUN TIME: 0 days 0 hours 9 minutes 56 seconds 963 msec
