                         Program Version 4.2.0 -  RELEASE  -
|  1> # ORCA input file
|  2> # SCF done       -193.990834288613          0.000858791863
|  3> ! CAM-B3LYP def2-SVP def2/J RIJCOSX Grid4 TightSCF
|  4> %maxcore 5000
|  5> %tddft
|  6>     Mode sTDDFT
|  7>     Ethresh 5.0
|  8>     maxcore 5000
|  9> end
| 10>
| 11> %pal
| 12>   nprocs 6
| 13>   end
| 14> * xyz 0 1
| 15>    C        7.51265        -4.00923        -5.76492
| 16>    C        7.50617        -5.36151        -5.99526
| 17>    C        7.60166        -6.27032        -4.92052
| 18>    N        7.67463        -7.00404        -4.04175
| 19>    C        7.40925        -5.97026        -7.25853
| 20>    N        7.33511        -6.52500        -8.26139
| 21>    C        7.42598        -2.92319        -6.70656
| 22>    C        7.46048        -1.65890        -6.08204
| 23>    C        7.38685        -0.50389        -6.85630
| 24>    C        7.28196        -0.61326        -8.22843
| 25>    C        7.24917        -1.86096        -8.84270
| 26>    C        7.32001        -3.01800        -8.09272
| 27>    C        7.57917        -1.72704        -4.64699
| 28>    S        7.63990        -3.40646        -4.12795
| 29>    C        7.64415        -0.67107        -3.79143
| 30>    C        7.78142        -0.69139        -2.38886
| 31>    C        7.85932         0.44153        -1.58230
| 32>    C        8.01323         0.12306        -0.24095
| 33>    C        8.05161        -1.26946        -0.00903
| 34>    S        7.89557        -2.17418        -1.44728
| 35>    C        8.22746        -1.49875         1.37282
| 36>    C        8.30257        -0.24621         2.02269
| 37>    C        8.16585         0.80872         1.03347
| 38>    C        8.18103         2.15550         1.24985
| 39>    C        8.34047         2.71136         2.53707
| 40>    N        8.47150         3.17482         3.57750
| 41>    C        8.03917         3.08184         0.19563
| 42>    N        7.91947         3.83307        -0.66270
| 43>    C        8.49480        -0.36257         3.39134
| 44>    C        8.56750        -1.69120         3.79696
| 45>    S        8.38520        -2.81110         2.45661
| 46>    C        8.78410        -2.16523         5.11683
| 47>    C        8.83697        -3.54635         5.40706
| 48>    C        9.08902        -4.04774         6.72572
| 49>    N        9.12923        -5.37913         6.92718
| 50>    C        8.93942        -6.18622         5.93293
| 51>    C        8.69001        -5.69038         4.62780
| 52>    N        8.64588        -4.41720         4.39702
| 53>    F        8.49396        -6.51636         3.60617
| 54>    F        8.98540        -7.49258         6.17463
| 55>    C        9.30699        -3.19838         7.83292
| 56>    C        9.23518        -1.81134         7.55527
| 57>    C        8.97769        -1.30549         6.22567
| 58>    N        8.95957         0.02771         6.20751
| 59>    S        9.23135         0.58922         7.68391
| 60>    N        9.39010        -0.81895         8.43213
| 61>    C        9.59233        -3.71688         9.12219
| 62>    C        9.85007        -2.98441        10.27655
| 63>    C       10.11867        -3.80250        11.36350
| 64>    C       10.06096        -5.17636        11.04023
| 65>    S        9.67649        -5.44905         9.39666
| 66>    C       10.36091        -5.91582        12.20476
| 67>    C       10.61505        -5.02052        13.26566
| 68>    C       10.45382        -3.66145        12.77097
| 69>    C       10.57286        -2.50391        13.48159
| 70>    C       10.86619        -2.50116        14.86252
| 71>    N       11.08981        -2.50390        15.98679
| 72>    C       10.39168        -1.23599        12.88885
| 73>    N       10.24776        -0.20239        12.41406
| 74>    C       10.95021        -5.65866        14.45425
| 75>    C       10.94841        -7.04154        14.32409
| 76>    S       10.51287        -7.54257        12.68863
| 77>    C       11.22721        -8.06293        15.25836
| 78>    C       11.72975        -7.94709        16.51726
| 79>    C       11.98328        -9.04049        17.42397
| 80>    C       12.56593        -8.64008        18.64411
| 81>    C       12.78375        -7.21747        18.71524
| 82>    C       13.35248        -6.47946        19.72099
| 83>    C       13.83969        -6.99965        20.93299
| 84>    N       14.25071        -7.36238        21.94237
| 85>    C       13.51160        -5.08256        19.59551
| 86>    N       13.65496        -3.94911        19.49618
| 87>    S       12.21759        -6.42903        17.26149
| 88>    C       12.86962        -9.58678        19.62016
| 89>    C       12.59046       -10.91715        19.37806
| 90>    C       12.01386       -11.31399        18.17621
| 91>    C       11.70903       -10.38722        17.19958
| 92>    H        7.41193         0.46895        -6.39115
| 93>    H        7.22541         0.28023        -8.83125
| 94>    H        7.16789        -1.92779        -9.91635
| 95>    H        7.29440        -3.98121        -8.57498
| 96>    H        7.59334         0.31986        -4.22315
| 97>    H        7.80774         1.43915        -1.97949
| 98>    H        8.58628         0.44997         4.08820
| 99>    H        9.83773        -1.91019        10.28195
|100>    H       11.16943        -5.14782        15.37305
|101>    H       11.02969        -9.06656        14.90531
|102>    H       13.31483        -9.28657        20.55420
|103>    H       12.82177       -11.65424        20.13106
|104>    H       11.80108       -12.35818        18.00477
|105>    H       11.25964       -10.70785        16.27294
|106> *
|107>
|108>                          ****END OF INPUT****

CARTESIAN COORDINATES (ANGSTROEM)
---------------------------------
  C      7.512650   -4.009230   -5.764920
  C      7.506170   -5.361510   -5.995260
  C      7.601660   -6.270320   -4.920520
  N      7.674630   -7.004040   -4.041750
  C      7.409250   -5.970260   -7.258530
  N      7.335110   -6.525000   -8.261390
  C      7.425980   -2.923190   -6.706560
  C      7.460480   -1.658900   -6.082040
  C      7.386850   -0.503890   -6.856300
  C      7.281960   -0.613260   -8.228430
  C      7.249170   -1.860960   -8.842700
  C      7.320010   -3.018000   -8.092720
  C      7.579170   -1.727040   -4.646990
  S      7.639900   -3.406460   -4.127950
  C      7.644150   -0.671070   -3.791430
  C      7.781420   -0.691390   -2.388860
  C      7.859320    0.441530   -1.582300
  C      8.013230    0.123060   -0.240950
  C      8.051610   -1.269460   -0.009030
  S      7.895570   -2.174180   -1.447280
  C      8.227460   -1.498750    1.372820
  C      8.302570   -0.246210    2.022690
  C      8.165850    0.808720    1.033470
  C      8.181030    2.155500    1.249850
  C      8.340470    2.711360    2.537070
  N      8.471500    3.174820    3.577500
  C      8.039170    3.081840    0.195630
  N      7.919470    3.833070   -0.662700
  C      8.494800   -0.362570    3.391340
  C      8.567500   -1.691200    3.796960
  S      8.385200   -2.811100    2.456610
  C      8.784100   -2.165230    5.116830
  C      8.836970   -3.546350    5.407060
  C      9.089020   -4.047740    6.725720
  N      9.129230   -5.379130    6.927180
  C      8.939420   -6.186220    5.932930
  C      8.690010   -5.690380    4.627800
  N      8.645880   -4.417200    4.397020
  F      8.493960   -6.516360    3.606170
  F      8.985400   -7.492580    6.174630
  C      9.306990   -3.198380    7.832920
  C      9.235180   -1.811340    7.555270
  C      8.977690   -1.305490    6.225670
  N      8.959570    0.027710    6.207510
  S      9.231350    0.589220    7.683910
  N      9.390100   -0.818950    8.432130
  C      9.592330   -3.716880    9.122190
  C      9.850070   -2.984410   10.276550
  C     10.118670   -3.802500   11.363500
  C     10.060960   -5.176360   11.040230
  S      9.676490   -5.449050    9.396660
  C     10.360910   -5.915820   12.204760
  C     10.615050   -5.020520   13.265660
  C     10.453820   -3.661450   12.770970
  C     10.572860   -2.503910   13.481590
  C     10.866190   -2.501160   14.862520
  N     11.089810   -2.503900   15.986790
  C     10.391680   -1.235990   12.888850
  N     10.247760   -0.202390   12.414060
  C     10.950210   -5.658660   14.454250
  C     10.948410   -7.041540   14.324090
  S     10.512870   -7.542570   12.688630
  C     11.227210   -8.062930   15.258360
  C     11.729750   -7.947090   16.517260
  C     11.983280   -9.040490   17.423970
  C     12.565930   -8.640080   18.644110
  C     12.783750   -7.217470   18.715240
  C     13.352480   -6.479460   19.720990
  C     13.839690   -6.999650   20.932990
  N     14.250710   -7.362380   21.942370
  C     13.511600   -5.082560   19.595510
  N     13.654960   -3.949110   19.496180
  S     12.217590   -6.429030   17.261490
  C     12.869620   -9.586780   19.620160
  C     12.590460  -10.917150   19.378060
  C     12.013860  -11.313990   18.176210
  C     11.709030  -10.387220   17.199580
  H      7.411930    0.468950   -6.391150
  H      7.225410    0.280230   -8.831250
  H      7.167890   -1.927790   -9.916350
  H      7.294400   -3.981210   -8.574980
  H      7.593340    0.319860   -4.223150
  H      7.807740    1.439150   -1.979490
  H      8.586280    0.449970    4.088200
  H      9.837730   -1.910190   10.281950
  H     11.169430   -5.147820   15.373050
  H     11.029690   -9.066560   14.905310
  H     13.314830   -9.286570   20.554200
  H     12.821770  -11.654240   20.131060
  H     11.801080  -12.358180   18.004770
  H     11.259640  -10.707850   16.272940

 Total Charge           Charge          ....    0
 Multiplicity           Mult            ....    1
 Number of Electrons    NEL             ....  564
 Basis Dimension        Dim             .... 1176

ORBITAL ENERGIES
----------------

  NO   OCC          E(Eh)            E(eV)
   0   2.0000     -89.050717     -2423.1932
   1   2.0000     -88.997956     -2421.7575
   2   2.0000     -88.995364     -2421.6870
   3   2.0000     -88.988744     -2421.5068
   4   2.0000     -88.988213     -2421.4924
   5   2.0000     -88.981607     -2421.3126
   6   2.0000     -88.977647     -2421.2049
   7   2.0000     -24.832035      -675.7140
   8   2.0000     -24.831390      -675.6965
   9   2.0000     -14.474292      -393.8655
  10   2.0000     -14.473954      -393.8563
  11   2.0000     -14.459510      -393.4633
  12   2.0000     -14.459303      -393.4576
  13   2.0000     -14.434712      -392.7885
  14   2.0000     -14.432642      -392.7322
  15   2.0000     -14.430475      -392.6732
  16   2.0000     -14.429201      -392.6385
  17   2.0000     -14.416852      -392.3025
  18   2.0000     -14.414301      -392.2331
  19   2.0000     -14.413261      -392.2048
  20   2.0000     -14.407705      -392.0536
  21   2.0000     -10.449087      -284.3341
  22   2.0000     -10.448789      -284.3260
  23   2.0000     -10.367891      -282.1247
  24   2.0000     -10.366101      -282.0760
  25   2.0000     -10.364978      -282.0454
  26   2.0000     -10.360569      -281.9254
  27   2.0000     -10.358671      -281.8738
  28   2.0000     -10.358366      -281.8655
  29   2.0000     -10.355716      -281.7934
  30   2.0000     -10.352707      -281.7115
  31   2.0000     -10.351121      -281.6683
  32   2.0000     -10.350880      -281.6618
  33   2.0000     -10.345892      -281.5260
  34   2.0000     -10.342241      -281.4267
  35   2.0000     -10.339288      -281.3463
  36   2.0000     -10.338583      -281.3271
  37   2.0000     -10.335245      -281.2363
  38   2.0000     -10.334953      -281.2284
  39   2.0000     -10.333947      -281.2010
  40   2.0000     -10.333833      -281.1979
  41   2.0000     -10.333111      -281.1782
  42   2.0000     -10.332828      -281.1705
  43   2.0000     -10.330532      -281.1081
  44   2.0000     -10.329070      -281.0683
  45   2.0000     -10.328816      -281.0614
  46   2.0000     -10.328798      -281.0609
  47   2.0000     -10.328611      -281.0558
  48   2.0000     -10.328359      -281.0489
  49   2.0000     -10.328075      -281.0412
  50   2.0000     -10.328040      -281.0403
  51   2.0000     -10.320405      -280.8325
  52   2.0000     -10.319620      -280.8111
  53   2.0000     -10.317453      -280.7522
  54   2.0000     -10.317156      -280.7441
  55   2.0000     -10.316719      -280.7322
  56   2.0000     -10.315826      -280.7079
  57   2.0000     -10.314566      -280.6736
  58   2.0000     -10.313675      -280.6494
  59   2.0000     -10.311643      -280.5941
  60   2.0000     -10.311309      -280.5850
  61   2.0000     -10.310477      -280.5623
  62   2.0000     -10.309982      -280.5489
  63   2.0000     -10.308735      -280.5149
  64   2.0000     -10.308562      -280.5102
  65   2.0000     -10.303940      -280.3845
  66   2.0000     -10.303024      -280.3595
  67   2.0000     -10.302322      -280.3404
  68   2.0000     -10.301847      -280.3275
  69   2.0000     -10.301262      -280.3116
  70   2.0000     -10.300734      -280.2972
  71   2.0000     -10.300002      -280.2773
  72   2.0000     -10.299753      -280.2705
  73   2.0000     -10.299130      -280.2536
  74   2.0000     -10.298758      -280.2435
  75   2.0000     -10.295626      -280.1582
  76   2.0000     -10.293647      -280.1044
  77   2.0000      -8.141774      -221.5489
  78   2.0000      -8.092231      -220.2008
  79   2.0000      -8.090183      -220.1451
  80   2.0000      -8.081438      -219.9071
  81   2.0000      -8.080975      -219.8945
  82   2.0000      -8.077272      -219.7938
  83   2.0000      -8.072757      -219.6709
  84   2.0000      -6.112884      -166.3400
  85   2.0000      -6.104932      -166.1237
  86   2.0000      -6.104643      -166.1158
  87   2.0000      -6.061464      -164.9408
  88   2.0000      -6.059334      -164.8828
  89   2.0000      -6.057212      -164.8251
  90   2.0000      -6.055279      -164.7725
  91   2.0000      -6.054664      -164.7558
  92   2.0000      -6.052596      -164.6995
  93   2.0000      -6.050938      -164.6544
  94   2.0000      -6.050460      -164.6414
  95   2.0000      -6.047064      -164.5490
  96   2.0000      -6.046179      -164.5249
  97   2.0000      -6.045765      -164.5136
  98   2.0000      -6.043950      -164.4642
  99   2.0000      -6.043442      -164.4504
 100   2.0000      -6.042784      -164.4325
 101   2.0000      -6.042562      -164.4265
 102   2.0000      -6.038278      -164.3099
 103   2.0000      -6.038225      -164.3084
 104   2.0000      -6.033803      -164.1881
 105   2.0000      -1.360383       -37.0179
 106   2.0000      -1.346339       -36.6357
 107   2.0000      -1.148967       -31.2650
 108   2.0000      -1.132570       -30.8188
 109   2.0000      -1.060197       -28.8494
 110   2.0000      -1.048047       -28.5188
 111   2.0000      -1.046328       -28.4720
 112   2.0000      -1.030978       -28.0543
 113   2.0000      -1.027008       -27.9463
 114   2.0000      -1.025254       -27.8986
 115   2.0000      -1.021795       -27.8045
 116   2.0000      -1.011320       -27.5194
 117   2.0000      -1.008667       -27.4472
 118   2.0000      -1.007928       -27.4271
 119   2.0000      -1.006388       -27.3852
 120   2.0000      -1.004628       -27.3373
 121   2.0000      -1.001738       -27.2587
 122   2.0000      -0.995136       -27.0790
 123   2.0000      -0.993821       -27.0432
 124   2.0000      -0.988082       -26.8871
 125   2.0000      -0.983137       -26.7525
 126   2.0000      -0.964002       -26.2318
 127   2.0000      -0.958627       -26.0856
 128   2.0000      -0.956521       -26.0282
 129   2.0000      -0.954256       -25.9666
 130   2.0000      -0.937280       -25.5047
 131   2.0000      -0.934371       -25.4255
 132   2.0000      -0.920448       -25.0467
 133   2.0000      -0.911629       -24.8067
 134   2.0000      -0.899081       -24.4652
 135   2.0000      -0.893078       -24.3019
 136   2.0000      -0.882523       -24.0147
 137   2.0000      -0.878834       -23.9143
 138   2.0000      -0.872997       -23.7555
 139   2.0000      -0.869860       -23.6701
 140   2.0000      -0.862499       -23.4698
 141   2.0000      -0.859418       -23.3860
 142   2.0000      -0.856092       -23.2954
 143   2.0000      -0.854352       -23.2481
 144   2.0000      -0.852426       -23.1957
 145   2.0000      -0.850836       -23.1524
 146   2.0000      -0.829918       -22.5832
 147   2.0000      -0.815044       -22.1785
 148   2.0000      -0.800869       -21.7928
 149   2.0000      -0.787797       -21.4371
 150   2.0000      -0.784842       -21.3566
 151   2.0000      -0.779443       -21.2097
 152   2.0000      -0.774871       -21.0853
 153   2.0000      -0.759616       -20.6702
 154   2.0000      -0.755876       -20.5684
 155   2.0000      -0.737624       -20.0718
 156   2.0000      -0.733076       -19.9480
 157   2.0000      -0.729860       -19.8605
 158   2.0000      -0.715382       -19.4665
 159   2.0000      -0.712414       -19.3858
 160   2.0000      -0.708668       -19.2838
 161   2.0000      -0.706095       -19.2138
 162   2.0000      -0.705508       -19.1978
 163   2.0000      -0.695920       -18.9369
 164   2.0000      -0.694507       -18.8985
 165   2.0000      -0.689667       -18.7668
 166   2.0000      -0.686628       -18.6841
 167   2.0000      -0.682148       -18.5622
 168   2.0000      -0.675712       -18.3871
 169   2.0000      -0.672763       -18.3068
 170   2.0000      -0.662387       -18.0245
 171   2.0000      -0.656951       -17.8765
 172   2.0000      -0.644145       -17.5281
 173   2.0000      -0.643183       -17.5019
 174   2.0000      -0.639471       -17.4009
 175   2.0000      -0.638146       -17.3648
 176   2.0000      -0.636150       -17.3105
 177   2.0000      -0.635653       -17.2970
 178   2.0000      -0.634814       -17.2742
 179   2.0000      -0.626465       -17.0470
 180   2.0000      -0.619604       -16.8603
 181   2.0000      -0.615846       -16.7580
 182   2.0000      -0.613803       -16.7024
 183   2.0000      -0.601158       -16.3583
 184   2.0000      -0.588855       -16.0236
 185   2.0000      -0.587162       -15.9775
 186   2.0000      -0.583044       -15.8654
 187   2.0000      -0.579018       -15.7559
 188   2.0000      -0.576576       -15.6894
 189   2.0000      -0.575222       -15.6526
 190   2.0000      -0.572703       -15.5840
 191   2.0000      -0.566630       -15.4188
 192   2.0000      -0.561137       -15.2693
 193   2.0000      -0.556221       -15.1355
 194   2.0000      -0.552427       -15.0323
 195   2.0000      -0.551312       -15.0020
 196   2.0000      -0.549251       -14.9459
 197   2.0000      -0.541554       -14.7364
 198   2.0000      -0.540777       -14.7153
 199   2.0000      -0.537093       -14.6150
 200   2.0000      -0.536719       -14.6049
 201   2.0000      -0.535729       -14.5779
 202   2.0000      -0.533726       -14.5234
 203   2.0000      -0.532821       -14.4988
 204   2.0000      -0.532324       -14.4853
 205   2.0000      -0.527984       -14.3672
 206   2.0000      -0.525875       -14.3098
 207   2.0000      -0.522733       -14.2243
 208   2.0000      -0.515675       -14.0322
 209   2.0000      -0.510313       -13.8863
 210   2.0000      -0.509768       -13.8715
 211   2.0000      -0.506688       -13.7877
 212   2.0000      -0.502933       -13.6855
 213   2.0000      -0.501184       -13.6379
 214   2.0000      -0.499429       -13.5902
 215   2.0000      -0.496629       -13.5140
 216   2.0000      -0.494268       -13.4497
 217   2.0000      -0.492130       -13.3915
 218   2.0000      -0.490777       -13.3547
 219   2.0000      -0.489083       -13.3086
 220   2.0000      -0.484312       -13.1788
 221   2.0000      -0.482215       -13.1217
 222   2.0000      -0.477781       -13.0011
 223   2.0000      -0.468814       -12.7571
 224   2.0000      -0.467897       -12.7321
 225   2.0000      -0.467222       -12.7138
 226   2.0000      -0.465644       -12.6708
 227   2.0000      -0.464723       -12.6458
 228   2.0000      -0.460989       -12.5442
 229   2.0000      -0.460003       -12.5173
 230   2.0000      -0.458591       -12.4789
 231   2.0000      -0.457765       -12.4564
 232   2.0000      -0.456966       -12.4347
 233   2.0000      -0.454358       -12.3637
 234   2.0000      -0.453264       -12.3339
 235   2.0000      -0.452497       -12.3131
 236   2.0000      -0.449211       -12.2237
 237   2.0000      -0.446726       -12.1560
 238   2.0000      -0.445551       -12.1241
 239   2.0000      -0.443788       -12.0761
 240   2.0000      -0.443610       -12.0713
 241   2.0000      -0.443572       -12.0702
 242   2.0000      -0.442322       -12.0362
 243   2.0000      -0.440168       -11.9776
 244   2.0000      -0.439611       -11.9624
 245   2.0000      -0.438139       -11.9224
 246   2.0000      -0.437805       -11.9133
 247   2.0000      -0.434915       -11.8346
 248   2.0000      -0.433737       -11.8026
 249   2.0000      -0.432779       -11.7765
 250   2.0000      -0.430143       -11.7048
 251   2.0000      -0.427198       -11.6246
 252   2.0000      -0.426895       -11.6164
 253   2.0000      -0.422105       -11.4860
 254   2.0000      -0.419249       -11.4084
 255   2.0000      -0.416849       -11.3430
 256   2.0000      -0.416782       -11.3412
 257   2.0000      -0.415892       -11.3170
 258   2.0000      -0.414749       -11.2859
 259   2.0000      -0.411265       -11.1911
 260   2.0000      -0.406568       -11.0633
 261   2.0000      -0.405954       -11.0466
 262   2.0000      -0.403236       -10.9726
 263   2.0000      -0.398586       -10.8461
 264   2.0000      -0.384941       -10.4748
 265   2.0000      -0.383063       -10.4237
 266   2.0000      -0.376659       -10.2494
 267   2.0000      -0.374769       -10.1980
 268   2.0000      -0.356294        -9.6953
 269   2.0000      -0.355017        -9.6605
 270   2.0000      -0.352134        -9.5821
 271   2.0000      -0.348881        -9.4935
 272   2.0000      -0.344604        -9.3771
 273   2.0000      -0.343290        -9.3414
 274   2.0000      -0.336593        -9.1592
 275   2.0000      -0.326722        -8.8906
 276   2.0000      -0.323794        -8.8109
 277   2.0000      -0.322484        -8.7752
 278   2.0000      -0.312042        -8.4911
 279   2.0000      -0.288480        -7.8499
 280   2.0000      -0.263715        -7.1760
 281   2.0000      -0.238217        -6.4822
 282   0.0000      -0.132481        -3.6050
 283   0.0000      -0.108186        -2.9439
 284   0.0000      -0.100470        -2.7339
 285   0.0000      -0.083713        -2.2779
 286   0.0000      -0.082778        -2.2525

MULLIKEN ATOMIC CHARGES
-----------------------
   0 C :    0.093402
   1 C :   -0.284250
   2 C :   -0.207752
   3 N :    0.151990
   4 C :   -0.176738
   5 N :    0.154528
   6 C :    0.042220
   7 C :    0.147413
   8 C :   -0.052388
   9 C :    0.050315
  10 C :    0.027089
  11 C :   -0.019524
  12 C :   -0.041684
  13 S :    0.099936
  14 C :   -0.024614
  15 C :   -0.059749
  16 C :   -0.051471
  17 C :    0.034927
  18 C :   -0.091284
  19 S :    0.175360
  20 C :   -0.061006
  21 C :    0.036524
  22 C :    0.304350
  23 C :   -0.298443
  24 C :   -0.185065
  25 N :    0.173771
  26 C :   -0.191106
  27 N :    0.170769
  28 C :   -0.063331
  29 C :   -0.181810
  30 S :    0.208709
  31 C :    0.186064
  32 C :   -0.058964
  33 C :   -0.062376
  34 N :   -0.049302
  35 C :    0.152191
  36 C :    0.153144
  37 N :   -0.048130
  38 F :   -0.131482
  39 F :   -0.135359
  40 C :    0.187768
  41 C :   -0.014600
  42 C :   -0.013876
  43 N :   -0.286917
  44 S :    0.580057
  45 N :   -0.286158
  46 C :   -0.180475
  47 C :   -0.066378
  48 C :    0.040009
  49 C :   -0.066705
  50 S :    0.202676
  51 C :   -0.099355
  52 C :   -0.007081
  53 C :    0.309089
  54 C :   -0.295520
  55 C :   -0.191502
  56 N :    0.183402
  57 C :   -0.184344
  58 N :    0.173101
  59 C :   -0.036644
  60 C :   -0.103395
  61 S :    0.185805
  62 C :    0.013415
  63 C :   -0.037922
  64 C :    0.148398
  65 C :    0.037462
  66 C :    0.090624
  67 C :   -0.285316
  68 C :   -0.172904
  69 N :    0.155652
  70 C :   -0.209547
  71 N :    0.162539
  72 S :    0.117686
  73 C :   -0.019091
  74 C :    0.029398
  75 C :    0.049556
  76 C :   -0.054161
  77 H :   -0.015904
  78 H :    0.001178
  79 H :    0.003277
  80 H :    0.007199
  81 H :    0.001604
  82 H :    0.008416
  83 H :    0.022260
  84 H :    0.022827
  85 H :    0.029148
  86 H :   -0.011886
  87 H :    0.007184
  88 H :    0.001468
  89 H :   -0.000666
  90 H :   -0.017725
Sum of atomic charges:   -0.0000000

LOEWDIN ATOMIC CHARGES
----------------------
   0 C :   -0.061738
   1 C :   -0.166857
   2 C :   -0.038921
   3 N :   -0.043718
   4 C :   -0.023429
   5 N :   -0.050977
   6 C :   -0.052016
   7 C :   -0.014617
   8 C :   -0.012593
   9 C :    0.005257
  10 C :   -0.013716
  11 C :    0.011803
  12 C :   -0.159455
  13 S :    0.416830
  14 C :   -0.040985
  15 C :   -0.173503
  16 C :   -0.017503
  17 C :   -0.067422
  18 C :   -0.174309
  19 S :    0.479183
  20 C :   -0.183873
  21 C :   -0.071903
  22 C :    0.081626
  23 C :   -0.102711
  24 C :   -0.016990
  25 N :   -0.030494
  26 C :   -0.015969
  27 N :   -0.036145
  28 C :   -0.011662
  29 C :   -0.164468
  30 S :    0.512560
  31 C :   -0.044614
  32 C :   -0.017195
  33 C :   -0.018298
  34 N :   -0.055739
  35 C :    0.063841
  36 C :    0.064428
  37 N :   -0.055873
  38 F :   -0.021403
  39 F :   -0.024382
  40 C :   -0.042548
  41 C :   -0.038677
  42 C :   -0.038201
  43 N :   -0.274163
  44 S :    0.698388
  45 N :   -0.272935
  46 C :   -0.165580
  47 C :   -0.010997
  48 C :   -0.070423
  49 C :   -0.184431
  50 S :    0.507350
  51 C :   -0.176681
  52 C :   -0.062263
  53 C :    0.077947
  54 C :   -0.097038
  55 C :   -0.021104
  56 N :   -0.020916
  57 C :   -0.015880
  58 N :   -0.030152
  59 C :   -0.030812
  60 C :   -0.168691
  61 S :    0.475858
  62 C :   -0.054674
  63 C :   -0.146743
  64 C :   -0.015818
  65 C :   -0.049919
  66 C :   -0.064481
  67 C :   -0.163080
  68 C :   -0.022302
  69 N :   -0.051601
  70 C :   -0.041161
  71 N :   -0.032589
  72 S :    0.445068
  73 C :    0.011483
  74 C :   -0.013236
  75 C :    0.003095
  76 C :   -0.013715
  77 H :    0.031473
  78 H :    0.036254
  79 H :    0.036923
  80 H :    0.041779
  81 H :    0.046526
  82 H :    0.041965
  83 H :    0.037999
  84 H :    0.038228
  85 H :    0.029542
  86 H :    0.035045
  87 H :    0.041811
  88 H :    0.036536
  89 H :    0.035410
  90 H :    0.030081

  Mayer bond orders larger than 0.100000
B(  0-C ,  1-C ) :   1.6343 B(  0-C ,  6-C ) :   1.0798 B(  0-C , 13-S ) :   1.1020
B(  1-C ,  2-C ) :   1.1302 B(  1-C ,  4-C ) :   1.1655 B(  2-C ,  3-N ) :   3.0326
B(  4-C ,  5-N ) :   2.9703 B(  6-C ,  7-C ) :   1.3213 B(  6-C , 11-C ) :   1.3395
B(  7-C ,  8-C ) :   1.3498 B(  7-C , 12-C ) :   1.0639 B(  8-C ,  9-C ) :   1.4146
B(  8-C , 77-H ) :   0.9920 B(  9-C , 10-C ) :   1.3430 B(  9-C , 78-H ) :   0.9871
B( 10-C , 11-C ) :   1.4147 B( 10-C , 79-H ) :   0.9879 B( 11-C , 80-H ) :   0.9828
B( 12-C , 13-S ) :   0.9879 B( 12-C , 14-C ) :   1.6423 B( 14-C , 15-C ) :   1.1868
B( 14-C , 81-H ) :   0.9640 B( 15-C , 16-C ) :   1.3902 B( 15-C , 19-S ) :   1.0823
B( 16-C , 17-C ) :   1.3086 B( 16-C , 82-H ) :   1.0060 B( 17-C , 18-C ) :   1.3985
B( 17-C , 22-C ) :   0.9856 B( 18-C , 19-S ) :   1.1372 B( 18-C , 20-C ) :   1.2078
B( 20-C , 21-C ) :   1.3919 B( 20-C , 30-S ) :   1.0898 B( 21-C , 22-C ) :   0.9971
B( 21-C , 28-C ) :   1.2781 B( 22-C , 23-C ) :   1.7133 B( 23-C , 24-C ) :   1.1374
B( 23-C , 26-C ) :   1.1322 B( 24-C , 25-N ) :   2.9865 B( 26-C , 27-N ) :   2.9919
B( 28-C , 29-C ) :   1.4183 B( 28-C , 83-H ) :   0.9809 B( 29-C , 30-S ) :   1.0889
B( 29-C , 31-C ) :   1.1933 B( 31-C , 32-C ) :   1.2970 B( 31-C , 40-C ) :   0.1272
B( 31-C , 42-C ) :   1.1927 B( 32-C , 33-C ) :   1.1198 B( 32-C , 37-N ) :   1.3796
B( 33-C , 34-N ) :   1.3806 B( 33-C , 40-C ) :   1.2928 B( 34-N , 35-C ) :   1.6491
B( 35-C , 36-C ) :   1.1113 B( 35-C , 39-F ) :   1.1865 B( 36-C , 37-N ) :   1.6494
B( 36-C , 38-F ) :   1.1910 B( 40-C , 41-C ) :   1.1947 B( 40-C , 46-C ) :   1.1961
B( 41-C , 42-C ) :   1.1006 B( 41-C , 45-N ) :   1.5146 B( 42-C , 43-N ) :   1.5142
B( 43-N , 44-S ) :   1.2818 B( 43-N , 45-N ) :   0.1483 B( 44-S , 45-N ) :   1.2828
B( 46-C , 47-C ) :   1.4144 B( 46-C , 50-S ) :   1.0873 B( 47-C , 48-C ) :   1.2788
B( 47-C , 84-H ) :   0.9820 B( 48-C , 49-C ) :   1.4022 B( 48-C , 53-C ) :   0.9900
B( 49-C , 50-S ) :   1.0872 B( 49-C , 51-C ) :   1.2062 B( 51-C , 52-C ) :   1.4180
B( 51-C , 61-S ) :   1.1262 B( 52-C , 53-C ) :   0.9943 B( 52-C , 59-C ) :   1.3362
B( 53-C , 54-C ) :   1.7141 B( 54-C , 55-C ) :   1.1296 B( 54-C , 57-C ) :   1.1395
B( 55-C , 56-N ) :   2.9858 B( 57-C , 58-N ) :   2.9848 B( 59-C , 60-C ) :   1.4248
B( 59-C , 85-H ) :   0.9712 B( 60-C , 61-S ) :   1.0977 B( 60-C , 62-C ) :   1.1476
B( 62-C , 63-C ) :   1.7023 B( 62-C , 86-H ) :   0.9405 B( 63-C , 64-C ) :   1.0637
B( 63-C , 72-S ) :   1.0004 B( 64-C , 65-C ) :   1.3215 B( 64-C , 76-C ) :   1.3473
B( 65-C , 66-C ) :   1.0775 B( 65-C , 73-C ) :   1.3460 B( 66-C , 67-C ) :   1.6344
B( 66-C , 72-S ) :   1.1008 B( 67-C , 68-C ) :   1.1673 B( 67-C , 70-C ) :   1.1300
B( 68-C , 69-N ) :   2.9700 B( 70-C , 71-N ) :   3.0345 B( 73-C , 74-C ) :   1.4131
B( 73-C , 87-H ) :   0.9803 B( 74-C , 75-C ) :   1.3455 B( 74-C , 88-H ) :   0.9877
B( 75-C , 76-C ) :   1.4153 B( 75-C , 89-H ) :   0.9866 B( 76-C , 90-H ) :   0.9895

-----------------------------------------------------------------------------
         ABSORPTION SPECTRUM VIA TRANSITION ELECTRIC DIPOLE MOMENTS
-----------------------------------------------------------------------------
State   Energy  Wavelength   fosc         T2         TX        TY        TZ
        (cm-1)    (nm)                  (au**2)     (au)      (au)      (au)
-----------------------------------------------------------------------------
   0    8643.4   1157.0   1.055198874  40.19083  -1.20106   1.48745  -6.04448
   1   12170.2    821.7   0.023800428   0.64382  -0.24467   0.76173  -0.06098
   2   13335.7    749.9   0.014819001   0.36583  -0.07350   0.30700  -0.51593
   3   16252.7    615.3   0.021352481   0.43251   0.28720  -0.59129   0.02005
   4   20204.1    494.9   0.465774489   7.58947  -0.51561   0.04104  -2.70591
   5   20778.8    481.3   0.378332610   5.99418   0.07312  -1.77455  -1.68517
   6   20902.0    478.4   1.001017532  15.76629  -1.21299   0.50735  -3.74667
   7   22668.2    441.1   0.080965829   1.17587  -0.27829   1.02430  -0.22188
   8   22987.8    435.0   0.005026826   0.07199  -0.14719   0.22413   0.00962
   9   25843.8    386.9   0.052700971   0.67133  -0.05430   0.77749  -0.25276
  10   25949.7    385.4   0.004561595   0.05787   0.19396  -0.14085  -0.02023
  11   26444.7    378.1   0.061381278   0.76414   0.01968   0.79555   0.36173
  12   26579.0    376.2   0.005786274   0.07167   0.03658   0.22271   0.14399
  13   27712.1    360.9   0.107590737   1.27815   0.20247   0.21083   1.09211
  14   28186.7    354.8   0.055666280   0.65017  -0.10573   0.74406   0.29216
  15   28513.2    350.7   0.266714243   3.07947   0.05598   1.74065  -0.21559
  16   28769.2    347.6   0.055896784   0.63964   0.44075   0.15576   0.64893
  17   29179.0    342.7   0.355235531   4.00794   0.38678  -0.16198   1.95758
  18   30022.0    333.1   0.082479164   0.90444  -0.08494   0.83077   0.45503
  19   30278.8    330.3   0.012909625   0.14036   0.12956   0.35151  -0.00408
  20   30477.3    328.1   0.369724636   3.99372  -0.34191   1.13799  -1.60680
  21   30798.0    324.7   0.000797189   0.00852   0.03179   0.08290   0.02526
  22   31487.7    317.6   0.080783120   0.84461  -0.02237   0.84433  -0.36224
  23   31626.1    316.2   0.176074548   1.83285  -0.18744   0.84694  -1.03943
  24   32028.8    312.2   0.711145400   7.30959   0.11013   2.56436   0.84942
  25   32107.0    311.5   0.001389578   0.01425   0.00869   0.07308   0.09398
  26   32178.8    310.8   0.182546029   1.86758   0.17860  -0.48807   1.26391
  27   32819.1    304.7   0.020200293   0.20263   0.06352  -0.06947   0.44019
  28   33060.5    302.5   0.169968944   1.69253   0.32555  -0.27929   1.22823
  29   33190.1    301.3   0.040105046   0.39780  -0.00237  -0.45354   0.43829
  30   33351.6    299.8   0.175589176   1.73323  -0.26664  -1.09715  -0.67705
  31   33514.9    298.4   0.055686284   0.54700   0.09289   0.47406   0.56003
  32   33547.4    298.1   0.018457437   0.18113  -0.12727  -0.22534  -0.33787
  33   34434.1    290.4   0.159200528   1.52206  -0.43138  -0.99139  -0.59423
  34   34608.1    288.9   0.118805343   1.13014  -0.03972  -1.03959  -0.21868
  35   34773.0    287.6   0.212370424   2.01061  -0.04752  -1.41571   0.06423
  36   35075.7    285.1   0.232053937   2.17800   0.09936   1.32555   0.64113
  37   35508.5    281.6   0.394494721   3.65751   0.07871   1.75674   0.75179
  38   36200.9    276.2   0.159422377   1.44979  -0.15679   0.45974  -1.10175
  39   36389.3    274.8   0.005370700   0.04859   0.02231  -0.17935  -0.12620
  40   36501.0    274.0   0.172102638   1.55224  -0.16534  -0.88041  -0.86590
  41   36643.5    272.9   0.384060767   3.45048   0.08182   1.85308  -0.09940
  42   36881.7    271.1   0.001264045   0.01128   0.00345   0.10538   0.01291
  43   37246.6    268.5   0.011027184   0.09747  -0.03834  -0.25843   0.17091
  44   37540.0    266.4   0.048457300   0.42495  -0.16279  -0.50211  -0.38254
  45   37558.5    266.3   0.027318764   0.23946   0.01191  -0.40394   0.27596
  46   37702.9    265.2   0.029248211   0.25539   0.06873   0.49961   0.03247
  47   38041.3    262.9   0.027959425   0.24196   0.03777   0.44727  -0.20121
  48   38107.2    262.4   0.104713208   0.90463   0.04331  -0.88461   0.34671
  49   38392.0    260.5   0.056944707   0.48830  -0.03150   0.44692  -0.53626
  50   38432.0    260.2   0.140671865   1.20501  -0.11775  -1.08210   0.14214
  51   38714.1    258.3   0.002166331   0.01842   0.01760   0.09864   0.09155
  52   39260.3    254.7   0.067742772   0.56805   0.05229  -0.72585   0.19610
  53   39325.6    254.3   0.003246401   0.02718   0.05301   0.15286   0.03166
  54   39543.4    252.9   0.020266198   0.16872  -0.03981   0.23697  -0.33314
  55   39604.5    252.5   0.013170354   0.10948   0.05079   0.27525  -0.17645
  56   39968.4    250.2   0.020939689   0.17248   0.04215   0.00887   0.41306
  57   40110.7    249.3   0.044347426   0.36399  -0.02112  -0.56623  -0.20717
  58   40194.1    248.8   0.055400779   0.45376   0.09480   0.63342   0.20869

FINAL SINGLE POINT ENERGY     -5781.628961906715

DIPOLE MOMENT
-------------
                                X             Y             Z
Electronic contribution:     -3.86175       2.42265       3.60213
Nuclear contribution   :      2.61400      -4.09554      -6.37934
                        -----------------------------------------
Total Dipole Moment    :     -1.24776      -1.67290      -2.77721
                        -----------------------------------------
Magnitude (a.u.)       :      3.47396
Magnitude (Debye)      :      8.83010

Rotational constants in cm-1:     0.001845     0.000188     0.000171
Rotational constants in MHz :    55.303859     5.627426     5.135885

                             ****ORCA TERMINATED NORMALLY****
TOTAL RUN TIME: 0 days 0 hours 9 minutes 25 seconds 490 msec
