                         Program Version 4.2.0 -  RELEASE  -
|  1> # ORCA input file
|  2> # SCF done       -209.832793357254          0.000720305242
|  3> ! CAM-B3LYP def2-SVP def2/J RIJCOSX Grid4 TightSCF
|  4> %maxcore 5000
|  5> %tddft
|  6>     Mode sTDDFT
|  7>     Ethresh 5.0
|  8>     maxcore 5000
|  9> end
| 10>
| 11> %pal
| 12>   nprocs 6
| 13>   end
| 14> * xyz 0 1
| 15>    C       -4.79871         0.49715        -7.89094
| 16>    C       -5.06196         0.38923        -9.22789
| 17>    F       -4.98871         1.46757       -10.01748
| 18>    C       -5.41323        -0.85405        -9.79177
| 19>    F       -5.66708        -0.93025       -11.10436
| 20>    C       -5.49538        -1.97282        -9.01064
| 21>    C       -5.22943        -1.89379        -7.62989
| 22>    C       -4.87519        -0.63727        -7.05832
| 23>    C       -4.60498        -0.53236        -5.67436
| 24>    C       -4.68584        -1.64938        -4.88550
| 25>    C       -5.04114        -2.89942        -5.46611
| 26>    C       -5.30747        -3.03302        -6.79846
| 27>    C       -5.06267        -3.92799        -4.41448
| 28>    O       -5.31571        -5.11170        -4.56411
| 29>    C       -4.72973        -3.24351        -3.16072
| 30>    C       -4.46847        -1.84510        -3.45343
| 31>    C       -4.06526        -0.87224        -2.57737
| 32>    C       -3.82519        -1.05056        -1.19798
| 33>    N       -3.60120        -1.11570        -0.07367
| 34>    C       -3.81632         0.46752        -2.94629
| 35>    N       -3.59658         1.56917        -3.18123
| 36>    C       -4.70937        -3.82589        -1.91935
| 37>    C       -4.93182        -5.15742        -1.53569
| 38>    C       -4.88992        -5.54907        -0.19126
| 39>    C       -5.11674        -6.90134        -0.02701
| 40>    C       -5.32774        -7.56156        -1.26094
| 41>    S       -5.26446        -6.51961        -2.60529
| 42>    C       -5.54169        -8.93613        -0.98554
| 43>    C       -5.46837        -9.14442         0.40235
| 44>    C       -5.20316        -7.87286         1.05360
| 45>    C       -5.07235        -7.64383         2.39128
| 46>    C       -5.18707        -8.68315         3.33881
| 47>    N       -5.28107        -9.53379         4.10174
| 48>    C       -4.82261        -6.35762         2.91613
| 49>    N       -4.62407        -5.31448         3.34735
| 50>    C       -5.66464       -10.47873         0.76261
| 51>    C       -5.88316       -11.28624        -0.33536
| 52>    S       -5.84733       -10.37908        -1.84187
| 53>    C       -6.11404       -12.70143        -0.35111
| 54>    C       -6.21546       -13.43459        -1.54597
| 55>    N       -6.41402       -14.72893        -1.57868
| 56>    C       -6.52145       -15.35921        -0.40528
| 57>    N       -6.45461       -14.76356         0.78940
| 58>    C       -6.25734       -13.46910         0.81894
| 59>    C       -6.72403       -16.77764        -0.41352
| 60>    C       -6.80714       -17.61482        -1.50857
| 61>    C       -7.00092       -18.93942        -1.11967
| 62>    C       -7.06406       -19.08803         0.28050
| 63>    S       -6.88302       -17.60888         1.11064
| 64>    C       -7.25551       -20.46156         0.57479
| 65>    C       -7.32108       -21.18019        -0.63506
| 66>    C       -7.16079       -20.24545        -1.73892
| 67>    C       -7.16187       -20.53597        -3.07071
| 68>    C       -7.34306       -21.85060        -3.55234
| 69>    N       -7.50125       -22.91415        -3.94945
| 70>    C       -6.99162       -19.54348        -4.06014
| 71>    N       -6.85351       -18.74593        -4.87161
| 72>    C       -7.52302       -22.54198        -0.44147
| 73>    C       -7.57489       -22.88082         0.90330
| 74>    S       -7.42113       -21.46250         1.93870
| 75>    C       -7.82744       -24.17573         1.41154
| 76>    C       -7.65063       -24.67006         2.66671
| 77>    C       -8.42350       -25.87273         3.09041
| 78>    O       -9.02876       -26.63322         2.37336
| 79>    C       -8.34175       -25.87955         4.56551
| 80>    C       -8.98261       -26.69165         5.45621
| 81>    C       -8.77291       -26.49396         6.83951
| 82>    C       -7.90343       -25.45130         7.27447
| 83>    C       -7.70633       -25.25510         8.65616
| 84>    C       -8.33952       -26.05768         9.56317
| 85>    C       -9.19763       -27.08971         9.13199
| 86>    C       -9.41030       -27.30456         7.79908
| 87>    F       -9.80611       -27.85956        10.04329
| 88>    F       -8.15066       -25.87002        10.87525
| 89>    C       -7.24651       -24.63119         6.32878
| 90>    C       -7.45865       -24.84705         4.99378
| 91>    C       -6.90006       -24.19835         3.81093
| 92>    C       -5.71349       -23.51457         3.77134
| 93>    C       -5.06661       -23.16455         2.56822
| 94>    N       -4.50013       -22.90328         1.60470
| 95>    C       -4.96951       -23.17239         4.91857
| 96>    N       -4.33852       -22.85986         5.82461
| 97>    H       -4.53104         1.45614        -7.47547
| 98>    H       -5.76541        -2.91668        -9.45777
| 99>    H       -4.34272         0.43364        -5.27498
|100>    H       -5.57444        -3.99382        -7.21164
|101>    H       -4.49438        -3.17820        -1.07797
|102>    H       -4.69809        -4.84941         0.60309
|103>    H       -5.64200       -10.84369         1.77270
|104>    H       -6.12771       -12.94417        -2.50839
|105>    H       -6.21588       -13.02311         1.80329
|106>    H       -6.72537       -17.25025        -2.51590
|107>    H       -7.60386       -23.27484        -1.22393
|108>    H       -8.31160       -24.85548         0.71576
|109>    H       -9.64025       -27.47465         5.11070
|110>    H       -7.04979       -24.47255         9.00313
|111>    H      -10.07004       -28.09830         7.48533
|112>    H       -6.59974       -23.84409         6.68281
|113> *
|114>
|115>                          ****END OF INPUT****

CARTESIAN COORDINATES (ANGSTROEM)
---------------------------------
  C     -4.798710    0.497150   -7.890940
  C     -5.061960    0.389230   -9.227890
  F     -4.988710    1.467570  -10.017480
  C     -5.413230   -0.854050   -9.791770
  F     -5.667080   -0.930250  -11.104360
  C     -5.495380   -1.972820   -9.010640
  C     -5.229430   -1.893790   -7.629890
  C     -4.875190   -0.637270   -7.058320
  C     -4.604980   -0.532360   -5.674360
  C     -4.685840   -1.649380   -4.885500
  C     -5.041140   -2.899420   -5.466110
  C     -5.307470   -3.033020   -6.798460
  C     -5.062670   -3.927990   -4.414480
  O     -5.315710   -5.111700   -4.564110
  C     -4.729730   -3.243510   -3.160720
  C     -4.468470   -1.845100   -3.453430
  C     -4.065260   -0.872240   -2.577370
  C     -3.825190   -1.050560   -1.197980
  N     -3.601200   -1.115700   -0.073670
  C     -3.816320    0.467520   -2.946290
  N     -3.596580    1.569170   -3.181230
  C     -4.709370   -3.825890   -1.919350
  C     -4.931820   -5.157420   -1.535690
  C     -4.889920   -5.549070   -0.191260
  C     -5.116740   -6.901340   -0.027010
  C     -5.327740   -7.561560   -1.260940
  S     -5.264460   -6.519610   -2.605290
  C     -5.541690   -8.936130   -0.985540
  C     -5.468370   -9.144420    0.402350
  C     -5.203160   -7.872860    1.053600
  C     -5.072350   -7.643830    2.391280
  C     -5.187070   -8.683150    3.338810
  N     -5.281070   -9.533790    4.101740
  C     -4.822610   -6.357620    2.916130
  N     -4.624070   -5.314480    3.347350
  C     -5.664640  -10.478730    0.762610
  C     -5.883160  -11.286240   -0.335360
  S     -5.847330  -10.379080   -1.841870
  C     -6.114040  -12.701430   -0.351110
  C     -6.215460  -13.434590   -1.545970
  N     -6.414020  -14.728930   -1.578680
  C     -6.521450  -15.359210   -0.405280
  N     -6.454610  -14.763560    0.789400
  C     -6.257340  -13.469100    0.818940
  C     -6.724030  -16.777640   -0.413520
  C     -6.807140  -17.614820   -1.508570
  C     -7.000920  -18.939420   -1.119670
  C     -7.064060  -19.088030    0.280500
  S     -6.883020  -17.608880    1.110640
  C     -7.255510  -20.461560    0.574790
  C     -7.321080  -21.180190   -0.635060
  C     -7.160790  -20.245450   -1.738920
  C     -7.161870  -20.535970   -3.070710
  C     -7.343060  -21.850600   -3.552340
  N     -7.501250  -22.914150   -3.949450
  C     -6.991620  -19.543480   -4.060140
  N     -6.853510  -18.745930   -4.871610
  C     -7.523020  -22.541980   -0.441470
  C     -7.574890  -22.880820    0.903300
  S     -7.421130  -21.462500    1.938700
  C     -7.827440  -24.175730    1.411540
  C     -7.650630  -24.670060    2.666710
  C     -8.423500  -25.872730    3.090410
  O     -9.028760  -26.633220    2.373360
  C     -8.341750  -25.879550    4.565510
  C     -8.982610  -26.691650    5.456210
  C     -8.772910  -26.493960    6.839510
  C     -7.903430  -25.451300    7.274470
  C     -7.706330  -25.255100    8.656160
  C     -8.339520  -26.057680    9.563170
  C     -9.197630  -27.089710    9.131990
  C     -9.410300  -27.304560    7.799080
  F     -9.806110  -27.859560   10.043290
  F     -8.150660  -25.870020   10.875250
  C     -7.246510  -24.631190    6.328780
  C     -7.458650  -24.847050    4.993780
  C     -6.900060  -24.198350    3.810930
  C     -5.713490  -23.514570    3.771340
  C     -5.066610  -23.164550    2.568220
  N     -4.500130  -22.903280    1.604700
  C     -4.969510  -23.172390    4.918570
  N     -4.338520  -22.859860    5.824610
  H     -4.531040    1.456140   -7.475470
  H     -5.765410   -2.916680   -9.457770
  H     -4.342720    0.433640   -5.274980
  H     -5.574440   -3.993820   -7.211640
  H     -4.494380   -3.178200   -1.077970
  H     -4.698090   -4.849410    0.603090
  H     -5.642000  -10.843690    1.772700
  H     -6.127710  -12.944170   -2.508390
  H     -6.215880  -13.023110    1.803290
  H     -6.725370  -17.250250   -2.515900
  H     -7.603860  -23.274840   -1.223930
  H     -8.311600  -24.855480    0.715760
  H     -9.640250  -27.474650    5.110700
  H     -7.049790  -24.472550    9.003130
  H    -10.070040  -28.098300    7.485330
  H     -6.599740  -23.844090    6.682810

 Total Charge           Charge          ....    0
 Multiplicity           Mult            ....    1
 Number of Electrons    NEL             ....  574
 Basis Dimension        Dim             .... 1244

ORBITAL ENERGIES
----------------

  NO   OCC          E(Eh)            E(eV)
   0   2.0000     -89.007222     -2422.0097
   1   2.0000     -89.002295     -2421.8756
   2   2.0000     -89.001078     -2421.8424
   3   2.0000     -88.998687     -2421.7774
   4   2.0000     -24.804249      -674.9579
   5   2.0000     -24.803131      -674.9275
   6   2.0000     -24.802095      -674.8993
   7   2.0000     -24.801509      -674.8834
   8   2.0000     -19.235040      -523.4120
   9   2.0000     -19.221908      -523.0547
  10   2.0000     -14.442212      -392.9926
  11   2.0000     -14.439880      -392.9291
  12   2.0000     -14.439684      -392.9238
  13   2.0000     -14.438618      -392.8948
  14   2.0000     -14.436169      -392.8281
  15   2.0000     -14.435329      -392.8053
  16   2.0000     -14.425019      -392.5247
  17   2.0000     -14.423755      -392.4903
  18   2.0000     -14.422554      -392.4577
  19   2.0000     -14.421986      -392.4422
  20   2.0000     -10.387906      -282.6693
  21   2.0000     -10.387127      -282.6481
  22   2.0000     -10.385643      -282.6077
  23   2.0000     -10.385198      -282.5956
  24   2.0000     -10.382740      -282.5287
  25   2.0000     -10.377324      -282.3813
  26   2.0000     -10.373974      -282.2902
  27   2.0000     -10.373870      -282.2874
  28   2.0000     -10.372199      -282.2419
  29   2.0000     -10.365033      -282.0469
  30   2.0000     -10.359586      -281.8987
  31   2.0000     -10.352343      -281.7016
  32   2.0000     -10.351172      -281.6697
  33   2.0000     -10.350865      -281.6614
  34   2.0000     -10.350748      -281.6582
  35   2.0000     -10.350578      -281.6535
  36   2.0000     -10.350408      -281.6489
  37   2.0000     -10.350135      -281.6415
  38   2.0000     -10.347640      -281.5736
  39   2.0000     -10.346784      -281.5503
  40   2.0000     -10.345435      -281.5136
  41   2.0000     -10.342364      -281.4300
  42   2.0000     -10.341585      -281.4088
  43   2.0000     -10.339118      -281.3417
  44   2.0000     -10.337641      -281.3015
  45   2.0000     -10.337269      -281.2914
  46   2.0000     -10.336055      -281.2584
  47   2.0000     -10.335494      -281.2431
  48   2.0000     -10.335186      -281.2347
  49   2.0000     -10.332253      -281.1549
  50   2.0000     -10.327213      -281.0178
  51   2.0000     -10.327014      -281.0123
  52   2.0000     -10.326674      -281.0031
  53   2.0000     -10.326000      -280.9848
  54   2.0000     -10.324821      -280.9527
  55   2.0000     -10.324206      -280.9359
  56   2.0000     -10.323614      -280.9198
  57   2.0000     -10.323101      -280.9059
  58   2.0000     -10.320061      -280.8231
  59   2.0000     -10.318752      -280.7875
  60   2.0000     -10.317655      -280.7577
  61   2.0000     -10.317299      -280.7480
  62   2.0000     -10.316527      -280.7270
  63   2.0000     -10.315688      -280.7041
  64   2.0000     -10.315230      -280.6917
  65   2.0000     -10.315190      -280.6906
  66   2.0000     -10.314786      -280.6796
  67   2.0000     -10.314631      -280.6754
  68   2.0000     -10.314101      -280.6610
  69   2.0000     -10.311377      -280.5868
  70   2.0000     -10.310663      -280.5674
  71   2.0000     -10.309749      -280.5425
  72   2.0000     -10.309514      -280.5361
  73   2.0000     -10.308241      -280.5015
  74   2.0000     -10.308010      -280.4952
  75   2.0000     -10.307772      -280.4887
  76   2.0000     -10.306607      -280.4570
  77   2.0000     -10.306534      -280.4551
  78   2.0000     -10.305366      -280.4233
  79   2.0000     -10.304656      -280.4039
  80   2.0000     -10.302131      -280.3352
  81   2.0000     -10.299646      -280.2676
  82   2.0000      -8.101703      -220.4585
  83   2.0000      -8.096480      -220.3164
  84   2.0000      -8.093229      -220.2280
  85   2.0000      -8.092717      -220.2140
  86   2.0000      -6.070927      -165.1983
  87   2.0000      -6.066718      -165.0838
  88   2.0000      -6.065709      -165.0563
  89   2.0000      -6.064149      -165.0139
  90   2.0000      -6.062672      -164.9737
  91   2.0000      -6.061891      -164.9524
  92   2.0000      -6.061482      -164.9413
  93   2.0000      -6.058943      -164.8722
  94   2.0000      -6.057862      -164.8428
  95   2.0000      -6.057595      -164.8355
  96   2.0000      -6.055832      -164.7876
  97   2.0000      -6.055357      -164.7746
  98   2.0000      -1.326962       -36.1085
  99   2.0000      -1.324975       -36.0544
 100   2.0000      -1.312055       -35.7028
 101   2.0000      -1.310106       -35.6498
 102   2.0000      -1.150564       -31.3084
 103   2.0000      -1.137976       -30.9659
 104   2.0000      -1.113713       -30.3057
 105   2.0000      -1.059283       -28.8246
 106   2.0000      -1.055006       -28.7082
 107   2.0000      -1.033352       -28.1189
 108   2.0000      -1.029235       -28.0069
 109   2.0000      -1.028377       -27.9836
 110   2.0000      -1.027008       -27.9463
 111   2.0000      -1.018685       -27.7198
 112   2.0000      -1.014188       -27.5974
 113   2.0000      -1.013263       -27.5723
 114   2.0000      -1.012416       -27.5492
 115   2.0000      -1.010112       -27.4866
 116   2.0000      -1.009117       -27.4595
 117   2.0000      -1.007465       -27.4145
 118   2.0000      -1.002016       -27.2662
 119   2.0000      -1.000871       -27.2351
 120   2.0000      -0.989893       -26.9364
 121   2.0000      -0.987498       -26.8712
 122   2.0000      -0.975334       -26.5402
 123   2.0000      -0.968135       -26.3443
 124   2.0000      -0.943862       -25.6838
 125   2.0000      -0.939794       -25.5731
 126   2.0000      -0.938007       -25.5245
 127   2.0000      -0.927191       -25.2301
 128   2.0000      -0.918572       -24.9956
 129   2.0000      -0.908938       -24.7335
 130   2.0000      -0.904158       -24.6034
 131   2.0000      -0.899248       -24.4698
 132   2.0000      -0.897712       -24.4280
 133   2.0000      -0.889646       -24.2085
 134   2.0000      -0.885113       -24.0851
 135   2.0000      -0.879239       -23.9253
 136   2.0000      -0.871656       -23.7190
 137   2.0000      -0.870885       -23.6980
 138   2.0000      -0.865100       -23.5406
 139   2.0000      -0.848102       -23.0780
 140   2.0000      -0.845900       -23.0181
 141   2.0000      -0.841835       -22.9075
 142   2.0000      -0.826313       -22.4851
 143   2.0000      -0.814179       -22.1549
 144   2.0000      -0.794026       -21.6065
 145   2.0000      -0.788333       -21.4516
 146   2.0000      -0.784905       -21.3583
 147   2.0000      -0.777335       -21.1524
 148   2.0000      -0.773814       -21.0566
 149   2.0000      -0.771154       -20.9842
 150   2.0000      -0.767225       -20.8773
 151   2.0000      -0.748264       -20.3613
 152   2.0000      -0.741206       -20.1692
 153   2.0000      -0.729077       -19.8392
 154   2.0000      -0.724034       -19.7020
 155   2.0000      -0.722308       -19.6550
 156   2.0000      -0.718187       -19.5429
 157   2.0000      -0.714102       -19.4317
 158   2.0000      -0.709315       -19.3014
 159   2.0000      -0.701426       -19.0868
 160   2.0000      -0.696619       -18.9560
 161   2.0000      -0.694128       -18.8882
 162   2.0000      -0.690037       -18.7769
 163   2.0000      -0.687929       -18.7195
 164   2.0000      -0.682816       -18.5804
 165   2.0000      -0.669035       -18.2054
 166   2.0000      -0.666488       -18.1361
 167   2.0000      -0.660132       -17.9631
 168   2.0000      -0.658841       -17.9280
 169   2.0000      -0.655924       -17.8486
 170   2.0000      -0.649436       -17.6720
 171   2.0000      -0.647616       -17.6225
 172   2.0000      -0.643461       -17.5095
 173   2.0000      -0.637628       -17.3507
 174   2.0000      -0.633958       -17.2509
 175   2.0000      -0.633722       -17.2445
 176   2.0000      -0.625095       -17.0097
 177   2.0000      -0.624685       -16.9985
 178   2.0000      -0.622276       -16.9330
 179   2.0000      -0.619660       -16.8618
 180   2.0000      -0.614332       -16.7168
 181   2.0000      -0.602470       -16.3941
 182   2.0000      -0.594391       -16.1742
 183   2.0000      -0.593123       -16.1397
 184   2.0000      -0.591343       -16.0913
 185   2.0000      -0.589357       -16.0372
 186   2.0000      -0.586941       -15.9715
 187   2.0000      -0.585288       -15.9265
 188   2.0000      -0.580705       -15.8018
 189   2.0000      -0.568679       -15.4745
 190   2.0000      -0.566132       -15.4052
 191   2.0000      -0.564299       -15.3554
 192   2.0000      -0.560078       -15.2405
 193   2.0000      -0.559861       -15.2346
 194   2.0000      -0.559274       -15.2186
 195   2.0000      -0.554613       -15.0918
 196   2.0000      -0.552754       -15.0412
 197   2.0000      -0.552023       -15.0213
 198   2.0000      -0.550869       -14.9899
 199   2.0000      -0.549933       -14.9644
 200   2.0000      -0.547018       -14.8851
 201   2.0000      -0.544442       -14.8150
 202   2.0000      -0.542617       -14.7654
 203   2.0000      -0.539692       -14.6858
 204   2.0000      -0.538506       -14.6535
 205   2.0000      -0.535129       -14.5616
 206   2.0000      -0.533509       -14.5175
 207   2.0000      -0.528826       -14.3901
 208   2.0000      -0.527819       -14.3627
 209   2.0000      -0.524095       -14.2613
 210   2.0000      -0.522117       -14.2075
 211   2.0000      -0.519574       -14.1383
 212   2.0000      -0.517029       -14.0691
 213   2.0000      -0.516050       -14.0424
 214   2.0000      -0.515592       -14.0300
 215   2.0000      -0.514814       -14.0088
 216   2.0000      -0.509093       -13.8531
 217   2.0000      -0.507962       -13.8224
 218   2.0000      -0.507542       -13.8109
 219   2.0000      -0.506320       -13.7777
 220   2.0000      -0.504024       -13.7152
 221   2.0000      -0.500035       -13.6066
 222   2.0000      -0.499648       -13.5961
 223   2.0000      -0.498649       -13.5689
 224   2.0000      -0.494153       -13.4466
 225   2.0000      -0.491247       -13.3675
 226   2.0000      -0.489840       -13.3292
 227   2.0000      -0.485127       -13.2010
 228   2.0000      -0.480806       -13.0834
 229   2.0000      -0.477834       -13.0025
 230   2.0000      -0.472814       -12.8659
 231   2.0000      -0.471921       -12.8416
 232   2.0000      -0.471540       -12.8312
 233   2.0000      -0.468282       -12.7426
 234   2.0000      -0.467886       -12.7318
 235   2.0000      -0.466347       -12.6899
 236   2.0000      -0.463224       -12.6050
 237   2.0000      -0.461482       -12.5576
 238   2.0000      -0.458793       -12.4844
 239   2.0000      -0.457462       -12.4482
 240   2.0000      -0.456940       -12.4340
 241   2.0000      -0.453960       -12.3529
 242   2.0000      -0.452386       -12.3100
 243   2.0000      -0.452072       -12.3015
 244   2.0000      -0.450856       -12.2684
 245   2.0000      -0.450825       -12.2676
 246   2.0000      -0.450034       -12.2460
 247   2.0000      -0.449829       -12.2405
 248   2.0000      -0.448552       -12.2057
 249   2.0000      -0.445675       -12.1274
 250   2.0000      -0.445070       -12.1110
 251   2.0000      -0.444234       -12.0882
 252   2.0000      -0.441187       -12.0053
 253   2.0000      -0.437705       -11.9105
 254   2.0000      -0.437212       -11.8972
 255   2.0000      -0.435504       -11.8507
 256   2.0000      -0.433941       -11.8081
 257   2.0000      -0.433041       -11.7836
 258   2.0000      -0.432047       -11.7566
 259   2.0000      -0.426478       -11.6051
 260   2.0000      -0.425727       -11.5846
 261   2.0000      -0.422519       -11.4973
 262   2.0000      -0.416111       -11.3230
 263   2.0000      -0.415049       -11.2941
 264   2.0000      -0.412728       -11.2309
 265   2.0000      -0.410096       -11.1593
 266   2.0000      -0.407647       -11.0926
 267   2.0000      -0.404373       -11.0035
 268   2.0000      -0.396060       -10.7773
 269   2.0000      -0.392387       -10.6774
 270   2.0000      -0.382428       -10.4064
 271   2.0000      -0.373346       -10.1593
 272   2.0000      -0.363473        -9.8906
 273   2.0000      -0.356316        -9.6959
 274   2.0000      -0.351793        -9.5728
 275   2.0000      -0.351064        -9.5529
 276   2.0000      -0.349394        -9.5075
 277   2.0000      -0.342226        -9.3124
 278   2.0000      -0.335969        -9.1422
 279   2.0000      -0.330890        -9.0040
 280   2.0000      -0.325603        -8.8601
 281   2.0000      -0.324998        -8.8436
 282   2.0000      -0.321890        -8.7591
 283   2.0000      -0.308323        -8.3899
 284   2.0000      -0.306246        -8.3334
 285   2.0000      -0.285164        -7.7597
 286   2.0000      -0.266802        -7.2601
 287   0.0000      -0.125020        -3.4020
 288   0.0000      -0.117752        -3.2042
 289   0.0000      -0.099436        -2.7058
 290   0.0000      -0.095720        -2.6047
 291   0.0000      -0.072670        -1.9775

MULLIKEN ATOMIC CHARGES
-----------------------
   0 C :   -0.107166
   1 C :    0.244042
   2 F :   -0.168929
   3 C :    0.237621
   4 F :   -0.170140
   5 C :   -0.103662
   6 C :    0.117331
   7 C :    0.113642
   8 C :   -0.084254
   9 C :    0.048600
  10 C :   -0.002854
  11 C :   -0.081052
  12 C :    0.169014
  13 O :   -0.188876
  14 C :   -0.092610
  15 C :    0.330115
  16 C :   -0.355715
  17 C :   -0.189667
  18 N :    0.152851
  19 C :   -0.178154
  20 N :    0.150298
  21 C :   -0.027370
  22 C :   -0.053775
  23 C :   -0.059959
  24 C :    0.048934
  25 C :   -0.069365
  26 S :    0.248544
  27 C :   -0.102220
  28 C :    0.021477
  29 C :    0.303191
  30 C :   -0.289761
  31 C :   -0.187313
  32 N :    0.173467
  33 C :   -0.192343
  34 N :    0.187803
  35 C :   -0.042471
  36 C :   -0.048849
  37 S :    0.189626
  38 C :    0.027585
  39 C :    0.014273
  40 N :   -0.034636
  41 C :   -0.075174
  42 N :   -0.062528
  43 C :    0.035756
  44 C :   -0.034791
  45 C :   -0.037401
  46 C :    0.015775
  47 C :   -0.098904
  48 S :    0.252295
  49 C :   -0.083363
  50 C :    0.027559
  51 C :    0.297233
  52 C :   -0.289362
  53 C :   -0.189617
  54 N :    0.177908
  55 C :   -0.193415
  56 N :    0.185072
  57 C :    0.001947
  58 C :   -0.088483
  59 S :    0.210958
  60 C :    0.045451
  61 C :   -0.141560
  62 C :    0.141799
  63 O :   -0.135523
  64 C :    0.012863
  65 C :   -0.081272
  66 C :    0.110088
  67 C :    0.110397
  68 C :   -0.106651
  69 C :    0.241879
  70 C :    0.239979
  71 C :   -0.101817
  72 F :   -0.170343
  73 F :   -0.169841
  74 C :   -0.079912
  75 C :    0.039650
  76 C :    0.246772
  77 C :   -0.323660
  78 C :   -0.210685
  79 N :    0.178715
  80 C :   -0.172150
  81 N :    0.156449
  82 H :    0.009503
  83 H :   -0.000440
  84 H :   -0.004644
  85 H :   -0.010140
  86 H :    0.017864
  87 H :    0.030985
  88 H :    0.009874
  89 H :    0.020284
  90 H :    0.019768
  91 H :    0.021461
  92 H :    0.021303
  93 H :    0.035470
  94 H :   -0.006575
  95 H :    0.007473
  96 H :    0.000776
  97 H :   -0.002327
Sum of atomic charges:   -0.0000000

LOEWDIN ATOMIC CHARGES
----------------------
   0 C :   -0.028430
   1 C :    0.067986
   2 F :   -0.046686
   3 C :    0.068517
   4 F :   -0.047629
   5 C :   -0.032785
   6 C :   -0.009094
   7 C :   -0.005722
   8 C :    0.019169
   9 C :   -0.021950
  10 C :   -0.053549
  11 C :    0.031213
  12 C :    0.086101
  13 O :   -0.175044
  14 C :   -0.109877
  15 C :    0.075509
  16 C :   -0.138112
  17 C :   -0.023232
  18 N :   -0.045433
  19 C :   -0.017132
  20 N :   -0.050700
  21 C :    0.058523
  22 C :   -0.182753
  23 C :    0.014045
  24 C :   -0.076782
  25 C :   -0.167356
  26 S :    0.551607
  27 C :   -0.183611
  28 C :   -0.054013
  29 C :    0.076892
  30 C :   -0.097016
  31 C :   -0.015693
  32 N :   -0.030431
  33 C :   -0.020610
  34 N :   -0.019379
  35 C :   -0.028220
  36 C :   -0.152372
  37 S :    0.487469
  38 C :   -0.089675
  39 C :    0.047521
  40 N :   -0.069719
  41 C :    0.012270
  42 N :   -0.088207
  43 C :    0.064062
  44 C :   -0.181868
  45 C :    0.000083
  46 C :   -0.060782
  47 C :   -0.181225
  48 S :    0.524696
  49 C :   -0.152974
  50 C :   -0.069215
  51 C :    0.078198
  52 C :   -0.095631
  53 C :   -0.017186
  54 N :   -0.027117
  55 C :   -0.018302
  56 N :   -0.025448
  57 C :    0.014908
  58 C :   -0.177168
  59 S :    0.513798
  60 C :    0.053119
  61 C :   -0.100698
  62 C :    0.083197
  63 O :   -0.138522
  64 C :   -0.054043
  65 C :    0.031723
  66 C :   -0.009033
  67 C :   -0.005570
  68 C :   -0.030259
  69 C :    0.067731
  70 C :    0.067740
  71 C :   -0.032295
  72 F :   -0.048061
  73 F :   -0.047479
  74 C :    0.014277
  75 C :   -0.020611
  76 C :    0.060141
  77 C :   -0.142559
  78 C :   -0.037807
  79 N :   -0.045115
  80 C :   -0.020299
  81 N :   -0.047802
  82 H :    0.048487
  83 H :    0.044904
  84 H :    0.040642
  85 H :    0.040277
  86 H :    0.054267
  87 H :    0.049043
  88 H :    0.040501
  89 H :    0.022227
  90 H :    0.031677
  91 H :    0.047371
  92 H :    0.047921
  93 H :    0.056095
  94 H :    0.041569
  95 H :    0.047597
  96 H :    0.045369
  97 H :    0.039842

  Mayer bond orders larger than 0.100000
B(  0-C ,  1-C ) :   1.4389 B(  0-C ,  5-C ) :   0.1078 B(  0-C ,  7-C ) :   1.1906
B(  0-C , 82-H ) :   1.0068 B(  1-C ,  2-F ) :   1.1368 B(  1-C ,  3-C ) :   1.1915
B(  3-C ,  4-F ) :   1.1350 B(  3-C ,  5-C ) :   1.4428 B(  5-C ,  6-C ) :   1.1920
B(  5-C , 83-H ) :   1.0071 B(  6-C ,  7-C ) :   1.2559 B(  6-C , 11-C ) :   1.1885
B(  7-C ,  8-C ) :   1.2145 B(  8-C ,  9-C ) :   1.4544 B(  8-C , 84-H ) :   0.9891
B(  9-C , 10-C ) :   1.2204 B(  9-C , 15-C ) :   0.9826 B( 10-C , 11-C ) :   1.4665
B( 10-C , 12-C ) :   0.9634 B( 11-C , 85-H ) :   1.0168 B( 12-C , 13-O ) :   2.1134
B( 12-C , 14-C ) :   0.9840 B( 14-C , 15-C ) :   1.0761 B( 14-C , 21-C ) :   1.4902
B( 15-C , 16-C ) :   1.6324 B( 16-C , 17-C ) :   1.1415 B( 16-C , 19-C ) :   1.1477
B( 17-C , 18-N ) :   2.9606 B( 19-C , 20-N ) :   2.9595 B( 21-C , 22-C ) :   1.2694
B( 21-C , 86-H ) :   0.9389 B( 22-C , 23-C ) :   1.3285 B( 22-C , 26-S ) :   1.0697
B( 23-C , 24-C ) :   1.3329 B( 23-C , 87-H ) :   1.0079 B( 24-C , 25-C ) :   1.3577
B( 24-C , 29-C ) :   0.9858 B( 25-C , 26-S ) :   1.1293 B( 25-C , 27-C ) :   1.1971
B( 27-C , 28-C ) :   1.4412 B( 27-C , 37-S ) :   1.1183 B( 28-C , 29-C ) :   1.0002
B( 28-C , 35-C ) :   1.2848 B( 29-C , 30-C ) :   1.7169 B( 30-C , 31-C ) :   1.1335
B( 30-C , 33-C ) :   1.1334 B( 31-C , 32-N ) :   2.9866 B( 33-C , 34-N ) :   2.9947
B( 35-C , 36-C ) :   1.4876 B( 35-C , 88-H ) :   0.9883 B( 36-C , 37-S ) :   1.1164
B( 36-C , 38-C ) :   1.0808 B( 38-C , 39-C ) :   1.2968 B( 38-C , 43-C ) :   1.3167
B( 39-C , 40-N ) :   1.5904 B( 39-C , 89-H ) :   0.9821 B( 40-N , 41-C ) :   1.5767
B( 41-C , 42-N ) :   1.5687 B( 41-C , 44-C ) :   1.0310 B( 42-N , 43-C ) :   1.5826
B( 43-C , 90-H ) :   0.9843 B( 44-C , 45-C ) :   1.4691 B( 44-C , 48-S ) :   1.1197
B( 45-C , 46-C ) :   1.2729 B( 45-C , 91-H ) :   1.0071 B( 46-C , 47-C ) :   1.4216
B( 46-C , 51-C ) :   0.9970 B( 47-C , 48-S ) :   1.1269 B( 47-C , 49-C ) :   1.2097
B( 49-C , 50-C ) :   1.4039 B( 49-C , 59-S ) :   1.1612 B( 50-C , 51-C ) :   0.9906
B( 50-C , 57-C ) :   1.3053 B( 51-C , 52-C ) :   1.7233 B( 52-C , 53-C ) :   1.1315
B( 52-C , 55-C ) :   1.1340 B( 53-C , 54-N ) :   2.9926 B( 55-C , 56-N ) :   3.0002
B( 57-C , 58-C ) :   1.3959 B( 57-C , 92-H ) :   1.0014 B( 58-C , 59-S ) :   1.0864
B( 58-C , 60-C ) :   1.1490 B( 60-C , 61-C ) :   1.6359 B( 60-C , 93-H ) :   0.9439
B( 61-C , 62-C ) :   0.9385 B( 61-C , 76-C ) :   1.0360 B( 62-C , 63-O ) :   2.2773
B( 62-C , 64-C ) :   0.9183 B( 64-C , 65-C ) :   1.4749 B( 64-C , 75-C ) :   1.2220
B( 65-C , 66-C ) :   1.1963 B( 65-C , 94-H ) :   1.0164 B( 66-C , 67-C ) :   1.2575
B( 66-C , 71-C ) :   1.1929 B( 67-C , 68-C ) :   1.1911 B( 67-C , 74-C ) :   1.2141
B( 68-C , 69-C ) :   1.4422 B( 68-C , 71-C ) :   0.1080 B( 68-C , 95-H ) :   1.0065
B( 69-C , 70-C ) :   1.1892 B( 69-C , 73-F ) :   1.1361 B( 70-C , 71-C ) :   1.4441
B( 70-C , 72-F ) :   1.1356 B( 71-C , 96-H ) :   1.0069 B( 74-C , 75-C ) :   1.4581
B( 74-C , 97-H ) :   0.9945 B( 75-C , 76-C ) :   1.0004 B( 76-C , 77-C ) :   1.6570
B( 77-C , 78-C ) :   1.1536 B( 77-C , 80-C ) :   1.1338 B( 78-C , 79-N ) :   3.0231
B( 80-C , 81-N ) :   2.9892

-----------------------------------------------------------------------------
         ABSORPTION SPECTRUM VIA TRANSITION ELECTRIC DIPOLE MOMENTS
-----------------------------------------------------------------------------
State   Energy  Wavelength   fosc         T2         TX        TY        TZ
        (cm-1)    (nm)                  (au**2)     (au)      (au)      (au)
-----------------------------------------------------------------------------
   0   14407.3    694.1   0.807303615  18.44713   0.41820   4.03007  -1.42504
   1   15229.6    656.6   0.005985142   0.12938  -0.13767   0.20834  -0.25889
   2   20479.8    488.3   1.724204220  27.71648  -0.24363  -4.65250   2.45182
   3   21669.7    461.5   0.358874600   5.45212  -0.73254  -2.21053   0.17046
   4   23515.0    425.3   0.016384223   0.22938  -0.11614  -0.29554   0.35853
   5   24727.0    404.4   0.050518931   0.67260   0.40335   0.25420   0.66730
   6   25985.5    384.8   0.080194123   1.01598   0.31508  -0.13141  -0.94839
   7   26624.2    375.6   0.033284699   0.41157  -0.14968   0.08570  -0.61792
   8   27725.1    360.7   0.157524163   1.87047   0.10250   1.25359  -0.53709
   9   27937.3    357.9   0.091173244   1.07438   0.11149   0.66357  -0.78843
  10   28293.0    353.4   0.360138021   4.19050  -0.70370  -1.90793  -0.23470
  11   28536.7    350.4   0.010081671   0.11631   0.21650   0.16473   0.20567
  12   28933.9    345.6   0.076687795   0.87256   0.32678   0.85031   0.20675
  13   29224.1    342.2   0.051339575   0.57835   0.34302   0.60773  -0.30224
  14   29350.3    340.7   0.096957304   1.08754  -0.04390  -0.34265  -0.98397
  15   29683.7    336.9   0.113421526   1.25792  -0.41966  -0.17520   1.02524
  16   30336.9    329.6   0.468327034   5.08222   0.51076   1.14985   1.87061
  17   30683.0    325.9   0.224051748   2.40395  -0.09865  -0.78468   1.33360
  18   30775.1    324.9   0.010839698   0.11596   0.03634  -0.04781   0.33519
  19   31014.4    322.4   0.339295885   3.60156  -0.16757  -0.10940   1.88720
  20   31196.3    320.6   0.357767717   3.77549   0.00572   0.01931   1.94296
  21   31854.4    313.9   0.037330005   0.38580   0.24975  -0.49756  -0.27542
  22   32214.6    310.4   0.346258125   3.53853   0.14259   1.64465  -0.90185
  23   32346.1    309.2   0.209501369   2.13226   0.76485   1.24027   0.09486
  24   32653.8    306.2   0.195414142   1.97014  -0.03736  -0.91597  -1.06290
  25   32821.3    304.7   0.294109423   2.95004   0.09492   0.15734   1.70771
  26   33291.6    300.4   0.206520593   2.04223   0.37982  -0.66957   1.20401
  27   33437.0    299.1   0.397191197   3.91064   0.61932   0.87906  -1.65962
  28   34219.8    292.2   0.020891518   0.20099  -0.39368  -0.14414  -0.15882
  29   34283.9    291.7   0.013458958   0.12924  -0.03732  -0.35622  -0.03091
  30   34423.3    290.5   0.017654584   0.16884   0.09517   0.11838   0.38180
  31   34562.5    289.3   0.082443476   0.78528   0.15023   0.24865  -0.83719
  32   34614.5    288.9   0.029592236   0.28145   0.09865   0.20023  -0.48127
  33   34778.3    287.5   0.687186364   6.50491  -0.18666   0.14280  -2.53962
  34   35041.3    285.4   0.081617650   0.76679  -0.18355  -0.06565   0.85369
  35   35263.4    283.6   0.052457746   0.48974   0.02223  -0.08998  -0.69365
  36   35410.5    282.4   0.005664235   0.05266  -0.05789  -0.22109   0.02074
  37   35671.6    280.3   0.053478295   0.49355   0.25637   0.17835   0.62930
  38   35854.8    278.9   0.186326045   1.71081  -0.37762  -0.39161   1.18948
  39   36001.2    277.8   0.135817275   1.24198  -0.56908  -0.56458   0.77419
  40   36185.2    276.4   0.146183429   1.32997  -0.81330  -0.80523  -0.14185
  41   37163.6    269.1   0.115371691   1.02201   0.43642   0.25332  -0.87600
  42   37182.0    268.9   0.018829171   0.16671  -0.25964   0.10910  -0.29564
  43   37424.1    267.2   0.013350283   0.11744   0.05005  -0.29615  -0.16502
  44   37651.5    265.6   0.005349301   0.04677  -0.02947  -0.19666  -0.08502
  45   37701.2    265.2   0.178755286   1.56091  -0.42704  -0.98340  -0.64146
  46   37723.3    265.1   0.052203810   0.45558   0.45579   0.44412   0.22494
  47   37912.9    263.8   0.015907136   0.13813  -0.19852  -0.27535   0.15133
  48   38089.2    262.5   0.022995645   0.19876   0.06548  -0.43655   0.06241
  49   38343.5    260.8   0.013639027   0.11710   0.16744  -0.03958  -0.29580
  50   38532.0    259.5   0.028365102   0.24235   0.07139   0.48478   0.04737
  51   38685.6    258.5   0.015081447   0.12834   0.03217   0.28566  -0.21379
  52   38965.9    256.6   0.098585361   0.83292  -0.02460   0.78602  -0.46313
  53   39060.0    256.0   0.117429149   0.98974   0.18485   0.97307  -0.09331
  54   39377.0    254.0   0.005215171   0.04360   0.19491  -0.07077   0.02460
  55   39711.2    251.8   0.006411595   0.05315  -0.22588   0.03913  -0.02450
  56   39776.4    251.4   0.035990841   0.29788   0.15190   0.20321   0.48323
  57   39986.1    250.1   0.163197917   1.34363   0.45427   0.46111   0.96159
  58   40176.2    248.9   0.033840926   0.27730  -0.17851  -0.46413  -0.17325

FINAL SINGLE POINT ENERGY     -5057.368295817776

DIPOLE MOMENT
-------------
                                X             Y             Z
Electronic contribution:     -1.77328       1.29285       0.47696
Nuclear contribution   :     -0.22482      -1.67529      -1.36487
                        -----------------------------------------
Total Dipole Moment    :     -1.99810      -0.38244      -0.88791
                        -----------------------------------------
Magnitude (a.u.)       :      2.21970
Magnitude (Debye)      :      5.64202

Rotational constants in cm-1:     0.001504     0.000137     0.000127
Rotational constants in MHz :    45.092075     4.099118     3.796227

                             ****ORCA TERMINATED NORMALLY****
TOTAL RUN TIME: 0 days 0 hours 11 minutes 13 seconds 573 msec
