                         Program Version 4.2.0 -  RELEASE  -
|  1> # ORCA input file
|  2> # SCF done       -178.716091815692          0.000599797488
|  3> ! CAM-B3LYP def2-SVP def2/J RIJCOSX Grid4 TightSCF
|  4> %maxcore 5000
|  5> %tddft
|  6>     Mode sTDDFT
|  7>     Ethresh 5.0
|  8>     maxcore 5000
|  9> end
| 10>
| 11> %pal
| 12>   nprocs 6
| 13>   end
| 14> * xyz 0 1
| 15>    C       -4.53909        -1.65010        -2.14186
| 16>    O       -4.77434        -1.81553        -0.95730
| 17>    C       -5.27366        -0.76515        -3.06979
| 18>    C       -4.76537        -0.92681        -4.37104
| 19>    C       -5.32391        -0.21615        -5.41939
| 20>    C       -6.37994         0.64795        -5.14947
| 21>    C       -6.87456         0.80428        -3.85454
| 22>    C       -6.32082         0.08956        -2.79969
| 23>   Br       -8.30683         1.99039        -3.51468
| 24>   Br       -7.14676         1.61715        -6.58148
| 25>    C       -3.66613        -1.89048        -4.32812
| 26>    C       -2.85645        -2.22349        -5.38206
| 27>    C       -3.01734        -1.71922        -6.68989
| 28>    N       -3.10626        -1.34472        -7.77112
| 29>    C       -1.73776        -3.08034        -5.30287
| 30>    N       -0.80173        -3.74500        -5.31552
| 31>    C       -3.54442        -2.34835        -2.96034
| 32>    C       -2.76275        -3.39465        -2.52728
| 33>    C       -2.48161        -3.79490        -1.21715
| 34>    C       -2.39649        -3.08860        -0.01362
| 35>    C       -2.00915        -3.90442         1.06955
| 36>    O       -1.74446        -3.49636         2.32433
| 37>    C       -2.14314        -2.18871         2.67563
| 38>    C       -1.64538        -1.15849         1.67663
| 39>    S       -2.56922        -1.36264         0.11108
| 40>    C       -1.82284        -5.24412         0.71284
| 41>    S       -1.97881        -5.46594        -0.99692
| 42>    C       -1.53634        -6.35982         1.54558
| 43>    C       -1.04806        -7.54970         0.95093
| 44>    C       -0.67266        -8.69541         1.71672
| 45>    N       -0.23100        -9.78946         1.08159
| 46>    C       -0.15900        -9.80476        -0.22141
| 47>    C       -0.51650        -8.66967        -0.97387
| 48>    N       -0.94129        -7.58584        -0.38630
| 49>    C       -0.77482        -8.74175         3.13192
| 50>    C       -1.38601        -7.60750         3.70965
| 51>    C       -1.76527        -6.43936         2.93605
| 52>    N       -2.40529        -5.54643         3.69023
| 53>    S       -2.51370        -6.08603         5.19027
| 54>    N       -1.76295        -7.48957         4.97953
| 55>    C       -0.37870        -9.91533         3.82199
| 56>    C       -0.28707       -10.19080         5.19132
| 57>    C        0.06656       -11.53164         5.45748
| 58>    O        0.20066       -12.13451         6.65088
| 59>    C       -0.15724       -11.39902         7.80249
| 60>    C        0.42091        -9.99864         7.76519
| 61>    S       -0.44956        -9.01984         6.48152
| 62>    C        0.26222       -12.28785         4.30110
| 63>    S        0.06937       -11.30208         2.87042
| 64>    C        0.68259       -13.62906         4.29045
| 65>    C        0.74503       -14.48424         3.22581
| 66>    C        1.66821       -15.64276         3.25539
| 67>    O        2.22479       -16.12061         4.21605
| 68>    C        1.81410       -16.04452         1.83430
| 69>    C        0.95417       -15.26881         1.03439
| 70>    C        0.16574       -14.39977         1.90506
| 71>    C       -1.04480       -13.84236         1.58458
| 72>    C       -1.93800       -13.34377         2.55740
| 73>    N       -2.72175       -13.00568         3.32460
| 74>    C       -1.55159       -13.76715         0.27394
| 75>    N       -1.96953       -13.63975        -0.78784
| 76>    C        0.94011       -15.44504        -0.33795
| 77>    C        1.78862       -16.39621        -0.89340
| 78>    C        2.62895       -17.17175        -0.09299
| 79>    C        2.64513       -16.99836         1.28570
| 80>   Br        3.76128       -18.46846        -0.87438
| 81>   Br        1.78762       -16.62666        -2.77019
| 82>    H       -4.97174        -0.31523        -6.43338
| 83>    H       -6.69836         0.19960        -1.79510
| 84>    H       -2.33975        -4.04663        -3.28213
| 85>    H       -1.70680        -2.02142         3.66368
| 86>    H       -3.23683        -2.13660         2.75099
| 87>    H       -0.58035        -1.28359         1.48178
| 88>    H       -1.84513        -0.14645         2.01942
| 89>    H        0.18140       -10.71915        -0.68440
| 90>    H       -0.45610        -8.65224        -2.05190
| 91>    H        0.24538       -11.97471         8.64013
| 92>    H       -1.25039       -11.35149         7.89095
| 93>    H        1.48699       -10.02337         7.53986
| 94>    H        0.25104        -9.47515         8.70233
| 95>    H        1.09254       -14.00204         5.22358
| 96>    H        0.30144       -14.86233        -0.98240
| 97>    H        3.29185       -17.59332         1.91175
| 98> *
| 99>
|100>                          ****END OF INPUT****

CARTESIAN COORDINATES (ANGSTROEM)
---------------------------------
  C     -4.539090   -1.650100   -2.141860
  O     -4.774340   -1.815530   -0.957300
  C     -5.273660   -0.765150   -3.069790
  C     -4.765370   -0.926810   -4.371040
  C     -5.323910   -0.216150   -5.419390
  C     -6.379940    0.647950   -5.149470
  C     -6.874560    0.804280   -3.854540
  C     -6.320820    0.089560   -2.799690
  Br    -8.306830    1.990390   -3.514680
  Br    -7.146760    1.617150   -6.581480
  C     -3.666130   -1.890480   -4.328120
  C     -2.856450   -2.223490   -5.382060
  C     -3.017340   -1.719220   -6.689890
  N     -3.106260   -1.344720   -7.771120
  C     -1.737760   -3.080340   -5.302870
  N     -0.801730   -3.745000   -5.315520
  C     -3.544420   -2.348350   -2.960340
  C     -2.762750   -3.394650   -2.527280
  C     -2.481610   -3.794900   -1.217150
  C     -2.396490   -3.088600   -0.013620
  C     -2.009150   -3.904420    1.069550
  O     -1.744460   -3.496360    2.324330
  C     -2.143140   -2.188710    2.675630
  C     -1.645380   -1.158490    1.676630
  S     -2.569220   -1.362640    0.111080
  C     -1.822840   -5.244120    0.712840
  S     -1.978810   -5.465940   -0.996920
  C     -1.536340   -6.359820    1.545580
  C     -1.048060   -7.549700    0.950930
  C     -0.672660   -8.695410    1.716720
  N     -0.231000   -9.789460    1.081590
  C     -0.159000   -9.804760   -0.221410
  C     -0.516500   -8.669670   -0.973870
  N     -0.941290   -7.585840   -0.386300
  C     -0.774820   -8.741750    3.131920
  C     -1.386010   -7.607500    3.709650
  C     -1.765270   -6.439360    2.936050
  N     -2.405290   -5.546430    3.690230
  S     -2.513700   -6.086030    5.190270
  N     -1.762950   -7.489570    4.979530
  C     -0.378700   -9.915330    3.821990
  C     -0.287070  -10.190800    5.191320
  C      0.066560  -11.531640    5.457480
  O      0.200660  -12.134510    6.650880
  C     -0.157240  -11.399020    7.802490
  C      0.420910   -9.998640    7.765190
  S     -0.449560   -9.019840    6.481520
  C      0.262220  -12.287850    4.301100
  S      0.069370  -11.302080    2.870420
  C      0.682590  -13.629060    4.290450
  C      0.745030  -14.484240    3.225810
  C      1.668210  -15.642760    3.255390
  O      2.224790  -16.120610    4.216050
  C      1.814100  -16.044520    1.834300
  C      0.954170  -15.268810    1.034390
  C      0.165740  -14.399770    1.905060
  C     -1.044800  -13.842360    1.584580
  C     -1.938000  -13.343770    2.557400
  N     -2.721750  -13.005680    3.324600
  C     -1.551590  -13.767150    0.273940
  N     -1.969530  -13.639750   -0.787840
  C      0.940110  -15.445040   -0.337950
  C      1.788620  -16.396210   -0.893400
  C      2.628950  -17.171750   -0.092990
  C      2.645130  -16.998360    1.285700
  Br     3.761280  -18.468460   -0.874380
  Br     1.787620  -16.626660   -2.770190
  H     -4.971740   -0.315230   -6.433380
  H     -6.698360    0.199600   -1.795100
  H     -2.339750   -4.046630   -3.282130
  H     -1.706800   -2.021420    3.663680
  H     -3.236830   -2.136600    2.750990
  H     -0.580350   -1.283590    1.481780
  H     -1.845130   -0.146450    2.019420
  H      0.181400  -10.719150   -0.684400
  H     -0.456100   -8.652240   -2.051900
  H      0.245380  -11.974710    8.640130
  H     -1.250390  -11.351490    7.890950
  H      1.486990  -10.023370    7.539860
  H      0.251040   -9.475150    8.702330
  H      1.092540  -14.002040    5.223580
  H      0.301440  -14.862330   -0.982400
  H      3.291850  -17.593320    1.911750

 Total Charge           Charge          ....    0
 Multiplicity           Mult            ....    1
 Number of Electrons    NEL             ....  600
 Basis Dimension        Dim             .... 1110

ORBITAL ENERGIES
----------------

  NO   OCC          E(Eh)            E(eV)
   0   2.0000    -482.873843    -13139.6653
   1   2.0000    -482.872782    -13139.6364
   2   2.0000    -482.872561    -13139.6304
   3   2.0000    -482.871341    -13139.5972
   4   2.0000     -89.045904     -2423.0622
   5   2.0000     -88.962782     -2420.8004
   6   2.0000     -88.960160     -2420.7290
   7   2.0000     -88.946332     -2420.3528
   8   2.0000     -88.941308     -2420.2160
   9   2.0000     -62.551429     -1702.1109
  10   2.0000     -62.550370     -1702.0821
  11   2.0000     -62.550151     -1702.0761
  12   2.0000     -62.548950     -1702.0435
  13   2.0000     -56.385367     -1534.3238
  14   2.0000     -56.384313     -1534.2952
  15   2.0000     -56.384104     -1534.2895
  16   2.0000     -56.382908     -1534.2569
  17   2.0000     -56.382733     -1534.2522
  18   2.0000     -56.382644     -1534.2497
  19   2.0000     -56.381669     -1534.2232
  20   2.0000     -56.381584     -1534.2209
  21   2.0000     -56.381449     -1534.2172
  22   2.0000     -56.381360     -1534.2148
  23   2.0000     -56.380244     -1534.1844
  24   2.0000     -56.380151     -1534.1819
  25   2.0000     -19.271704      -524.4097
  26   2.0000     -19.263514      -524.1869
  27   2.0000     -19.217449      -522.9334
  28   2.0000     -19.211894      -522.7822
  29   2.0000     -14.453340      -393.2954
  30   2.0000     -14.452482      -393.2720
  31   2.0000     -14.452202      -393.2644
  32   2.0000     -14.450490      -393.2178
  33   2.0000     -14.416321      -392.2880
  34   2.0000     -14.416025      -392.2800
  35   2.0000     -14.414811      -392.2470
  36   2.0000     -14.407390      -392.0450
  37   2.0000     -10.364083      -282.0210
  38   2.0000     -10.363581      -282.0074
  39   2.0000     -10.360247      -281.9166
  40   2.0000     -10.357696      -281.8472
  41   2.0000     -10.349375      -281.6208
  42   2.0000     -10.349300      -281.6188
  43   2.0000     -10.348426      -281.5950
  44   2.0000     -10.348248      -281.5901
  45   2.0000     -10.347896      -281.5806
  46   2.0000     -10.346845      -281.5520
  47   2.0000     -10.345720      -281.5213
  48   2.0000     -10.345263      -281.5089
  49   2.0000     -10.345194      -281.5070
  50   2.0000     -10.344357      -281.4843
  51   2.0000     -10.343985      -281.4742
  52   2.0000     -10.343897      -281.4718
  53   2.0000     -10.343439      -281.4593
  54   2.0000     -10.341549      -281.4078
  55   2.0000     -10.339896      -281.3629
  56   2.0000     -10.338380      -281.3216
  57   2.0000     -10.330696      -281.1125
  58   2.0000     -10.323047      -280.9044
  59   2.0000     -10.322790      -280.8974
  60   2.0000     -10.322402      -280.8868
  61   2.0000     -10.322097      -280.8785
  62   2.0000     -10.321580      -280.8645
  63   2.0000     -10.319259      -280.8013
  64   2.0000     -10.318568      -280.7825
  65   2.0000     -10.318127      -280.7705
  66   2.0000     -10.317357      -280.7495
  67   2.0000     -10.314034      -280.6591
  68   2.0000     -10.312511      -280.6177
  69   2.0000     -10.312393      -280.6145
  70   2.0000     -10.311913      -280.6014
  71   2.0000     -10.310608      -280.5659
  72   2.0000     -10.310018      -280.5499
  73   2.0000     -10.306794      -280.4621
  74   2.0000     -10.306697      -280.4595
  75   2.0000     -10.306482      -280.4536
  76   2.0000     -10.306432      -280.4523
  77   2.0000     -10.306246      -280.4472
  78   2.0000     -10.298296      -280.2309
  79   2.0000     -10.297680      -280.2141
  80   2.0000     -10.297009      -280.1959
  81   2.0000     -10.296517      -280.1825
  82   2.0000     -10.289159      -279.9822
  83   2.0000      -8.780723      -238.9356
  84   2.0000      -8.779664      -238.9068
  85   2.0000      -8.779440      -238.9007
  86   2.0000      -8.778262      -238.8687
  87   2.0000      -8.137232      -221.4253
  88   2.0000      -8.056080      -219.2171
  89   2.0000      -8.052544      -219.1209
  90   2.0000      -8.040837      -218.8023
  91   2.0000      -8.035388      -218.6540
  92   2.0000      -6.616800      -180.0523
  93   2.0000      -6.615757      -180.0239
  94   2.0000      -6.615559      -180.0185
  95   2.0000      -6.614411      -179.9873
  96   2.0000      -6.602874      -179.6733
  97   2.0000      -6.602099      -179.6522
  98   2.0000      -6.601793      -179.6439
  99   2.0000      -6.601550      -179.6373
 100   2.0000      -6.601045      -179.6236
 101   2.0000      -6.600813      -179.6173
 102   2.0000      -6.600361      -179.6050
 103   2.0000      -6.599604      -179.5844
 104   2.0000      -6.108278      -166.2147
 105   2.0000      -6.100515      -166.0035
 106   2.0000      -6.100074      -165.9915
 107   2.0000      -6.025927      -163.9738
 108   2.0000      -6.022463      -163.8796
 109   2.0000      -6.021364      -163.8497
 110   2.0000      -6.017817      -163.7531
 111   2.0000      -6.017525      -163.7452
 112   2.0000      -6.013915      -163.6470
 113   2.0000      -6.011080      -163.5698
 114   2.0000      -6.006928      -163.4568
 115   2.0000      -6.005826      -163.4268
 116   2.0000      -6.001803      -163.3174
 117   2.0000      -6.000835      -163.2910
 118   2.0000      -5.994805      -163.1269
 119   2.0000      -2.732712       -74.3609
 120   2.0000      -2.731664       -74.3324
 121   2.0000      -2.731455       -74.3267
 122   2.0000      -2.730297       -74.2952
 123   2.0000      -2.728957       -74.2587
 124   2.0000      -2.728389       -74.2432
 125   2.0000      -2.727903       -74.2300
 126   2.0000      -2.727694       -74.2243
 127   2.0000      -2.727339       -74.2147
 128   2.0000      -2.727127       -74.2089
 129   2.0000      -2.726502       -74.1919
 130   2.0000      -2.725988       -74.1779
 131   2.0000      -2.717300       -73.9415
 132   2.0000      -2.717274       -73.9408
 133   2.0000      -2.716228       -73.9123
 134   2.0000      -2.716210       -73.9118
 135   2.0000      -2.715979       -73.9055
 136   2.0000      -2.715961       -73.9051
 137   2.0000      -2.714773       -73.8727
 138   2.0000      -2.714760       -73.8724
 139   2.0000      -1.182243       -32.1705
 140   2.0000      -1.177373       -32.0380
 141   2.0000      -1.143697       -31.1216
 142   2.0000      -1.131388       -30.7866
 143   2.0000      -1.127474       -30.6801
 144   2.0000      -1.112219       -30.2650
 145   2.0000      -1.040190       -28.3050
 146   2.0000      -1.021157       -27.7871
 147   2.0000      -1.019899       -27.7529
 148   2.0000      -1.005342       -27.3567
 149   2.0000      -1.004756       -27.3408
 150   2.0000      -1.003244       -27.2997
 151   2.0000      -1.001474       -27.2515
 152   2.0000      -0.993939       -27.0465
 153   2.0000      -0.992468       -27.0064
 154   2.0000      -0.988200       -26.8903
 155   2.0000      -0.974213       -26.5097
 156   2.0000      -0.971850       -26.4454
 157   2.0000      -0.968591       -26.3567
 158   2.0000      -0.931133       -25.3374
 159   2.0000      -0.928583       -25.2680
 160   2.0000      -0.917018       -24.9533
 161   2.0000      -0.914901       -24.8957
 162   2.0000      -0.910279       -24.7700
 163   2.0000      -0.908417       -24.7193
 164   2.0000      -0.905217       -24.6322
 165   2.0000      -0.898653       -24.4536
 166   2.0000      -0.891140       -24.2492
 167   2.0000      -0.889831       -24.2135
 168   2.0000      -0.870693       -23.6928
 169   2.0000      -0.867120       -23.5955
 170   2.0000      -0.865070       -23.5397
 171   2.0000      -0.851666       -23.1750
 172   2.0000      -0.848600       -23.0916
 173   2.0000      -0.848150       -23.0793
 174   2.0000      -0.827111       -22.5068
 175   2.0000      -0.808670       -22.0050
 176   2.0000      -0.807142       -21.9635
 177   2.0000      -0.783470       -21.3193
 178   2.0000      -0.778837       -21.1932
 179   2.0000      -0.774612       -21.0783
 180   2.0000      -0.771570       -20.9955
 181   2.0000      -0.764100       -20.7922
 182   2.0000      -0.760427       -20.6923
 183   2.0000      -0.756379       -20.5821
 184   2.0000      -0.752120       -20.4662
 185   2.0000      -0.730243       -19.8709
 186   2.0000      -0.723189       -19.6790
 187   2.0000      -0.720088       -19.5946
 188   2.0000      -0.711033       -19.3482
 189   2.0000      -0.695697       -18.9309
 190   2.0000      -0.692300       -18.8384
 191   2.0000      -0.685682       -18.6583
 192   2.0000      -0.681255       -18.5379
 193   2.0000      -0.674276       -18.3480
 194   2.0000      -0.669608       -18.2210
 195   2.0000      -0.667642       -18.1675
 196   2.0000      -0.660195       -17.9648
 197   2.0000      -0.647005       -17.6059
 198   2.0000      -0.642198       -17.4751
 199   2.0000      -0.633086       -17.2272
 200   2.0000      -0.626864       -17.0578
 201   2.0000      -0.621743       -16.9185
 202   2.0000      -0.618468       -16.8294
 203   2.0000      -0.614722       -16.7274
 204   2.0000      -0.614057       -16.7093
 205   2.0000      -0.602409       -16.3924
 206   2.0000      -0.594133       -16.1672
 207   2.0000      -0.588581       -16.0161
 208   2.0000      -0.587218       -15.9790
 209   2.0000      -0.584225       -15.8976
 210   2.0000      -0.579188       -15.7605
 211   2.0000      -0.576336       -15.6829
 212   2.0000      -0.574480       -15.6324
 213   2.0000      -0.571316       -15.5463
 214   2.0000      -0.567485       -15.4421
 215   2.0000      -0.555781       -15.1236
 216   2.0000      -0.553164       -15.0524
 217   2.0000      -0.549460       -14.9516
 218   2.0000      -0.547198       -14.8900
 219   2.0000      -0.546423       -14.8689
 220   2.0000      -0.542028       -14.7493
 221   2.0000      -0.541621       -14.7383
 222   2.0000      -0.537826       -14.6350
 223   2.0000      -0.536191       -14.5905
 224   2.0000      -0.533987       -14.5305
 225   2.0000      -0.531193       -14.4545
 226   2.0000      -0.529378       -14.4051
 227   2.0000      -0.521590       -14.1932
 228   2.0000      -0.518736       -14.1155
 229   2.0000      -0.515314       -14.0224
 230   2.0000      -0.512996       -13.9593
 231   2.0000      -0.508632       -13.8406
 232   2.0000      -0.506422       -13.7804
 233   2.0000      -0.505098       -13.7444
 234   2.0000      -0.501425       -13.6445
 235   2.0000      -0.500217       -13.6116
 236   2.0000      -0.497004       -13.5242
 237   2.0000      -0.495876       -13.4935
 238   2.0000      -0.493769       -13.4361
 239   2.0000      -0.490416       -13.3449
 240   2.0000      -0.487451       -13.2642
 241   2.0000      -0.484926       -13.1955
 242   2.0000      -0.481255       -13.0956
 243   2.0000      -0.476958       -12.9787
 244   2.0000      -0.470866       -12.8129
 245   2.0000      -0.466285       -12.6883
 246   2.0000      -0.461421       -12.5559
 247   2.0000      -0.458874       -12.4866
 248   2.0000      -0.458773       -12.4839
 249   2.0000      -0.457953       -12.4615
 250   2.0000      -0.456406       -12.4194
 251   2.0000      -0.454256       -12.3609
 252   2.0000      -0.450199       -12.2505
 253   2.0000      -0.448546       -12.2056
 254   2.0000      -0.446633       -12.1535
 255   2.0000      -0.444630       -12.0990
 256   2.0000      -0.443343       -12.0640
 257   2.0000      -0.440886       -11.9971
 258   2.0000      -0.438862       -11.9420
 259   2.0000      -0.433416       -11.7938
 260   2.0000      -0.430238       -11.7074
 261   2.0000      -0.429028       -11.6744
 262   2.0000      -0.427891       -11.6435
 263   2.0000      -0.424608       -11.5542
 264   2.0000      -0.423733       -11.5304
 265   2.0000      -0.422448       -11.4954
 266   2.0000      -0.422089       -11.4856
 267   2.0000      -0.421367       -11.4660
 268   2.0000      -0.413642       -11.2558
 269   2.0000      -0.409970       -11.1559
 270   2.0000      -0.403731       -10.9861
 271   2.0000      -0.398928       -10.8554
 272   2.0000      -0.396347       -10.7851
 273   2.0000      -0.395231       -10.7548
 274   2.0000      -0.390959       -10.6385
 275   2.0000      -0.388166       -10.5625
 276   2.0000      -0.386691       -10.5224
 277   2.0000      -0.386557       -10.5187
 278   2.0000      -0.381201       -10.3730
 279   2.0000      -0.372303       -10.1309
 280   2.0000      -0.366178        -9.9642
 281   2.0000      -0.361986        -9.8501
 282   2.0000      -0.354510        -9.6467
 283   2.0000      -0.351968        -9.5775
 284   2.0000      -0.347300        -9.4505
 285   2.0000      -0.345381        -9.3983
 286   2.0000      -0.344384        -9.3712
 287   2.0000      -0.343363        -9.3434
 288   2.0000      -0.334727        -9.1084
 289   2.0000      -0.333769        -9.0823
 290   2.0000      -0.331612        -9.0236
 291   2.0000      -0.330254        -8.9867
 292   2.0000      -0.328351        -8.9349
 293   2.0000      -0.317931        -8.6513
 294   2.0000      -0.307844        -8.3769
 295   2.0000      -0.303944        -8.2707
 296   2.0000      -0.284430        -7.7397
 297   2.0000      -0.280613        -7.6359
 298   2.0000      -0.278530        -7.5792
 299   2.0000      -0.241935        -6.5834
 300   0.0000      -0.128994        -3.5101
 301   0.0000      -0.085148        -2.3170
 302   0.0000      -0.079475        -2.1626
 303   0.0000      -0.061159        -1.6642
 304   0.0000      -0.056812        -1.5459

MULLIKEN ATOMIC CHARGES
-----------------------
   0 C :    0.128357
   1 O :   -0.158449
   2 C :   -0.009040
   3 C :    0.031093
   4 C :   -0.009821
   5 C :   -0.026314
   6 C :   -0.015405
   7 C :   -0.024160
   8 Br:    0.007980
   9 Br:    0.016369
  10 C :    0.298368
  11 C :   -0.338350
  12 C :   -0.188767
  13 N :    0.156270
  14 C :   -0.199760
  15 N :    0.160080
  16 C :   -0.083968
  17 C :    0.008981
  18 C :   -0.120102
  19 C :   -0.022501
  20 C :    0.177400
  21 O :   -0.276175
  22 C :    0.231398
  23 C :   -0.107781
  24 S :    0.074418
  25 C :   -0.221988
  26 S :    0.182286
  27 C :    0.163825
  28 C :   -0.033957
  29 C :   -0.026775
  30 N :   -0.094809
  31 C :    0.063744
  32 C :    0.049655
  33 N :   -0.075054
  34 C :    0.161524
  35 C :    0.013012
  36 C :   -0.021867
  37 N :   -0.260093
  38 S :    0.543175
  39 N :   -0.320525
  40 C :   -0.190090
  41 C :   -0.034321
  42 C :    0.213692
  43 O :   -0.281704
  44 C :    0.232550
  45 C :   -0.109409
  46 S :    0.058192
  47 C :   -0.145413
  48 S :    0.156619
  49 C :    0.055435
  50 C :   -0.133766
  51 C :    0.139575
  52 O :   -0.138422
  53 C :   -0.004312
  54 C :    0.027476
  55 C :    0.248329
  56 C :   -0.320963
  57 C :   -0.202492
  58 N :    0.165770
  59 C :   -0.173813
  60 N :    0.141955
  61 C :   -0.016304
  62 C :   -0.020594
  63 C :   -0.017511
  64 C :   -0.023361
  65 Br:    0.007759
  66 Br:    0.013228
  67 H :    0.006033
  68 H :    0.001421
  69 H :    0.021988
  70 H :    0.027652
  71 H :    0.039490
  72 H :    0.070636
  73 H :    0.060947
  74 H :    0.027632
  75 H :    0.032262
  76 H :    0.034051
  77 H :    0.040025
  78 H :    0.067416
  79 H :    0.054737
  80 H :    0.025842
  81 H :    0.003253
  82 H :    0.006237
Sum of atomic charges:   -0.0000000

LOEWDIN ATOMIC CHARGES
----------------------
   0 C :    0.060972
   1 O :   -0.155430
   2 C :   -0.036698
   3 C :   -0.013486
   4 C :   -0.007165
   5 C :   -0.122207
   6 C :   -0.123271
   7 C :    0.001575
   8 Br:    0.132897
   9 Br:    0.136543
  10 C :    0.075315
  11 C :   -0.135316
  12 C :   -0.019865
  13 N :   -0.048153
  14 C :   -0.023181
  15 N :   -0.049083
  16 C :   -0.106193
  17 C :    0.039969
  18 C :   -0.197199
  19 C :   -0.190183
  20 C :    0.012914
  21 O :   -0.071757
  22 C :    0.072856
  23 C :   -0.149088
  24 S :    0.379287
  25 C :   -0.176522
  26 S :    0.487345
  27 C :   -0.035751
  28 C :   -0.010064
  29 C :   -0.009884
  30 N :   -0.045913
  31 C :    0.033431
  32 C :    0.029814
  33 N :   -0.041765
  34 C :   -0.046214
  35 C :   -0.036368
  36 C :   -0.041895
  37 N :   -0.269059
  38 S :    0.671732
  39 N :   -0.292795
  40 C :   -0.151599
  41 C :   -0.209666
  42 C :    0.035670
  43 O :   -0.076320
  44 C :    0.072943
  45 C :   -0.160161
  46 S :    0.346340
  47 C :   -0.223042
  48 S :    0.510861
  49 C :    0.066480
  50 C :   -0.109627
  51 C :    0.080916
  52 O :   -0.141914
  53 C :   -0.042041
  54 C :   -0.008008
  55 C :    0.059842
  56 C :   -0.147206
  57 C :   -0.038129
  58 N :   -0.051718
  59 C :   -0.020112
  60 N :   -0.060434
  61 C :   -0.014397
  62 C :   -0.120317
  63 C :   -0.125802
  64 C :    0.005081
  65 Br:    0.132503
  66 Br:    0.135524
  67 H :    0.044141
  68 H :    0.044255
  69 H :    0.043291
  70 H :    0.029227
  71 H :    0.023239
  72 H :    0.030114
  73 H :    0.035927
  74 H :    0.034009
  75 H :    0.035738
  76 H :    0.030771
  77 H :    0.022948
  78 H :    0.028237
  79 H :    0.034152
  80 H :    0.050358
  81 H :    0.042017
  82 H :    0.045761

  Mayer bond orders larger than 0.100000
B(  0-C ,  1-O ) :   2.1681 B(  0-C ,  2-C ) :   0.9351 B(  0-C , 16-C ) :   0.9915
B(  2-C ,  3-C ) :   1.3282 B(  2-C ,  7-C ) :   1.3782 B(  3-C ,  4-C ) :   1.3692
B(  3-C , 10-C ) :   0.9914 B(  4-C ,  5-C ) :   1.3648 B(  4-C , 67-H ) :   0.9805
B(  5-C ,  6-C ) :   1.4306 B(  5-C ,  9-Br) :   1.0530 B(  6-C ,  7-C ) :   1.3444
B(  6-C ,  8-Br) :   1.0296 B(  7-C , 68-H ) :   1.0086 B( 10-C , 11-C ) :   1.6422
B( 10-C , 16-C ) :   1.0832 B( 11-C , 12-C ) :   1.1395 B( 11-C , 14-C ) :   1.1418
B( 12-C , 13-N ) :   2.9728 B( 14-C , 15-N ) :   2.9906 B( 16-C , 17-C ) :   1.5182
B( 17-C , 18-C ) :   1.2682 B( 17-C , 69-H ) :   0.9239 B( 18-C , 19-C ) :   1.4243
B( 18-C , 25-C ) :   0.1011 B( 18-C , 26-S ) :   1.0336 B( 19-C , 20-C ) :   1.2552
B( 19-C , 24-S ) :   1.0535 B( 20-C , 21-O ) :   1.2043 B( 20-C , 25-C ) :   1.4331
B( 21-O , 22-C ) :   0.9497 B( 22-C , 23-C ) :   1.0412 B( 22-C , 70-H ) :   0.9515
B( 22-C , 71-H ) :   0.9516 B( 23-C , 24-S ) :   0.9930 B( 23-C , 72-H ) :   0.9415
B( 23-C , 73-H ) :   0.9495 B( 25-C , 26-S ) :   1.1351 B( 25-C , 27-C ) :   1.1517
B( 27-C , 28-C ) :   1.2674 B( 27-C , 34-C ) :   0.1224 B( 27-C , 36-C ) :   1.2111
B( 28-C , 29-C ) :   1.1527 B( 28-C , 33-N ) :   1.3984 B( 29-C , 30-N ) :   1.3790
B( 29-C , 34-C ) :   1.2594 B( 30-N , 31-C ) :   1.6315 B( 31-C , 32-C ) :   1.2122
B( 31-C , 74-H ) :   0.9717 B( 32-C , 33-N ) :   1.6417 B( 32-C , 75-H ) :   0.9745
B( 34-C , 35-C ) :   1.1935 B( 34-C , 40-C ) :   1.2118 B( 35-C , 36-C ) :   1.0927
B( 35-C , 39-N ) :   1.4702 B( 36-C , 37-N ) :   1.5250 B( 37-N , 38-S ) :   1.2973
B( 37-N , 39-N ) :   0.1524 B( 38-S , 39-N ) :   1.2633 B( 40-C , 41-C ) :   1.4541
B( 40-C , 48-S ) :   1.1430 B( 41-C , 42-C ) :   1.2538 B( 41-C , 46-S ) :   1.0181
B( 42-C , 43-O ) :   1.2210 B( 42-C , 47-C ) :   1.4209 B( 43-O , 44-C ) :   0.9410
B( 44-C , 45-C ) :   1.0389 B( 44-C , 76-H ) :   0.9512 B( 44-C , 77-H ) :   0.9529
B( 45-C , 46-S ) :   0.9715 B( 45-C , 78-H ) :   0.9418 B( 45-C , 79-H ) :   0.9491
B( 47-C , 48-S ) :   1.0069 B( 47-C , 49-C ) :   1.2026 B( 49-C , 50-C ) :   1.5571
B( 49-C , 80-H ) :   0.9518 B( 50-C , 51-C ) :   0.9569 B( 50-C , 55-C ) :   1.0597
B( 51-C , 52-O ) :   2.2752 B( 51-C , 53-C ) :   0.9149 B( 53-C , 54-C ) :   1.3317
B( 53-C , 64-C ) :   1.3808 B( 54-C , 55-C ) :   1.0112 B( 54-C , 61-C ) :   1.3747
B( 55-C , 56-C ) :   1.6401 B( 56-C , 57-C ) :   1.1440 B( 56-C , 59-C ) :   1.1400
B( 57-C , 58-N ) :   3.0288 B( 59-C , 60-N ) :   2.9719 B( 61-C , 62-C ) :   1.3647
B( 61-C , 81-H ) :   0.9838 B( 62-C , 63-C ) :   1.4285 B( 62-C , 66-Br) :   1.0455
B( 63-C , 64-C ) :   1.3542 B( 63-C , 65-Br) :   1.0285 B( 64-C , 82-H ) :   1.0073

-----------------------------------------------------------------------------
         ABSORPTION SPECTRUM VIA TRANSITION ELECTRIC DIPOLE MOMENTS
-----------------------------------------------------------------------------
State   Energy  Wavelength   fosc         T2         TX        TY        TZ
        (cm-1)    (nm)                  (au**2)     (au)      (au)      (au)
-----------------------------------------------------------------------------
   0    9199.7   1087.0   0.686606548  24.57032  -1.28495   4.23458  -2.23329
   1   16359.3    611.3   0.048209050   0.97015  -0.12677   0.69040   0.69097
   2   16416.8    609.1   0.015490134   0.31063  -0.10710  -0.39565  -0.37765
   3   18417.9    543.0   0.177475050   3.17229   0.49105   0.16367   1.70422
   4   18805.2    531.8   0.116678757   2.04263   0.08432   1.23714   0.71064
   5   20233.0    494.2   0.385889072   6.27883  -0.66323   1.36015  -1.99723
   6   20608.5    485.2   0.011562876   0.18471   0.03927   0.15457  -0.39910
   7   24002.8    416.6   0.058474985   0.80202  -0.30771   0.81344  -0.21366
   8   24175.4    413.6   0.022992482   0.31310   0.02301  -0.07521   0.55400
   9   24858.6    402.3   0.022473478   0.29763  -0.44627  -0.16758  -0.26531
  10   25059.4    399.1   0.117953354   1.54958  -0.81651   0.84312  -0.41477
  11   25690.7    389.2   0.142726395   1.82896  -0.25332   1.19126   0.58794
  12   25848.1    386.9   0.031205036   0.39744   0.27772  -0.46786  -0.31847
  13   26375.1    379.1   0.024591707   0.30695   0.01308  -0.55151  -0.05117
  14   27062.0    369.5   0.088587533   1.07768   0.66079  -0.79742   0.07178
  15   27496.8    363.7   0.002232527   0.02673   0.07682  -0.13116  -0.06021
  16   27759.1    360.2   0.141274298   1.67546   0.37580  -0.79741  -0.94782
  17   28391.1    352.2   0.072701740   0.84302  -0.67445   0.20077  -0.58978
  18   28661.2    348.9   0.027901296   0.32048  -0.20682   0.22941  -0.47443
  19   29196.0    342.5   0.072945249   0.82252   0.15203  -0.48716  -0.74972
  20   29529.0    338.6   0.082773986   0.92283  -0.64643   0.68366   0.19383
  21   29789.7    335.7   0.072664732   0.80303  -0.54332   0.31428  -0.63958
  22   29847.9    335.0   0.178143276   1.96486  -0.29433  -0.05030  -1.36956
  23   31279.0    319.7   0.014890394   0.15672   0.17123  -0.35564  -0.03036
  24   31350.7    319.0   0.029296692   0.30764  -0.36790   0.07108  -0.40895
  25   31418.3    318.3   0.022186094   0.23247   0.12404  -0.37129   0.28148
  26   31644.2    316.0   0.020403935   0.21227   0.10309  -0.38867  -0.22491
  27   31726.4    315.2   0.031308905   0.32488   0.36726  -0.33800  -0.27524
  28   31966.4    312.8   0.036427778   0.37516  -0.26065   0.55384  -0.02186
  29   32153.7    311.0   0.059727949   0.61154   0.41320  -0.49111  -0.44678
  30   32672.0    306.1   0.095408952   0.96137  -0.70319   0.67327   0.11661
  31   32742.2    305.4   0.016255595   0.16344  -0.32922   0.15107   0.17954
  32   32870.8    304.2   0.127004551   1.27199   0.57613  -0.63539   0.73236
  33   33692.1    296.8   0.052092483   0.50901  -0.17936   0.06374   0.68758
  34   33974.1    294.3   0.030708003   0.29756  -0.34419   0.26734  -0.32806
  35   34110.8    293.2   0.246628595   2.38027   1.25321  -0.36509  -0.82246
  36   34390.5    290.8   0.106907966   1.02340   0.74476  -0.48687   0.48134
  37   34776.5    287.6   0.398534017   3.77272   0.98063  -0.92608  -1.39766
  38   35007.7    285.7   0.640915410   6.02716   1.83758  -1.42344  -0.79011
  39   35145.6    284.5   0.008317549   0.07791   0.21682  -0.17165  -0.03792
  40   35370.9    282.7   0.079195485   0.73711   0.43925  -0.73664  -0.03903
  41   35809.1    279.3   0.048079629   0.44202  -0.06316  -0.18269   0.63613
  42   35946.4    278.2   0.027956485   0.25604  -0.33902   0.23597  -0.29226
  43   36221.8    276.1   0.007875789   0.07158  -0.19208   0.17898   0.05150
  44   36334.0    275.2   0.006424432   0.05821  -0.07429   0.19534  -0.12055
  45   36439.0    274.4   0.099226769   0.89647  -0.16168   0.13408  -0.92323
  46   36770.2    272.0   0.076044661   0.68084  -0.30027   0.51843   0.56737
  47   36858.2    271.3   0.128637797   1.14897   0.22047  -0.67017  -0.80700
  48   36950.3    270.6   0.022599799   0.20135   0.32544  -0.30030  -0.07255
  49   37396.2    267.4   0.079057399   0.69597  -0.36321   0.50690   0.55417
  50   37462.5    266.9   0.056018803   0.49228   0.12873  -0.22934  -0.65047
  51   37660.7    265.5   0.060470820   0.52861   0.21187  -0.65460   0.23498
  52   37873.3    264.0   0.011174600   0.09713  -0.13636   0.19948  -0.19685
  53   38413.9    260.3   0.100362655   0.86012   0.31787  -0.44434  -0.74943
  54   38554.8    259.4   0.138352979   1.18137   0.46101  -0.20532   0.96264
  55   38850.1    257.4   0.076781153   0.65064  -0.08137   0.16241   0.78590
  56   38975.7    256.6   0.066187353   0.55906   0.06777   0.01930  -0.74437
  57   39204.3    255.1   0.070060595   0.58832   0.06846  -0.07309  -0.76046
  58   39368.2    254.0   0.012488451   0.10443   0.12352  -0.27598  -0.11407
  59   39459.5    253.4   0.119235415   0.99479  -0.10983  -0.03703   0.99063
  60   40041.3    249.7   0.031670150   0.26039   0.10814  -0.10764   0.48693

FINAL SINGLE POINT ENERGY    -14784.359765609090

DIPOLE MOMENT
-------------
                                X             Y             Z
Electronic contribution:    -37.43302      -8.52625    -151.52417
Nuclear contribution   :     38.36206      10.26924     155.64917
                        -----------------------------------------
Total Dipole Moment    :      0.92903       1.74299       4.12500
                        -----------------------------------------
Magnitude (a.u.)       :      4.57348
Magnitude (Debye)      :     11.62487

Rotational constants in cm-1:     0.001150     0.000232     0.000200
Rotational constants in MHz :    34.464359     6.960657     6.010051

                             ****ORCA TERMINATED NORMALLY****
TOTAL RUN TIME: 0 days 0 hours 9 minutes 22 seconds 188 msec
