                         Program Version 4.2.0 -  RELEASE  -
|  1> # ORCA input file
|  2> # SCF done       -214.177008410127          0.000462921231
|  3> ! CAM-B3LYP def2-SVP def2/J RIJCOSX Grid4 TightSCF
|  4> %maxcore 5000
|  5> %tddft
|  6>     Mode sTDDFT
|  7>     Ethresh 5.0
|  8>     maxcore 5000
|  9> end
| 10>
| 11> %pal
| 12>   nprocs 6
| 13>   end
| 14> * xyz 0 1
| 15>    C        3.71774        -1.69597        -0.27475
| 16>    O        3.00385        -2.16807        -1.13171
| 17>    C        4.61512        -0.53530        -0.45200
| 18>    C        5.27913        -0.25626         0.75351
| 19>    C        6.16950         0.80401         0.81157
| 20>    C        6.38006         1.56090        -0.33546
| 21>    C        5.71608         1.27156        -1.53004
| 22>    C        4.82084         0.21197        -1.59286
| 23>   Br        6.02622         2.31657        -3.07281
| 24>   Br        7.59449         3.00721        -0.25432
| 25>    C        4.85496        -1.22778         1.75995
| 26>    C        5.35291        -1.29498         3.03478
| 27>    C        6.31958        -0.40413         3.55208
| 28>    N        7.09881         0.28504         4.03610
| 29>    C        5.01533        -2.24817         4.02020
| 30>    N        4.81560        -2.98505         4.87819
| 31>    C        3.87193        -2.10404         1.14048
| 32>    C        3.19814        -3.08700         1.81803
| 33>    C        2.27871        -4.06119         1.38991
| 34>    C        1.78157        -4.41821         0.13867
| 35>    C        0.92142        -5.50149         0.20790
| 36>    C        0.74200        -5.99053         1.52714
| 37>    S        1.63804        -5.11042         2.66852
| 38>    C       -0.12944        -7.10006         1.48807
| 39>    C       -0.50307        -7.32158         0.14386
| 40>    C        0.13801        -6.32454        -0.69979
| 41>    C        0.02674        -6.20653        -2.05303
| 42>    C       -0.77537        -7.08637        -2.81288
| 43>    N       -1.42392        -7.79719        -3.43602
| 44>    C        0.69919        -5.21634        -2.80326
| 45>    N        1.23411        -4.43128        -3.44381
| 46>    C       -1.33894        -8.41735        -0.00563
| 47>    C       -1.61026        -9.03629         1.21096
| 48>    S       -0.82679        -8.23645         2.56007
| 49>    C       -2.39324       -10.20510         1.40719
| 50>    C       -2.61638       -10.74070         2.69488
| 51>    C       -3.36044       -11.94567         2.90983
| 52>    N       -3.53004       -12.40012         4.16728
| 53>    C       -3.02380       -11.74524         5.16136
| 54>    C       -2.28487       -10.55042         4.94821
| 55>    N       -2.10010       -10.08699         3.75473
| 56>    F       -1.76383        -9.87726         5.96588
| 57>    F       -3.21422       -12.22358         6.38437
| 58>    C       -3.91793       -12.69382         1.84915
| 59>    C       -3.72355       -12.14905         0.55714
| 60>    C       -2.98076       -10.92773         0.34110
| 61>    N       -2.92885       -10.61422        -0.95473
| 62>    S       -3.71944       -11.71420        -1.80715
| 63>    N       -4.17071       -12.65518        -0.59362
| 64>    C       -4.60461       -13.91536         2.07892
| 65>    C       -5.13525       -14.76163         1.10993
| 66>    C       -5.71234       -15.89172         1.66774
| 67>    C       -5.63372       -15.90704         3.07887
| 68>    S       -4.83781       -14.53016         3.70505
| 69>    C       -6.24158       -17.09561         3.54367
| 70>    C       -6.69277       -17.83804         2.42802
| 71>    C       -6.38780       -17.09677         1.21693
| 72>    C       -6.70386       -17.45318        -0.06112
| 73>    C       -7.39018       -18.65584        -0.33309
| 74>    N       -7.94479       -19.64039        -0.52781
| 75>    C       -6.36756       -16.65133        -1.17233
| 76>    N       -6.08694       -16.00606        -2.07724
| 77>    C       -7.31566       -19.02372         2.78165
| 78>    C       -7.36550       -19.20112         4.16011
| 79>    S       -6.58217       -17.87530         5.01620
| 80>    C       -7.88805       -20.27978         4.89963
| 81>    C       -8.73086       -21.27607         4.50027
| 82>    C       -8.78797       -22.51952         5.31889
| 83>    O       -8.33463       -22.67884         6.42669
| 84>    C       -9.46355       -23.51416         4.45874
| 85>    C       -9.89586       -22.89148         3.27333
| 86>    C       -9.58654       -21.46308         3.34812
| 87>    C      -10.22091       -20.49232         2.61851
| 88>    C      -10.09404       -19.11201         2.87027
| 89>    N      -10.03585       -17.98153         3.06050
| 90>    C      -11.15337       -20.76411         1.59371
| 91>    N      -11.92054       -20.93566         0.75880
| 92>    C      -10.51595       -23.63898         2.28747
| 93>    C      -10.70821       -24.99868         2.50788
| 94>    C      -10.29582       -25.60547         3.69694
| 95>    C       -9.66339       -24.86027         4.68418
| 96>   Br      -10.58412       -27.45149         3.97712
| 97>   Br      -11.54132       -26.02620         1.15916
| 98>    H        6.70089         1.06221         1.71279
| 99>    H        4.29880        -0.02540        -2.50690
|100>    H        3.40182        -3.14756         2.88057
|101>    H        2.05216        -3.89223        -0.75970
|102>    H       -1.74451        -8.78182        -0.93118
|103>    H       -5.08001       -14.53299         0.06158
|104>    H       -7.67497       -19.75656         2.08285
|105>    H       -7.51996       -20.38439         5.91610
|106>    H      -10.83895       -23.20325         1.35559
|107>    H       -9.33575       -25.32075         5.60326
|108> *
|109>
|110>                          ****END OF INPUT****

CARTESIAN COORDINATES (ANGSTROEM)
---------------------------------
  C      3.717740   -1.695970   -0.274750
  O      3.003850   -2.168070   -1.131710
  C      4.615120   -0.535300   -0.452000
  C      5.279130   -0.256260    0.753510
  C      6.169500    0.804010    0.811570
  C      6.380060    1.560900   -0.335460
  C      5.716080    1.271560   -1.530040
  C      4.820840    0.211970   -1.592860
  Br     6.026220    2.316570   -3.072810
  Br     7.594490    3.007210   -0.254320
  C      4.854960   -1.227780    1.759950
  C      5.352910   -1.294980    3.034780
  C      6.319580   -0.404130    3.552080
  N      7.098810    0.285040    4.036100
  C      5.015330   -2.248170    4.020200
  N      4.815600   -2.985050    4.878190
  C      3.871930   -2.104040    1.140480
  C      3.198140   -3.087000    1.818030
  C      2.278710   -4.061190    1.389910
  C      1.781570   -4.418210    0.138670
  C      0.921420   -5.501490    0.207900
  C      0.742000   -5.990530    1.527140
  S      1.638040   -5.110420    2.668520
  C     -0.129440   -7.100060    1.488070
  C     -0.503070   -7.321580    0.143860
  C      0.138010   -6.324540   -0.699790
  C      0.026740   -6.206530   -2.053030
  C     -0.775370   -7.086370   -2.812880
  N     -1.423920   -7.797190   -3.436020
  C      0.699190   -5.216340   -2.803260
  N      1.234110   -4.431280   -3.443810
  C     -1.338940   -8.417350   -0.005630
  C     -1.610260   -9.036290    1.210960
  S     -0.826790   -8.236450    2.560070
  C     -2.393240  -10.205100    1.407190
  C     -2.616380  -10.740700    2.694880
  C     -3.360440  -11.945670    2.909830
  N     -3.530040  -12.400120    4.167280
  C     -3.023800  -11.745240    5.161360
  C     -2.284870  -10.550420    4.948210
  N     -2.100100  -10.086990    3.754730
  F     -1.763830   -9.877260    5.965880
  F     -3.214220  -12.223580    6.384370
  C     -3.917930  -12.693820    1.849150
  C     -3.723550  -12.149050    0.557140
  C     -2.980760  -10.927730    0.341100
  N     -2.928850  -10.614220   -0.954730
  S     -3.719440  -11.714200   -1.807150
  N     -4.170710  -12.655180   -0.593620
  C     -4.604610  -13.915360    2.078920
  C     -5.135250  -14.761630    1.109930
  C     -5.712340  -15.891720    1.667740
  C     -5.633720  -15.907040    3.078870
  S     -4.837810  -14.530160    3.705050
  C     -6.241580  -17.095610    3.543670
  C     -6.692770  -17.838040    2.428020
  C     -6.387800  -17.096770    1.216930
  C     -6.703860  -17.453180   -0.061120
  C     -7.390180  -18.655840   -0.333090
  N     -7.944790  -19.640390   -0.527810
  C     -6.367560  -16.651330   -1.172330
  N     -6.086940  -16.006060   -2.077240
  C     -7.315660  -19.023720    2.781650
  C     -7.365500  -19.201120    4.160110
  S     -6.582170  -17.875300    5.016200
  C     -7.888050  -20.279780    4.899630
  C     -8.730860  -21.276070    4.500270
  C     -8.787970  -22.519520    5.318890
  O     -8.334630  -22.678840    6.426690
  C     -9.463550  -23.514160    4.458740
  C     -9.895860  -22.891480    3.273330
  C     -9.586540  -21.463080    3.348120
  C    -10.220910  -20.492320    2.618510
  C    -10.094040  -19.112010    2.870270
  N    -10.035850  -17.981530    3.060500
  C    -11.153370  -20.764110    1.593710
  N    -11.920540  -20.935660    0.758800
  C    -10.515950  -23.638980    2.287470
  C    -10.708210  -24.998680    2.507880
  C    -10.295820  -25.605470    3.696940
  C     -9.663390  -24.860270    4.684180
  Br   -10.584120  -27.451490    3.977120
  Br   -11.541320  -26.026200    1.159160
  H      6.700890    1.062210    1.712790
  H      4.298800   -0.025400   -2.506900
  H      3.401820   -3.147560    2.880570
  H      2.052160   -3.892230   -0.759700
  H     -1.744510   -8.781820   -0.931180
  H     -5.080010  -14.532990    0.061580
  H     -7.674970  -19.756560    2.082850
  H     -7.519960  -20.384390    5.916100
  H    -10.838950  -23.203250    1.355590
  H     -9.335750  -25.320750    5.603260

 Total Charge           Charge          ....    0
 Multiplicity           Mult            ....    1
 Number of Electrons    NEL             ....  696
 Basis Dimension        Dim             .... 1304

ORBITAL ENERGIES
----------------

  NO   OCC          E(Eh)            E(eV)
   0   2.0000    -482.878925    -13139.8036
   1   2.0000    -482.877830    -13139.7738
   2   2.0000    -482.877388    -13139.7617
   3   2.0000    -482.876561    -13139.7392
   4   2.0000     -89.059155     -2423.4228
   5   2.0000     -89.003478     -2421.9078
   6   2.0000     -89.001853     -2421.8635
   7   2.0000     -88.997142     -2421.7353
   8   2.0000     -88.996849     -2421.7274
   9   2.0000     -62.556537     -1702.2499
  10   2.0000     -62.555452     -1702.2204
  11   2.0000     -62.554993     -1702.2079
  12   2.0000     -62.554163     -1702.1853
  13   2.0000     -56.390485     -1534.4631
  14   2.0000     -56.389403     -1534.4337
  15   2.0000     -56.388959     -1534.4216
  16   2.0000     -56.388124     -1534.3989
  17   2.0000     -56.387830     -1534.3909
  18   2.0000     -56.387742     -1534.3885
  19   2.0000     -56.386750     -1534.3615
  20   2.0000     -56.386647     -1534.3587
  21   2.0000     -56.386283     -1534.3488
  22   2.0000     -56.386188     -1534.3462
  23   2.0000     -56.385456     -1534.3262
  24   2.0000     -56.385357     -1534.3236
  25   2.0000     -24.839995      -675.9306
  26   2.0000     -24.839862      -675.9270
  27   2.0000     -19.229157      -523.2520
  28   2.0000     -19.226728      -523.1859
  29   2.0000     -14.482291      -394.0832
  30   2.0000     -14.481968      -394.0744
  31   2.0000     -14.467306      -393.6754
  32   2.0000     -14.466816      -393.6621
  33   2.0000     -14.438465      -392.8906
  34   2.0000     -14.436674      -392.8419
  35   2.0000     -14.435825      -392.8188
  36   2.0000     -14.432645      -392.7322
  37   2.0000     -14.426846      -392.5744
  38   2.0000     -14.426722      -392.5711
  39   2.0000     -14.421232      -392.4217
  40   2.0000     -14.421002      -392.4154
  41   2.0000     -10.457746      -284.5697
  42   2.0000     -10.457308      -284.5578
  43   2.0000     -10.380132      -282.4577
  44   2.0000     -10.378026      -282.4004
  45   2.0000     -10.372796      -282.2581
  46   2.0000     -10.371985      -282.2361
  47   2.0000     -10.367760      -282.1211
  48   2.0000     -10.367322      -282.1092
  49   2.0000     -10.359958      -281.9088
  50   2.0000     -10.359478      -281.8957
  51   2.0000     -10.359238      -281.8892
  52   2.0000     -10.358522      -281.8697
  53   2.0000     -10.356591      -281.8172
  54   2.0000     -10.355953      -281.7998
  55   2.0000     -10.355323      -281.7827
  56   2.0000     -10.354953      -281.7726
  57   2.0000     -10.354730      -281.7665
  58   2.0000     -10.353177      -281.7243
  59   2.0000     -10.352367      -281.7022
  60   2.0000     -10.352358      -281.7020
  61   2.0000     -10.351631      -281.6822
  62   2.0000     -10.350718      -281.6573
  63   2.0000     -10.339495      -281.3520
  64   2.0000     -10.338746      -281.3316
  65   2.0000     -10.338734      -281.3312
  66   2.0000     -10.338371      -281.3214
  67   2.0000     -10.337139      -281.2879
  68   2.0000     -10.336917      -281.2818
  69   2.0000     -10.336753      -281.2774
  70   2.0000     -10.336397      -281.2677
  71   2.0000     -10.335996      -281.2567
  72   2.0000     -10.335804      -281.2515
  73   2.0000     -10.335491      -281.2430
  74   2.0000     -10.335187      -281.2347
  75   2.0000     -10.334013      -281.2028
  76   2.0000     -10.331672      -281.1391
  77   2.0000     -10.329363      -281.0763
  78   2.0000     -10.327496      -281.0255
  79   2.0000     -10.323981      -280.9298
  80   2.0000     -10.322827      -280.8984
  81   2.0000     -10.321871      -280.8724
  82   2.0000     -10.320953      -280.8474
  83   2.0000     -10.319953      -280.8202
  84   2.0000     -10.315935      -280.7109
  85   2.0000     -10.315188      -280.6905
  86   2.0000     -10.315106      -280.6883
  87   2.0000     -10.314274      -280.6657
  88   2.0000     -10.314095      -280.6608
  89   2.0000     -10.313172      -280.6357
  90   2.0000     -10.313060      -280.6326
  91   2.0000     -10.312824      -280.6262
  92   2.0000     -10.312619      -280.6206
  93   2.0000     -10.310125      -280.5528
  94   2.0000     -10.309640      -280.5396
  95   2.0000     -10.307819      -280.4900
  96   2.0000     -10.307430      -280.4794
  97   2.0000     -10.306627      -280.4576
  98   2.0000     -10.305204      -280.4188
  99   2.0000      -8.785862      -239.0755
 100   2.0000      -8.784791      -239.0463
 101   2.0000      -8.784309      -239.0332
 102   2.0000      -8.783482      -239.0107
 103   2.0000      -8.150148      -221.7768
 104   2.0000      -8.098223      -220.3639
 105   2.0000      -8.096556      -220.3185
 106   2.0000      -8.089975      -220.1394
 107   2.0000      -8.089658      -220.1308
 108   2.0000      -6.621991      -180.1935
 109   2.0000      -6.620933      -180.1647
 110   2.0000      -6.620492      -180.1527
 111   2.0000      -6.619623      -180.1291
 112   2.0000      -6.607968      -179.8120
 113   2.0000      -6.607215      -179.7915
 114   2.0000      -6.606910      -179.7832
 115   2.0000      -6.606403      -179.7694
 116   2.0000      -6.606121      -179.7617
 117   2.0000      -6.605617      -179.7480
 118   2.0000      -6.605590      -179.7472
 119   2.0000      -6.604816      -179.7262
 120   2.0000      -6.121209      -166.5666
 121   2.0000      -6.113265      -166.3504
 122   2.0000      -6.113108      -166.3461
 123   2.0000      -6.067336      -165.1006
 124   2.0000      -6.065628      -165.0541
 125   2.0000      -6.063222      -164.9887
 126   2.0000      -6.061485      -164.9414
 127   2.0000      -6.060738      -164.9211
 128   2.0000      -6.059459      -164.8863
 129   2.0000      -6.059176      -164.8786
 130   2.0000      -6.059145      -164.8777
 131   2.0000      -6.054718      -164.7573
 132   2.0000      -6.054425      -164.7493
 133   2.0000      -6.052452      -164.6956
 134   2.0000      -6.052123      -164.6866
 135   2.0000      -2.737912       -74.5024
 136   2.0000      -2.736823       -74.4727
 137   2.0000      -2.736393       -74.4611
 138   2.0000      -2.735570       -74.4387
 139   2.0000      -2.734139       -74.3997
 140   2.0000      -2.733512       -74.3826
 141   2.0000      -2.733119       -74.3719
 142   2.0000      -2.732597       -74.3577
 143   2.0000      -2.732422       -74.3530
 144   2.0000      -2.731995       -74.3414
 145   2.0000      -2.731741       -74.3345
 146   2.0000      -2.731136       -74.3180
 147   2.0000      -2.722379       -74.0797
 148   2.0000      -2.722376       -74.0796
 149   2.0000      -2.721304       -74.0505
 150   2.0000      -2.721295       -74.0502
 151   2.0000      -2.720784       -74.0363
 152   2.0000      -2.720772       -74.0360
 153   2.0000      -2.719973       -74.0142
 154   2.0000      -2.719964       -74.0140
 155   2.0000      -1.369245       -37.2591
 156   2.0000      -1.355205       -36.8770
 157   2.0000      -1.157397       -31.4944
 158   2.0000      -1.145218       -31.1630
 159   2.0000      -1.142901       -31.0999
 160   2.0000      -1.140812       -31.0431
 161   2.0000      -1.068497       -29.0753
 162   2.0000      -1.055269       -28.7153
 163   2.0000      -1.053722       -28.6732
 164   2.0000      -1.031006       -28.0551
 165   2.0000      -1.029968       -28.0269
 166   2.0000      -1.029257       -28.0075
 167   2.0000      -1.026968       -27.9452
 168   2.0000      -1.016590       -27.6628
 169   2.0000      -1.015131       -27.6231
 170   2.0000      -1.014144       -27.5963
 171   2.0000      -1.013753       -27.5856
 172   2.0000      -1.013089       -27.5675
 173   2.0000      -1.010857       -27.5068
 174   2.0000      -1.003662       -27.3110
 175   2.0000      -1.002102       -27.2686
 176   2.0000      -1.000977       -27.2380
 177   2.0000      -0.991315       -26.9750
 178   2.0000      -0.981682       -26.7129
 179   2.0000      -0.980527       -26.6815
 180   2.0000      -0.968410       -26.3518
 181   2.0000      -0.963593       -26.2207
 182   2.0000      -0.933702       -25.4073
 183   2.0000      -0.929545       -25.2942
 184   2.0000      -0.924508       -25.1572
 185   2.0000      -0.923077       -25.1182
 186   2.0000      -0.915931       -24.9237
 187   2.0000      -0.914239       -24.8777
 188   2.0000      -0.910627       -24.7794
 189   2.0000      -0.907319       -24.6894
 190   2.0000      -0.902259       -24.5517
 191   2.0000      -0.893565       -24.3151
 192   2.0000      -0.880542       -23.9608
 193   2.0000      -0.878337       -23.9008
 194   2.0000      -0.868925       -23.6446
 195   2.0000      -0.866052       -23.5665
 196   2.0000      -0.862618       -23.4730
 197   2.0000      -0.859907       -23.3993
 198   2.0000      -0.856194       -23.2982
 199   2.0000      -0.854864       -23.2620
 200   2.0000      -0.837860       -22.7993
 201   2.0000      -0.823222       -22.4010
 202   2.0000      -0.811395       -22.0792
 203   2.0000      -0.799637       -21.7592
 204   2.0000      -0.793137       -21.5823
 205   2.0000      -0.786930       -21.4134
 206   2.0000      -0.782978       -21.3059
 207   2.0000      -0.775695       -21.1077
 208   2.0000      -0.773135       -21.0381
 209   2.0000      -0.767430       -20.8828
 210   2.0000      -0.763059       -20.7639
 211   2.0000      -0.745516       -20.2865
 212   2.0000      -0.731074       -19.8935
 213   2.0000      -0.724285       -19.7088
 214   2.0000      -0.715812       -19.4782
 215   2.0000      -0.710178       -19.3249
 216   2.0000      -0.703757       -19.1502
 217   2.0000      -0.703222       -19.1356
 218   2.0000      -0.700970       -19.0744
 219   2.0000      -0.699209       -19.0264
 220   2.0000      -0.696206       -18.9447
 221   2.0000      -0.693576       -18.8732
 222   2.0000      -0.689517       -18.7627
 223   2.0000      -0.686437       -18.6789
 224   2.0000      -0.678214       -18.4551
 225   2.0000      -0.676845       -18.4179
 226   2.0000      -0.662288       -18.0218
 227   2.0000      -0.659261       -17.9394
 228   2.0000      -0.650900       -17.7119
 229   2.0000      -0.648432       -17.6447
 230   2.0000      -0.643990       -17.5239
 231   2.0000      -0.643420       -17.5083
 232   2.0000      -0.640241       -17.4218
 233   2.0000      -0.630531       -17.1576
 234   2.0000      -0.626537       -17.0489
 235   2.0000      -0.624580       -16.9957
 236   2.0000      -0.623865       -16.9762
 237   2.0000      -0.619909       -16.8686
 238   2.0000      -0.612414       -16.6646
 239   2.0000      -0.606257       -16.4971
 240   2.0000      -0.597238       -16.2517
 241   2.0000      -0.595543       -16.2055
 242   2.0000      -0.592616       -16.1259
 243   2.0000      -0.586046       -15.9471
 244   2.0000      -0.585002       -15.9187
 245   2.0000      -0.583456       -15.8767
 246   2.0000      -0.573583       -15.6080
 247   2.0000      -0.567924       -15.4540
 248   2.0000      -0.565085       -15.3767
 249   2.0000      -0.558678       -15.2024
 250   2.0000      -0.557094       -15.1593
 251   2.0000      -0.556478       -15.1425
 252   2.0000      -0.555759       -15.1230
 253   2.0000      -0.553591       -15.0640
 254   2.0000      -0.550722       -14.9859
 255   2.0000      -0.549584       -14.9549
 256   2.0000      -0.548167       -14.9164
 257   2.0000      -0.543930       -14.8011
 258   2.0000      -0.541261       -14.7285
 259   2.0000      -0.539569       -14.6824
 260   2.0000      -0.538583       -14.6556
 261   2.0000      -0.536365       -14.5952
 262   2.0000      -0.533507       -14.5175
 263   2.0000      -0.527919       -14.3654
 264   2.0000      -0.524063       -14.2605
 265   2.0000      -0.522714       -14.2238
 266   2.0000      -0.515196       -14.0192
 267   2.0000      -0.514578       -14.0024
 268   2.0000      -0.512351       -13.9418
 269   2.0000      -0.510073       -13.8798
 270   2.0000      -0.509364       -13.8605
 271   2.0000      -0.508573       -13.8390
 272   2.0000      -0.506931       -13.7943
 273   2.0000      -0.502571       -13.6757
 274   2.0000      -0.501330       -13.6419
 275   2.0000      -0.499003       -13.5786
 276   2.0000      -0.497846       -13.5471
 277   2.0000      -0.496740       -13.5170
 278   2.0000      -0.494907       -13.4671
 279   2.0000      -0.492598       -13.4043
 280   2.0000      -0.488429       -13.2908
 281   2.0000      -0.484800       -13.1921
 282   2.0000      -0.481891       -13.1129
 283   2.0000      -0.475722       -12.9450
 284   2.0000      -0.473531       -12.8854
 285   2.0000      -0.470866       -12.8129
 286   2.0000      -0.468261       -12.7420
 287   2.0000      -0.466578       -12.6962
 288   2.0000      -0.466170       -12.6851
 289   2.0000      -0.465400       -12.6642
 290   2.0000      -0.465211       -12.6590
 291   2.0000      -0.463244       -12.6055
 292   2.0000      -0.462664       -12.5897
 293   2.0000      -0.458817       -12.4850
 294   2.0000      -0.458381       -12.4732
 295   2.0000      -0.457589       -12.4516
 296   2.0000      -0.457465       -12.4483
 297   2.0000      -0.455308       -12.3896
 298   2.0000      -0.454333       -12.3630
 299   2.0000      -0.449477       -12.2309
 300   2.0000      -0.448720       -12.2103
 301   2.0000      -0.447472       -12.1763
 302   2.0000      -0.445824       -12.1315
 303   2.0000      -0.444671       -12.1001
 304   2.0000      -0.443666       -12.0728
 305   2.0000      -0.443241       -12.0612
 306   2.0000      -0.437100       -11.8941
 307   2.0000      -0.436494       -11.8776
 308   2.0000      -0.435280       -11.8446
 309   2.0000      -0.434927       -11.8350
 310   2.0000      -0.434477       -11.8227
 311   2.0000      -0.433030       -11.7833
 312   2.0000      -0.431863       -11.7516
 313   2.0000      -0.430231       -11.7072
 314   2.0000      -0.423794       -11.5320
 315   2.0000      -0.423618       -11.5272
 316   2.0000      -0.422584       -11.4991
 317   2.0000      -0.417700       -11.3662
 318   2.0000      -0.415467       -11.3054
 319   2.0000      -0.407851       -11.0982
 320   2.0000      -0.407228       -11.0812
 321   2.0000      -0.404626       -11.0104
 322   2.0000      -0.401547       -10.9267
 323   2.0000      -0.401040       -10.9129
 324   2.0000      -0.392284       -10.6746
 325   2.0000      -0.391940       -10.6652
 326   2.0000      -0.390951       -10.6383
 327   2.0000      -0.384500       -10.4628
 328   2.0000      -0.383548       -10.4369
 329   2.0000      -0.377800       -10.2805
 330   2.0000      -0.363347        -9.8872
 331   2.0000      -0.362964        -9.8767
 332   2.0000      -0.357848        -9.7376
 333   2.0000      -0.356563        -9.7026
 334   2.0000      -0.352847        -9.6014
 335   2.0000      -0.351790        -9.5727
 336   2.0000      -0.348817        -9.4918
 337   2.0000      -0.346150        -9.4192
 338   2.0000      -0.345321        -9.3967
 339   2.0000      -0.338603        -9.2139
 340   2.0000      -0.335450        -9.1281
 341   2.0000      -0.330405        -8.9908
 342   2.0000      -0.329204        -8.9581
 343   2.0000      -0.317139        -8.6298
 344   2.0000      -0.315075        -8.5736
 345   2.0000      -0.310927        -8.4607
 346   2.0000      -0.284764        -7.7488
 347   2.0000      -0.253341        -6.8938
 348   0.0000      -0.142231        -3.8703
 349   0.0000      -0.115010        -3.1296
 350   0.0000      -0.106768        -2.9053
 351   0.0000      -0.094903        -2.5824
 352   0.0000      -0.094547        -2.5728

MULLIKEN ATOMIC CHARGES
-----------------------
   0 C :    0.159734
   1 O :   -0.140622
   2 C :   -0.015506
   3 C :    0.030714
   4 C :   -0.005966
   5 C :   -0.027008
   6 C :   -0.013332
   7 C :   -0.018950
   8 Br:    0.017561
   9 Br:    0.022855
  10 C :    0.313228
  11 C :   -0.350472
  12 C :   -0.187430
  13 N :    0.156302
  14 C :   -0.183676
  15 N :    0.151028
  16 C :   -0.089370
  17 C :    0.042477
  18 C :   -0.116601
  19 C :   -0.012807
  20 C :   -0.000810
  21 C :   -0.083760
  22 S :    0.208646
  23 C :   -0.072461
  24 C :    0.045285
  25 C :    0.314743
  26 C :   -0.302676
  27 C :   -0.187947
  28 N :    0.173183
  29 C :   -0.194594
  30 N :    0.198039
  31 C :   -0.062695
  32 C :   -0.174330
  33 S :    0.212321
  34 C :    0.183557
  35 C :   -0.061881
  36 C :   -0.058781
  37 N :   -0.046685
  38 C :    0.152052
  39 C :    0.152982
  40 N :   -0.043200
  41 F :   -0.129101
  42 F :   -0.130906
  43 C :    0.186498
  44 C :   -0.012910
  45 C :   -0.007921
  46 N :   -0.287124
  47 S :    0.590378
  48 N :   -0.287113
  49 C :   -0.179327
  50 C :   -0.063915
  51 C :    0.046762
  52 C :   -0.069474
  53 S :    0.213542
  54 C :   -0.076716
  55 C :   -0.006289
  56 C :    0.310671
  57 C :   -0.288982
  58 C :   -0.185118
  59 N :    0.169106
  60 C :   -0.184491
  61 N :    0.175034
  62 C :   -0.000162
  63 C :   -0.109813
  64 S :    0.218011
  65 C :    0.086469
  66 C :   -0.139487
  67 C :    0.135754
  68 O :   -0.135657
  69 C :    0.006434
  70 C :    0.016428
  71 C :    0.260768
  72 C :   -0.318675
  73 C :   -0.199599
  74 N :    0.169472
  75 C :   -0.172273
  76 N :    0.167938
  77 C :   -0.008165
  78 C :   -0.023827
  79 C :   -0.016617
  80 C :   -0.023444
  81 Br:    0.015259
  82 Br:    0.024559
  83 H :    0.007851
  84 H :    0.010817
  85 H :    0.002604
  86 H :    0.039290
  87 H :    0.023713
  88 H :    0.024499
  89 H :    0.025886
  90 H :    0.021621
  91 H :    0.017067
  92 H :    0.007523
Sum of atomic charges:   -0.0000000

LOEWDIN ATOMIC CHARGES
----------------------
   0 C :    0.087198
   1 O :   -0.128877
   2 C :   -0.041240
   3 C :   -0.013320
   4 C :   -0.006946
   5 C :   -0.118758
   6 C :   -0.122346
   7 C :    0.008133
   8 Br:    0.140189
   9 Br:    0.142118
  10 C :    0.075912
  11 C :   -0.137028
  12 C :   -0.019651
  13 N :   -0.045313
  14 C :   -0.023102
  15 N :   -0.048875
  16 C :   -0.100492
  17 C :    0.043029
  18 C :   -0.176250
  19 C :    0.017861
  20 C :   -0.071402
  21 C :   -0.156144
  22 S :    0.499524
  23 C :   -0.193058
  24 C :   -0.057457
  25 C :    0.074154
  26 C :   -0.093465
  27 C :   -0.015085
  28 N :   -0.030342
  29 C :   -0.024201
  30 N :   -0.014109
  31 C :   -0.013698
  32 C :   -0.156626
  33 S :    0.513968
  34 C :   -0.043495
  35 C :   -0.014751
  36 C :   -0.016852
  37 N :   -0.055039
  38 C :    0.065087
  39 C :    0.066226
  40 N :   -0.055620
  41 F :   -0.018967
  42 F :   -0.020054
  43 C :   -0.038208
  44 C :   -0.038035
  45 C :   -0.036720
  46 N :   -0.273073
  47 S :    0.707909
  48 N :   -0.272831
  49 C :   -0.161345
  50 C :   -0.009218
  51 C :   -0.062105
  52 C :   -0.185223
  53 S :    0.515915
  54 C :   -0.157731
  55 C :   -0.062117
  56 C :    0.081004
  57 C :   -0.096845
  58 C :   -0.012463
  59 N :   -0.032361
  60 C :   -0.016722
  61 N :   -0.028007
  62 C :    0.011572
  63 C :   -0.180503
  64 S :    0.501919
  65 C :    0.044150
  66 C :   -0.094225
  67 C :    0.083491
  68 O :   -0.136119
  69 C :   -0.045043
  70 C :   -0.008429
  71 C :    0.063137
  72 C :   -0.129985
  73 C :   -0.015208
  74 N :   -0.040979
  75 C :   -0.020804
  76 N :   -0.036527
  77 C :   -0.006827
  78 C :   -0.117528
  79 C :   -0.123788
  80 C :    0.007222
  81 Br:    0.138586
  82 Br:    0.144780
  83 H :    0.044620
  84 H :    0.048102
  85 H :    0.042301
  86 H :    0.043248
  87 H :    0.038417
  88 H :    0.039060
  89 H :    0.042807
  90 H :    0.046596
  91 H :    0.046638
  92 H :    0.046663

  Mayer bond orders larger than 0.100000
B(  0-C ,  1-O ) :   2.1711 B(  0-C ,  2-C ) :   0.9526 B(  0-C , 16-C ) :   0.9397
B(  2-C ,  3-C ) :   1.3306 B(  2-C ,  7-C ) :   1.3728 B(  3-C ,  4-C ) :   1.3637
B(  3-C , 10-C ) :   0.9853 B(  4-C ,  5-C ) :   1.3721 B(  4-C , 83-H ) :   0.9779
B(  5-C ,  6-C ) :   1.4199 B(  5-C ,  9-Br) :   1.0595 B(  6-C ,  7-C ) :   1.3480
B(  6-C ,  8-Br) :   1.0350 B(  7-C , 84-H ) :   1.0086 B( 10-C , 11-C ) :   1.6228
B( 10-C , 16-C ) :   1.0917 B( 11-C , 12-C ) :   1.1439 B( 11-C , 14-C ) :   1.1407
B( 12-C , 13-N ) :   2.9677 B( 14-C , 15-N ) :   2.9598 B( 16-C , 17-C ) :   1.5814
B( 17-C , 18-C ) :   1.2376 B( 17-C , 85-H ) :   0.9038 B( 18-C , 19-C ) :   1.3799
B( 18-C , 22-S ) :   1.0740 B( 19-C , 20-C ) :   1.3220 B( 19-C , 86-H ) :   0.9699
B( 20-C , 21-C ) :   1.3619 B( 20-C , 25-C ) :   0.9931 B( 21-C , 22-S ) :   1.1679
B( 21-C , 23-C ) :   1.2159 B( 23-C , 24-C ) :   1.3973 B( 23-C , 33-S ) :   1.0789
B( 24-C , 25-C ) :   0.9911 B( 24-C , 31-C ) :   1.2804 B( 25-C , 26-C ) :   1.7163
B( 26-C , 27-C ) :   1.1411 B( 26-C , 29-C ) :   1.1344 B( 27-C , 28-N ) :   2.9824
B( 29-C , 30-N ) :   2.9997 B( 31-C , 32-C ) :   1.4130 B( 31-C , 87-H ) :   0.9806
B( 32-C , 33-S ) :   1.1025 B( 32-C , 34-C ) :   1.1857 B( 34-C , 35-C ) :   1.2984
B( 34-C , 43-C ) :   0.1298 B( 34-C , 45-C ) :   1.1972 B( 35-C , 36-C ) :   1.1232
B( 35-C , 40-N ) :   1.3791 B( 36-C , 37-N ) :   1.3790 B( 36-C , 43-C ) :   1.2943
B( 37-N , 38-C ) :   1.6542 B( 38-C , 39-C ) :   1.1064 B( 38-C , 42-F ) :   1.1902
B( 39-C , 40-N ) :   1.6540 B( 39-C , 41-F ) :   1.1932 B( 43-C , 44-C ) :   1.1980
B( 43-C , 49-C ) :   1.1919 B( 44-C , 45-C ) :   1.1017 B( 44-C , 48-N ) :   1.5088
B( 45-C , 46-N ) :   1.5081 B( 46-N , 47-S ) :   1.2869 B( 46-N , 48-N ) :   0.1484
B( 47-S , 48-N ) :   1.2876 B( 49-C , 50-C ) :   1.4114 B( 49-C , 53-S ) :   1.0974
B( 50-C , 51-C ) :   1.2805 B( 50-C , 88-H ) :   0.9823 B( 51-C , 52-C ) :   1.3981
B( 51-C , 56-C ) :   0.9901 B( 52-C , 53-S ) :   1.0879 B( 52-C , 54-C ) :   1.2067
B( 54-C , 55-C ) :   1.3944 B( 54-C , 64-S ) :   1.1542 B( 55-C , 56-C ) :   0.9961
B( 55-C , 62-C ) :   1.3717 B( 56-C , 57-C ) :   1.7164 B( 57-C , 58-C ) :   1.1329
B( 57-C , 60-C ) :   1.1373 B( 58-C , 59-N ) :   2.9812 B( 60-C , 61-N ) :   2.9851
B( 62-C , 63-C ) :   1.3773 B( 62-C , 89-H ) :   0.9766 B( 63-C , 64-S ) :   1.0891
B( 63-C , 65-C ) :   1.1533 B( 65-C , 66-C ) :   1.6566 B( 65-C , 90-H ) :   0.9264
B( 66-C , 67-C ) :   0.9488 B( 66-C , 71-C ) :   1.0421 B( 67-C , 68-O ) :   2.2691
B( 67-C , 69-C ) :   0.9208 B( 69-C , 70-C ) :   1.3280 B( 69-C , 80-C ) :   1.3741
B( 70-C , 71-C ) :   1.0000 B( 70-C , 77-C ) :   1.3745 B( 71-C , 72-C ) :   1.6564
B( 72-C , 73-C ) :   1.1712 B( 72-C , 75-C ) :   1.1229 B( 73-C , 74-N ) :   2.9936
B( 75-C , 76-N ) :   2.9946 B( 77-C , 78-C ) :   1.3674 B( 77-C , 91-H ) :   0.9818
B( 78-C , 79-C ) :   1.4209 B( 78-C , 82-Br) :   1.0543 B( 79-C , 80-C ) :   1.3556
B( 79-C , 81-Br) :   1.0343 B( 80-C , 92-H ) :   1.0078

-----------------------------------------------------------------------------
         ABSORPTION SPECTRUM VIA TRANSITION ELECTRIC DIPOLE MOMENTS
-----------------------------------------------------------------------------
State   Energy  Wavelength   fosc         T2         TX        TY        TZ
        (cm-1)    (nm)                  (au**2)     (au)      (au)      (au)
-----------------------------------------------------------------------------
   0    9576.4   1044.2   1.239961082  42.62687  -3.59509  -5.40043   0.73318
   1   13864.0    721.3   0.007397238   0.17565   0.30143   0.21170   0.19995
   2   15041.0    664.8   0.001044830   0.02287   0.06088  -0.09349   0.10208
   3   17827.7    560.9   0.001513950   0.02796   0.11952  -0.07721   0.08781
   4   20050.0    498.8   0.646928914  10.62228  -2.08846  -2.48587   0.28476
   5   20966.6    476.9   0.657047986  10.31679  -2.05144  -2.42676  -0.46822
   6   22892.6    436.8   0.090642748   1.30351  -0.89014  -0.65192  -0.29355
   7   24702.9    404.8   0.061251857   0.81630   0.38651   0.74556   0.33324
   8   24989.5    400.2   0.075407002   0.99341   0.46315   0.76235  -0.44466
   9   25778.9    387.9   0.027767313   0.35460   0.32808   0.46538   0.17432
  10   25938.2    385.5   0.093292807   1.18409   0.18414   0.60501  -0.88552
  11   26216.1    381.4   0.007431816   0.09333  -0.01843  -0.22784  -0.20268
  12   26440.0    378.2   0.100253725   1.24829  -0.47728  -0.90650   0.44582
  13   26906.1    371.7   0.090982234   1.11322  -0.02955  -0.92607   0.50471
  14   27391.5    365.1   0.047193380   0.56721  -0.13776  -0.69970  -0.24217
  15   27604.9    362.3   0.281562775   3.35788   0.55769   1.49363  -0.90329
  16   29001.2    344.8   0.014771739   0.16768  -0.19815  -0.03515  -0.35663
  17   29224.1    342.2   0.024593841   0.27705  -0.51370   0.01637   0.11356
  18   29425.5    339.8   0.045031328   0.50381   0.45769   0.45005   0.30296
  19   29594.1    337.9   0.068263133   0.75938   0.16085  -0.26064   0.81582
  20   30083.9    332.4   0.133039940   1.45587  -0.29528  -0.49219  -1.06134
  21   30394.1    329.0   0.030899604   0.33469   0.26087   0.30442  -0.41709
  22   30431.3    328.6   0.015538866   0.16810  -0.29896  -0.27654   0.04746
  23   30732.7    325.4   0.026529664   0.28419   0.14086   0.11840  -0.50033
  24   30893.4    323.7   0.240153916   2.55917   0.62454   1.20273   0.85005
  25   31182.8    320.7   0.132484652   1.39870   0.45164   1.05295  -0.29330
  26   31488.9    317.6   0.231855292   2.42401  -0.16957  -0.77058   1.34219
  27   31595.5    316.5   0.000520660   0.00543  -0.07155   0.00033   0.01749
  28   31952.0    313.0   0.095183521   0.98071   0.78098   0.54027  -0.28087
  29   32125.1    311.3   0.272931848   2.79695   0.22879  -0.08847   1.65432
  30   32378.7    308.8   0.330779406   3.36322   0.80358   1.55982   0.53334
  31   32604.7    306.7   0.080833935   0.81618  -0.14839  -0.83468   0.31220
  32   32738.0    305.5   0.137974347   1.38746   0.28805   1.04647  -0.45759
  33   32892.3    304.0   0.024678481   0.24700  -0.12041  -0.44752  -0.17953
  34   32963.9    303.4   0.146971754   1.46781  -0.02872   0.23688  -1.18780
  35   33166.2    301.5   0.101382097   1.00633   0.48352   0.73731  -0.47846
  36   33215.9    301.1   0.077817264   0.77127   0.00823  -0.77200  -0.41859
  37   33424.4    299.2   0.044064965   0.43402   0.33905  -0.37350   0.42374
  38   34110.1    293.2   0.012746807   0.12303  -0.19674  -0.25899  -0.13132
  39   34247.7    292.0   0.239201672   2.29937  -0.01506   0.61869  -1.38433
  40   34527.0    289.6   0.064116365   0.61134  -0.25992  -0.51414  -0.52863
  41   34862.4    286.8   0.171597495   1.62043  -0.07255   0.29495  -1.23619
  42   34999.2    285.7   0.007300052   0.06867   0.15015   0.21222  -0.03294
  43   35126.6    284.7   0.022456500   0.21047   0.21152   0.27278  -0.30218
  44   35191.5    284.2   0.200309380   1.87387  -0.07289   0.19042  -1.35362
  45   35424.5    282.3   0.137901900   1.28157   0.01054  -0.81479  -0.78586
  46   35460.6    282.0   0.493328995   4.58001   0.50097  -1.28776   1.63423
  47   35649.0    280.5   0.376344593   3.47547  -0.55444  -1.64393   0.68233
  48   35834.4    279.1   0.318083045   2.92224   0.21687  -0.30952   1.66716
  49   36036.4    277.5   0.060116652   0.54920  -0.19460  -0.54381  -0.46432
  50   36347.7    275.1   0.004573927   0.04143   0.00665  -0.01370   0.20297
  51   36392.7    274.8   0.025986306   0.23507  -0.05694  -0.10238   0.47048
  52   36564.1    273.5   0.015399202   0.13865   0.07344   0.31351   0.18700
  53   36883.8    271.1   0.032070943   0.28625   0.31080   0.28585   0.32856
  54   36912.7    270.9   0.186185540   1.66053   0.68789   0.74321   0.79686
  55   36959.7    270.6   0.115260474   1.02666   0.27972   0.04197   0.97296
  56   37366.4    267.6   0.062387985   0.54966   0.36228   0.35709  -0.53935
  57   37415.8    267.3   0.150225126   1.32179  -0.46627  -0.36957  -0.98377
  58   37576.3    266.1   0.014774012   0.12944  -0.10899   0.08297   0.33268
  59   37787.4    264.6   0.074157335   0.64608  -0.33173  -0.26358  -0.68305
  60   38041.0    262.9   0.059689262   0.51656   0.31277   0.01072   0.64701
  61   38172.9    262.0   0.056205409   0.48473   0.44179   0.49266  -0.21642
  62   38403.3    260.4   0.028512084   0.24442  -0.30783  -0.34849  -0.16798
  63   38660.6    258.7   0.002626499   0.02237  -0.08972  -0.11338  -0.03822
  64   38741.7    258.1   0.027190211   0.23105  -0.40137   0.01903  -0.26380
  65   38906.6    257.0   0.020907365   0.17691   0.27343   0.15976   0.27681
  66   39129.2    255.6   0.006359042   0.05350   0.10949   0.00027   0.20375
  67   39317.7    254.3   0.024869139   0.20823   0.24542   0.26985   0.27419
  68   39431.5    253.6   0.000377903   0.00316   0.03000   0.04718   0.00537
  69   39648.3    252.2   0.016417558   0.13632  -0.10022  -0.13463  -0.32886
  70   39702.1    251.9   0.025719861   0.21327   0.04944  -0.14057   0.43711
  71   39753.0    251.6   0.038845354   0.32170  -0.12922  -0.23904  -0.49785
  72   39817.6    251.1   0.000336119   0.00278  -0.03879  -0.03173   0.01636
  73   39944.5    250.3   0.008122330   0.06694   0.21904   0.03035   0.13432
  74   40074.2    249.5   0.042799802   0.35160  -0.06678  -0.54495   0.22401
  75   40208.6    248.7   0.010638835   0.08711   0.00487  -0.29479  -0.01347

FINAL SINGLE POINT ENERGY    -15505.324028626097

DIPOLE MOMENT
-------------
                                X             Y             Z
Electronic contribution:     19.33481     -13.04237     -29.61960
Nuclear contribution   :    -19.05776      12.13625      31.11378
                        -----------------------------------------
Total Dipole Moment    :      0.27706      -0.90612       1.49418
                        -----------------------------------------
Magnitude (a.u.)       :      1.76929
Magnitude (Debye)      :      4.49717

Rotational constants in cm-1:     0.002101     0.000090     0.000087
Rotational constants in MHz :    62.999602     2.708222     2.620734

                             ****ORCA TERMINATED NORMALLY****
TOTAL RUN TIME: 0 days 0 hours 14 minutes 0 seconds 720 msec
