                         Program Version 4.2.0 -  RELEASE  -
|  1> # ORCA input file
|  2> # SCF done       -192.209697275458          0.000597881634
|  3> ! CAM-B3LYP def2-SVP def2/J RIJCOSX Grid4 TightSCF
|  4> %maxcore 5000
|  5> %tddft
|  6>     Mode sTDDFT
|  7>     Ethresh 5.0
|  8>     maxcore 5000
|  9> end
| 10>
| 11> %pal
| 12>   nprocs 6
| 13>   end
| 14> * xyz 0 1
| 15>    C        4.42677         3.17365         0.94572
| 16>    C        4.66400         2.01806         0.24748
| 17>    C        5.88441         1.31059         0.28443
| 18>    N        6.84785         0.68644         0.27138
| 19>    C        3.74088         1.35402        -0.58692
| 20>    N        3.04788         0.75329        -1.27880
| 21>    C        5.37926         3.83118         1.83504
| 22>    C        4.74060         4.95468         2.43447
| 23>    C        5.38733         5.77129         3.31661
| 24>    C        6.73407         5.49888         3.64499
| 25>    C        7.38226         4.37855         3.04955
| 26>    C        6.68414         3.54937         2.14100
| 27>    C        8.72686         4.11722         3.38182
| 28>    C        9.40066         4.92313         4.25909
| 29>    C        8.76160         6.02629         4.84403
| 30>    C        7.45621         6.30783         4.54390
| 31>    C        3.36183         5.04653         1.93714
| 32>    O        2.52754         5.87479         2.26120
| 33>    C        3.19851         3.94925         0.97145
| 34>    C        2.09627         3.73692         0.18842
| 35>    C        0.87739         4.43763         0.13235
| 36>    S        0.37306         5.77781         1.12997
| 37>    C       -1.15125         5.88352         0.31208
| 38>    C       -1.25536         4.91276        -0.69857
| 39>    C       -0.11957         4.11008        -0.78160
| 40>    C       -2.36228         4.71950        -1.54321
| 41>    N       -3.24484         4.52579        -2.25083
| 42>    C       -2.06389         6.88483         0.71946
| 43>    C       -3.23985         7.18853         0.11026
| 44>    C       -4.12991         8.20301         0.53803
| 45>    S       -5.51529         8.57054        -0.48298
| 46>    C       -6.01855         9.79336         0.61756
| 47>    C       -5.14321         9.88651         1.73095
| 48>    C       -4.07978         8.99166         1.67818
| 49>    N       -5.57572        10.87211         2.57875
| 50>    C       -4.98161        11.23792         3.83440
| 51>    C       -6.71635        11.40249         2.03556
| 52>    C       -7.00750        10.75255         0.80570
| 53>    S       -8.41081        11.40634         0.06067
| 54>    C       -8.60942        12.54181         1.39566
| 55>    C       -7.62313        12.40144         2.36514
| 56>    C       -9.68486        13.45164         1.33823
| 57>    C      -10.01536        14.34743         2.31225
| 58>    C      -11.07235        15.27832         2.20588
| 59>    C      -11.89868        15.54874         1.13043
| 60>    C      -12.78331        16.59998         1.47001
| 61>    C      -12.47899        16.96142         2.87381
| 62>    C      -11.45886        16.17323         3.29219
| 63>    C      -13.13914        17.89994         3.67605
| 64>    N      -13.65786        18.63211         4.39318
| 65>    C      -13.71436        17.21361         0.65901
| 66>    C      -14.50687        18.35354         0.97588
| 67>    C      -15.27703        18.68759        -0.12021
| 68>    C      -15.00487        17.71161        -1.16506
| 69>    C      -14.05650        16.84307        -0.72222
| 70>    C      -13.52156        15.78230        -1.45985
| 71>    N      -13.09493        14.91707        -2.08455
| 72>    C      -16.23769        19.71688        -0.28240
| 73>    C      -16.35396        20.88505         0.41508
| 74>    C      -17.45040        21.82942         0.29170
| 75>    C      -18.64759        21.61490        -0.34311
| 76>    C      -19.68570        22.56723        -0.41422
| 77>    N      -20.56716        23.29607        -0.51603
| 78>    C      -19.03114        20.42611        -0.99816
| 79>    N      -19.42996        19.49391        -1.53837
| 80>    C      -17.09346        23.03393         1.03151
| 81>    C      -15.81405        22.83844         1.62293
| 82>    C      -15.30105        21.50347         1.26963
| 83>    O      -14.21198        21.05801         1.55619
| 84>    C      -15.21804        23.79492         2.39273
| 85>    C      -15.89151        25.01659         2.61510
| 86>    C      -17.16936        25.22495         2.02037
| 87>    C      -17.75874        24.21619         1.22421
| 88>    C      -17.83074        26.44956         2.24528
| 89>    C      -17.26069        27.42081         3.02238
| 90>    C      -16.00336        27.21348         3.60919
| 91>    C      -15.33342        26.03697         3.40986
| 92>    H        4.87865         6.61647         3.75621
| 93>    H        7.20616         2.71212         1.70626
| 94>    H        9.21479         3.26659         2.92914
| 95>    H       10.43060         4.71466         4.50680
| 96>    H        9.30843         6.65209         5.53333
| 97>    H        6.95870         7.15605         4.99109
| 98>    H        2.14486         2.92025        -0.52180
| 99>    H       -0.01447         3.30570        -1.48950
|100>    H       -1.75005         7.45368         1.58431
|101>    H       -3.53477         6.64792        -0.77765
|102>    H       -3.31329         8.89875         2.42456
|103>    H       -3.90990        11.04865         3.79673
|104>    H       -5.41373        10.66274         4.65876
|105>    H       -5.14724        12.29849         4.01992
|106>    H       -7.57872        13.00808         3.25025
|107>    H      -10.28385        13.41641         0.43895
|108>    H       -9.44870        14.36628         3.23350
|109>    H      -11.86869        15.07354         0.17067
|110>    H      -11.00278        16.18173         4.26560
|111>    H      -14.49779        18.85195         1.92322
|112>    H      -15.47381        17.70776        -2.13219
|113>    H      -16.94872        19.53698        -1.08097
|114>    H      -14.24760        23.61687         2.83163
|115>    H      -18.72451        24.40810         0.78460
|116>    H      -18.79938        26.60400         1.79284
|117>    H      -17.77616        28.35465         3.19002
|118>    H      -15.56854        27.99068         4.21987
|119>    H      -14.36516        25.87084         3.85903
|120> *
|121>
|122>                          ****END OF INPUT****

CARTESIAN COORDINATES (ANGSTROEM)
---------------------------------
  C      4.426770    3.173650    0.945720
  C      4.664000    2.018060    0.247480
  C      5.884410    1.310590    0.284430
  N      6.847850    0.686440    0.271380
  C      3.740880    1.354020   -0.586920
  N      3.047880    0.753290   -1.278800
  C      5.379260    3.831180    1.835040
  C      4.740600    4.954680    2.434470
  C      5.387330    5.771290    3.316610
  C      6.734070    5.498880    3.644990
  C      7.382260    4.378550    3.049550
  C      6.684140    3.549370    2.141000
  C      8.726860    4.117220    3.381820
  C      9.400660    4.923130    4.259090
  C      8.761600    6.026290    4.844030
  C      7.456210    6.307830    4.543900
  C      3.361830    5.046530    1.937140
  O      2.527540    5.874790    2.261200
  C      3.198510    3.949250    0.971450
  C      2.096270    3.736920    0.188420
  C      0.877390    4.437630    0.132350
  S      0.373060    5.777810    1.129970
  C     -1.151250    5.883520    0.312080
  C     -1.255360    4.912760   -0.698570
  C     -0.119570    4.110080   -0.781600
  C     -2.362280    4.719500   -1.543210
  N     -3.244840    4.525790   -2.250830
  C     -2.063890    6.884830    0.719460
  C     -3.239850    7.188530    0.110260
  C     -4.129910    8.203010    0.538030
  S     -5.515290    8.570540   -0.482980
  C     -6.018550    9.793360    0.617560
  C     -5.143210    9.886510    1.730950
  C     -4.079780    8.991660    1.678180
  N     -5.575720   10.872110    2.578750
  C     -4.981610   11.237920    3.834400
  C     -6.716350   11.402490    2.035560
  C     -7.007500   10.752550    0.805700
  S     -8.410810   11.406340    0.060670
  C     -8.609420   12.541810    1.395660
  C     -7.623130   12.401440    2.365140
  C     -9.684860   13.451640    1.338230
  C    -10.015360   14.347430    2.312250
  C    -11.072350   15.278320    2.205880
  C    -11.898680   15.548740    1.130430
  C    -12.783310   16.599980    1.470010
  C    -12.478990   16.961420    2.873810
  C    -11.458860   16.173230    3.292190
  C    -13.139140   17.899940    3.676050
  N    -13.657860   18.632110    4.393180
  C    -13.714360   17.213610    0.659010
  C    -14.506870   18.353540    0.975880
  C    -15.277030   18.687590   -0.120210
  C    -15.004870   17.711610   -1.165060
  C    -14.056500   16.843070   -0.722220
  C    -13.521560   15.782300   -1.459850
  N    -13.094930   14.917070   -2.084550
  C    -16.237690   19.716880   -0.282400
  C    -16.353960   20.885050    0.415080
  C    -17.450400   21.829420    0.291700
  C    -18.647590   21.614900   -0.343110
  C    -19.685700   22.567230   -0.414220
  N    -20.567160   23.296070   -0.516030
  C    -19.031140   20.426110   -0.998160
  N    -19.429960   19.493910   -1.538370
  C    -17.093460   23.033930    1.031510
  C    -15.814050   22.838440    1.622930
  C    -15.301050   21.503470    1.269630
  O    -14.211980   21.058010    1.556190
  C    -15.218040   23.794920    2.392730
  C    -15.891510   25.016590    2.615100
  C    -17.169360   25.224950    2.020370
  C    -17.758740   24.216190    1.224210
  C    -17.830740   26.449560    2.245280
  C    -17.260690   27.420810    3.022380
  C    -16.003360   27.213480    3.609190
  C    -15.333420   26.036970    3.409860
  H      4.878650    6.616470    3.756210
  H      7.206160    2.712120    1.706260
  H      9.214790    3.266590    2.929140
  H     10.430600    4.714660    4.506800
  H      9.308430    6.652090    5.533330
  H      6.958700    7.156050    4.991090
  H      2.144860    2.920250   -0.521800
  H     -0.014470    3.305700   -1.489500
  H     -1.750050    7.453680    1.584310
  H     -3.534770    6.647920   -0.777650
  H     -3.313290    8.898750    2.424560
  H     -3.909900   11.048650    3.796730
  H     -5.413730   10.662740    4.658760
  H     -5.147240   12.298490    4.019920
  H     -7.578720   13.008080    3.250250
  H    -10.283850   13.416410    0.438950
  H     -9.448700   14.366280    3.233500
  H    -11.868690   15.073540    0.170670
  H    -11.002780   16.181730    4.265600
  H    -14.497790   18.851950    1.923220
  H    -15.473810   17.707760   -2.132190
  H    -16.948720   19.536980   -1.080970
  H    -14.247600   23.616870    2.831630
  H    -18.724510   24.408100    0.784600
  H    -18.799380   26.604000    1.792840
  H    -17.776160   28.354650    3.190020
  H    -15.568540   27.990680    4.219870
  H    -14.365160   25.870840    3.859030

 Total Charge           Charge          ....    0
 Multiplicity           Mult            ....    1
 Number of Electrons    NEL             ....  532
 Basis Dimension        Dim             .... 1230

ORBITAL ENERGIES
----------------

  NO   OCC          E(Eh)            E(eV)
   0   2.0000     -88.979692     -2421.2605
   1   2.0000     -88.975139     -2421.1366
   2   2.0000     -88.974019     -2421.1061
   3   2.0000     -19.228103      -523.2233
   4   2.0000     -19.211801      -522.7797
   5   2.0000     -14.486672      -394.2024
   6   2.0000     -14.420864      -392.4117
   7   2.0000     -14.417172      -392.3112
   8   2.0000     -14.414120      -392.2282
   9   2.0000     -14.412337      -392.1796
  10   2.0000     -14.410844      -392.1390
  11   2.0000     -14.408942      -392.0872
  12   2.0000     -14.402316      -391.9069
  13   2.0000     -10.376146      -282.3493
  14   2.0000     -10.363678      -282.0100
  15   2.0000     -10.345612      -281.5184
  16   2.0000     -10.345017      -281.5022
  17   2.0000     -10.340241      -281.3723
  18   2.0000     -10.338263      -281.3184
  19   2.0000     -10.336707      -281.2761
  20   2.0000     -10.335730      -281.2495
  21   2.0000     -10.331722      -281.1404
  22   2.0000     -10.331636      -281.1381
  23   2.0000     -10.331280      -281.1284
  24   2.0000     -10.326888      -281.0089
  25   2.0000     -10.326493      -280.9982
  26   2.0000     -10.324586      -280.9463
  27   2.0000     -10.324225      -280.9365
  28   2.0000     -10.323593      -280.9192
  29   2.0000     -10.321805      -280.8706
  30   2.0000     -10.320460      -280.8340
  31   2.0000     -10.320259      -280.8285
  32   2.0000     -10.317851      -280.7630
  33   2.0000     -10.315624      -280.7024
  34   2.0000     -10.315341      -280.6947
  35   2.0000     -10.315313      -280.6939
  36   2.0000     -10.315178      -280.6903
  37   2.0000     -10.314623      -280.6752
  38   2.0000     -10.313742      -280.6512
  39   2.0000     -10.313621      -280.6479
  40   2.0000     -10.312949      -280.6296
  41   2.0000     -10.312064      -280.6055
  42   2.0000     -10.310603      -280.5658
  43   2.0000     -10.310368      -280.5594
  44   2.0000     -10.309256      -280.5291
  45   2.0000     -10.307498      -280.4813
  46   2.0000     -10.305869      -280.4369
  47   2.0000     -10.305670      -280.4315
  48   2.0000     -10.305231      -280.4196
  49   2.0000     -10.304435      -280.3979
  50   2.0000     -10.303110      -280.3619
  51   2.0000     -10.302815      -280.3539
  52   2.0000     -10.302775      -280.3528
  53   2.0000     -10.302506      -280.3454
  54   2.0000     -10.302221      -280.3377
  55   2.0000     -10.301154      -280.3087
  56   2.0000     -10.301097      -280.3071
  57   2.0000     -10.298713      -280.2422
  58   2.0000     -10.297655      -280.2134
  59   2.0000     -10.297551      -280.2106
  60   2.0000     -10.294244      -280.1206
  61   2.0000     -10.294045      -280.1152
  62   2.0000     -10.293785      -280.1081
  63   2.0000     -10.293668      -280.1049
  64   2.0000     -10.292786      -280.0809
  65   2.0000     -10.292049      -280.0609
  66   2.0000     -10.291457      -280.0448
  67   2.0000     -10.290971      -280.0316
  68   2.0000     -10.290414      -280.0164
  69   2.0000     -10.289920      -280.0029
  70   2.0000     -10.289870      -280.0016
  71   2.0000     -10.283930      -279.8400
  72   2.0000     -10.283440      -279.8266
  73   2.0000     -10.282783      -279.8087
  74   2.0000     -10.282615      -279.8042
  75   2.0000     -10.282105      -279.7903
  76   2.0000     -10.276736      -279.6442
  77   2.0000      -8.073158      -219.6818
  78   2.0000      -8.070039      -219.5969
  79   2.0000      -8.068864      -219.5649
  80   2.0000      -6.042554      -164.4263
  81   2.0000      -6.039619      -164.3464
  82   2.0000      -6.038448      -164.3145
  83   2.0000      -6.037973      -164.3016
  84   2.0000      -6.035566      -164.2361
  85   2.0000      -6.035424      -164.2322
  86   2.0000      -6.034399      -164.2043
  87   2.0000      -6.031545      -164.1267
  88   2.0000      -6.030369      -164.0947
  89   2.0000      -1.143128       -31.1061
  90   2.0000      -1.127545       -30.6821
  91   2.0000      -1.114494       -30.3269
  92   2.0000      -1.022986       -27.8369
  93   2.0000      -1.018705       -27.7204
  94   2.0000      -1.015124       -27.6229
  95   2.0000      -1.013873       -27.5889
  96   2.0000      -1.003767       -27.3139
  97   2.0000      -0.997625       -27.1468
  98   2.0000      -0.997259       -27.1368
  99   2.0000      -0.995650       -27.0930
 100   2.0000      -0.994514       -27.0621
 101   2.0000      -0.994337       -27.0573
 102   2.0000      -0.993142       -27.0248
 103   2.0000      -0.989818       -26.9343
 104   2.0000      -0.984031       -26.7769
 105   2.0000      -0.978049       -26.6141
 106   2.0000      -0.976330       -26.5673
 107   2.0000      -0.967041       -26.3145
 108   2.0000      -0.935258       -25.4497
 109   2.0000      -0.928243       -25.2588
 110   2.0000      -0.921908       -25.0864
 111   2.0000      -0.919963       -25.0335
 112   2.0000      -0.908204       -24.7135
 113   2.0000      -0.901157       -24.5217
 114   2.0000      -0.893650       -24.3174
 115   2.0000      -0.886482       -24.1224
 116   2.0000      -0.883014       -24.0280
 117   2.0000      -0.878890       -23.9158
 118   2.0000      -0.875854       -23.8332
 119   2.0000      -0.869773       -23.6677
 120   2.0000      -0.861215       -23.4349
 121   2.0000      -0.858154       -23.3515
 122   2.0000      -0.854648       -23.2562
 123   2.0000      -0.846822       -23.0432
 124   2.0000      -0.838496       -22.8166
 125   2.0000      -0.833289       -22.6749
 126   2.0000      -0.831826       -22.6351
 127   2.0000      -0.824439       -22.4341
 128   2.0000      -0.808969       -22.0132
 129   2.0000      -0.803894       -21.8751
 130   2.0000      -0.789395       -21.4805
 131   2.0000      -0.781830       -21.2747
 132   2.0000      -0.769503       -20.9392
 133   2.0000      -0.768043       -20.8995
 134   2.0000      -0.757796       -20.6207
 135   2.0000      -0.752101       -20.4657
 136   2.0000      -0.733504       -19.9596
 137   2.0000      -0.725992       -19.7552
 138   2.0000      -0.719352       -19.5746
 139   2.0000      -0.714356       -19.4386
 140   2.0000      -0.709526       -19.3072
 141   2.0000      -0.702203       -19.1079
 142   2.0000      -0.699750       -19.0412
 143   2.0000      -0.696034       -18.9401
 144   2.0000      -0.692210       -18.8360
 145   2.0000      -0.684389       -18.6232
 146   2.0000      -0.679506       -18.4903
 147   2.0000      -0.674166       -18.3450
 148   2.0000      -0.672263       -18.2932
 149   2.0000      -0.670497       -18.2452
 150   2.0000      -0.665659       -18.1135
 151   2.0000      -0.658381       -17.9155
 152   2.0000      -0.655427       -17.8351
 153   2.0000      -0.648692       -17.6518
 154   2.0000      -0.641149       -17.4466
 155   2.0000      -0.637414       -17.3449
 156   2.0000      -0.634259       -17.2591
 157   2.0000      -0.625427       -17.0187
 158   2.0000      -0.620976       -16.8976
 159   2.0000      -0.613248       -16.6873
 160   2.0000      -0.611097       -16.6288
 161   2.0000      -0.608066       -16.5463
 162   2.0000      -0.607392       -16.5280
 163   2.0000      -0.602600       -16.3976
 164   2.0000      -0.590155       -16.0589
 165   2.0000      -0.585523       -15.9329
 166   2.0000      -0.583453       -15.8766
 167   2.0000      -0.578208       -15.7338
 168   2.0000      -0.570999       -15.5377
 169   2.0000      -0.568107       -15.4590
 170   2.0000      -0.562145       -15.2967
 171   2.0000      -0.557991       -15.1837
 172   2.0000      -0.553123       -15.0513
 173   2.0000      -0.551593       -15.0096
 174   2.0000      -0.548326       -14.9207
 175   2.0000      -0.545991       -14.8572
 176   2.0000      -0.543591       -14.7919
 177   2.0000      -0.542639       -14.7660
 178   2.0000      -0.539570       -14.6824
 179   2.0000      -0.536478       -14.5983
 180   2.0000      -0.534182       -14.5358
 181   2.0000      -0.531458       -14.4617
 182   2.0000      -0.530167       -14.4266
 183   2.0000      -0.526213       -14.3190
 184   2.0000      -0.523370       -14.2416
 185   2.0000      -0.522059       -14.2060
 186   2.0000      -0.521001       -14.1772
 187   2.0000      -0.518735       -14.1155
 188   2.0000      -0.517292       -14.0762
 189   2.0000      -0.515745       -14.0341
 190   2.0000      -0.513829       -13.9820
 191   2.0000      -0.512980       -13.9589
 192   2.0000      -0.509983       -13.8773
 193   2.0000      -0.508896       -13.8478
 194   2.0000      -0.506263       -13.7761
 195   2.0000      -0.501828       -13.6554
 196   2.0000      -0.500366       -13.6157
 197   2.0000      -0.499493       -13.5919
 198   2.0000      -0.496681       -13.5154
 199   2.0000      -0.494470       -13.4552
 200   2.0000      -0.492864       -13.4115
 201   2.0000      -0.492739       -13.4081
 202   2.0000      -0.488976       -13.3057
 203   2.0000      -0.488602       -13.2955
 204   2.0000      -0.483767       -13.1640
 205   2.0000      -0.482668       -13.1341
 206   2.0000      -0.480791       -13.0830
 207   2.0000      -0.479476       -13.0472
 208   2.0000      -0.478002       -13.0071
 209   2.0000      -0.471092       -12.8191
 210   2.0000      -0.468896       -12.7593
 211   2.0000      -0.465304       -12.6616
 212   2.0000      -0.460396       -12.5280
 213   2.0000      -0.455538       -12.3958
 214   2.0000      -0.453132       -12.3303
 215   2.0000      -0.451699       -12.2914
 216   2.0000      -0.449719       -12.2375
 217   2.0000      -0.447440       -12.1755
 218   2.0000      -0.445618       -12.1259
 219   2.0000      -0.444999       -12.1090
 220   2.0000      -0.444758       -12.1025
 221   2.0000      -0.441632       -12.0174
 222   2.0000      -0.440657       -11.9909
 223   2.0000      -0.439586       -11.9618
 224   2.0000      -0.439070       -11.9477
 225   2.0000      -0.437911       -11.9162
 226   2.0000      -0.437401       -11.9023
 227   2.0000      -0.435231       -11.8432
 228   2.0000      -0.433994       -11.8096
 229   2.0000      -0.432215       -11.7612
 230   2.0000      -0.431460       -11.7406
 231   2.0000      -0.430413       -11.7121
 232   2.0000      -0.430115       -11.7040
 233   2.0000      -0.430055       -11.7024
 234   2.0000      -0.428346       -11.6559
 235   2.0000      -0.422422       -11.4947
 236   2.0000      -0.421458       -11.4685
 237   2.0000      -0.420768       -11.4497
 238   2.0000      -0.415455       -11.3051
 239   2.0000      -0.413720       -11.2579
 240   2.0000      -0.410467       -11.1694
 241   2.0000      -0.408229       -11.1085
 242   2.0000      -0.406303       -11.0561
 243   2.0000      -0.403230       -10.9724
 244   2.0000      -0.400968       -10.9109
 245   2.0000      -0.393863       -10.7175
 246   2.0000      -0.393317       -10.7027
 247   2.0000      -0.383714       -10.4414
 248   2.0000      -0.375022       -10.2049
 249   2.0000      -0.369757       -10.0616
 250   2.0000      -0.355148        -9.6641
 251   2.0000      -0.348883        -9.4936
 252   2.0000      -0.344243        -9.3673
 253   2.0000      -0.342327        -9.3152
 254   2.0000      -0.339079        -9.2268
 255   2.0000      -0.334930        -9.1139
 256   2.0000      -0.324503        -8.8302
 257   2.0000      -0.322501        -8.7757
 258   2.0000      -0.313123        -8.5205
 259   2.0000      -0.310858        -8.4589
 260   2.0000      -0.298696        -8.1279
 261   2.0000      -0.293969        -7.9993
 262   2.0000      -0.293471        -7.9857
 263   2.0000      -0.285387        -7.7658
 264   2.0000      -0.275206        -7.4887
 265   2.0000      -0.241015        -6.5584
 266   0.0000      -0.133279        -3.6267
 267   0.0000      -0.103527        -2.8171
 268   0.0000      -0.078108        -2.1254
 269   0.0000      -0.068453        -1.8627
 270   0.0000      -0.061414        -1.6712

MULLIKEN ATOMIC CHARGES
-----------------------
   0 C :    0.331044
   1 C :   -0.353441
   2 C :   -0.184485
   3 N :    0.149030
   4 C :   -0.189208
   5 N :    0.148713
   6 C :    0.044594
   7 C :   -0.002033
   8 C :   -0.080784
   9 C :    0.098619
  10 C :    0.096160
  11 C :   -0.082986
  12 C :   -0.018524
  13 C :    0.037065
  14 C :    0.035100
  15 C :   -0.017075
  16 C :    0.172691
  17 O :   -0.187134
  18 C :   -0.096384
  19 C :   -0.014591
  20 C :   -0.052116
  21 S :    0.204523
  22 C :   -0.037376
  23 C :   -0.051264
  24 C :    0.009839
  25 C :   -0.170438
  26 N :    0.120022
  27 C :    0.021779
  28 C :    0.056577
  29 C :   -0.090093
  30 S :    0.176278
  31 C :   -0.118309
  32 C :    0.157370
  33 C :   -0.073389
  34 N :   -0.173294
  35 C :    0.123808
  36 C :    0.157117
  37 C :   -0.114391
  38 S :    0.172373
  39 C :   -0.087968
  40 C :   -0.070037
  41 C :    0.082289
  42 C :   -0.027757
  43 C :    0.135208
  44 C :   -0.139275
  45 C :    0.133024
  46 C :   -0.084270
  47 C :   -0.009767
  48 C :   -0.165330
  49 N :    0.135470
  50 C :    0.072237
  51 C :   -0.043471
  52 C :    0.083971
  53 C :   -0.003781
  54 C :   -0.098805
  55 C :   -0.171026
  56 N :    0.124131
  57 C :   -0.026648
  58 C :   -0.078115
  59 C :    0.314095
  60 C :   -0.355363
  61 C :   -0.177308
  62 N :    0.145975
  63 C :   -0.199106
  64 N :    0.159285
  65 C :    0.052029
  66 C :   -0.009531
  67 C :    0.149616
  68 O :   -0.140449
  69 C :   -0.077363
  70 C :    0.098929
  71 C :    0.097174
  72 C :   -0.083838
  73 C :   -0.019167
  74 C :    0.037724
  75 C :    0.034247
  76 C :   -0.014441
  77 H :   -0.015318
  78 H :   -0.007265
  79 H :   -0.007676
  80 H :   -0.003222
  81 H :   -0.003629
  82 H :   -0.018407
  83 H :    0.014116
  84 H :    0.019158
  85 H :   -0.019077
  86 H :    0.007354
  87 H :   -0.017840
  88 H :    0.043602
  89 H :    0.047540
  90 H :    0.042799
  91 H :   -0.019938
  92 H :    0.010270
  93 H :   -0.024181
  94 H :   -0.000548
  95 H :   -0.003976
  96 H :    0.019095
  97 H :    0.002301
  98 H :    0.019659
  99 H :   -0.012071
 100 H :   -0.009679
 101 H :   -0.010174
 102 H :   -0.006310
 103 H :   -0.006021
 104 H :   -0.018542
Sum of atomic charges:   -0.0000000

LOEWDIN ATOMIC CHARGES
----------------------
   0 C :    0.076957
   1 C :   -0.141238
   2 C :   -0.017231
   3 N :   -0.053442
   4 C :   -0.021648
   5 N :   -0.052238
   6 C :   -0.025040
   7 C :   -0.055905
   8 C :    0.032157
   9 C :   -0.008962
  10 C :   -0.005885
  11 C :    0.020794
  12 C :   -0.004479
  13 C :   -0.012329
  14 C :   -0.011869
  15 C :   -0.009893
  16 C :    0.086517
  17 O :   -0.171632
  18 C :   -0.106284
  19 C :    0.059049
  20 C :   -0.190405
  21 S :    0.524355
  22 C :   -0.126152
  23 C :   -0.120118
  24 C :    0.019557
  25 C :   -0.030063
  26 N :   -0.057027
  27 C :   -0.057772
  28 C :   -0.002489
  29 C :   -0.159007
  30 S :    0.443716
  31 C :   -0.218275
  32 C :   -0.005176
  33 C :   -0.064261
  34 N :    0.024464
  35 C :    0.040968
  36 C :   -0.008818
  37 C :   -0.210842
  38 S :    0.441145
  39 C :   -0.163046
  40 C :   -0.057558
  41 C :    0.011395
  42 C :   -0.039955
  43 C :    0.004649
  44 C :   -0.053494
  45 C :    0.059375
  46 C :   -0.068650
  47 C :    0.052406
  48 C :   -0.031748
  49 N :   -0.054004
  50 C :    0.012571
  51 C :    0.044691
  52 C :   -0.049940
  53 C :    0.054623
  54 C :   -0.094228
  55 C :   -0.027923
  56 N :   -0.074625
  57 C :    0.071024
  58 C :   -0.083273
  59 C :    0.075412
  60 C :   -0.138961
  61 C :   -0.016375
  62 N :   -0.054865
  63 C :   -0.023805
  64 N :   -0.051721
  65 C :   -0.026091
  66 C :   -0.054444
  67 C :    0.084304
  68 O :   -0.131643
  69 C :    0.033569
  70 C :   -0.007955
  71 C :   -0.006224
  72 C :    0.018954
  73 C :   -0.005479
  74 C :   -0.014123
  75 C :   -0.013151
  76 C :   -0.009205
  77 H :    0.038211
  78 H :    0.039576
  79 H :    0.035420
  80 H :    0.033837
  81 H :    0.033207
  82 H :    0.031427
  83 H :    0.052102
  84 H :    0.047672
  85 H :    0.027160
  86 H :    0.039718
  87 H :    0.031118
  88 H :    0.036201
  89 H :    0.031186
  90 H :    0.035377
  91 H :    0.031292
  92 H :    0.040206
  93 H :    0.027032
  94 H :    0.031058
  95 H :    0.036058
  96 H :    0.035906
  97 H :    0.038490
  98 H :    0.046547
  99 H :    0.039624
 100 H :    0.038630
 101 H :    0.034466
 102 H :    0.032691
 103 H :    0.032349
 104 H :    0.031757

  Mayer bond orders larger than 0.100000
B(  0-C ,  1-C ) :   1.6255 B(  0-C ,  6-C ) :   0.9865 B(  0-C , 18-C ) :   1.0731
B(  1-C ,  2-C ) :   1.1494 B(  1-C ,  4-C ) :   1.1436 B(  2-C ,  3-N ) :   2.9622
B(  4-C ,  5-N ) :   2.9612 B(  6-C ,  7-C ) :   1.2147 B(  6-C , 11-C ) :   1.4522
B(  7-C ,  8-C ) :   1.4671 B(  7-C , 16-C ) :   0.9621 B(  8-C ,  9-C ) :   1.1760
B(  8-C , 77-H ) :   1.0172 B(  9-C , 10-C ) :   1.2584 B(  9-C , 15-C ) :   1.2441
B( 10-C , 11-C ) :   1.2020 B( 10-C , 12-C ) :   1.2400 B( 11-C , 78-H ) :   0.9903
B( 12-C , 13-C ) :   1.4874 B( 12-C , 79-H ) :   0.9978 B( 13-C , 14-C ) :   1.2617
B( 13-C , 80-H ) :   0.9882 B( 14-C , 15-C ) :   1.4863 B( 14-C , 81-H ) :   0.9892
B( 15-C , 82-H ) :   0.9983 B( 16-C , 17-O ) :   2.1225 B( 16-C , 18-C ) :   0.9730
B( 18-C , 19-C ) :   1.5164 B( 19-C , 20-C ) :   1.2427 B( 19-C , 83-H ) :   0.9397
B( 20-C , 21-S ) :   1.0830 B( 20-C , 24-C ) :   1.3631 B( 21-S , 22-C ) :   1.1372
B( 22-C , 23-C ) :   1.3668 B( 22-C , 27-C ) :   1.1835 B( 23-C , 24-C ) :   1.3439
B( 23-C , 25-C ) :   1.0980 B( 24-C , 84-H ) :   1.0136 B( 25-C , 26-N ) :   2.9749
B( 27-C , 28-C ) :   1.6523 B( 27-C , 85-H ) :   0.9437 B( 28-C , 29-C ) :   1.1588
B( 28-C , 86-H ) :   0.9471 B( 29-C , 30-S ) :   1.1031 B( 29-C , 33-C ) :   1.4452
B( 30-S , 31-C ) :   1.0437 B( 31-C , 32-C ) :   1.3637 B( 31-C , 37-C ) :   1.4157
B( 32-C , 33-C ) :   1.2579 B( 32-C , 34-N ) :   1.1469 B( 33-C , 87-H ) :   1.0051
B( 34-N , 35-C ) :   0.9666 B( 34-N , 36-C ) :   1.1420 B( 35-C , 88-H ) :   0.9716
B( 35-C , 89-H ) :   0.9738 B( 35-C , 90-H ) :   0.9714 B( 36-C , 37-C ) :   1.3553
B( 36-C , 40-C ) :   1.2730 B( 37-C , 38-S ) :   1.0523 B( 38-S , 39-C ) :   1.0899
B( 39-C , 40-C ) :   1.4203 B( 39-C , 41-C ) :   1.1749 B( 40-C , 91-H ) :   1.0059
B( 41-C , 42-C ) :   1.5988 B( 41-C , 92-H ) :   0.9628 B( 42-C , 43-C ) :   1.1559
B( 42-C , 93-H ) :   0.9726 B( 43-C , 44-C ) :   1.4948 B( 43-C , 47-C ) :   1.0105
B( 44-C , 45-C ) :   1.1810 B( 44-C , 94-H ) :   0.9955 B( 45-C , 46-C ) :   1.0776
B( 45-C , 50-C ) :   1.3740 B( 46-C , 47-C ) :   1.7000 B( 46-C , 48-C ) :   1.0843
B( 47-C , 95-H ) :   1.0234 B( 48-C , 49-N ) :   2.9702 B( 50-C , 51-C ) :   1.1391
B( 50-C , 54-C ) :   1.1214 B( 51-C , 52-C ) :   1.5080 B( 51-C , 96-H ) :   0.9856
B( 52-C , 53-C ) :   1.0502 B( 52-C , 57-C ) :   1.1311 B( 53-C , 54-C ) :   1.6388
B( 53-C , 97-H ) :   1.0237 B( 54-C , 55-C ) :   1.0886 B( 55-C , 56-N ) :   2.9679
B( 57-C , 58-C ) :   1.5872 B( 57-C , 98-H ) :   0.9432 B( 58-C , 59-C ) :   1.0653
B( 58-C , 67-C ) :   0.9327 B( 59-C , 60-C ) :   1.6323 B( 59-C , 65-C ) :   0.9888
B( 60-C , 61-C ) :   1.1452 B( 60-C , 63-C ) :   1.1434 B( 61-C , 62-N ) :   2.9628
B( 63-C , 64-N ) :   2.9815 B( 65-C , 66-C ) :   1.2148 B( 65-C , 72-C ) :   1.4443
B( 66-C , 67-C ) :   0.9418 B( 66-C , 69-C ) :   1.4747 B( 67-C , 68-O ) :   2.2216
B( 69-C , 70-C ) :   1.1764 B( 69-C , 99-H ) :   1.0155 B( 70-C , 71-C ) :   1.2585
B( 70-C , 76-C ) :   1.2438 B( 71-C , 72-C ) :   1.2080 B( 71-C , 73-C ) :   1.2378
B( 72-C ,100-H ) :   0.9892 B( 73-C , 74-C ) :   1.4909 B( 73-C ,101-H ) :   0.9971
B( 74-C , 75-C ) :   1.2593 B( 74-C ,102-H ) :   0.9883 B( 75-C , 76-C ) :   1.4883
B( 75-C ,103-H ) :   0.9889 B( 76-C ,104-H ) :   0.9975

-----------------------------------------------------------------------------
         ABSORPTION SPECTRUM VIA TRANSITION ELECTRIC DIPOLE MOMENTS
-----------------------------------------------------------------------------
State   Energy  Wavelength   fosc         T2         TX        TY        TZ
        (cm-1)    (nm)                  (au**2)     (au)      (au)      (au)
-----------------------------------------------------------------------------
   0   10012.2    998.8   1.552321977  51.04226  -5.30852   4.74650  -0.57668
   1   15663.4    638.4   0.063256820   1.32953  -0.91096   0.58960   0.38995
   2   17299.3    578.1   1.372889484  26.12660   4.27084  -2.80085  -0.20449
   3   19233.2    519.9   0.010259949   0.17562   0.24240   0.22018   0.26149
   4   21424.4    466.8   0.013910934   0.21376  -0.39321   0.10768  -0.21805
   5   21906.6    456.5   0.075334959   1.13213   0.31772  -0.86397  -0.53361
   6   23207.5    430.9   0.090059996   1.27755  -0.79169   0.79299  -0.14813
   7   23842.5    419.4   0.151564306   2.09276  -0.66916   1.26710  -0.19857
   8   24798.1    403.3   0.078503860   1.04219  -0.54634   0.85168  -0.13549
   9   25068.3    398.9   0.077378075   1.01617  -0.60226  -0.21236  -0.77997
  10   25631.2    390.1   0.239920570   3.08158   1.13705  -1.30302  -0.30141
  11   26046.6    383.9   0.015975725   0.20192  -0.03579   0.14962  -0.42220
  12   26700.5    374.5   0.403334473   4.97303  -1.43077   1.70187   0.17188
  13   27143.0    368.4   0.262606251   3.18510   1.44310   0.31825   1.00064
  14   27490.9    363.8   0.020599614   0.24669  -0.05802   0.04597   0.49113
  15   28150.1    355.2   0.066080814   0.77281  -0.65710   0.46956  -0.34719
  16   28342.5    352.8   0.006273321   0.07287  -0.21877  -0.01895  -0.15700
  17   28690.6    348.5   0.009908736   0.11370  -0.11947   0.00499   0.31528
  18   29217.3    342.3   0.012390769   0.13962   0.20125   0.26439   0.17092
  19   29374.8    340.4   0.071348362   0.79962  -0.11512  -0.84453  -0.27043
  20   30207.4    331.0   0.218074925   2.37666  -0.02786   1.43518   0.56228
  21   30872.9    323.9   0.092287709   0.98411  -0.15735   0.85140   0.48421
  22   31378.4    318.7   0.081633537   0.85647   0.78738   0.21108   0.43813
  23   31834.5    314.1   0.028753119   0.29735  -0.27642  -0.26019  -0.39146
  24   31976.9    312.7   0.000490412   0.00505   0.01175   0.06706   0.02033
  25   32181.1    310.7   0.034483977   0.35277   0.18116  -0.47995  -0.29934
  26   32645.8    306.3   0.301340965   3.03883  -1.07554  -0.93569  -1.00326
  27   32826.6    304.6   0.156913720   1.57366   0.54550   0.74353   0.85045
  28   33258.1    300.7   0.013426265   0.13290   0.08619   0.15945   0.31630
  29   34011.4    294.0   0.001620608   0.01569  -0.06079  -0.09651  -0.05173
  30   34179.9    292.6   0.193190250   1.86076   0.65844   0.76805   0.91505
  31   34306.7    291.5   0.045078311   0.43258  -0.25065  -0.38032  -0.47446
  32   34451.8    290.3   0.139309993   1.33121  -0.58364  -0.69256  -0.71480
  33   34565.0    289.3   0.061537836   0.58611  -0.67734   0.28795  -0.21072
  34   34833.9    287.1   0.038371485   0.36264  -0.33445   0.49820  -0.05087
  35   35081.3    285.1   0.495981168   4.65441   1.00291   1.48529   1.20103
  36   35548.6    281.3   0.095330530   0.88285  -0.39216  -0.74036  -0.42534
  37   35648.7    280.5   0.032025241   0.29575   0.30234   0.23397   0.38677
  38   35796.6    279.4   0.267820897   2.46308  -0.81161  -0.97226  -0.92687
  39   36021.6    277.6   0.083856333   0.76639  -0.54190  -0.61479  -0.30784
  40   36213.6    276.1   0.219522832   1.99565   0.64716   0.53301   1.13698
  41   36524.7    273.8   0.012497863   0.11265  -0.08559  -0.29451   0.13632
  42   36645.5    272.9   0.007087456   0.06367   0.17739  -0.16474   0.07118
  43   37393.6    267.4   0.034085398   0.30009   0.34654  -0.40152  -0.13705
  44   37871.3    264.1   0.103198200   0.89709  -0.53681  -0.45707  -0.63246
  45   38054.4    262.8   0.020831529   0.18022  -0.21152   0.31140   0.19623
  46   38338.6    260.8   0.004067738   0.03493   0.02075   0.07782   0.16865
  47   38593.1    259.1   0.093930562   0.80126   0.22884  -0.65710  -0.56313
  48   38927.0    256.9   0.195066382   1.64971   0.80247  -0.98736  -0.17575
  49   39069.2    256.0   0.039696217   0.33450   0.06807   0.42180   0.38981
  50   39117.1    255.6   0.031538976   0.26543   0.35929   0.14015   0.34161
  51   39214.1    255.0   0.066021610   0.55427  -0.51665   0.53574   0.01790
  52   39552.5    252.8   0.072124935   0.60033  -0.55839  -0.01389  -0.53696
  53   39965.6    250.2   0.001769858   0.01458  -0.01236   0.02046   0.11835
  54   40081.3    249.5   0.152816596   1.25518  -0.97470   0.55237  -0.00458

FINAL SINGLE POINT ENERGY     -4234.266634830386

DIPOLE MOMENT
-------------
                                X             Y             Z
Electronic contribution:    -10.65060     -25.87672     -24.32322
Nuclear contribution   :     15.60011      27.96075      28.89812
                        -----------------------------------------
Total Dipole Moment    :      4.94952       2.08402       4.57490
                        -----------------------------------------
Magnitude (a.u.)       :      7.05483
Magnitude (Debye)      :     17.93195

Rotational constants in cm-1:     0.002206     0.000121     0.000116
Rotational constants in MHz :    66.144379     3.642146     3.486661

                             ****ORCA TERMINATED NORMALLY****
TOTAL RUN TIME: 0 days 0 hours 12 minutes 20 seconds 98 msec
