                         Program Version 4.2.0 -  RELEASE  -
|  1> # ORCA input file
|  2> # SCF done       -208.581891054881          0.009876411950
|  3> ! CAM-B3LYP def2-SVP def2/J RIJCOSX Grid4 TightSCF
|  4> %maxcore 5000
|  5> %tddft
|  6>     Mode sTDDFT
|  7>     Ethresh 5.0
|  8>     maxcore 5000
|  9> end
| 10>
| 11> %pal
| 12>   nprocs 6
| 13>   end
| 14> * xyz 0 1
| 15>    C      -11.20635        -3.19194         8.58375
| 16>    C      -10.18359        -2.43000         9.07568
| 17>    F      -10.44557        -1.28567         9.71993
| 18>    C       -8.84425        -2.83572         8.91188
| 19>    F       -7.86155        -2.06994         9.40649
| 20>    C       -8.54480        -3.99716         8.25697
| 21>    C       -9.57650        -4.80325         7.73821
| 22>    C      -10.93168        -4.39596         7.90594
| 23>    C      -11.98504        -5.19334         7.40085
| 24>    C      -11.69189        -6.36170         6.75047
| 25>    C      -10.33505        -6.75611         6.58164
| 26>    C       -9.29644        -6.00692         7.05480
| 27>    C      -10.28511        -8.03474         5.86034
| 28>    O       -9.26887        -8.61306         5.50115
| 29>    C      -11.68416        -8.39919         5.58253
| 30>    C      -12.54579        -7.37767         6.14305
| 31>    C      -13.91607        -7.37125         6.14545
| 32>    C      -14.73766        -8.38232         5.60516
| 33>    N      -15.47213        -9.16351         5.19776
| 34>    C      -14.69857        -6.34435         6.71467
| 35>    N      -15.38987        -5.54006         7.15330
| 36>    C      -12.08696        -9.40585         4.74453
| 37>    C      -11.29585       -10.44737         4.23165
| 38>    O      -11.74883       -11.08901         3.11638
| 39>    C      -10.84755       -12.02818         2.78106
| 40>    C       -9.79229       -12.01316         3.69139
| 41>    C      -10.07866       -11.01733         4.62391
| 42>    C       -9.33546       -10.78434         5.87964
| 43>    O       -9.85006       -10.78649         6.96901
| 44>    C      -11.02151       -12.85388         1.65090
| 45>    S       -9.78778       -14.00892         1.28104
| 46>    C      -10.62537       -14.58752        -0.12418
| 47>    C      -11.82675       -13.89097        -0.30217
| 48>    C      -12.05636       -12.90156         0.70324
| 49>    C      -13.20551       -12.09415         0.64594
| 50>    C      -14.09430       -12.24240        -0.38869
| 51>    C      -15.29644       -11.36086        -0.49928
| 52>    C      -13.85637       -13.22249        -1.38105
| 53>    C      -12.76266       -14.03620        -1.34578
| 54>    C      -10.01370       -15.54288        -0.98207
| 55>    C       -8.76398       -15.98975        -0.76714
| 56>    C       -7.95327       -16.77349        -1.68490
| 57>    C       -8.42329       -17.98174        -2.20398
| 58>    C       -7.58133       -18.71666        -3.00811
| 59>    C       -6.29833       -18.25618        -3.32983
| 60>    C       -5.64295       -19.28258        -4.17846
| 61>    O       -4.54015       -19.28641        -4.66094
| 62>    N       -6.57373       -20.30481        -4.30264
| 63>    C       -7.76271       -20.04795        -3.63696
| 64>    O       -8.70798       -20.79049        -3.58978
| 65>    C       -6.32947       -21.51717        -5.05574
| 66>    C       -7.05136       -21.49481        -6.39804
| 67>    C       -5.83530       -17.04774        -2.87043
| 68>    C       -6.66611       -16.28555        -2.03643
| 69>    C       -6.31593       -14.96233        -1.59232
| 70>    C       -5.21533       -14.22301        -1.84794
| 71>    C       -5.07455       -12.91064        -1.31023
| 72>    C       -6.03401       -12.02110        -0.92665
| 73>    C       -5.64149       -10.92546         0.00855
| 74>    O       -4.51649       -10.61231         0.31669
| 75>    C       -6.90951       -10.34357         0.49407
| 76>    C       -7.10445        -9.36178         1.42334
| 77>    C       -8.41736        -8.90807         1.68027
| 78>    C       -9.50768        -9.50413         0.98328
| 79>    C      -10.81362        -9.02488         1.20960
| 80>    C      -11.02090        -7.98931         2.07490
| 81>    C       -9.94073        -7.39210         2.75349
| 82>    C       -8.66682        -7.84870         2.57495
| 83>    F      -10.18408        -6.35957         3.57567
| 84>    F      -12.26141        -7.52539         2.28971
| 85>    C       -9.27761       -10.54075         0.05165
| 86>    C       -7.99392       -10.94650        -0.20203
| 87>    C       -7.46200       -11.91179        -1.16269
| 88>    C       -8.17898       -12.41491        -2.21685
| 89>    C       -7.63883       -13.17376        -3.27391
| 90>    N       -7.27301       -13.77324        -4.17969
| 91>    C       -9.55957       -12.20661        -2.41071
| 92>    N      -10.68322       -12.10905        -2.61988
| 93>    H      -12.22651        -2.86800         8.71819
| 94>    H       -7.51388        -4.29323         8.14182
| 95>    H      -12.99868        -4.85546         7.54278
| 96>    H       -8.27648        -6.33086         6.91498
| 97>    H      -13.10510        -9.40185         4.37604
| 98>    H       -8.94517       -12.66889         3.68425
| 99>    H       -8.23835       -10.78034         5.74759
|100>    H      -13.37663       -11.36203         1.41923
|101>    H      -15.06020       -10.50108        -1.12268
|102>    H      -15.60856       -10.99698         0.47531
|103>    H      -16.12549       -11.88970        -0.96753
|104>    H      -14.56829       -13.31953        -2.18683
|105>    H      -12.60223       -14.77806        -2.11127
|106>    H      -10.55220       -15.82298        -1.87274
|107>    H       -8.26726       -15.67062         0.14314
|108>    H       -9.40240       -18.34672        -1.94248
|109>    H       -6.67796       -22.36285        -4.45566
|110>    H       -5.24833       -21.58646        -5.19870
|111>    H       -8.12525       -21.42413        -6.24363
|112>    H       -6.83630       -22.40990        -6.94287
|113>    H       -6.72159       -20.64566        -6.99325
|114>    H       -4.85581       -16.69862        -3.14987
|115>    H       -7.06081       -14.48668        -0.96908
|116>    H       -4.37423       -14.62121        -2.39410
|117>    H       -4.05981       -12.58447        -1.09942
|118>    H       -6.26578        -8.91799         1.93699
|119>    H      -11.64885        -9.46822         0.69041
|120>    H       -7.85512        -7.38887         3.11461
|121>    H      -10.12609       -10.97554        -0.45169
|122> *
|123>
|124>                          ****END OF INPUT****

CARTESIAN COORDINATES (ANGSTROEM)
---------------------------------
  C    -11.206350   -3.191940    8.583750
  C    -10.183590   -2.430000    9.075680
  F    -10.445570   -1.285670    9.719930
  C     -8.844250   -2.835720    8.911880
  F     -7.861550   -2.069940    9.406490
  C     -8.544800   -3.997160    8.256970
  C     -9.576500   -4.803250    7.738210
  C    -10.931680   -4.395960    7.905940
  C    -11.985040   -5.193340    7.400850
  C    -11.691890   -6.361700    6.750470
  C    -10.335050   -6.756110    6.581640
  C     -9.296440   -6.006920    7.054800
  C    -10.285110   -8.034740    5.860340
  O     -9.268870   -8.613060    5.501150
  C    -11.684160   -8.399190    5.582530
  C    -12.545790   -7.377670    6.143050
  C    -13.916070   -7.371250    6.145450
  C    -14.737660   -8.382320    5.605160
  N    -15.472130   -9.163510    5.197760
  C    -14.698570   -6.344350    6.714670
  N    -15.389870   -5.540060    7.153300
  C    -12.086960   -9.405850    4.744530
  C    -11.295850  -10.447370    4.231650
  O    -11.748830  -11.089010    3.116380
  C    -10.847550  -12.028180    2.781060
  C     -9.792290  -12.013160    3.691390
  C    -10.078660  -11.017330    4.623910
  C     -9.335460  -10.784340    5.879640
  O     -9.850060  -10.786490    6.969010
  C    -11.021510  -12.853880    1.650900
  S     -9.787780  -14.008920    1.281040
  C    -10.625370  -14.587520   -0.124180
  C    -11.826750  -13.890970   -0.302170
  C    -12.056360  -12.901560    0.703240
  C    -13.205510  -12.094150    0.645940
  C    -14.094300  -12.242400   -0.388690
  C    -15.296440  -11.360860   -0.499280
  C    -13.856370  -13.222490   -1.381050
  C    -12.762660  -14.036200   -1.345780
  C    -10.013700  -15.542880   -0.982070
  C     -8.763980  -15.989750   -0.767140
  C     -7.953270  -16.773490   -1.684900
  C     -8.423290  -17.981740   -2.203980
  C     -7.581330  -18.716660   -3.008110
  C     -6.298330  -18.256180   -3.329830
  C     -5.642950  -19.282580   -4.178460
  O     -4.540150  -19.286410   -4.660940
  N     -6.573730  -20.304810   -4.302640
  C     -7.762710  -20.047950   -3.636960
  O     -8.707980  -20.790490   -3.589780
  C     -6.329470  -21.517170   -5.055740
  C     -7.051360  -21.494810   -6.398040
  C     -5.835300  -17.047740   -2.870430
  C     -6.666110  -16.285550   -2.036430
  C     -6.315930  -14.962330   -1.592320
  C     -5.215330  -14.223010   -1.847940
  C     -5.074550  -12.910640   -1.310230
  C     -6.034010  -12.021100   -0.926650
  C     -5.641490  -10.925460    0.008550
  O     -4.516490  -10.612310    0.316690
  C     -6.909510  -10.343570    0.494070
  C     -7.104450   -9.361780    1.423340
  C     -8.417360   -8.908070    1.680270
  C     -9.507680   -9.504130    0.983280
  C    -10.813620   -9.024880    1.209600
  C    -11.020900   -7.989310    2.074900
  C     -9.940730   -7.392100    2.753490
  C     -8.666820   -7.848700    2.574950
  F    -10.184080   -6.359570    3.575670
  F    -12.261410   -7.525390    2.289710
  C     -9.277610  -10.540750    0.051650
  C     -7.993920  -10.946500   -0.202030
  C     -7.462000  -11.911790   -1.162690
  C     -8.178980  -12.414910   -2.216850
  C     -7.638830  -13.173760   -3.273910
  N     -7.273010  -13.773240   -4.179690
  C     -9.559570  -12.206610   -2.410710
  N    -10.683220  -12.109050   -2.619880
  H    -12.226510   -2.868000    8.718190
  H     -7.513880   -4.293230    8.141820
  H    -12.998680   -4.855460    7.542780
  H     -8.276480   -6.330860    6.914980
  H    -13.105100   -9.401850    4.376040
  H     -8.945170  -12.668890    3.684250
  H     -8.238350  -10.780340    5.747590
  H    -13.376630  -11.362030    1.419230
  H    -15.060200  -10.501080   -1.122680
  H    -15.608560  -10.996980    0.475310
  H    -16.125490  -11.889700   -0.967530
  H    -14.568290  -13.319530   -2.186830
  H    -12.602230  -14.778060   -2.111270
  H    -10.552200  -15.822980   -1.872740
  H     -8.267260  -15.670620    0.143140
  H     -9.402400  -18.346720   -1.942480
  H     -6.677960  -22.362850   -4.455660
  H     -5.248330  -21.586460   -5.198700
  H     -8.125250  -21.424130   -6.243630
  H     -6.836300  -22.409900   -6.942870
  H     -6.721590  -20.645660   -6.993250
  H     -4.855810  -16.698620   -3.149870
  H     -7.060810  -14.486680   -0.969080
  H     -4.374230  -14.621210   -2.394100
  H     -4.059810  -12.584470   -1.099420
  H     -6.265780   -8.917990    1.936990
  H    -11.648850   -9.468220    0.690410
  H     -7.855120   -7.388870    3.114610
  H    -10.126090  -10.975540   -0.451690

 Total Charge           Charge          ....    0
 Multiplicity           Mult            ....    1
 Number of Electrons    NEL             ....  536
 Basis Dimension        Dim             .... 1241

ORBITAL ENERGIES
----------------

  NO   OCC          E(Eh)            E(eV)
   0   2.0000     -88.990328     -2421.5499
   1   2.0000     -24.810096      -675.1170
   2   2.0000     -24.808128      -675.0635
   3   2.0000     -24.797605      -674.7771
   4   2.0000     -24.796603      -674.7499
   5   2.0000     -19.320599      -525.7402
   6   2.0000     -19.228383      -523.2309
   7   2.0000     -19.224645      -523.1292
   8   2.0000     -19.217480      -522.9342
   9   2.0000     -19.216662      -522.9120
  10   2.0000     -19.206594      -522.6380
  11   2.0000     -14.458315      -393.4308
  12   2.0000     -14.428778      -392.6270
  13   2.0000     -14.427044      -392.5798
  14   2.0000     -14.415065      -392.2539
  15   2.0000     -14.413826      -392.2202
  16   2.0000     -10.397090      -282.9192
  17   2.0000     -10.396901      -282.9141
  18   2.0000     -10.387020      -282.6452
  19   2.0000     -10.386206      -282.6230
  20   2.0000     -10.380506      -282.4679
  21   2.0000     -10.379797      -282.4486
  22   2.0000     -10.375789      -282.3396
  23   2.0000     -10.375766      -282.3389
  24   2.0000     -10.374430      -282.3026
  25   2.0000     -10.367667      -282.1185
  26   2.0000     -10.354829      -281.7692
  27   2.0000     -10.354637      -281.7640
  28   2.0000     -10.354224      -281.7528
  29   2.0000     -10.341276      -281.4004
  30   2.0000     -10.340330      -281.3747
  31   2.0000     -10.332139      -281.1518
  32   2.0000     -10.331667      -281.1390
  33   2.0000     -10.328463      -281.0518
  34   2.0000     -10.328343      -281.0485
  35   2.0000     -10.328126      -281.0426
  36   2.0000     -10.325004      -280.9576
  37   2.0000     -10.318799      -280.7888
  38   2.0000     -10.317984      -280.7666
  39   2.0000     -10.317213      -280.7456
  40   2.0000     -10.316880      -280.7366
  41   2.0000     -10.316660      -280.7306
  42   2.0000     -10.315514      -280.6994
  43   2.0000     -10.315461      -280.6980
  44   2.0000     -10.314879      -280.6821
  45   2.0000     -10.312854      -280.6270
  46   2.0000     -10.310136      -280.5531
  47   2.0000     -10.309971      -280.5486
  48   2.0000     -10.309641      -280.5396
  49   2.0000     -10.309496      -280.5356
  50   2.0000     -10.309483      -280.5353
  51   2.0000     -10.309462      -280.5347
  52   2.0000     -10.309094      -280.5247
  53   2.0000     -10.309018      -280.5226
  54   2.0000     -10.307527      -280.4821
  55   2.0000     -10.306657      -280.4584
  56   2.0000     -10.306273      -280.4479
  57   2.0000     -10.306212      -280.4463
  58   2.0000     -10.306147      -280.4445
  59   2.0000     -10.306091      -280.4430
  60   2.0000     -10.305730      -280.4332
  61   2.0000     -10.305443      -280.4254
  62   2.0000     -10.303572      -280.3745
  63   2.0000     -10.302172      -280.3363
  64   2.0000     -10.302052      -280.3331
  65   2.0000     -10.301522      -280.3187
  66   2.0000     -10.301215      -280.3103
  67   2.0000     -10.300804      -280.2991
  68   2.0000     -10.300773      -280.2983
  69   2.0000     -10.300548      -280.2922
  70   2.0000     -10.299389      -280.2606
  71   2.0000     -10.294019      -280.1145
  72   2.0000     -10.293258      -280.0938
  73   2.0000     -10.290051      -280.0065
  74   2.0000     -10.282576      -279.8031
  75   2.0000     -10.280366      -279.7430
  76   2.0000     -10.271020      -279.4887
  77   2.0000     -10.260628      -279.2059
  78   2.0000      -8.084985      -220.0036
  79   2.0000      -6.054100      -164.7404
  80   2.0000      -6.050026      -164.6296
  81   2.0000      -6.047569      -164.5627
  82   2.0000      -1.330337       -36.2003
  83   2.0000      -1.320010       -35.9193
  84   2.0000      -1.315205       -35.7886
  85   2.0000      -1.305138       -35.5146
  86   2.0000      -1.239512       -33.7288
  87   2.0000      -1.163478       -31.6599
  88   2.0000      -1.144705       -31.1490
  89   2.0000      -1.140908       -31.0457
  90   2.0000      -1.140145       -31.0249
  91   2.0000      -1.120474       -30.4896
  92   2.0000      -1.054192       -28.6860
  93   2.0000      -1.031890       -28.0791
  94   2.0000      -1.020023       -27.7562
  95   2.0000      -1.019214       -27.7342
  96   2.0000      -1.013423       -27.5766
  97   2.0000      -1.007680       -27.4204
  98   2.0000      -1.003848       -27.3161
  99   2.0000      -0.995638       -27.0927
 100   2.0000      -0.993545       -27.0357
 101   2.0000      -0.989695       -26.9310
 102   2.0000      -0.981800       -26.7161
 103   2.0000      -0.953321       -25.9412
 104   2.0000      -0.948024       -25.7970
 105   2.0000      -0.941666       -25.6240
 106   2.0000      -0.938146       -25.5283
 107   2.0000      -0.933399       -25.3991
 108   2.0000      -0.928088       -25.2546
 109   2.0000      -0.919694       -25.0262
 110   2.0000      -0.909138       -24.7389
 111   2.0000      -0.900779       -24.5115
 112   2.0000      -0.899419       -24.4744
 113   2.0000      -0.893809       -24.3218
 114   2.0000      -0.889715       -24.2104
 115   2.0000      -0.882131       -24.0040
 116   2.0000      -0.874038       -23.7838
 117   2.0000      -0.861713       -23.4484
 118   2.0000      -0.852824       -23.2065
 119   2.0000      -0.850288       -23.1375
 120   2.0000      -0.847785       -23.0694
 121   2.0000      -0.839995       -22.8574
 122   2.0000      -0.838378       -22.8134
 123   2.0000      -0.818370       -22.2690
 124   2.0000      -0.804705       -21.8971
 125   2.0000      -0.797259       -21.6945
 126   2.0000      -0.780084       -21.2272
 127   2.0000      -0.777317       -21.1519
 128   2.0000      -0.771228       -20.9862
 129   2.0000      -0.769162       -20.9299
 130   2.0000      -0.765386       -20.8272
 131   2.0000      -0.760747       -20.7010
 132   2.0000      -0.746803       -20.3215
 133   2.0000      -0.740596       -20.1527
 134   2.0000      -0.730504       -19.8780
 135   2.0000      -0.727117       -19.7859
 136   2.0000      -0.723023       -19.6744
 137   2.0000      -0.719387       -19.5755
 138   2.0000      -0.716837       -19.5061
 139   2.0000      -0.708307       -19.2740
 140   2.0000      -0.708051       -19.2670
 141   2.0000      -0.701752       -19.0956
 142   2.0000      -0.694340       -18.8940
 143   2.0000      -0.692454       -18.8426
 144   2.0000      -0.683644       -18.6029
 145   2.0000      -0.678825       -18.4718
 146   2.0000      -0.676970       -18.4213
 147   2.0000      -0.664814       -18.0905
 148   2.0000      -0.660236       -17.9659
 149   2.0000      -0.655960       -17.8496
 150   2.0000      -0.654330       -17.8052
 151   2.0000      -0.650979       -17.7140
 152   2.0000      -0.643939       -17.5225
 153   2.0000      -0.640514       -17.4293
 154   2.0000      -0.636500       -17.3200
 155   2.0000      -0.631262       -17.1775
 156   2.0000      -0.627018       -17.0620
 157   2.0000      -0.625360       -17.0169
 158   2.0000      -0.615104       -16.7378
 159   2.0000      -0.610496       -16.6124
 160   2.0000      -0.607118       -16.5205
 161   2.0000      -0.604279       -16.4433
 162   2.0000      -0.602899       -16.4057
 163   2.0000      -0.596192       -16.2232
 164   2.0000      -0.591237       -16.0884
 165   2.0000      -0.587792       -15.9946
 166   2.0000      -0.585333       -15.9277
 167   2.0000      -0.584561       -15.9067
 168   2.0000      -0.582645       -15.8546
 169   2.0000      -0.578404       -15.7392
 170   2.0000      -0.574309       -15.6277
 171   2.0000      -0.572962       -15.5911
 172   2.0000      -0.570319       -15.5192
 173   2.0000      -0.565895       -15.3988
 174   2.0000      -0.562886       -15.3169
 175   2.0000      -0.561360       -15.2754
 176   2.0000      -0.560502       -15.2520
 177   2.0000      -0.553677       -15.0663
 178   2.0000      -0.552720       -15.0403
 179   2.0000      -0.550476       -14.9792
 180   2.0000      -0.548375       -14.9221
 181   2.0000      -0.546608       -14.8740
 182   2.0000      -0.546235       -14.8638
 183   2.0000      -0.546043       -14.8586
 184   2.0000      -0.541890       -14.7456
 185   2.0000      -0.539303       -14.6752
 186   2.0000      -0.537590       -14.6286
 187   2.0000      -0.534309       -14.5393
 188   2.0000      -0.533167       -14.5082
 189   2.0000      -0.530264       -14.4292
 190   2.0000      -0.529762       -14.4156
 191   2.0000      -0.528942       -14.3933
 192   2.0000      -0.524716       -14.2783
 193   2.0000      -0.523840       -14.2544
 194   2.0000      -0.523361       -14.2414
 195   2.0000      -0.521718       -14.1967
 196   2.0000      -0.517138       -14.0720
 197   2.0000      -0.516099       -14.0438
 198   2.0000      -0.515060       -14.0155
 199   2.0000      -0.511988       -13.9319
 200   2.0000      -0.511292       -13.9130
 201   2.0000      -0.509764       -13.8714
 202   2.0000      -0.507575       -13.8118
 203   2.0000      -0.503443       -13.6994
 204   2.0000      -0.501534       -13.6474
 205   2.0000      -0.500580       -13.6215
 206   2.0000      -0.499313       -13.5870
 207   2.0000      -0.496684       -13.5155
 208   2.0000      -0.492893       -13.4123
 209   2.0000      -0.492193       -13.3932
 210   2.0000      -0.489813       -13.3285
 211   2.0000      -0.486488       -13.2380
 212   2.0000      -0.486240       -13.2313
 213   2.0000      -0.485102       -13.2003
 214   2.0000      -0.475888       -12.9496
 215   2.0000      -0.474039       -12.8993
 216   2.0000      -0.471838       -12.8394
 217   2.0000      -0.471282       -12.8242
 218   2.0000      -0.469549       -12.7771
 219   2.0000      -0.466075       -12.6826
 220   2.0000      -0.464510       -12.6400
 221   2.0000      -0.463947       -12.6246
 222   2.0000      -0.457632       -12.4528
 223   2.0000      -0.456382       -12.4188
 224   2.0000      -0.455422       -12.3927
 225   2.0000      -0.453149       -12.3308
 226   2.0000      -0.452302       -12.3078
 227   2.0000      -0.448098       -12.1934
 228   2.0000      -0.446896       -12.1607
 229   2.0000      -0.445693       -12.1279
 230   2.0000      -0.444698       -12.1009
 231   2.0000      -0.443235       -12.0610
 232   2.0000      -0.442803       -12.0493
 233   2.0000      -0.438910       -11.9433
 234   2.0000      -0.437545       -11.9062
 235   2.0000      -0.430054       -11.7024
 236   2.0000      -0.429203       -11.6792
 237   2.0000      -0.428438       -11.6584
 238   2.0000      -0.427595       -11.6355
 239   2.0000      -0.425587       -11.5808
 240   2.0000      -0.423671       -11.5287
 241   2.0000      -0.421287       -11.4638
 242   2.0000      -0.420008       -11.4290
 243   2.0000      -0.413456       -11.2507
 244   2.0000      -0.408978       -11.1288
 245   2.0000      -0.403981       -10.9929
 246   2.0000      -0.396551       -10.7907
 247   2.0000      -0.386905       -10.5282
 248   2.0000      -0.383918       -10.4469
 249   2.0000      -0.381642       -10.3850
 250   2.0000      -0.372423       -10.1341
 251   2.0000      -0.370032       -10.0691
 252   2.0000      -0.363544        -9.8925
 253   2.0000      -0.357393        -9.7251
 254   2.0000      -0.350333        -9.5330
 255   2.0000      -0.349490        -9.5101
 256   2.0000      -0.348478        -9.4826
 257   2.0000      -0.344709        -9.3800
 258   2.0000      -0.338254        -9.2044
 259   2.0000      -0.330899        -9.0042
 260   2.0000      -0.327496        -8.9116
 261   2.0000      -0.324604        -8.8329
 262   2.0000      -0.318209        -8.6589
 263   2.0000      -0.311067        -8.4646
 264   2.0000      -0.308651        -8.3988
 265   2.0000      -0.297223        -8.0879
 266   2.0000      -0.294835        -8.0229
 267   2.0000      -0.248300        -6.7566
 268   0.0000      -0.115128        -3.1328
 269   0.0000      -0.103017        -2.8032
 270   0.0000      -0.072796        -1.9809
 271   0.0000      -0.071292        -1.9400
 272   0.0000      -0.063907        -1.7390

MULLIKEN ATOMIC CHARGES
-----------------------
   0 C :   -0.112689
   1 C :    0.244540
   2 F :   -0.170949
   3 C :    0.240661
   4 F :   -0.172492
   5 C :   -0.111571
   6 C :    0.121675
   7 C :    0.119988
   8 C :   -0.092690
   9 C :    0.059250
  10 C :    0.020460
  11 C :   -0.090363
  12 C :    0.181655
  13 O :   -0.213140
  14 C :   -0.081746
  15 C :    0.320011
  16 C :   -0.346320
  17 C :   -0.200295
  18 N :    0.158379
  19 C :   -0.183731
  20 N :    0.145970
  21 C :   -0.012812
  22 C :    0.132172
  23 O :   -0.207373
  24 C :    0.208710
  25 C :   -0.107515
  26 C :    0.011778
  27 C :    0.212915
  28 O :   -0.196428
  29 C :   -0.154405
  30 S :    0.125400
  31 C :   -0.102749
  32 C :    0.108544
  33 C :    0.135008
  34 C :   -0.099897
  35 C :   -0.034771
  36 C :    0.082246
  37 C :    0.016153
  38 C :    0.002756
  39 C :    0.047100
  40 C :   -0.077970
  41 C :    0.058111
  42 C :   -0.074163
  43 C :    0.014217
  44 C :    0.008904
  45 C :    0.190029
  46 O :   -0.151536
  47 N :   -0.301607
  48 C :    0.185755
  49 O :   -0.152567
  50 C :    0.134014
  51 C :   -0.015284
  52 C :   -0.073365
  53 C :    0.120939
  54 C :   -0.013006
  55 C :    0.041210
  56 C :    0.032116
  57 C :   -0.119415
  58 C :    0.130443
  59 O :   -0.135461
  60 C :    0.013880
  61 C :   -0.090213
  62 C :    0.112406
  63 C :    0.105446
  64 C :   -0.093460
  65 C :    0.244372
  66 C :    0.235389
  67 C :   -0.073504
  68 F :   -0.176927
  69 F :   -0.175135
  70 C :   -0.073477
  71 C :    0.030771
  72 C :    0.293557
  73 C :   -0.354561
  74 C :   -0.212896
  75 N :    0.184789
  76 C :   -0.161606
  77 N :    0.152741
  78 H :    0.007133
  79 H :   -0.002533
  80 H :   -0.006681
  81 H :   -0.017642
  82 H :    0.026444
  83 H :   -0.004267
  84 H :   -0.011992
  85 H :   -0.018327
  86 H :    0.041964
  87 H :    0.031237
  88 H :    0.022252
  89 H :   -0.020160
  90 H :   -0.023514
  91 H :    0.006010
  92 H :    0.038569
  93 H :   -0.007470
  94 H :    0.028302
  95 H :    0.037150
  96 H :    0.036095
  97 H :    0.023075
  98 H :    0.023371
  99 H :   -0.007423
 100 H :    0.011360
 101 H :    0.008067
 102 H :    0.034961
 103 H :   -0.008888
 104 H :   -0.005743
 105 H :   -0.002766
 106 H :   -0.004957
Sum of atomic charges:   -0.0000000

LOEWDIN ATOMIC CHARGES
----------------------
   0 C :   -0.028818
   1 C :    0.066125
   2 F :   -0.048805
   3 C :    0.067099
   4 F :   -0.050454
   5 C :   -0.033971
   6 C :   -0.008638
   7 C :   -0.005781
   8 C :    0.018296
   9 C :   -0.018052
  10 C :   -0.045246
  11 C :    0.028898
  12 C :    0.101189
  13 O :   -0.142530
  14 C :   -0.094762
  15 C :    0.079140
  16 C :   -0.137936
  17 C :   -0.021925
  18 N :   -0.052645
  19 C :   -0.016752
  20 N :   -0.054702
  21 C :    0.054018
  22 C :    0.017268
  23 O :    0.030171
  24 C :    0.049365
  25 C :   -0.064057
  26 C :   -0.045471
  27 C :    0.117116
  28 O :   -0.150058
  29 C :   -0.207065
  30 S :    0.480314
  31 C :   -0.156280
  32 C :   -0.040288
  33 C :   -0.025208
  34 C :   -0.038852
  35 C :   -0.001818
  36 C :   -0.042963
  37 C :   -0.010539
  38 C :    0.004696
  39 C :   -0.022788
  40 C :   -0.028297
  41 C :    0.003061
  42 C :    0.015127
  43 C :   -0.037993
  44 C :   -0.049723
  45 C :    0.088694
  46 O :   -0.153743
  47 N :   -0.034974
  48 C :    0.086664
  49 O :   -0.153970
  50 C :    0.044809
  51 C :   -0.060250
  52 C :    0.038555
  53 C :   -0.015530
  54 C :    0.034175
  55 C :   -0.024819
  56 C :    0.075801
  57 C :   -0.092331
  58 C :    0.082023
  59 O :   -0.138185
  60 C :   -0.056848
  61 C :    0.031730
  62 C :   -0.007864
  63 C :   -0.007368
  64 C :   -0.030400
  65 C :    0.063603
  66 C :    0.063504
  67 C :   -0.019230
  68 F :   -0.043681
  69 F :   -0.048665
  70 C :    0.015077
  71 C :   -0.026118
  72 C :    0.063953
  73 C :   -0.139291
  74 C :   -0.018429
  75 N :   -0.038490
  76 C :   -0.014510
  77 N :   -0.049399
  78 H :    0.047733
  79 H :    0.043895
  80 H :    0.040053
  81 H :    0.037482
  82 H :    0.052170
  83 H :    0.031127
  84 H :   -0.001984
  85 H :    0.026306
  86 H :    0.043098
  87 H :    0.037065
  88 H :    0.034134
  89 H :    0.031271
  90 H :    0.030624
  91 H :    0.039808
  92 H :    0.023293
  93 H :    0.040338
  94 H :    0.031335
  95 H :    0.033585
  96 H :    0.029605
  97 H :    0.030894
  98 H :    0.027573
  99 H :    0.040164
 100 H :    0.032140
 101 H :    0.036432
 102 H :    0.048887
 103 H :    0.041209
 104 H :    0.043758
 105 H :    0.045037
 106 H :    0.039014

  Mayer bond orders larger than 0.100000
B(  0-C ,  1-C ) :   1.4359 B(  0-C ,  5-C ) :   0.1088 B(  0-C ,  7-C ) :   1.1897
B(  0-C , 78-H ) :   1.0081 B(  1-C ,  2-F ) :   1.1351 B(  1-C ,  3-C ) :   1.1931
B(  3-C ,  4-F ) :   1.1332 B(  3-C ,  5-C ) :   1.4417 B(  5-C ,  6-C ) :   1.1890
B(  5-C , 79-H ) :   1.0083 B(  6-C ,  7-C ) :   1.2590 B(  6-C , 11-C ) :   1.1843
B(  7-C ,  8-C ) :   1.2079 B(  8-C ,  9-C ) :   1.4516 B(  8-C , 80-H ) :   0.9912
B(  9-C , 10-C ) :   1.2186 B(  9-C , 15-C ) :   0.9851 B( 10-C , 11-C ) :   1.4631
B( 10-C , 12-C ) :   0.9609 B( 11-C , 81-H ) :   1.0180 B( 12-C , 13-O ) :   2.0195
B( 12-C , 14-C ) :   1.0016 B( 13-O , 27-C ) :   0.1276 B( 14-C , 15-C ) :   1.0753
B( 14-C , 21-C ) :   1.5042 B( 15-C , 16-C ) :   1.6365 B( 16-C , 17-C ) :   1.1434
B( 16-C , 19-C ) :   1.1450 B( 17-C , 18-N ) :   2.9838 B( 19-C , 20-N ) :   2.9610
B( 21-C , 22-C ) :   1.2417 B( 21-C , 82-H ) :   0.9272 B( 22-C , 23-O ) :   1.0644
B( 22-C , 24-C ) :   0.1037 B( 22-C , 26-C ) :   1.3983 B( 23-O , 24-C ) :   1.1796
B( 24-C , 25-C ) :   1.3644 B( 24-C , 29-C ) :   1.1727 B( 25-C , 26-C ) :   1.3162
B( 25-C , 83-H ) :   1.0089 B( 26-C , 27-C ) :   0.8930 B( 27-C , 28-O ) :   2.1959
B( 27-C , 84-H ) :   0.9394 B( 29-C , 30-S ) :   1.1349 B( 29-C , 31-C ) :   0.1152
B( 29-C , 33-C ) :   1.3097 B( 30-S , 31-C ) :   1.1446 B( 31-C , 32-C ) :   1.3294
B( 31-C , 39-C ) :   1.1595 B( 32-C , 33-C ) :   1.2049 B( 32-C , 38-C ) :   1.1976
B( 33-C , 34-C ) :   1.2203 B( 34-C , 35-C ) :   1.5135 B( 34-C , 85-H ) :   0.9909
B( 35-C , 36-C ) :   1.0511 B( 35-C , 37-C ) :   1.2159 B( 36-C , 86-H ) :   0.9511
B( 36-C , 87-H ) :   0.9614 B( 36-C , 88-H ) :   0.9564 B( 37-C , 38-C ) :   1.5543
B( 37-C , 89-H ) :   0.9879 B( 38-C , 90-H ) :   0.9913 B( 39-C , 40-C ) :   1.7547
B( 39-C , 91-H ) :   0.9732 B( 40-C , 41-C ) :   1.0194 B( 40-C , 92-H ) :   0.9289
B( 41-C , 42-C ) :   1.3402 B( 41-C , 53-C ) :   1.3313 B( 42-C , 43-C ) :   1.3793
B( 42-C , 93-H ) :   1.0150 B( 43-C , 44-C ) :   1.3504 B( 43-C , 48-C ) :   0.8761
B( 44-C , 45-C ) :   0.8747 B( 44-C , 52-C ) :   1.4164 B( 45-C , 46-O ) :   2.2305
B( 45-C , 47-N ) :   1.0657 B( 47-N , 48-C ) :   1.0654 B( 47-N , 50-C ) :   0.9153
B( 48-C , 49-O ) :   2.2287 B( 50-C , 51-C ) :   1.1195 B( 50-C , 94-H ) :   0.9464
B( 50-C , 95-H ) :   0.9410 B( 51-C , 96-H ) :   0.9703 B( 51-C , 97-H ) :   0.9700
B( 51-C , 98-H ) :   0.9688 B( 52-C , 53-C ) :   1.2957 B( 52-C , 99-H ) :   1.0068
B( 53-C , 54-C ) :   1.1093 B( 54-C , 55-C ) :   1.6804 B( 54-C ,100-H ) :   0.9443
B( 55-C , 56-C ) :   1.1263 B( 55-C ,101-H ) :   0.9622 B( 56-C , 57-C ) :   1.6743
B( 56-C ,102-H ) :   0.9276 B( 57-C , 58-C ) :   0.9411 B( 57-C , 72-C ) :   1.0257
B( 58-C , 59-O ) :   2.2754 B( 58-C , 60-C ) :   0.9169 B( 60-C , 61-C ) :   1.4612
B( 60-C , 71-C ) :   1.2230 B( 61-C , 62-C ) :   1.1914 B( 61-C ,103-H ) :   1.0179
B( 62-C , 63-C ) :   1.2590 B( 62-C , 67-C ) :   1.1920 B( 63-C , 64-C ) :   1.1916
B( 63-C , 70-C ) :   1.2275 B( 64-C , 65-C ) :   1.4425 B( 64-C , 67-C ) :   0.1095
B( 64-C ,104-H ) :   1.0043 B( 65-C , 66-C ) :   1.2039 B( 65-C , 69-F ) :   1.1133
B( 66-C , 67-C ) :   1.4536 B( 66-C , 68-F ) :   1.0884 B( 67-C ,105-H ) :   1.0028
B( 70-C , 71-C ) :   1.4528 B( 70-C ,106-H ) :   0.9804 B( 71-C , 72-C ) :   1.0036
B( 72-C , 73-C ) :   1.6400 B( 73-C , 74-C ) :   1.1765 B( 73-C , 76-C ) :   1.1352
B( 74-C , 75-N ) :   2.9893 B( 76-C , 77-N ) :   2.9374

-----------------------------------------------------------------------------
         ABSORPTION SPECTRUM VIA TRANSITION ELECTRIC DIPOLE MOMENTS
-----------------------------------------------------------------------------
State   Energy  Wavelength   fosc         T2         TX        TY        TZ
        (cm-1)    (nm)                  (au**2)     (au)      (au)      (au)
-----------------------------------------------------------------------------
   0   12752.6    784.2   0.197269772   5.09256   0.64456  -1.41226  -1.63787
   1   15793.5    633.2   0.836477131  17.43615   0.55876  -3.11837  -2.72024
   2   21761.7    459.5   0.229067067   3.46534   0.04639   1.85978   0.06644
   3   22570.6    443.1   0.047995108   0.70005  -0.65405   0.47184   0.22279
   4   23344.5    428.4   0.013904178   0.19608  -0.25478  -0.29528  -0.20971
   5   24127.6    414.5   0.020661704   0.28192   0.44628  -0.19258  -0.21370
   6   24793.6    403.3   0.234158021   3.10917   0.79555  -1.22847  -0.98343
   7   25493.4    392.3   0.042182974   0.54474   0.36952   0.58305   0.26125
   8   26035.6    384.1   0.023838223   0.30143  -0.11352   0.36697   0.39226
   9   26124.6    382.8   0.016817819   0.21193  -0.43760   0.05533   0.13181
  10   26723.8    374.2   0.042971481   0.52937   0.56069   0.13994   0.44205
  11   27061.5    369.5   0.009625217   0.11709  -0.09892   0.32754   0.00498
  12   27348.8    365.6   0.091071364   1.09627   0.54016  -0.72582  -0.52697
  13   27988.8    357.3   0.065474642   0.77013  -0.81622  -0.02111  -0.32167
  14   28379.7    352.4   0.026359764   0.30578   0.55011  -0.05613   0.00345
  15   28637.8    349.2   0.042719605   0.49109   0.30715  -0.50964  -0.37016
  16   29011.4    344.7   0.016778936   0.19040  -0.29073   0.12983  -0.29837
  17   29683.7    336.9   0.104591526   1.15999  -0.60010   0.89280   0.05268
  18   30141.2    331.8   0.007311866   0.07986  -0.01889  -0.27902  -0.04066
  19   30509.0    327.8   0.376292807   4.06044  -0.20569  -1.69575  -1.06891
  20   31372.8    318.7   0.017144044   0.17990  -0.05754  -0.27970  -0.31362
  21   31801.4    314.5   0.170073203   1.76062   0.66094   0.91317   0.69992
  22   32104.3    311.5   0.756537485   7.75788   0.72793  -2.34696  -1.31139
  23   32467.8    308.0   0.613929504   6.22502  -1.43145  -1.80202  -0.96369
  24   32677.0    306.0   0.011877879   0.11967   0.15209   0.14838   0.27298
  25   32876.5    304.2   0.125771550   1.25943  -0.61443  -0.54356  -0.76580
  26   33157.9    301.6   0.030596711   0.30378   0.17825  -0.35019  -0.38650
  27   33309.5    300.2   0.228249253   2.25588   0.35521  -1.02678  -1.03703
  28   33940.9    294.6   0.017185231   0.16669  -0.34388  -0.12615   0.18033
  29   33999.3    294.1   0.015878770   0.15375   0.16475  -0.31244  -0.17027
  30   34131.9    293.0   0.251933915   2.42997   0.76481  -0.94023  -0.98032
  31   34539.5    289.5   0.082590157   0.78720   0.57953  -0.66580  -0.08982
  32   34814.0    287.2   0.091070272   0.86119  -0.65039   0.43213   0.50145
  33   35113.9    284.8   0.008501421   0.07971   0.09473  -0.25848  -0.06262
  34   35186.6    284.2   0.021090335   0.19733   0.32352  -0.17145   0.25152
  35   35234.8    283.8   0.008023325   0.07496   0.00842  -0.27081   0.03945
  36   35415.0    282.4   0.085493894   0.79474   0.77349   0.39318   0.20458
  37   35782.8    279.5   0.087869776   0.80843   0.36630   0.73829   0.35941
  38   35919.5    278.4   0.015828085   0.14507  -0.11010   0.35597   0.07896
  39   36058.7    277.3   0.035245960   0.32179  -0.42391   0.28869   0.24238
  40   36152.2    276.6   0.039444493   0.35919   0.59109  -0.04171  -0.08978
  41   36424.7    274.5   0.008284355   0.07488   0.25435   0.09214   0.04112
  42   36439.0    274.4   0.019257010   0.17398   0.32247  -0.21759  -0.15049
  43   36771.2    272.0   0.006050036   0.05417  -0.02640   0.18983  -0.13204
  44   37096.8    269.6   0.027979897   0.24831   0.26772  -0.37183  -0.19590
  45   37392.3    267.4   0.020308871   0.17881  -0.30610   0.27702   0.09148
  46   37725.6    265.1   0.134276470   1.17176  -1.06533   0.09970   0.16402
  47   38182.9    261.9   0.036063377   0.31094  -0.09516   0.01586   0.54921
  48   38490.7    259.8   0.086354257   0.73859   0.74305   0.03794   0.43014
  49   38569.0    259.3   0.027595790   0.23555  -0.37966   0.27428   0.12718
  50   38797.4    257.7   0.039095252   0.33174   0.47804   0.31729   0.05044
  51   39096.8    255.8   0.091187430   0.76784   0.11599  -0.74239  -0.45082
  52   39253.9    254.8   0.075878363   0.63637  -0.11423   0.76461   0.19671
  53   39411.4    253.7   0.139411495   1.16454  -1.03551   0.27927   0.11940
  54   39739.3    251.6   0.012001491   0.09942   0.01964   0.21183   0.23274
  55   39773.6    251.4   0.035296081   0.29215   0.53205  -0.08872  -0.03471
  56   39816.3    251.2   0.018909886   0.15635  -0.38677   0.06192   0.05413
  57   39875.5    250.8   0.073722532   0.60865   0.76342  -0.09872  -0.12686
  58   40006.9    250.0   0.018285053   0.15047  -0.35538  -0.12444  -0.09318
  59   40123.7    249.2   0.010039027   0.08237  -0.26791  -0.03136   0.09802
  60   40310.3    248.1   0.011081185   0.09050   0.18340   0.19237   0.14091

FINAL SINGLE POINT ENERGY     -3898.217844059041

DIPOLE MOMENT
-------------
                                X             Y             Z
Electronic contribution:     -3.08411      74.48733      59.58915
Nuclear contribution   :      4.74143     -75.47745     -60.84351
                        -----------------------------------------
Total Dipole Moment    :      1.65733      -0.99013      -1.25436
                        -----------------------------------------
Magnitude (a.u.)       :      2.30228
Magnitude (Debye)      :      5.85194

Rotational constants in cm-1:     0.002136     0.000368     0.000340
Rotational constants in MHz :    64.039542    11.020204    10.189837

                             ****ORCA TERMINATED NORMALLY****
TOTAL RUN TIME: 0 days 0 hours 14 minutes 10 seconds 547 msec
