                         Program Version 4.2.0 -  RELEASE  -
|  1> # ORCA input file
|  2> # SCF done       -143.844643692022          0.000675575328
|  3> ! CAM-B3LYP def2-SVP def2/J RIJCOSX Grid4 TightSCF
|  4> %maxcore 5000
|  5> %tddft
|  6>     Mode sTDDFT
|  7>     Ethresh 5.0
|  8>     maxcore 5000
|  9> end
| 10>
| 11> %pal
| 12>   nprocs 6
| 13>   end
| 14> * xyz 0 1
| 15>    C       13.21856        -4.83962        -4.18563
| 16>    S       11.63283        -5.19974        -3.64060
| 17>    C       11.43958        -3.61266        -2.93852
| 18>    C       12.59058        -2.85434        -3.13918
| 19>    C       13.60188        -3.57053        -3.85591
| 20>    C       14.84859        -2.99858        -4.17018
| 21>    N       15.85556        -2.50657        -4.41117
| 22>    C       12.82188        -1.54086        -2.71992
| 23>    N       13.08353        -0.46583        -2.40530
| 24>    C       10.22631        -3.28450        -2.28801
| 25>    C        9.97988        -2.06895        -1.72645
| 26>    C        8.77791        -1.71438        -1.06978
| 27>    C        8.55310        -0.46318        -0.51452
| 28>    O        7.37558        -0.13942         0.11795
| 29>    C        6.43944        -1.12846         0.17166
| 30>    C        6.66839        -2.41418        -0.39694
| 31>    C        5.61593        -3.25422        -0.23658
| 32>    S        4.32695        -2.48535         0.61257
| 33>    C        5.21854        -1.01781         0.75178
| 34>    O        7.83461        -2.72625        -1.02640
| 35>    C        9.49989         0.58850        -0.54544
| 36>    C        9.30480         1.82959        -0.01565
| 37>    C       10.29074         2.82970        -0.08372
| 38>    S       11.83415         2.53872        -0.84207
| 39>    C       12.38822         4.15763        -0.51671
| 40>    C       11.39288         4.88124         0.15934
| 41>    C       10.23460         4.13782         0.39693
| 42>    S        8.77563         4.68442         1.21012
| 43>    C        8.98671         6.35364         1.74391
| 44>    O        8.06579         6.85364         2.33184
| 45>    C       10.23870         7.15854         1.49419
| 46>    O       10.30170         8.29250         1.88796
| 47>    S       11.65718         6.55168         0.63123
| 48>    C       13.66626         4.55611        -0.92693
| 49>    S       14.25789         6.18736        -0.67286
| 50>    C       15.80253         5.85134        -1.42809
| 51>    C       15.81680         4.52084        -1.83947
| 52>    C       14.64374         3.78472        -1.57630
| 53>    C       14.74972         2.44367        -2.03368
| 54>    C       15.94486         2.17658        -2.61448
| 55>    C       16.40006         0.89189        -3.19541
| 56>    S       17.01945         3.56675        -2.63503
| 57>    C       16.82073         6.79267        -1.57522
| 58>    C       16.78736         8.11049        -1.18077
| 59>    C       17.83105         9.05483        -1.34264
| 60>    C       17.54071        10.29791        -0.87072
| 61>    C       16.24780        10.40640        -0.30779
| 62>    S       15.41497         8.86412        -0.39989
| 63>    C       15.64492        11.51154         0.25077
| 64>    C       16.19359        12.81667         0.39638
| 65>    C       15.36264        13.70411         0.98663
| 66>    C       14.08505        13.16337         1.35434
| 67>    S       14.02136        11.45398         0.89629
| 68>    C       13.06480        13.79684         1.94920
| 69>    H       13.78963        -5.57367        -4.71871
| 70>    H        9.47142        -4.05600        -2.25070
| 71>    H       10.74636        -1.31718        -1.78119
| 72>    H        5.52459        -4.26822        -0.56442
| 73>    H        4.79859        -0.16743         1.24649
| 74>    H       10.44692         0.39834        -1.02333
| 75>    H        8.37460         2.07965         0.47370
| 76>    H       13.98164         1.69888        -1.94532
| 77>    H       17.26770         0.51126        -2.65749
| 78>    H       16.68896         1.01817        -4.23777
| 79>    H       15.60104         0.15722        -3.13788
| 80>    H       17.72447         6.43854        -2.05516
| 81>    H       18.76305         8.78073        -1.80480
| 82>    H       18.21579        11.13359        -0.91307
| 83>    H       17.18771        13.04737         0.05679
| 84>    H       15.59965        14.73469         1.18251
| 85>    H       13.14128        14.83705         2.21242
| 86>    H       12.14558        13.29076         2.18090
| 87> *
| 88>
| 89>                          ****END OF INPUT****

CARTESIAN COORDINATES (ANGSTROEM)
---------------------------------
  C     13.218560   -4.839620   -4.185630
  S     11.632830   -5.199740   -3.640600
  C     11.439580   -3.612660   -2.938520
  C     12.590580   -2.854340   -3.139180
  C     13.601880   -3.570530   -3.855910
  C     14.848590   -2.998580   -4.170180
  N     15.855560   -2.506570   -4.411170
  C     12.821880   -1.540860   -2.719920
  N     13.083530   -0.465830   -2.405300
  C     10.226310   -3.284500   -2.288010
  C      9.979880   -2.068950   -1.726450
  C      8.777910   -1.714380   -1.069780
  C      8.553100   -0.463180   -0.514520
  O      7.375580   -0.139420    0.117950
  C      6.439440   -1.128460    0.171660
  C      6.668390   -2.414180   -0.396940
  C      5.615930   -3.254220   -0.236580
  S      4.326950   -2.485350    0.612570
  C      5.218540   -1.017810    0.751780
  O      7.834610   -2.726250   -1.026400
  C      9.499890    0.588500   -0.545440
  C      9.304800    1.829590   -0.015650
  C     10.290740    2.829700   -0.083720
  S     11.834150    2.538720   -0.842070
  C     12.388220    4.157630   -0.516710
  C     11.392880    4.881240    0.159340
  C     10.234600    4.137820    0.396930
  S      8.775630    4.684420    1.210120
  C      8.986710    6.353640    1.743910
  O      8.065790    6.853640    2.331840
  C     10.238700    7.158540    1.494190
  O     10.301700    8.292500    1.887960
  S     11.657180    6.551680    0.631230
  C     13.666260    4.556110   -0.926930
  S     14.257890    6.187360   -0.672860
  C     15.802530    5.851340   -1.428090
  C     15.816800    4.520840   -1.839470
  C     14.643740    3.784720   -1.576300
  C     14.749720    2.443670   -2.033680
  C     15.944860    2.176580   -2.614480
  C     16.400060    0.891890   -3.195410
  S     17.019450    3.566750   -2.635030
  C     16.820730    6.792670   -1.575220
  C     16.787360    8.110490   -1.180770
  C     17.831050    9.054830   -1.342640
  C     17.540710   10.297910   -0.870720
  C     16.247800   10.406400   -0.307790
  S     15.414970    8.864120   -0.399890
  C     15.644920   11.511540    0.250770
  C     16.193590   12.816670    0.396380
  C     15.362640   13.704110    0.986630
  C     14.085050   13.163370    1.354340
  S     14.021360   11.453980    0.896290
  C     13.064800   13.796840    1.949200
  H     13.789630   -5.573670   -4.718710
  H      9.471420   -4.056000   -2.250700
  H     10.746360   -1.317180   -1.781190
  H      5.524590   -4.268220   -0.564420
  H      4.798590   -0.167430    1.246490
  H     10.446920    0.398340   -1.023330
  H      8.374600    2.079650    0.473700
  H     13.981640    1.698880   -1.945320
  H     17.267700    0.511260   -2.657490
  H     16.688960    1.018170   -4.237770
  H     15.601040    0.157220   -3.137880
  H     17.724470    6.438540   -2.055160
  H     18.763050    8.780730   -1.804800
  H     18.215790   11.133590   -0.913070
  H     17.187710   13.047370    0.056790
  H     15.599650   14.734690    1.182510
  H     13.141280   14.837050    2.212420
  H     12.145580   13.290760    2.180900

 Total Charge           Charge          ....    0
 Multiplicity           Mult            ....    1
 Number of Electrons    NEL             ....  442
 Basis Dimension        Dim             ....  882

ORBITAL ENERGIES
----------------

  NO   OCC          E(Eh)            E(eV)
   0   2.0000     -88.991253     -2421.5751
   1   2.0000     -88.962731     -2420.7990
   2   2.0000     -88.961743     -2420.7721
   3   2.0000     -88.961416     -2420.7632
   4   2.0000     -88.959743     -2420.7177
   5   2.0000     -88.955779     -2420.6098
   6   2.0000     -88.942475     -2420.2478
   7   2.0000     -88.939573     -2420.1688
   8   2.0000     -88.935957     -2420.0704
   9   2.0000     -19.285590      -524.7876
  10   2.0000     -19.279029      -524.6091
  11   2.0000     -19.232431      -523.3411
  12   2.0000     -19.230295      -523.2829
  13   2.0000     -14.426225      -392.5575
  14   2.0000     -14.418739      -392.3538
  15   2.0000     -10.397718      -282.9363
  16   2.0000     -10.395420      -282.8738
  17   2.0000     -10.363065      -281.9933
  18   2.0000     -10.350516      -281.6519
  19   2.0000     -10.345508      -281.5156
  20   2.0000     -10.345082      -281.5040
  21   2.0000     -10.344971      -281.5010
  22   2.0000     -10.336305      -281.2652
  23   2.0000     -10.332648      -281.1656
  24   2.0000     -10.328952      -281.0651
  25   2.0000     -10.328082      -281.0414
  26   2.0000     -10.324447      -280.9425
  27   2.0000     -10.323761      -280.9238
  28   2.0000     -10.318618      -280.7839
  29   2.0000     -10.316724      -280.7323
  30   2.0000     -10.309940      -280.5477
  31   2.0000     -10.307828      -280.4903
  32   2.0000     -10.305767      -280.4342
  33   2.0000     -10.305467      -280.4260
  34   2.0000     -10.304185      -280.3911
  35   2.0000     -10.303981      -280.3856
  36   2.0000     -10.303381      -280.3693
  37   2.0000     -10.301772      -280.3255
  38   2.0000     -10.298893      -280.2471
  39   2.0000     -10.297705      -280.2148
  40   2.0000     -10.295741      -280.1613
  41   2.0000     -10.295675      -280.1596
  42   2.0000     -10.294615      -280.1307
  43   2.0000     -10.289463      -279.9905
  44   2.0000     -10.287808      -279.9455
  45   2.0000     -10.285412      -279.8803
  46   2.0000     -10.284393      -279.8525
  47   2.0000     -10.284344      -279.8512
  48   2.0000     -10.281166      -279.7647
  49   2.0000     -10.280444      -279.7451
  50   2.0000     -10.278286      -279.6864
  51   2.0000     -10.269155      -279.4379
  52   2.0000     -10.256925      -279.1051
  53   2.0000     -10.255581      -279.0685
  54   2.0000      -8.087112      -220.0615
  55   2.0000      -8.059348      -219.3060
  56   2.0000      -8.057518      -219.2562
  57   2.0000      -8.055967      -219.2140
  58   2.0000      -8.055850      -219.2108
  59   2.0000      -8.049952      -219.0503
  60   2.0000      -8.038536      -218.7397
  61   2.0000      -8.035635      -218.6607
  62   2.0000      -8.032812      -218.5839
  63   2.0000      -6.056346      -164.8016
  64   2.0000      -6.051986      -164.6829
  65   2.0000      -6.049457      -164.6141
  66   2.0000      -6.029144      -164.0614
  67   2.0000      -6.027015      -164.0034
  68   2.0000      -6.025850      -163.9717
  69   2.0000      -6.025348      -163.9581
  70   2.0000      -6.024582      -163.9372
  71   2.0000      -6.022837      -163.8897
  72   2.0000      -6.021320      -163.8484
  73   2.0000      -6.021195      -163.8451
  74   2.0000      -6.020311      -163.8210
  75   2.0000      -6.019504      -163.7990
  76   2.0000      -6.019209      -163.7910
  77   2.0000      -6.017470      -163.7437
  78   2.0000      -6.016834      -163.7264
  79   2.0000      -6.015199      -163.6819
  80   2.0000      -6.011755      -163.5882
  81   2.0000      -6.008329      -163.4949
  82   2.0000      -6.005296      -163.4124
  83   2.0000      -6.004149      -163.3812
  84   2.0000      -6.002607      -163.3392
  85   2.0000      -6.001108      -163.2985
  86   2.0000      -5.999432      -163.2528
  87   2.0000      -5.998647      -163.2315
  88   2.0000      -5.996972      -163.1859
  89   2.0000      -5.993349      -163.0873
  90   2.0000      -1.208588       -32.8874
  91   2.0000      -1.171351       -31.8741
  92   2.0000      -1.169034       -31.8110
  93   2.0000      -1.136503       -30.9258
  94   2.0000      -1.031729       -28.0748
  95   2.0000      -1.012795       -27.5595
  96   2.0000      -1.004743       -27.3404
  97   2.0000      -0.996911       -27.1273
  98   2.0000      -0.995737       -27.0954
  99   2.0000      -0.991320       -26.9752
 100   2.0000      -0.988967       -26.9112
 101   2.0000      -0.967664       -26.3315
 102   2.0000      -0.940394       -25.5894
 103   2.0000      -0.935886       -25.4668
 104   2.0000      -0.925863       -25.1940
 105   2.0000      -0.917714       -24.9723
 106   2.0000      -0.902249       -24.5514
 107   2.0000      -0.890488       -24.2314
 108   2.0000      -0.887350       -24.1460
 109   2.0000      -0.875192       -23.8152
 110   2.0000      -0.866440       -23.5770
 111   2.0000      -0.848803       -23.0971
 112   2.0000      -0.843361       -22.9490
 113   2.0000      -0.840832       -22.8802
 114   2.0000      -0.831663       -22.6307
 115   2.0000      -0.827470       -22.5166
 116   2.0000      -0.820348       -22.3228
 117   2.0000      -0.819036       -22.2871
 118   2.0000      -0.815741       -22.1974
 119   2.0000      -0.806024       -21.9330
 120   2.0000      -0.790917       -21.5219
 121   2.0000      -0.771034       -20.9809
 122   2.0000      -0.760933       -20.7060
 123   2.0000      -0.752280       -20.4706
 124   2.0000      -0.742797       -20.2125
 125   2.0000      -0.735228       -20.0066
 126   2.0000      -0.724378       -19.7113
 127   2.0000      -0.715487       -19.4694
 128   2.0000      -0.707284       -19.2462
 129   2.0000      -0.694365       -18.8946
 130   2.0000      -0.691175       -18.8078
 131   2.0000      -0.683239       -18.5919
 132   2.0000      -0.675843       -18.3906
 133   2.0000      -0.667935       -18.1754
 134   2.0000      -0.641187       -17.4476
 135   2.0000      -0.639788       -17.4095
 136   2.0000      -0.635555       -17.2943
 137   2.0000      -0.630247       -17.1499
 138   2.0000      -0.624980       -17.0066
 139   2.0000      -0.622045       -16.9267
 140   2.0000      -0.611050       -16.6275
 141   2.0000      -0.601869       -16.3777
 142   2.0000      -0.598742       -16.2926
 143   2.0000      -0.595137       -16.1945
 144   2.0000      -0.592118       -16.1123
 145   2.0000      -0.591061       -16.0836
 146   2.0000      -0.574283       -15.6270
 147   2.0000      -0.573069       -15.5940
 148   2.0000      -0.565039       -15.3755
 149   2.0000      -0.563998       -15.3472
 150   2.0000      -0.553300       -15.0561
 151   2.0000      -0.549858       -14.9624
 152   2.0000      -0.546580       -14.8732
 153   2.0000      -0.542689       -14.7673
 154   2.0000      -0.538058       -14.6413
 155   2.0000      -0.534225       -14.5370
 156   2.0000      -0.531374       -14.4594
 157   2.0000      -0.524611       -14.2754
 158   2.0000      -0.523567       -14.2470
 159   2.0000      -0.514534       -14.0012
 160   2.0000      -0.513682       -13.9780
 161   2.0000      -0.510255       -13.8847
 162   2.0000      -0.507773       -13.8172
 163   2.0000      -0.505980       -13.7684
 164   2.0000      -0.503370       -13.6974
 165   2.0000      -0.500859       -13.6291
 166   2.0000      -0.499026       -13.5792
 167   2.0000      -0.498773       -13.5723
 168   2.0000      -0.493214       -13.4210
 169   2.0000      -0.490769       -13.3545
 170   2.0000      -0.486252       -13.2316
 171   2.0000      -0.485187       -13.2026
 172   2.0000      -0.479326       -13.0431
 173   2.0000      -0.478487       -13.0203
 174   2.0000      -0.475236       -12.9318
 175   2.0000      -0.473368       -12.8810
 176   2.0000      -0.472836       -12.8665
 177   2.0000      -0.470961       -12.8155
 178   2.0000      -0.466213       -12.6863
 179   2.0000      -0.461650       -12.5621
 180   2.0000      -0.457327       -12.4445
 181   2.0000      -0.456734       -12.4284
 182   2.0000      -0.456047       -12.4097
 183   2.0000      -0.453092       -12.3293
 184   2.0000      -0.448189       -12.1958
 185   2.0000      -0.447443       -12.1755
 186   2.0000      -0.444416       -12.0932
 187   2.0000      -0.437256       -11.8983
 188   2.0000      -0.435422       -11.8484
 189   2.0000      -0.433094       -11.7851
 190   2.0000      -0.427772       -11.6403
 191   2.0000      -0.426067       -11.5939
 192   2.0000      -0.422610       -11.4998
 193   2.0000      -0.420978       -11.4554
 194   2.0000      -0.419726       -11.4213
 195   2.0000      -0.415940       -11.3183
 196   2.0000      -0.410905       -11.1813
 197   2.0000      -0.406593       -11.0640
 198   2.0000      -0.405690       -11.0394
 199   2.0000      -0.399468       -10.8701
 200   2.0000      -0.398651       -10.8478
 201   2.0000      -0.397418       -10.8143
 202   2.0000      -0.381898       -10.3920
 203   2.0000      -0.378440       -10.2979
 204   2.0000      -0.377144       -10.2626
 205   2.0000      -0.371438       -10.1073
 206   2.0000      -0.355703        -9.6792
 207   2.0000      -0.344512        -9.3746
 208   2.0000      -0.343731        -9.3534
 209   2.0000      -0.335383        -9.1262
 210   2.0000      -0.330082        -8.9820
 211   2.0000      -0.324648        -8.8341
 212   2.0000      -0.316286        -8.6066
 213   2.0000      -0.312071        -8.4919
 214   2.0000      -0.300505        -8.1772
 215   2.0000      -0.296437        -8.0665
 216   2.0000      -0.291945        -7.9442
 217   2.0000      -0.288498        -7.8504
 218   2.0000      -0.261050        -7.1035
 219   2.0000      -0.238777        -6.4974
 220   2.0000      -0.200920        -5.4673
 221   0.0000      -0.087743        -2.3876
 222   0.0000      -0.064457        -1.7540
 223   0.0000      -0.048783        -1.3275
 224   0.0000      -0.028535        -0.7765
 225   0.0000      -0.014250        -0.3878

MULLIKEN ATOMIC CHARGES
-----------------------
   0 C :   -0.088213
   1 S :    0.171434
   2 C :   -0.093978
   3 C :   -0.016741
   4 C :   -0.049569
   5 C :   -0.189420
   6 N :    0.179641
   7 C :   -0.229076
   8 N :    0.186937
   9 C :    0.039119
  10 C :   -0.046719
  11 C :    0.161027
  12 C :    0.208498
  13 O :   -0.246042
  14 C :    0.211712
  15 C :    0.229555
  16 C :   -0.176523
  17 S :    0.115908
  18 C :   -0.169673
  19 O :   -0.260394
  20 C :   -0.108799
  21 C :    0.035226
  22 C :   -0.091775
  23 S :    0.098448
  24 C :   -0.059780
  25 C :   -0.058888
  26 C :   -0.014490
  27 S :    0.078826
  28 C :    0.076644
  29 O :   -0.134678
  30 C :    0.091431
  31 O :   -0.136326
  32 S :    0.072506
  33 C :   -0.106590
  34 S :    0.086395
  35 C :   -0.079128
  36 C :   -0.052226
  37 C :    0.111955
  38 C :   -0.016699
  39 C :   -0.210539
  40 C :    0.131621
  41 S :    0.103416
  42 C :   -0.031709
  43 C :   -0.026948
  44 C :    0.031045
  45 C :    0.028795
  46 C :   -0.036706
  47 S :    0.067531
  48 C :   -0.063490
  49 C :    0.028184
  50 C :    0.057669
  51 C :   -0.072327
  52 S :    0.099486
  53 C :   -0.020798
  54 H :    0.041288
  55 H :   -0.008837
  56 H :   -0.009605
  57 H :    0.024209
  58 H :    0.029514
  59 H :    0.020775
  60 H :    0.014182
  61 H :   -0.008684
  62 H :    0.033202
  63 H :    0.032511
  64 H :    0.026022
  65 H :   -0.012939
  66 H :   -0.013224
  67 H :   -0.013796
  68 H :   -0.011851
  69 H :   -0.010078
  70 H :    0.021377
  71 H :    0.031172
Sum of atomic charges:   -0.0000000

LOEWDIN ATOMIC CHARGES
----------------------
   0 C :   -0.150232
   1 S :    0.482590
   2 C :   -0.117486
   3 C :   -0.114952
   4 C :   -0.082708
   5 C :   -0.027341
   6 N :   -0.040259
   7 C :   -0.009181
   8 N :   -0.060064
   9 C :   -0.071163
  10 C :    0.000748
  11 C :    0.005964
  12 C :    0.056767
  13 O :   -0.043557
  14 C :   -0.010410
  15 C :   -0.007044
  16 C :   -0.211001
  17 S :    0.441846
  18 C :   -0.205547
  19 O :   -0.058444
  20 C :   -0.065739
  21 C :   -0.015082
  22 C :   -0.204827
  23 S :    0.479586
  24 C :   -0.170594
  25 C :   -0.243192
  26 C :   -0.203484
  27 S :    0.388219
  28 C :   -0.112546
  29 O :   -0.108604
  30 C :   -0.113973
  31 O :   -0.109233
  32 S :    0.389060
  33 C :   -0.216098
  34 S :    0.431538
  35 C :   -0.177882
  36 C :   -0.195397
  37 C :   -0.061905
  38 C :   -0.085634
  39 C :   -0.128119
  40 C :   -0.058385
  41 S :    0.381156
  42 C :   -0.083682
  43 C :   -0.145884
  44 C :   -0.036970
  45 C :   -0.032540
  46 C :   -0.185800
  47 S :    0.375627
  48 C :   -0.169282
  49 C :   -0.028276
  50 C :   -0.025393
  51 C :   -0.141391
  52 S :    0.367274
  53 C :   -0.065403
  54 H :    0.037682
  55 H :    0.031862
  56 H :    0.038315
  57 H :    0.029091
  58 H :    0.031310
  59 H :    0.026850
  60 H :    0.033499
  61 H :    0.017179
  62 H :    0.039697
  63 H :    0.039379
  64 H :    0.041017
  65 H :    0.037592
  66 H :    0.033328
  67 H :    0.031382
  68 H :    0.032389
  69 H :    0.034003
  70 H :    0.029445
  71 H :    0.030315

  Mayer bond orders larger than 0.100000
B(  0-C ,  1-S ) :   1.1577 B(  0-C ,  4-C ) :   1.5663 B(  0-C , 54-H ) :   0.9741
B(  1-S ,  2-C ) :   1.1489 B(  2-C ,  3-C ) :   1.4494 B(  2-C ,  9-C ) :   1.1481
B(  3-C ,  4-C ) :   1.3034 B(  3-C ,  7-C ) :   1.1534 B(  4-C ,  5-C ) :   1.1276
B(  5-C ,  6-N ) :   3.0109 B(  7-C ,  8-N ) :   2.9163 B(  9-C , 10-C ) :   1.6157
B(  9-C , 55-H ) :   0.9599 B( 10-C , 11-C ) :   1.2404 B( 10-C , 56-H ) :   0.9372
B( 11-C , 12-C ) :   1.3890 B( 11-C , 19-O ) :   1.0607 B( 12-C , 13-O ) :   1.0924
B( 12-C , 20-C ) :   1.2166 B( 13-O , 14-C ) :   1.0426 B( 14-C , 15-C ) :   1.2043
B( 14-C , 18-C ) :   1.5706 B( 15-C , 16-C ) :   1.5686 B( 15-C , 19-O ) :   1.0507
B( 16-C , 17-S ) :   1.1431 B( 16-C , 57-H ) :   0.9722 B( 17-S , 18-C ) :   1.1486
B( 18-C , 58-H ) :   0.9725 B( 20-C , 21-C ) :   1.5941 B( 20-C , 59-H ) :   0.9529
B( 21-C , 22-C ) :   1.1842 B( 21-C , 60-H ) :   0.9732 B( 22-C , 23-S ) :   1.0827
B( 22-C , 26-C ) :   1.5004 B( 23-S , 24-C ) :   1.1364 B( 24-C , 25-C ) :   1.4698
B( 24-C , 33-C ) :   1.2605 B( 25-C , 26-C ) :   1.3353 B( 25-C , 32-S ) :   0.9568
B( 26-C , 27-S ) :   0.9694 B( 27-S , 28-C ) :   1.0541 B( 27-S , 29-O ) :   0.1399
B( 28-C , 29-O ) :   2.1540 B( 28-C , 30-C ) :   0.7735 B( 30-C , 31-O ) :   2.1530
B( 30-C , 32-S ) :   1.0683 B( 31-O , 32-S ) :   0.1396 B( 33-C , 34-S ) :   1.0811
B( 33-C , 37-C ) :   1.3294 B( 34-S , 35-C ) :   1.0981 B( 35-C , 36-C ) :   1.4171
B( 35-C , 42-C ) :   1.2289 B( 36-C , 37-C ) :   1.2993 B( 36-C , 41-S ) :   1.0471
B( 37-C , 38-C ) :   1.1340 B( 38-C , 39-C ) :   1.6729 B( 38-C , 61-H ) :   0.9733
B( 39-C , 40-C ) :   1.0621 B( 39-C , 41-S ) :   1.0810 B( 40-C , 62-H ) :   0.9443
B( 40-C , 63-H ) :   0.9451 B( 40-C , 64-H ) :   0.9523 B( 42-C , 43-C ) :   1.5346
B( 42-C , 65-H ) :   0.9683 B( 43-C , 44-C ) :   1.1518 B( 43-C , 47-S ) :   1.0512
B( 44-C , 45-C ) :   1.5899 B( 44-C , 66-H ) :   0.9999 B( 45-C , 46-C ) :   1.1801
B( 45-C , 67-H ) :   0.9924 B( 46-C , 47-S ) :   1.0313 B( 46-C , 48-C ) :   1.5408
B( 48-C , 49-C ) :   1.1550 B( 48-C , 52-S ) :   1.0573 B( 49-C , 50-C ) :   1.6589
B( 49-C , 68-H ) :   0.9917 B( 50-C , 51-C ) :   1.0801 B( 50-C , 69-H ) :   0.9926
B( 51-C , 52-S ) :   1.0088 B( 51-C , 53-C ) :   1.8637 B( 53-C , 70-H ) :   0.9508
B( 53-C , 71-H ) :   0.9405

-----------------------------------------------------------------------------
         ABSORPTION SPECTRUM VIA TRANSITION ELECTRIC DIPOLE MOMENTS
-----------------------------------------------------------------------------
State   Energy  Wavelength   fosc         T2         TX        TY        TZ
        (cm-1)    (nm)                  (au**2)     (au)      (au)      (au)
-----------------------------------------------------------------------------
   0   11344.9    881.5   1.192932032  34.61708   2.06575   5.44038   0.86719
   1   16853.9    593.3   0.031845922   0.62206  -0.51494  -0.55748   0.21473
   2   18114.3    552.1   0.147828093   2.68666   0.06540  -1.56601  -0.47957
   3   19249.3    519.5   0.012520114   0.21413  -0.17072   0.31027   0.29784
   4   22610.7    442.3   0.149766604   2.18061  -0.77037   1.05023   0.69581
   5   24712.4    404.7   1.271789074  16.94243  -3.31850   1.57741   1.85521
   6   25424.6    393.3   0.106547429   1.37963  -1.03590   0.23770   0.50005
   7   27088.5    369.2   0.110116241   1.33826   0.77498  -0.67545  -0.53051
   8   27954.2    357.7   0.067856694   0.79914   0.28094   0.83056   0.17427
   9   28664.2    348.9   0.085936342   0.98699  -0.18915  -0.94300  -0.24891
  10   29313.1    341.1   0.019763872   0.22197  -0.36608   0.21314   0.20621
  11   29417.0    339.9   0.000193114   0.00216  -0.03261   0.02945   0.01517
  12   29568.5    338.2   0.003570733   0.03976  -0.01771  -0.19417  -0.04173
  13   29799.2    335.6   0.019276904   0.21296  -0.24921   0.33531   0.19603
  14   29891.9    334.5   0.000340656   0.00375  -0.00380   0.00222  -0.06109
  15   30151.9    331.7   0.328671235   3.58858  -0.81859   1.47862   0.85568
  16   31174.1    320.8   0.331025877   3.49578  -1.70848   0.01838   0.75931
  17   32336.9    309.2   0.067345521   0.68562  -0.22424   0.71353   0.35528
  18   32679.6    306.0   0.069008693   0.69519  -0.08738  -0.79798  -0.22535
  19   33016.2    302.9   0.040149289   0.40034   0.26455  -0.50224  -0.27948
  20   33156.4    301.6   0.048834945   0.48488   0.64469   0.13444  -0.22624
  21   34048.2    293.7   0.064840029   0.62694   0.63139  -0.29119  -0.37880
  22   34646.4    288.6   0.029733580   0.28253   0.08880   0.50103   0.15365
  23   35179.9    284.3   0.064804141   0.60643   0.15359   0.74209   0.17928
  24   35583.5    281.0   0.003683963   0.03408   0.16374  -0.01239  -0.08438
  25   35698.4    280.1   0.039318670   0.36260  -0.55305  -0.10416   0.21420
  26   35824.0    279.1   0.134055440   1.23193  -0.23854  -1.05757  -0.23787
  27   36056.3    277.3   0.074893515   0.68381   0.36179   0.73714   0.09774
  28   36131.3    276.8   0.054470162   0.49631  -0.31968   0.54173   0.31723
  29   36565.8    273.5   0.005777857   0.05202  -0.03228   0.21040   0.08192
  30   36979.8    270.4   0.000608236   0.00541   0.07075   0.01711  -0.01082
  31   37479.1    266.8   0.000034001   0.00030  -0.00445  -0.01017   0.01324
  32   37612.9    265.9   0.006133097   0.05368   0.20555   0.09457  -0.04986
  33   38056.0    262.8   0.000626661   0.00542   0.00574  -0.03947   0.06189
  34   38287.8    261.2   0.068872057   0.59219  -0.41896   0.55155   0.33535
  35   38613.0    259.0   0.002865308   0.02443   0.09083  -0.08592  -0.09379
  36   38738.2    258.1   0.002536367   0.02156   0.11582  -0.06840  -0.05884
  37   39641.4    252.3   0.011001864   0.09137   0.14648  -0.21710  -0.15093
  38   40263.8    248.4   0.000043878   0.00036   0.00151  -0.01821   0.00499

FINAL SINGLE POINT ENERGY     -5487.480455386592

DIPOLE MOMENT
-------------
                                X             Y             Z
Electronic contribution:    -18.73089     -11.92729       4.63406
Nuclear contribution   :     19.03671      10.33782      -5.47066
                        -----------------------------------------
Total Dipole Moment    :      0.30582      -1.58947      -0.83660
                        -----------------------------------------
Magnitude (a.u.)       :      1.82204
Magnitude (Debye)      :      4.63126

Rotational constants in cm-1:     0.001799     0.000594     0.000447
Rotational constants in MHz :    53.921654    17.821400    13.405337

                             ****ORCA TERMINATED NORMALLY****
TOTAL RUN TIME: 0 days 0 hours 5 minutes 19 seconds 967 msec
