                         Program Version 4.2.0 -  RELEASE  -
|  1> # ORCA input file
|  2> # SCF done       -124.158121838916          0.000672650534
|  3> ! CAM-B3LYP def2-SVP def2/J RIJCOSX Grid4 TightSCF
|  4> %maxcore 5000
|  5> %tddft
|  6>     Mode sTDDFT
|  7>     Ethresh 5.0
|  8>     maxcore 5000
|  9> end
| 10>
| 11> %pal
| 12>   nprocs 6
| 13>   end
| 14> * xyz 0 1
| 15>    C       -5.68826         2.41220         2.62249
| 16>    O       -6.92563         2.01582         2.94931
| 17>    C       -7.29860         1.09082         2.04685
| 18>    C       -6.31399         0.88356         1.13754
| 19>    C       -5.23913         1.75129         1.50390
| 20>    C       -3.98388         1.87172         0.81397
| 21>    C       -2.97901         2.69482         1.16542
| 22>    C       -1.75169         2.79280         0.43979
| 23>    C       -0.75967         3.63336         0.79109
| 24>    C        0.48975         3.79588         0.09418
| 25>    C        0.88966         3.09611        -1.01365
| 26>    S        2.43208         3.57256        -1.59496
| 27>    C        2.57432         4.74625        -0.36696
| 28>    C        1.48870         4.76541         0.46505
| 29>    C        1.41431         5.65901         1.61816
| 30>    O        0.69173         5.55764         2.57528
| 31>    O        2.28954         6.70352         1.47591
| 32>    C        2.51015         7.47155         2.58543
| 33>    C        2.29861         8.81297         2.63362
| 34>    S        2.70327         9.46299         4.17241
| 35>    C        3.14003         7.93156         4.77085
| 36>    C        3.00116         6.94712         3.82553
| 37>    C        3.34294         5.54273         4.01739
| 38>    O        3.41081         4.70065         3.15519
| 39>    O        3.62064         5.30203         5.33116
| 40>    C        3.97291         4.09739         5.79487
| 41>    C        4.36384         3.81453         7.07812
| 42>    C        4.64801         2.40388         7.16248
| 43>    C        4.40364         1.84083         5.84684
| 44>    O        4.48710         0.72020         5.39328
| 45>    N        3.99706         2.93952         5.07374
| 46>    C        5.03256         2.16429         8.46828
| 47>    O        4.99520         3.33612         9.17615
| 48>    C        4.59361         4.39824         8.37594
| 49>    O        4.50398         5.51712         8.79743
| 50>    C        5.44185         1.04600         9.23882
| 51>    O        5.66513         1.30593        10.55675
| 52>    C        6.04869         0.16993        11.13360
| 53>    C        6.09545        -0.85095        10.23669
| 54>    C        5.70366        -0.30979         8.98023
| 55>    C        5.61018        -0.99713         7.73240
| 56>    C        5.95010        -2.29156         7.56115
| 57>    C        5.86735        -3.01921         6.31876
| 58>    C        5.39962        -2.54570         5.16254
| 59>    H       -5.23322         3.15586         3.24534
| 60>    H       -8.27446         0.66167         2.15929
| 61>    H       -6.33140         0.20653         0.30819
| 62>    H       -3.87108         1.23780        -0.05650
| 63>    H       -3.08182         3.32991         2.03411
| 64>    H       -1.65143         2.15608        -0.42917
| 65>    H       -0.88336         4.25528         1.66556
| 66>    H        0.36565         2.31420        -1.52444
| 67>    H        3.45563         5.35139        -0.29674
| 68>    H        1.93386         9.44556         1.85018
| 69>    H        3.49019         7.81544         5.77760
| 70>    H        3.75887         2.88882         4.09033
| 71>    H        6.26172         0.20279        12.18487
| 72>    H        6.37001        -1.86397        10.44310
| 73>    H        5.24641        -0.42451         6.89683
| 74>    H        6.32580        -2.85856         8.40314
| 75>    H        6.22158        -4.04243         6.36385
| 76>    H        5.02893        -1.54183         5.05588
| 77>    H        5.37528        -3.16411         4.28116
| 78> *
| 79>
| 80>                          ****END OF INPUT****

CARTESIAN COORDINATES (ANGSTROEM)
---------------------------------
  C     -5.688260    2.412200    2.622490
  O     -6.925630    2.015820    2.949310
  C     -7.298600    1.090820    2.046850
  C     -6.313990    0.883560    1.137540
  C     -5.239130    1.751290    1.503900
  C     -3.983880    1.871720    0.813970
  C     -2.979010    2.694820    1.165420
  C     -1.751690    2.792800    0.439790
  C     -0.759670    3.633360    0.791090
  C      0.489750    3.795880    0.094180
  C      0.889660    3.096110   -1.013650
  S      2.432080    3.572560   -1.594960
  C      2.574320    4.746250   -0.366960
  C      1.488700    4.765410    0.465050
  C      1.414310    5.659010    1.618160
  O      0.691730    5.557640    2.575280
  O      2.289540    6.703520    1.475910
  C      2.510150    7.471550    2.585430
  C      2.298610    8.812970    2.633620
  S      2.703270    9.462990    4.172410
  C      3.140030    7.931560    4.770850
  C      3.001160    6.947120    3.825530
  C      3.342940    5.542730    4.017390
  O      3.410810    4.700650    3.155190
  O      3.620640    5.302030    5.331160
  C      3.972910    4.097390    5.794870
  C      4.363840    3.814530    7.078120
  C      4.648010    2.403880    7.162480
  C      4.403640    1.840830    5.846840
  O      4.487100    0.720200    5.393280
  N      3.997060    2.939520    5.073740
  C      5.032560    2.164290    8.468280
  O      4.995200    3.336120    9.176150
  C      4.593610    4.398240    8.375940
  O      4.503980    5.517120    8.797430
  C      5.441850    1.046000    9.238820
  O      5.665130    1.305930   10.556750
  C      6.048690    0.169930   11.133600
  C      6.095450   -0.850950   10.236690
  C      5.703660   -0.309790    8.980230
  C      5.610180   -0.997130    7.732400
  C      5.950100   -2.291560    7.561150
  C      5.867350   -3.019210    6.318760
  C      5.399620   -2.545700    5.162540
  H     -5.233220    3.155860    3.245340
  H     -8.274460    0.661670    2.159290
  H     -6.331400    0.206530    0.308190
  H     -3.871080    1.237800   -0.056500
  H     -3.081820    3.329910    2.034110
  H     -1.651430    2.156080   -0.429170
  H     -0.883360    4.255280    1.665560
  H      0.365650    2.314200   -1.524440
  H      3.455630    5.351390   -0.296740
  H      1.933860    9.445560    1.850180
  H      3.490190    7.815440    5.777600
  H      3.758870    2.888820    4.090330
  H      6.261720    0.202790   12.184870
  H      6.370010   -1.863970   10.443100
  H      5.246410   -0.424510    6.896830
  H      6.325800   -2.858560    8.403140
  H      6.221580   -4.042430    6.363850
  H      5.028930   -1.541830    5.055880
  H      5.375280   -3.164110    4.281160

 Total Charge           Charge          ....    0
 Multiplicity           Mult            ....    1
 Number of Electrons    NEL             ....  322
 Basis Dimension        Dim             ....  719

ORBITAL ENERGIES
----------------

  NO   OCC          E(Eh)            E(eV)
   0   2.0000     -88.981330     -2421.3051
   1   2.0000     -88.964487     -2420.8468
   2   2.0000     -19.315880      -525.6118
   3   2.0000     -19.290940      -524.9332
   4   2.0000     -19.280283      -524.6432
   5   2.0000     -19.278597      -524.5973
   6   2.0000     -19.269678      -524.3546
   7   2.0000     -19.242961      -523.6276
   8   2.0000     -19.213690      -522.8311
   9   2.0000     -19.196474      -522.3626
  10   2.0000     -19.193644      -522.2856
  11   2.0000     -14.460940      -393.5022
  12   2.0000     -10.443170      -284.1731
  13   2.0000     -10.413590      -283.3682
  14   2.0000     -10.406579      -283.1774
  15   2.0000     -10.396446      -282.9017
  16   2.0000     -10.387949      -282.6705
  17   2.0000     -10.369362      -282.1647
  18   2.0000     -10.355080      -281.7761
  19   2.0000     -10.335214      -281.2355
  20   2.0000     -10.333593      -281.1914
  21   2.0000     -10.324402      -280.9413
  22   2.0000     -10.309625      -280.5392
  23   2.0000     -10.309392      -280.5328
  24   2.0000     -10.307691      -280.4865
  25   2.0000     -10.305559      -280.4285
  26   2.0000     -10.304627      -280.4032
  27   2.0000     -10.292091      -280.0620
  28   2.0000     -10.291557      -280.0475
  29   2.0000     -10.284960      -279.8680
  30   2.0000     -10.284759      -279.8625
  31   2.0000     -10.277008      -279.6516
  32   2.0000     -10.271603      -279.5045
  33   2.0000     -10.269925      -279.4589
  34   2.0000     -10.268567      -279.4219
  35   2.0000     -10.267882      -279.4033
  36   2.0000     -10.265983      -279.3516
  37   2.0000     -10.263759      -279.2911
  38   2.0000     -10.262652      -279.2610
  39   2.0000     -10.261332      -279.2250
  40   2.0000     -10.259241      -279.1681
  41   2.0000     -10.258185      -279.1394
  42   2.0000     -10.257797      -279.1289
  43   2.0000     -10.249528      -278.9038
  44   2.0000      -8.077351      -219.7959
  45   2.0000      -8.060683      -219.3423
  46   2.0000      -6.046511      -164.5339
  47   2.0000      -6.042065      -164.4130
  48   2.0000      -6.039968      -164.3559
  49   2.0000      -6.029760      -164.0781
  50   2.0000      -6.025315      -163.9571
  51   2.0000      -6.023513      -163.9081
  52   2.0000      -1.247715       -33.9521
  53   2.0000      -1.217640       -33.1337
  54   2.0000      -1.209825       -32.9210
  55   2.0000      -1.198426       -32.6108
  56   2.0000      -1.197378       -32.5823
  57   2.0000      -1.147667       -31.2296
  58   2.0000      -1.134671       -30.8760
  59   2.0000      -1.113903       -30.3109
  60   2.0000      -1.104276       -30.0489
  61   2.0000      -1.059879       -28.8408
  62   2.0000      -1.004562       -27.3355
  63   2.0000      -0.988211       -26.8906
  64   2.0000      -0.923300       -25.1243
  65   2.0000      -0.911596       -24.8058
  66   2.0000      -0.907889       -24.7049
  67   2.0000      -0.891788       -24.2668
  68   2.0000      -0.887208       -24.1422
  69   2.0000      -0.883934       -24.0531
  70   2.0000      -0.875466       -23.8226
  71   2.0000      -0.871557       -23.7163
  72   2.0000      -0.850676       -23.1481
  73   2.0000      -0.831224       -22.6187
  74   2.0000      -0.827160       -22.5082
  75   2.0000      -0.822164       -22.3722
  76   2.0000      -0.808288       -21.9946
  77   2.0000      -0.787083       -21.4176
  78   2.0000      -0.785006       -21.3611
  79   2.0000      -0.757195       -20.6043
  80   2.0000      -0.745133       -20.2761
  81   2.0000      -0.736820       -20.0499
  82   2.0000      -0.722394       -19.6573
  83   2.0000      -0.711666       -19.3654
  84   2.0000      -0.700338       -19.0572
  85   2.0000      -0.694957       -18.9107
  86   2.0000      -0.680245       -18.5104
  87   2.0000      -0.675960       -18.3938
  88   2.0000      -0.667171       -18.1547
  89   2.0000      -0.662727       -18.0337
  90   2.0000      -0.658174       -17.9098
  91   2.0000      -0.655631       -17.8406
  92   2.0000      -0.639950       -17.4139
  93   2.0000      -0.625965       -17.0334
  94   2.0000      -0.624632       -16.9971
  95   2.0000      -0.611952       -16.6521
  96   2.0000      -0.606788       -16.5115
  97   2.0000      -0.604162       -16.4401
  98   2.0000      -0.599843       -16.3226
  99   2.0000      -0.591597       -16.0982
 100   2.0000      -0.584870       -15.9151
 101   2.0000      -0.581941       -15.8354
 102   2.0000      -0.577796       -15.7226
 103   2.0000      -0.571155       -15.5419
 104   2.0000      -0.567732       -15.4488
 105   2.0000      -0.559720       -15.2307
 106   2.0000      -0.553000       -15.0479
 107   2.0000      -0.546558       -14.8726
 108   2.0000      -0.546263       -14.8646
 109   2.0000      -0.541474       -14.7343
 110   2.0000      -0.537279       -14.6201
 111   2.0000      -0.536172       -14.5900
 112   2.0000      -0.531786       -14.4706
 113   2.0000      -0.523609       -14.2481
 114   2.0000      -0.519748       -14.1431
 115   2.0000      -0.516990       -14.0680
 116   2.0000      -0.514855       -14.0099
 117   2.0000      -0.510920       -13.9028
 118   2.0000      -0.506277       -13.7765
 119   2.0000      -0.501031       -13.6337
 120   2.0000      -0.496866       -13.5204
 121   2.0000      -0.489422       -13.3179
 122   2.0000      -0.488546       -13.2940
 123   2.0000      -0.482078       -13.1180
 124   2.0000      -0.479605       -13.0507
 125   2.0000      -0.477259       -12.9869
 126   2.0000      -0.475611       -12.9420
 127   2.0000      -0.475189       -12.9306
 128   2.0000      -0.470183       -12.7943
 129   2.0000      -0.466345       -12.6899
 130   2.0000      -0.465080       -12.6555
 131   2.0000      -0.462332       -12.5807
 132   2.0000      -0.451249       -12.2791
 133   2.0000      -0.448241       -12.1973
 134   2.0000      -0.447615       -12.1802
 135   2.0000      -0.438976       -11.9451
 136   2.0000      -0.435193       -11.8422
 137   2.0000      -0.424126       -11.5411
 138   2.0000      -0.422806       -11.5051
 139   2.0000      -0.417069       -11.3490
 140   2.0000      -0.417016       -11.3476
 141   2.0000      -0.416120       -11.3232
 142   2.0000      -0.412390       -11.2217
 143   2.0000      -0.407670       -11.0933
 144   2.0000      -0.401615       -10.9285
 145   2.0000      -0.390952       -10.6384
 146   2.0000      -0.375029       -10.2050
 147   2.0000      -0.365571        -9.9477
 148   2.0000      -0.363785        -9.8991
 149   2.0000      -0.357836        -9.7372
 150   2.0000      -0.353409        -9.6167
 151   2.0000      -0.339400        -9.2355
 152   2.0000      -0.339052        -9.2261
 153   2.0000      -0.330088        -8.9821
 154   2.0000      -0.324520        -8.8306
 155   2.0000      -0.323434        -8.8011
 156   2.0000      -0.318343        -8.6625
 157   2.0000      -0.297450        -8.0940
 158   2.0000      -0.280147        -7.6232
 159   2.0000      -0.245296        -6.6749
 160   2.0000      -0.243922        -6.6375
 161   0.0000      -0.066711        -1.8153
 162   0.0000      -0.030924        -0.8415
 163   0.0000      -0.022383        -0.6091
 164   0.0000      -0.009082        -0.2471
 165   0.0000       0.001848         0.0503

MULLIKEN ATOMIC CHARGES
-----------------------
   0 C :    0.064164
   1 O :   -0.179189
   2 C :    0.133645
   3 C :   -0.047244
   4 C :    0.047724
   5 C :    0.024375
   6 C :    0.018770
   7 C :    0.030466
   8 C :   -0.019303
   9 C :    0.126911
  10 C :   -0.161638
  11 S :    0.140705
  12 C :   -0.082410
  13 C :   -0.004456
  14 C :    0.231694
  15 O :   -0.193683
  16 O :   -0.262259
  17 C :    0.257860
  18 C :   -0.138573
  19 S :    0.160362
  20 C :   -0.070443
  21 C :   -0.063161
  22 C :    0.270142
  23 O :   -0.208931
  24 O :   -0.206952
  25 C :    0.168552
  26 C :   -0.123527
  27 C :   -0.066708
  28 C :    0.188833
  29 O :   -0.173817
  30 N :   -0.120650
  31 C :    0.121767
  32 O :   -0.245959
  33 C :    0.214251
  34 O :   -0.141692
  35 C :    0.066634
  36 O :   -0.169398
  37 C :    0.172282
  38 C :   -0.055311
  39 C :    0.069234
  40 C :    0.000065
  41 C :    0.015483
  42 C :   -0.013082
  43 C :   -0.009896
  44 H :    0.005171
  45 H :    0.006403
  46 H :   -0.016050
  47 H :   -0.026634
  48 H :   -0.016112
  49 H :   -0.026867
  50 H :   -0.000021
  51 H :    0.024531
  52 H :    0.036341
  53 H :    0.028575
  54 H :    0.061857
  55 H :    0.156721
  56 H :    0.018225
  57 H :   -0.007053
  58 H :   -0.026544
  59 H :   -0.028851
  60 H :   -0.015738
  61 H :    0.042560
  62 H :    0.017846
Sum of atomic charges:    0.0000000

LOEWDIN ATOMIC CHARGES
----------------------
   0 C :    0.032528
   1 O :    0.025473
   2 C :    0.028071
   3 C :   -0.071473
   4 C :   -0.080156
   5 C :   -0.019410
   6 C :   -0.022418
   7 C :   -0.012622
   8 C :   -0.032522
   9 C :   -0.041034
  10 C :   -0.189049
  11 S :    0.471094
  12 C :   -0.147986
  13 C :   -0.109752
  14 C :    0.114880
  15 O :   -0.159436
  16 O :   -0.057660
  17 C :    0.030222
  18 C :   -0.200455
  19 S :    0.491702
  20 C :   -0.135221
  21 C :   -0.130177
  22 C :    0.128435
  23 O :   -0.154476
  24 O :   -0.010989
  25 C :    0.125096
  26 C :   -0.161558
  27 C :   -0.134830
  28 C :    0.085972
  29 O :   -0.184075
  30 N :    0.027124
  31 C :    0.105217
  32 O :   -0.045520
  33 C :    0.096592
  34 O :   -0.152753
  35 C :   -0.007712
  36 O :    0.033331
  37 C :    0.067077
  38 C :   -0.069484
  39 C :   -0.014731
  40 C :   -0.022427
  41 C :   -0.009913
  42 C :   -0.045134
  43 C :   -0.015465
  44 H :    0.019787
  45 H :    0.020771
  46 H :    0.028148
  47 H :    0.026395
  48 H :    0.027102
  49 H :    0.021839
  50 H :    0.030277
  51 H :    0.021459
  52 H :    0.029668
  53 H :    0.032780
  54 H :    0.040227
  55 H :    0.091450
  56 H :    0.028708
  57 H :    0.031448
  58 H :    0.028579
  59 H :    0.021326
  60 H :    0.024713
  61 H :    0.027309
  62 H :    0.023638

  Mayer bond orders larger than 0.100000
B(  0-C ,  1-O ) :   1.1714 B(  0-C ,  4-C ) :   1.5112 B(  0-C , 44-H ) :   1.0033
B(  1-O ,  2-C ) :   1.1475 B(  2-C ,  3-C ) :   1.5739 B(  2-C , 45-H ) :   1.0012
B(  3-C ,  4-C ) :   1.2108 B(  3-C , 46-H ) :   1.0092 B(  4-C ,  5-C ) :   1.0656
B(  5-C ,  6-C ) :   1.7027 B(  5-C , 47-H ) :   0.9797 B(  6-C ,  7-C ) :   1.1203
B(  6-C , 48-H ) :   0.9864 B(  7-C ,  8-C ) :   1.6837 B(  7-C , 49-H ) :   0.9833
B(  8-C ,  9-C ) :   1.0764 B(  8-C , 50-H ) :   0.9715 B(  9-C , 10-C ) :   1.5410
B(  9-C , 13-C ) :   1.2224 B( 10-C , 11-S ) :   1.1617 B( 10-C , 51-H ) :   0.9555
B( 11-S , 12-C ) :   1.2169 B( 12-C , 13-C ) :   1.5234 B( 12-C , 52-H ) :   0.9635
B( 13-C , 14-C ) :   0.9752 B( 14-C , 15-O ) :   2.0946 B( 14-C , 16-O ) :   1.0938
B( 16-O , 17-C ) :   1.0558 B( 17-C , 18-C ) :   1.6057 B( 17-C , 21-C ) :   1.2196
B( 18-C , 19-S ) :   1.1441 B( 18-C , 53-H ) :   0.9702 B( 19-S , 20-C ) :   1.2365
B( 20-C , 21-C ) :   1.5063 B( 20-C , 54-H ) :   0.9621 B( 21-C , 22-C ) :   0.9779
B( 22-C , 23-O ) :   2.0625 B( 22-C , 24-O ) :   1.0881 B( 24-O , 25-C ) :   1.1677
B( 25-C , 26-C ) :   1.3965 B( 25-C , 30-N ) :   1.2148 B( 26-C , 27-C ) :   1.1456
B( 26-C , 33-C ) :   0.9599 B( 27-C , 28-C ) :   0.9575 B( 27-C , 31-C ) :   1.4581
B( 28-C , 29-O ) :   2.0580 B( 28-C , 30-N ) :   1.0778 B( 29-O , 58-H ) :   0.1096
B( 30-N , 55-H ) :   0.8922 B( 31-C , 32-O ) :   1.1675 B( 31-C , 35-C ) :   1.1115
B( 32-O , 33-C ) :   0.9999 B( 33-C , 34-O ) :   2.2803 B( 35-C , 36-O ) :   1.1540
B( 35-C , 39-C ) :   1.3993 B( 36-O , 37-C ) :   1.1765 B( 37-C , 38-C ) :   1.5286
B( 37-C , 56-H ) :   1.0027 B( 38-C , 39-C ) :   1.2216 B( 38-C , 57-H ) :   0.9952
B( 39-C , 40-C ) :   1.1290 B( 40-C , 41-C ) :   1.7390 B( 40-C , 58-H ) :   0.9399
B( 41-C , 42-C ) :   1.1045 B( 41-C , 59-H ) :   0.9719 B( 42-C , 43-C ) :   1.9360
B( 42-C , 60-H ) :   0.9632 B( 43-C , 61-H ) :   0.9383 B( 43-C , 62-H ) :   0.9528

-----------------------------------------------------------------------------
         ABSORPTION SPECTRUM VIA TRANSITION ELECTRIC DIPOLE MOMENTS
-----------------------------------------------------------------------------
State   Energy  Wavelength   fosc         T2         TX        TY        TZ
        (cm-1)    (nm)                  (au**2)     (au)      (au)      (au)
-----------------------------------------------------------------------------
   0   21745.7    459.9   0.518677586   7.85234  -0.98908   2.13672  -1.51937
   1   27852.8    359.0   0.009127131   0.10788   0.24414   0.19473   0.10175
   2   28184.0    354.8   0.198254551   2.31577  -0.20629  -0.65775  -1.35668
   3   29837.5    335.1   0.020418097   0.22528  -0.12795  -0.12142  -0.44065
   4   32497.6    307.7   0.550254176   5.57426   2.13297   0.94532  -0.36204
   5   33565.6    297.9   0.739193682   7.25003  -2.43795  -0.59865   0.97369
   6   33788.1    296.0   0.000206847   0.00202   0.04357  -0.00518  -0.00950
   7   34914.7    286.4   0.009872539   0.09309  -0.10896   0.17179   0.22739
   8   35944.3    278.2   0.169833282   1.55549   0.30843  -1.11547   0.46485
   9   36901.6    271.0   0.564486804   5.03598  -0.14483  -1.04737  -1.97940
  10   37419.1    267.2   0.001234365   0.01086   0.03946   0.06663   0.06974
  11   37813.3    264.5   0.001131321   0.00985  -0.04473   0.00698  -0.08832
  12   38286.1    261.2   0.000025141   0.00022   0.00457   0.00051   0.01397
  13   40068.6    249.6   0.019448709   0.15979   0.07366  -0.38232  -0.09054

FINAL SINGLE POINT ENERGY     -2756.292977823409

DIPOLE MOMENT
-------------
                                X             Y             Z
Electronic contribution:     15.04601      32.02952       6.69700
Nuclear contribution   :    -14.95007     -32.09803      -7.98075
                        -----------------------------------------
Total Dipole Moment    :      0.09594      -0.06851      -1.28375
                        -----------------------------------------
Magnitude (a.u.)       :      1.28915
Magnitude (Debye)      :      3.27677

Rotational constants in cm-1:     0.002045     0.001056     0.000874
Rotational constants in MHz :    61.316072    31.655294    26.194899

                             ****ORCA TERMINATED NORMALLY****
TOTAL RUN TIME: 0 days 0 hours 3 minutes 10 seconds 161 msec
