                         Program Version 4.2.0 -  RELEASE  -
|  1> # ORCA input file
|  2> # SCF done       -152.406538285435          0.000565099077
|  3> ! CAM-B3LYP def2-SVP def2/J RIJCOSX Grid4 TightSCF
|  4> %maxcore 5000
|  5> %tddft
|  6>     Mode sTDDFT
|  7>     Ethresh 5.0
|  8>     maxcore 5000
|  9> end
| 10>
| 11> %pal
| 12>   nprocs 6
| 13>   end
| 14> * xyz 0 1
| 15>    C        1.67843        24.73628         6.09408
| 16>    O        0.59020        25.50302         5.95050
| 17>    C       -0.40638        24.69844         5.53587
| 18>    C        0.02353        23.41914         5.40901
| 19>    C        1.40679        23.42424         5.77612
| 20>    C        2.33366        22.33457         5.81843
| 21>    C        2.03740        21.05052         5.50221
| 22>    C        2.97343        19.99382         5.55766
| 23>    C        2.66831        18.69889         5.23857
| 24>    C        3.57770        17.63879         5.29560
| 25>    C        3.27194        16.33176         4.97767
| 26>    C        4.13042        15.21516         5.02442
| 27>    C        3.53990        14.03628         4.65585
| 28>    C        2.18822        14.16504         4.29782
| 29>    S        1.67676        15.82784         4.44026
| 30>    C        1.30468        13.17159         3.88187
| 31>    C        1.54819        11.79886         3.73672
| 32>    C        0.45082        11.09027         3.31609
| 33>    C       -0.69593        11.87431         3.11231
| 34>    S       -0.34973        13.54725         3.46432
| 35>    C       -1.94423        11.41493         2.70324
| 36>    C       -3.04934        12.23369         2.51449
| 37>    C       -4.33389        11.78715         2.12964
| 38>    O       -5.37800        12.67660         1.95887
| 39>    C       -5.11421        13.98665         2.19082
| 40>    C       -3.82238        14.43488         2.58581
| 41>    C       -3.75743        15.77718         2.77020
| 42>    S       -5.28301        16.51635         2.46195
| 43>    C       -6.01053        15.00051         2.08218
| 44>    O       -2.79107        13.56746         2.74668
| 45>    C       -4.67351        10.45733         1.90266
| 46>    C       -5.95615        10.05938         1.55044
| 47>    C       -6.33626         8.75078         1.33488
| 48>    C       -7.63149         8.36652         1.00183
| 49>    C       -8.10769         7.06630         0.77856
| 50>    C       -9.44452         7.00027         0.47509
| 51>    C      -10.07905         8.25161         0.44573
| 52>    S       -8.93545         9.52016         0.81199
| 53>    C      -11.41345         8.53861         0.17887
| 54>    C      -12.45030         7.63678        -0.12186
| 55>    C      -13.66002         8.23670        -0.33000
| 56>    C      -13.63395         9.64444        -0.20422
| 57>    S      -12.01488        10.18156         0.18931
| 58>    C      -14.69227        10.50850        -0.35948
| 59>    C      -14.58265        11.90320        -0.22367
| 60>    O      -13.40078        12.47648         0.07640
| 61>    C      -13.57248        13.82110         0.14222
| 62>    C      -14.89125        14.13025        -0.11969
| 63>    C      -15.54491        12.91008        -0.35497
| 64>    C      -16.97574        12.70940        -0.67372
| 65>    F      -17.61730        11.95348         0.24429
| 66>    F      -17.65373        13.86260        -0.75071
| 67>    F      -17.16978        12.07619        -1.85085
| 68>    C      -12.42860        14.62893         0.45344
| 69>    C      -12.43493        15.95771         0.54765
| 70>    H        2.58147        25.21226         6.42241
| 71>    H       -1.36337        25.15179         5.36821
| 72>    H       -0.55890        22.57768         5.09687
| 73>    H        3.33927        22.58564         6.13063
| 74>    H        1.03368        20.79854         5.18844
| 75>    H        3.98146        20.23266         5.87247
| 76>    H        1.65886        18.46500         4.92217
| 77>    H        4.59199        17.84448         5.61277
| 78>    H        5.15788        15.30908         5.32945
| 79>    H        4.04721        13.08838         4.63489
| 80>    H        2.50651        11.35665         3.94227
| 81>    H        0.44437        10.02712         3.15116
| 82>    H       -2.04127        10.35703         2.52927
| 83>    H       -2.91020        16.35959         3.06496
| 84>    H       -7.04174        14.94247         1.80449
| 85>    H       -3.91072         9.70456         2.01336
| 86>    H       -6.71119        10.82651         1.44529
| 87>    H       -5.60108         7.96201         1.43158
| 88>    H       -7.46173         6.20836         0.84668
| 89>    H       -9.97283         6.08528         0.27621
| 90>    H      -12.28694         6.57536        -0.17760
| 91>    H      -14.56863         7.71386        -0.56970
| 92>    H      -15.66355        10.10689        -0.60120
| 93>    H      -15.33818        15.10228        -0.14273
| 94>    H      -11.52029        14.06418         0.61357
| 95>    H      -13.32885        16.53535         0.39094
| 96>    H      -11.54070        16.50477         0.78614
| 97> *
| 98>
| 99>                          ****END OF INPUT****

CARTESIAN COORDINATES (ANGSTROEM)
---------------------------------
  C      1.678430   24.736280    6.094080
  O      0.590200   25.503020    5.950500
  C     -0.406380   24.698440    5.535870
  C      0.023530   23.419140    5.409010
  C      1.406790   23.424240    5.776120
  C      2.333660   22.334570    5.818430
  C      2.037400   21.050520    5.502210
  C      2.973430   19.993820    5.557660
  C      2.668310   18.698890    5.238570
  C      3.577700   17.638790    5.295600
  C      3.271940   16.331760    4.977670
  C      4.130420   15.215160    5.024420
  C      3.539900   14.036280    4.655850
  C      2.188220   14.165040    4.297820
  S      1.676760   15.827840    4.440260
  C      1.304680   13.171590    3.881870
  C      1.548190   11.798860    3.736720
  C      0.450820   11.090270    3.316090
  C     -0.695930   11.874310    3.112310
  S     -0.349730   13.547250    3.464320
  C     -1.944230   11.414930    2.703240
  C     -3.049340   12.233690    2.514490
  C     -4.333890   11.787150    2.129640
  O     -5.378000   12.676600    1.958870
  C     -5.114210   13.986650    2.190820
  C     -3.822380   14.434880    2.585810
  C     -3.757430   15.777180    2.770200
  S     -5.283010   16.516350    2.461950
  C     -6.010530   15.000510    2.082180
  O     -2.791070   13.567460    2.746680
  C     -4.673510   10.457330    1.902660
  C     -5.956150   10.059380    1.550440
  C     -6.336260    8.750780    1.334880
  C     -7.631490    8.366520    1.001830
  C     -8.107690    7.066300    0.778560
  C     -9.444520    7.000270    0.475090
  C    -10.079050    8.251610    0.445730
  S     -8.935450    9.520160    0.811990
  C    -11.413450    8.538610    0.178870
  C    -12.450300    7.636780   -0.121860
  C    -13.660020    8.236700   -0.330000
  C    -13.633950    9.644440   -0.204220
  S    -12.014880   10.181560    0.189310
  C    -14.692270   10.508500   -0.359480
  C    -14.582650   11.903200   -0.223670
  O    -13.400780   12.476480    0.076400
  C    -13.572480   13.821100    0.142220
  C    -14.891250   14.130250   -0.119690
  C    -15.544910   12.910080   -0.354970
  C    -16.975740   12.709400   -0.673720
  F    -17.617300   11.953480    0.244290
  F    -17.653730   13.862600   -0.750710
  F    -17.169780   12.076190   -1.850850
  C    -12.428600   14.628930    0.453440
  C    -12.434930   15.957710    0.547650
  H      2.581470   25.212260    6.422410
  H     -1.363370   25.151790    5.368210
  H     -0.558900   22.577680    5.096870
  H      3.339270   22.585640    6.130630
  H      1.033680   20.798540    5.188440
  H      3.981460   20.232660    5.872470
  H      1.658860   18.465000    4.922170
  H      4.591990   17.844480    5.612770
  H      5.157880   15.309080    5.329450
  H      4.047210   13.088380    4.634890
  H      2.506510   11.356650    3.942270
  H      0.444370   10.027120    3.151160
  H     -2.041270   10.357030    2.529270
  H     -2.910200   16.359590    3.064960
  H     -7.041740   14.942470    1.804490
  H     -3.910720    9.704560    2.013360
  H     -6.711190   10.826510    1.445290
  H     -5.601080    7.962010    1.431580
  H     -7.461730    6.208360    0.846680
  H     -9.972830    6.085280    0.276210
  H    -12.286940    6.575360   -0.177600
  H    -14.568630    7.713860   -0.569700
  H    -15.663550   10.106890   -0.601200
  H    -15.338180   15.102280   -0.142730
  H    -11.520290   14.064180    0.613570
  H    -13.328850   16.535350    0.390940
  H    -11.540700   16.504770    0.786140

 Total Charge           Charge          ....    0
 Multiplicity           Mult            ....    1
 Number of Electrons    NEL             ....  424
 Basis Dimension        Dim             ....  925

ORBITAL ENERGIES
----------------

  NO   OCC          E(Eh)            E(eV)
   0   2.0000     -88.954246     -2420.5681
   1   2.0000     -88.941913     -2420.2325
   2   2.0000     -88.939851     -2420.1764
   3   2.0000     -88.938397     -2420.1368
   4   2.0000     -88.935213     -2420.0502
   5   2.0000     -24.786902      -674.4859
   6   2.0000     -24.779237      -674.2773
   7   2.0000     -24.778455      -674.2560
   8   2.0000     -19.289811      -524.9025
   9   2.0000     -19.285943      -524.7972
  10   2.0000     -19.277877      -524.5777
  11   2.0000     -19.269437      -524.3480
  12   2.0000     -10.503850      -285.8243
  13   2.0000     -10.348312      -281.5919
  14   2.0000     -10.340907      -281.3904
  15   2.0000     -10.338248      -281.3180
  16   2.0000     -10.336939      -281.2824
  17   2.0000     -10.334832      -281.2251
  18   2.0000     -10.324266      -280.9376
  19   2.0000     -10.317729      -280.7597
  20   2.0000     -10.316987      -280.7395
  21   2.0000     -10.308382      -280.5053
  22   2.0000     -10.306794      -280.4621
  23   2.0000     -10.304929      -280.4114
  24   2.0000     -10.302741      -280.3518
  25   2.0000     -10.302132      -280.3353
  26   2.0000     -10.298928      -280.2481
  27   2.0000     -10.298101      -280.2256
  28   2.0000     -10.296752      -280.1889
  29   2.0000     -10.290967      -280.0314
  30   2.0000     -10.289464      -279.9905
  31   2.0000     -10.283327      -279.8236
  32   2.0000     -10.282630      -279.8046
  33   2.0000     -10.281965      -279.7865
  34   2.0000     -10.280465      -279.7457
  35   2.0000     -10.279459      -279.7183
  36   2.0000     -10.279058      -279.7074
  37   2.0000     -10.278549      -279.6935
  38   2.0000     -10.278383      -279.6890
  39   2.0000     -10.277973      -279.6779
  40   2.0000     -10.277122      -279.6547
  41   2.0000     -10.276823      -279.6466
  42   2.0000     -10.276721      -279.6438
  43   2.0000     -10.276374      -279.6344
  44   2.0000     -10.275210      -279.6027
  45   2.0000     -10.274089      -279.5722
  46   2.0000     -10.273804      -279.5644
  47   2.0000     -10.273505      -279.5563
  48   2.0000     -10.273225      -279.5487
  49   2.0000     -10.271546      -279.5030
  50   2.0000     -10.271200      -279.4936
  51   2.0000     -10.269075      -279.4357
  52   2.0000     -10.268703      -279.4256
  53   2.0000     -10.264033      -279.2985
  54   2.0000     -10.263742      -279.2906
  55   2.0000      -8.049963      -219.0506
  56   2.0000      -8.038201      -218.7306
  57   2.0000      -8.035238      -218.6500
  58   2.0000      -8.034732      -218.6362
  59   2.0000      -8.031071      -218.5365
  60   2.0000      -6.019485      -163.7985
  61   2.0000      -6.015294      -163.6845
  62   2.0000      -6.011672      -163.5859
  63   2.0000      -6.007852      -163.4820
  64   2.0000      -6.005022      -163.4050
  65   2.0000      -6.004347      -163.3866
  66   2.0000      -6.003875      -163.3737
  67   2.0000      -6.000893      -163.2926
  68   2.0000      -6.000662      -163.2863
  69   2.0000      -6.000378      -163.2786
  70   2.0000      -5.999254      -163.2480
  71   2.0000      -5.996595      -163.1756
  72   2.0000      -5.996391      -163.1701
  73   2.0000      -5.995821      -163.1546
  74   2.0000      -5.992027      -163.0513
  75   2.0000      -1.370438       -37.2915
  76   2.0000      -1.276080       -34.7239
  77   2.0000      -1.268100       -34.5068
  78   2.0000      -1.209291       -32.9065
  79   2.0000      -1.204803       -32.7844
  80   2.0000      -1.201807       -32.7028
  81   2.0000      -1.164484       -31.6872
  82   2.0000      -0.991848       -26.9895
  83   2.0000      -0.987604       -26.8741
  84   2.0000      -0.983553       -26.7638
  85   2.0000      -0.969670       -26.3861
  86   2.0000      -0.966407       -26.2973
  87   2.0000      -0.920744       -25.0547
  88   2.0000      -0.918800       -25.0018
  89   2.0000      -0.911877       -24.8134
  90   2.0000      -0.905963       -24.6525
  91   2.0000      -0.901697       -24.5364
  92   2.0000      -0.894435       -24.3388
  93   2.0000      -0.875804       -23.8318
  94   2.0000      -0.867668       -23.6104
  95   2.0000      -0.858389       -23.3579
  96   2.0000      -0.847290       -23.0559
  97   2.0000      -0.841066       -22.8866
  98   2.0000      -0.837425       -22.7875
  99   2.0000      -0.829921       -22.5833
 100   2.0000      -0.822855       -22.3910
 101   2.0000      -0.818975       -22.2855
 102   2.0000      -0.814707       -22.1693
 103   2.0000      -0.813893       -22.1472
 104   2.0000      -0.807144       -21.9635
 105   2.0000      -0.799658       -21.7598
 106   2.0000      -0.787158       -21.4197
 107   2.0000      -0.776170       -21.1207
 108   2.0000      -0.762041       -20.7362
 109   2.0000      -0.745758       -20.2931
 110   2.0000      -0.730572       -19.8799
 111   2.0000      -0.715513       -19.4701
 112   2.0000      -0.708509       -19.2795
 113   2.0000      -0.699432       -19.0325
 114   2.0000      -0.691405       -18.8141
 115   2.0000      -0.685795       -18.6614
 116   2.0000      -0.680838       -18.5265
 117   2.0000      -0.678952       -18.4752
 118   2.0000      -0.671357       -18.2686
 119   2.0000      -0.660586       -17.9755
 120   2.0000      -0.657913       -17.9027
 121   2.0000      -0.652967       -17.7681
 122   2.0000      -0.650886       -17.7115
 123   2.0000      -0.650111       -17.6904
 124   2.0000      -0.645855       -17.5746
 125   2.0000      -0.638497       -17.3744
 126   2.0000      -0.632360       -17.2074
 127   2.0000      -0.629292       -17.1239
 128   2.0000      -0.619541       -16.8586
 129   2.0000      -0.611478       -16.6392
 130   2.0000      -0.610722       -16.6186
 131   2.0000      -0.604677       -16.4541
 132   2.0000      -0.603653       -16.4262
 133   2.0000      -0.601673       -16.3723
 134   2.0000      -0.598826       -16.2949
 135   2.0000      -0.592518       -16.1232
 136   2.0000      -0.574885       -15.6434
 137   2.0000      -0.571980       -15.5644
 138   2.0000      -0.566511       -15.4155
 139   2.0000      -0.564008       -15.3474
 140   2.0000      -0.556183       -15.1345
 141   2.0000      -0.551304       -15.0018
 142   2.0000      -0.547585       -14.9005
 143   2.0000      -0.543526       -14.7901
 144   2.0000      -0.542182       -14.7535
 145   2.0000      -0.537793       -14.6341
 146   2.0000      -0.532163       -14.4809
 147   2.0000      -0.530027       -14.4228
 148   2.0000      -0.529510       -14.4087
 149   2.0000      -0.526869       -14.3368
 150   2.0000      -0.520643       -14.1674
 151   2.0000      -0.517991       -14.0952
 152   2.0000      -0.514471       -13.9995
 153   2.0000      -0.509007       -13.8508
 154   2.0000      -0.505350       -13.7513
 155   2.0000      -0.503855       -13.7106
 156   2.0000      -0.497045       -13.5253
 157   2.0000      -0.496402       -13.5078
 158   2.0000      -0.494448       -13.4546
 159   2.0000      -0.491148       -13.3648
 160   2.0000      -0.490819       -13.3559
 161   2.0000      -0.489658       -13.3243
 162   2.0000      -0.488552       -13.2942
 163   2.0000      -0.487838       -13.2747
 164   2.0000      -0.485983       -13.2243
 165   2.0000      -0.483995       -13.1702
 166   2.0000      -0.479401       -13.0452
 167   2.0000      -0.477458       -12.9923
 168   2.0000      -0.471015       -12.8170
 169   2.0000      -0.469027       -12.7629
 170   2.0000      -0.468753       -12.7554
 171   2.0000      -0.467367       -12.7177
 172   2.0000      -0.463911       -12.6237
 173   2.0000      -0.460954       -12.5432
 174   2.0000      -0.458669       -12.4810
 175   2.0000      -0.455801       -12.4030
 176   2.0000      -0.454271       -12.3614
 177   2.0000      -0.453927       -12.3520
 178   2.0000      -0.450118       -12.2483
 179   2.0000      -0.444882       -12.1059
 180   2.0000      -0.439659       -11.9637
 181   2.0000      -0.432071       -11.7573
 182   2.0000      -0.431290       -11.7360
 183   2.0000      -0.430971       -11.7273
 184   2.0000      -0.428899       -11.6709
 185   2.0000      -0.427191       -11.6245
 186   2.0000      -0.426129       -11.5956
 187   2.0000      -0.422723       -11.5029
 188   2.0000      -0.410909       -11.1814
 189   2.0000      -0.409312       -11.1380
 190   2.0000      -0.407219       -11.0810
 191   2.0000      -0.399285       -10.8651
 192   2.0000      -0.391463       -10.6523
 193   2.0000      -0.385014       -10.4768
 194   2.0000      -0.381272       -10.3749
 195   2.0000      -0.378362       -10.2958
 196   2.0000      -0.370372       -10.0783
 197   2.0000      -0.359698        -9.7879
 198   2.0000      -0.345808        -9.4099
 199   2.0000      -0.332429        -9.0458
 200   2.0000      -0.329231        -8.9588
 201   2.0000      -0.328183        -8.9303
 202   2.0000      -0.317637        -8.6433
 203   2.0000      -0.315388        -8.5821
 204   2.0000      -0.310775        -8.4566
 205   2.0000      -0.300303        -8.1717
 206   2.0000      -0.298611        -8.1256
 207   2.0000      -0.277895        -7.5619
 208   2.0000      -0.269062        -7.3215
 209   2.0000      -0.245882        -6.6908
 210   2.0000      -0.214308        -5.8316
 211   2.0000      -0.177098        -4.8191
 212   0.0000      -0.099777        -2.7151
 213   0.0000      -0.063049        -1.7156
 214   0.0000      -0.025079        -0.6824
 215   0.0000      -0.002863        -0.0779
 216   0.0000       0.017922         0.4877

MULLIKEN ATOMIC CHARGES
-----------------------
   0 C :    0.072564
   1 O :   -0.180236
   2 C :    0.139806
   3 C :   -0.048326
   4 C :    0.048729
   5 C :    0.021306
   6 C :    0.015695
   7 C :    0.022003
   8 C :    0.002332
   9 C :   -0.003330
  10 C :   -0.023868
  11 C :    0.037068
  12 C :    0.015260
  13 C :   -0.041107
  14 S :    0.073188
  15 C :   -0.045285
  16 C :    0.026314
  17 C :    0.013384
  18 C :   -0.003777
  19 S :    0.114160
  20 C :   -0.090354
  21 C :    0.199802
  22 C :    0.185053
  23 O :   -0.251681
  24 C :    0.217671
  25 C :    0.226502
  26 C :   -0.169613
  27 S :    0.106482
  28 C :   -0.171804
  29 O :   -0.275726
  30 C :   -0.083257
  31 C :    0.021087
  32 C :    0.003292
  33 C :   -0.028780
  34 C :    0.033538
  35 C :    0.013465
  36 C :   -0.039276
  37 S :    0.079512
  38 C :   -0.049561
  39 C :    0.026878
  40 C :    0.021115
  41 C :   -0.005562
  42 S :    0.102251
  43 C :   -0.060195
  44 C :    0.131816
  45 O :   -0.214901
  46 C :    0.172562
  47 C :   -0.073166
  48 C :   -0.114188
  49 C :    0.517315
  50 F :   -0.174059
  51 F :   -0.157702
  52 F :   -0.174061
  53 C :    0.005514
  54 C :   -0.024752
  55 H :    0.003652
  56 H :    0.009407
  57 H :   -0.010755
  58 H :   -0.022921
  59 H :   -0.018220
  60 H :   -0.016612
  61 H :   -0.004768
  62 H :   -0.017555
  63 H :   -0.014747
  64 H :   -0.015748
  65 H :   -0.019029
  66 H :   -0.017156
  67 H :   -0.015762
  68 H :    0.025745
  69 H :    0.024300
  70 H :   -0.014318
  71 H :    0.012542
  72 H :   -0.021457
  73 H :   -0.016146
  74 H :   -0.017599
  75 H :   -0.015789
  76 H :   -0.014133
  77 H :   -0.001384
  78 H :   -0.010877
  79 H :    0.004746
  80 H :    0.017370
  81 H :    0.026122
Sum of atomic charges:    0.0000000

LOEWDIN ATOMIC CHARGES
----------------------
   0 C :    0.033022
   1 O :    0.022958
   2 C :    0.035359
   3 C :   -0.068938
   4 C :   -0.077791
   5 C :   -0.011698
   6 C :   -0.033369
   7 C :   -0.012020
   8 C :   -0.040953
   9 C :   -0.047343
  10 C :   -0.151490
  11 C :   -0.033691
  12 C :   -0.038943
  13 C :   -0.171523
  14 S :    0.374370
  15 C :   -0.194825
  16 C :   -0.031536
  17 C :   -0.046802
  18 C :   -0.139955
  19 S :    0.406362
  20 C :   -0.082855
  21 C :    0.032775
  22 C :    0.020791
  23 O :   -0.048403
  24 C :   -0.007727
  25 C :   -0.009393
  26 C :   -0.208900
  27 S :    0.435885
  28 C :   -0.212945
  29 O :   -0.052834
  30 C :   -0.040912
  31 C :   -0.034243
  32 C :   -0.048337
  33 C :   -0.154565
  34 C :   -0.034852
  35 C :   -0.042632
  36 C :   -0.169828
  37 S :    0.383471
  38 C :   -0.192753
  39 C :   -0.029283
  40 C :   -0.044542
  41 C :   -0.132142
  42 S :    0.390752
  43 C :   -0.092537
  44 C :    0.048888
  45 O :    0.014903
  46 C :    0.024311
  47 C :   -0.037859
  48 C :   -0.135730
  49 C :    0.170682
  50 F :   -0.074468
  51 F :   -0.057807
  52 F :   -0.073701
  53 C :   -0.033912
  54 C :   -0.040439
  55 H :    0.021310
  56 H :    0.022490
  57 H :    0.028633
  58 H :    0.028079
  59 H :    0.026106
  60 H :    0.026907
  61 H :    0.021551
  62 H :    0.032293
  63 H :    0.032613
  64 H :    0.031062
  65 H :    0.029487
  66 H :    0.030678
  67 H :    0.036810
  68 H :    0.030053
  69 H :    0.029010
  70 H :    0.031204
  71 H :    0.024178
  72 H :    0.030143
  73 H :    0.032078
  74 H :    0.030070
  75 H :    0.030591
  76 H :    0.032385
  77 H :    0.040084
  78 H :    0.034232
  79 H :    0.038612
  80 H :    0.022411
  81 H :    0.026875

  Mayer bond orders larger than 0.100000
B(  0-C ,  1-O ) :   1.1685 B(  0-C ,  4-C ) :   1.4885 B(  0-C , 55-H ) :   1.0071
B(  1-O ,  2-C ) :   1.1401 B(  2-C ,  3-C ) :   1.5947 B(  2-C , 56-H ) :   0.9998
B(  3-C ,  4-C ) :   1.2095 B(  3-C , 57-H ) :   1.0024 B(  4-C ,  5-C ) :   1.0870
B(  5-C ,  6-C ) :   1.6572 B(  5-C , 58-H ) :   0.9791 B(  6-C ,  7-C ) :   1.1535
B(  6-C , 59-H ) :   0.9794 B(  7-C ,  8-C ) :   1.5870 B(  7-C , 60-H ) :   0.9914
B(  8-C ,  9-C ) :   1.1743 B(  8-C , 61-H ) :   0.9750 B(  9-C , 10-C ) :   1.5257
B(  9-C , 62-H ) :   0.9812 B( 10-C , 11-C ) :   1.1739 B( 10-C , 14-S ) :   1.0330
B( 11-C , 12-C ) :   1.5431 B( 11-C , 63-H ) :   0.9994 B( 12-C , 13-C ) :   1.2304
B( 12-C , 64-H ) :   0.9954 B( 13-C , 14-S ) :   1.0615 B( 13-C , 15-C ) :   1.4317
B( 15-C , 16-C ) :   1.2416 B( 15-C , 19-S ) :   1.0319 B( 16-C , 17-C ) :   1.5240
B( 16-C , 65-H ) :   0.9955 B( 17-C , 18-C ) :   1.2017 B( 17-C , 66-H ) :   1.0007
B( 18-C , 19-S ) :   1.0665 B( 18-C , 20-C ) :   1.4622 B( 20-C , 21-C ) :   1.3053
B( 20-C , 67-H ) :   0.9559 B( 21-C , 22-C ) :   1.2825 B( 21-C , 29-O ) :   1.0400
B( 22-C , 23-O ) :   1.0528 B( 22-C , 30-C ) :   1.2946 B( 23-O , 24-C ) :   1.0627
B( 24-C , 25-C ) :   1.2146 B( 24-C , 28-C ) :   1.5673 B( 25-C , 26-C ) :   1.5657
B( 25-C , 29-O ) :   1.0277 B( 26-C , 27-S ) :   1.1440 B( 26-C , 68-H ) :   0.9731
B( 27-S , 28-C ) :   1.1406 B( 28-C , 69-H ) :   0.9716 B( 30-C , 31-C ) :   1.4772
B( 30-C , 70-H ) :   0.9632 B( 31-C , 32-C ) :   1.2365 B( 31-C , 71-H ) :   0.9769
B( 32-C , 33-C ) :   1.4530 B( 32-C , 72-H ) :   0.9855 B( 33-C , 34-C ) :   1.2059
B( 33-C , 37-S ) :   1.0440 B( 34-C , 35-C ) :   1.5196 B( 34-C , 73-H ) :   1.0001
B( 35-C , 36-C ) :   1.2389 B( 35-C , 74-H ) :   0.9949 B( 36-C , 37-S ) :   1.0616
B( 36-C , 38-C ) :   1.4444 B( 38-C , 39-C ) :   1.2231 B( 38-C , 42-S ) :   1.0289
B( 39-C , 40-C ) :   1.5539 B( 39-C , 75-H ) :   0.9957 B( 40-C , 41-C ) :   1.1619
B( 40-C , 76-H ) :   1.0003 B( 41-C , 42-S ) :   1.0608 B( 41-C , 43-C ) :   1.5292
B( 43-C , 44-C ) :   1.2211 B( 43-C , 77-H ) :   0.9536 B( 44-C , 45-O ) :   1.1493
B( 44-C , 48-C ) :   1.3923 B( 45-O , 46-C ) :   1.0920 B( 46-C , 47-C ) :   1.4697
B( 46-C , 53-C ) :   1.1146 B( 47-C , 48-C ) :   1.2718 B( 47-C , 78-H ) :   1.0146
B( 48-C , 49-C ) :   0.9592 B( 49-C , 50-F ) :   1.1604 B( 49-C , 51-F ) :   1.1798
B( 49-C , 52-F ) :   1.1570 B( 53-C , 54-C ) :   1.9210 B( 53-C , 79-H ) :   0.9532
B( 54-C , 80-H ) :   0.9562 B( 54-C , 81-H ) :   0.9508

-----------------------------------------------------------------------------
         ABSORPTION SPECTRUM VIA TRANSITION ELECTRIC DIPOLE MOMENTS
-----------------------------------------------------------------------------
State   Energy  Wavelength   fosc         T2         TX        TY        TZ
        (cm-1)    (nm)                  (au**2)     (au)      (au)      (au)
-----------------------------------------------------------------------------
   0    6446.2   1551.3   1.333718396  68.11355  -7.14890  -3.38997  -2.34838
   1   12145.7    823.3   0.001847796   0.05009  -0.07146  -0.21075  -0.02374
   2   15009.7    666.2   0.935903217  20.52749  -1.32786   4.30829   0.45043
   3   18606.9    537.4   0.024537481   0.43414  -0.10624   0.63951   0.11780
   4   22063.5    453.2   0.019155456   0.28582  -0.27328   0.43459   0.14923
   5   22537.5    443.7   0.029544108   0.43156   0.39035   0.52238   0.07935
   6   23327.0    428.7   0.006522727   0.09205  -0.14584  -0.26368  -0.03546
   7   25313.1    395.1   0.131868527   1.71503  -1.03506  -0.76340  -0.24680
   8   27325.2    366.0   0.483892932   5.82990   0.30755  -2.38654  -0.19940
   9   28334.6    352.9   0.795915645   9.24752   0.74975  -2.94237  -0.16695
  10   28783.0    347.4   0.029298863   0.33511  -0.51366  -0.23777  -0.12134
  11   29563.0    338.3   0.232793556   2.59237   0.68040  -1.45914  -0.01863
  12   29689.9    336.8   0.020454389   0.22681   0.11576   0.45740   0.06474
  13   29993.5    333.4   0.009845640   0.10807  -0.32119  -0.03199  -0.06231
  14   30542.8    327.4   0.050110498   0.54013  -0.12589   0.72162   0.05959
  15   30628.0    326.5   0.019542712   0.21006  -0.40980  -0.18587  -0.08703
  16   31816.6    314.3   0.036362569   0.37625   0.09677   0.60064   0.07819
  17   32758.5    305.3   0.040846218   0.41049  -0.23371  -0.57677  -0.15233
  18   33128.0    301.9   0.070202943   0.69765   0.79677   0.18337   0.17084
  19   33500.1    298.5   0.000019849   0.00020  -0.00296  -0.01258   0.00530
  20   33697.6    296.8   0.000307141   0.00300   0.04030   0.02372   0.02852
  21   33792.1    295.9   0.033024185   0.32173  -0.45605  -0.31489  -0.12080
  22   34394.1    290.7   0.034669258   0.33185  -0.56067   0.12322  -0.04804
  23   34657.5    288.5   0.011107315   0.10551  -0.14344  -0.27285  -0.10240
  24   34836.4    287.1   0.002006753   0.01896   0.08760   0.10572   0.01065
  25   35533.6    281.4   0.218193583   2.02152  -1.08885   0.90608  -0.12225
  26   36414.2    274.6   0.027851544   0.25180  -0.43479   0.23971  -0.07274
  27   37065.3    269.8   0.015411148   0.13688  -0.04644  -0.35906  -0.07617
  28   37867.4    264.1   0.005043748   0.04385  -0.16759  -0.11588  -0.04832
  29   38203.4    261.8   0.023949666   0.20638   0.36466   0.25638   0.08763
  30   38977.3    256.6   0.002394635   0.02023   0.02916  -0.13828  -0.01597
  31   39211.2    255.0   0.024346456   0.20441   0.38861  -0.22429   0.05557
  32   40093.4    249.4   0.021969422   0.18039   0.23932   0.32917   0.12151

FINAL SINGLE POINT ENERGY     -4242.648690923796

DIPOLE MOMENT
-------------
                                X             Y             Z
Electronic contribution:    -71.61842     -20.29103     -21.63530
Nuclear contribution   :     74.73955      19.93669      22.40934
                        -----------------------------------------
Total Dipole Moment    :      3.12113      -0.35433       0.77403
                        -----------------------------------------
Magnitude (a.u.)       :      3.23514
Magnitude (Debye)      :      8.22308

Rotational constants in cm-1:     0.001652     0.000346     0.000287
Rotational constants in MHz :    49.518427    10.377060     8.598373

                             ****ORCA TERMINATED NORMALLY****
TOTAL RUN TIME: 0 days 0 hours 6 minutes 38 seconds 104 msec
