                         Program Version 4.2.0 -  RELEASE  -
|  1> # ORCA input file
|  2> # SCF done       -148.293174422249          0.000496857325
|  3> ! CAM-B3LYP def2-SVP def2/J RIJCOSX Grid4 TightSCF
|  4> %maxcore 5000
|  5> %tddft
|  6>     Mode sTDDFT
|  7>     Ethresh 5.0
|  8>     maxcore 5000
|  9> end
| 10>
| 11> %pal
| 12>   nprocs 6
| 13>   end
| 14> * xyz 0 1
| 15>    C        2.07104        14.03286         3.13854
| 16>    O        0.93454        14.55305         3.62219
| 17>    C        0.00147        13.58563         3.55722
| 18>    C        0.52005        12.44569         3.03764
| 19>    C        1.89392        12.72458         2.75351
| 20>    C        2.89496        11.86249         2.19549
| 21>    C        2.69587        10.57724         1.83246
| 22>    C        3.71249         9.74956         1.28790
| 23>    C        3.51441         8.45456         0.93074
| 24>    C        4.49984         7.59784         0.39651
| 25>    S        6.12943         8.12920         0.12367
| 26>    C        6.63785         6.57790        -0.47733
| 27>    C        5.56024         5.67572        -0.47034
| 28>    C        4.35513         6.25234         0.02202
| 29>    C        3.19158         5.45998         0.08498
| 30>    C        3.20973         4.15732        -0.32160
| 31>    C        1.99235         3.29120        -0.26858
| 32>    C        4.42299         3.58752        -0.81746
| 33>    O        4.31832         2.28405        -1.19567
| 34>    C        5.45944         1.63412        -1.69621
| 35>    C        5.57250         4.33173        -0.88881
| 36>    C        7.96341         6.33113        -0.87904
| 37>    C        8.95936         7.25765        -0.88989
| 38>    C       10.30000         6.99620        -1.26071
| 39>    S       11.46895         8.29591        -1.26842
| 40>    C       12.76461         7.23423        -1.74860
| 41>    C       12.27639         5.93229        -1.90249
| 42>    C       10.90351         5.81209        -1.62880
| 43>    C       13.02951         4.82055        -2.30747
| 44>    N       13.58666         3.87256        -2.64094
| 45>    C       14.06358         7.76489        -1.90498
| 46>    C       15.19158         7.02619        -2.09871
| 47>    C       16.50350         7.52388        -2.24491
| 48>    S       17.81522         6.44567        -1.88457
| 49>    C       19.02301         7.67692        -2.08328
| 50>    C       18.42585         8.87176        -2.52524
| 51>    C       17.00326         8.78646        -2.61225
| 52>    C       16.28416         9.88852        -3.11551
| 53>    C       16.92143        11.03921        -3.48387
| 54>    C       16.17859        12.21886        -4.02337
| 55>    C       18.34221        11.11806        -3.38936
| 56>    O       18.87432        12.30036        -3.80721
| 57>    C       20.26927        12.46335        -3.76247
| 58>    C       19.07583        10.05084        -2.93814
| 59>    C       20.35746         7.33838        -1.76125
| 60>    C       21.38181         8.18841        -1.48919
| 61>    C       22.69302         7.75363        -1.16719
| 62>    O       22.98719         6.42994        -1.13616
| 63>    C       24.28506         6.31422        -0.80750
| 64>    C       24.85781         7.53021        -0.62349
| 65>    C       23.83609         8.49650        -0.85304
| 66>    C       23.93775         9.92183        -0.78754
| 67>    C       25.05886        10.60722        -0.49496
| 68>    C       25.11618        12.04123        -0.44140
| 69>    C       26.21910        12.72839        -0.14660
| 70>    H        2.93496        14.66720         3.11248
| 71>    H       -0.98189        13.83005         3.90755
| 72>    H        0.00062        11.52465         2.87441
| 73>    H        3.87521        12.30376         2.06982
| 74>    H        1.71803        10.13161         1.95644
| 75>    H        4.69507        10.18564         1.15847
| 76>    H        2.53112         8.02207         1.06176
| 77>    H        2.27417         5.88882         0.45843
| 78>    H        1.14186         3.84083         0.12529
| 79>    H        2.18002         2.42171         0.35945
| 80>    H        1.75219         2.92372        -1.26504
| 81>    H        5.14294         0.61836        -1.92802
| 82>    H        6.26238         1.60143        -0.95261
| 83>    H        5.82843         2.11444        -2.60833
| 84>    H        6.49027         3.90890        -1.26258
| 85>    H        8.18178         5.32108        -1.19524
| 86>    H        8.73122         8.27231        -0.59110
| 87>    H       10.38264         4.87386        -1.69862
| 88>    H       14.13717         8.83690        -1.79484
| 89>    H       15.10954         5.94752        -2.07360
| 90>    H       15.21777         9.81270        -3.25162
| 91>    H       15.11172        12.01849        -4.06873
| 92>    H       16.54103        12.46445        -5.02031
| 93>    H       16.35397        13.08928        -3.39292
| 94>    H       20.46033        13.47335        -4.12183
| 95>    H       20.78155        11.74621        -4.41225
| 96>    H       20.65217        12.36520        -2.74116
| 97>    H       20.15071        10.07983        -2.94119
| 98>    H       20.55610         6.27752        -1.67404
| 99>    H       21.22903         9.25431        -1.46576
|100>    H       24.68129         5.32024        -0.73683
|101>    H       25.87669         7.71940        -0.35710
|102>    H       23.02967        10.47476        -0.99243
|103>    H       25.97865        10.08017        -0.28453
|104>    H       24.19409        12.56774        -0.65544
|105>    H       27.14948        12.23119         0.07319
|106>    H       26.23014        13.80382        -0.11148
|107> *
|108>
|109>                          ****END OF INPUT****

CARTESIAN COORDINATES (ANGSTROEM)
---------------------------------
  C      2.071040   14.032860    3.138540
  O      0.934540   14.553050    3.622190
  C      0.001470   13.585630    3.557220
  C      0.520050   12.445690    3.037640
  C      1.893920   12.724580    2.753510
  C      2.894960   11.862490    2.195490
  C      2.695870   10.577240    1.832460
  C      3.712490    9.749560    1.287900
  C      3.514410    8.454560    0.930740
  C      4.499840    7.597840    0.396510
  S      6.129430    8.129200    0.123670
  C      6.637850    6.577900   -0.477330
  C      5.560240    5.675720   -0.470340
  C      4.355130    6.252340    0.022020
  C      3.191580    5.459980    0.084980
  C      3.209730    4.157320   -0.321600
  C      1.992350    3.291200   -0.268580
  C      4.422990    3.587520   -0.817460
  O      4.318320    2.284050   -1.195670
  C      5.459440    1.634120   -1.696210
  C      5.572500    4.331730   -0.888810
  C      7.963410    6.331130   -0.879040
  C      8.959360    7.257650   -0.889890
  C     10.300000    6.996200   -1.260710
  S     11.468950    8.295910   -1.268420
  C     12.764610    7.234230   -1.748600
  C     12.276390    5.932290   -1.902490
  C     10.903510    5.812090   -1.628800
  C     13.029510    4.820550   -2.307470
  N     13.586660    3.872560   -2.640940
  C     14.063580    7.764890   -1.904980
  C     15.191580    7.026190   -2.098710
  C     16.503500    7.523880   -2.244910
  S     17.815220    6.445670   -1.884570
  C     19.023010    7.676920   -2.083280
  C     18.425850    8.871760   -2.525240
  C     17.003260    8.786460   -2.612250
  C     16.284160    9.888520   -3.115510
  C     16.921430   11.039210   -3.483870
  C     16.178590   12.218860   -4.023370
  C     18.342210   11.118060   -3.389360
  O     18.874320   12.300360   -3.807210
  C     20.269270   12.463350   -3.762470
  C     19.075830   10.050840   -2.938140
  C     20.357460    7.338380   -1.761250
  C     21.381810    8.188410   -1.489190
  C     22.693020    7.753630   -1.167190
  O     22.987190    6.429940   -1.136160
  C     24.285060    6.314220   -0.807500
  C     24.857810    7.530210   -0.623490
  C     23.836090    8.496500   -0.853040
  C     23.937750    9.921830   -0.787540
  C     25.058860   10.607220   -0.494960
  C     25.116180   12.041230   -0.441400
  C     26.219100   12.728390   -0.146600
  H      2.934960   14.667200    3.112480
  H     -0.981890   13.830050    3.907550
  H      0.000620   11.524650    2.874410
  H      3.875210   12.303760    2.069820
  H      1.718030   10.131610    1.956440
  H      4.695070   10.185640    1.158470
  H      2.531120    8.022070    1.061760
  H      2.274170    5.888820    0.458430
  H      1.141860    3.840830    0.125290
  H      2.180020    2.421710    0.359450
  H      1.752190    2.923720   -1.265040
  H      5.142940    0.618360   -1.928020
  H      6.262380    1.601430   -0.952610
  H      5.828430    2.114440   -2.608330
  H      6.490270    3.908900   -1.262580
  H      8.181780    5.321080   -1.195240
  H      8.731220    8.272310   -0.591100
  H     10.382640    4.873860   -1.698620
  H     14.137170    8.836900   -1.794840
  H     15.109540    5.947520   -2.073600
  H     15.217770    9.812700   -3.251620
  H     15.111720   12.018490   -4.068730
  H     16.541030   12.464450   -5.020310
  H     16.353970   13.089280   -3.392920
  H     20.460330   13.473350   -4.121830
  H     20.781550   11.746210   -4.412250
  H     20.652170   12.365200   -2.741160
  H     20.150710   10.079830   -2.941190
  H     20.556100    6.277520   -1.674040
  H     21.229030    9.254310   -1.465760
  H     24.681290    5.320240   -0.736830
  H     25.876690    7.719400   -0.357100
  H     23.029670   10.474760   -0.992430
  H     25.978650   10.080170   -0.284530
  H     24.194090   12.567740   -0.655440
  H     27.149480   12.231190    0.073190
  H     26.230140   13.803820   -0.111480

 Total Charge           Charge          ....    0
 Multiplicity           Mult            ....    1
 Number of Electrons    NEL             ....  406
 Basis Dimension        Dim             ....  967

ORBITAL ENERGIES
----------------

  NO   OCC          E(Eh)            E(eV)
   0   2.0000     -88.956439     -2420.6278
   1   2.0000     -88.953046     -2420.5354
   2   2.0000     -88.951376     -2420.4900
   3   2.0000     -19.282963      -524.7161
   4   2.0000     -19.280195      -524.6408
   5   2.0000     -19.247076      -523.7396
   6   2.0000     -19.246365      -523.7202
   7   2.0000     -14.394482      -391.6938
   8   2.0000     -10.328876      -281.0630
   9   2.0000     -10.328681      -281.0577
  10   2.0000     -10.323316      -280.9117
  11   2.0000     -10.322195      -280.8812
  12   2.0000     -10.320949      -280.8473
  13   2.0000     -10.317146      -280.7438
  14   2.0000     -10.314278      -280.6658
  15   2.0000     -10.313995      -280.6581
  16   2.0000     -10.312098      -280.6064
  17   2.0000     -10.301770      -280.3254
  18   2.0000     -10.298285      -280.2306
  19   2.0000     -10.296922      -280.1935
  20   2.0000     -10.296373      -280.1786
  21   2.0000     -10.295553      -280.1562
  22   2.0000     -10.295210      -280.1469
  23   2.0000     -10.291400      -280.0432
  24   2.0000     -10.281587      -279.7762
  25   2.0000     -10.280479      -279.7460
  26   2.0000     -10.277990      -279.6783
  27   2.0000     -10.277811      -279.6735
  28   2.0000     -10.277394      -279.6621
  29   2.0000     -10.276300      -279.6323
  30   2.0000     -10.275704      -279.6161
  31   2.0000     -10.275513      -279.6109
  32   2.0000     -10.274637      -279.5871
  33   2.0000     -10.274634      -279.5870
  34   2.0000     -10.274525      -279.5840
  35   2.0000     -10.273713      -279.5619
  36   2.0000     -10.273678      -279.5610
  37   2.0000     -10.272621      -279.5322
  38   2.0000     -10.272237      -279.5218
  39   2.0000     -10.271162      -279.4925
  40   2.0000     -10.270154      -279.4651
  41   2.0000     -10.269757      -279.4543
  42   2.0000     -10.268275      -279.4140
  43   2.0000     -10.268108      -279.4094
  44   2.0000     -10.267480      -279.3923
  45   2.0000     -10.266858      -279.3754
  46   2.0000     -10.266808      -279.3741
  47   2.0000     -10.265208      -279.3305
  48   2.0000     -10.263816      -279.2926
  49   2.0000     -10.263661      -279.2884
  50   2.0000     -10.261852      -279.2392
  51   2.0000     -10.261388      -279.2266
  52   2.0000     -10.257519      -279.1213
  53   2.0000     -10.256577      -279.0957
  54   2.0000     -10.256181      -279.0849
  55   2.0000      -8.052234      -219.1124
  56   2.0000      -8.048528      -219.0116
  57   2.0000      -8.046367      -218.9528
  58   2.0000      -6.021428      -163.8514
  59   2.0000      -6.017464      -163.7435
  60   2.0000      -6.017433      -163.7427
  61   2.0000      -6.015382      -163.6869
  62   2.0000      -6.014357      -163.6590
  63   2.0000      -6.013481      -163.6351
  64   2.0000      -6.011506      -163.5814
  65   2.0000      -6.011275      -163.5751
  66   2.0000      -6.008941      -163.5116
  67   2.0000      -1.201652       -32.6986
  68   2.0000      -1.198795       -32.6209
  69   2.0000      -1.150304       -31.3014
  70   2.0000      -1.149882       -31.2899
  71   2.0000      -0.995174       -27.0801
  72   2.0000      -0.986674       -26.8488
  73   2.0000      -0.986185       -26.8355
  74   2.0000      -0.971938       -26.4478
  75   2.0000      -0.928700       -25.2712
  76   2.0000      -0.928256       -25.2591
  77   2.0000      -0.917404       -24.9638
  78   2.0000      -0.916553       -24.9407
  79   2.0000      -0.909437       -24.7470
  80   2.0000      -0.901385       -24.5279
  81   2.0000      -0.889685       -24.2096
  82   2.0000      -0.877930       -23.8897
  83   2.0000      -0.876182       -23.8421
  84   2.0000      -0.862358       -23.4660
  85   2.0000      -0.855904       -23.2903
  86   2.0000      -0.851253       -23.1638
  87   2.0000      -0.848638       -23.0926
  88   2.0000      -0.838711       -22.8225
  89   2.0000      -0.837193       -22.7812
  90   2.0000      -0.828033       -22.5319
  91   2.0000      -0.823576       -22.4106
  92   2.0000      -0.815117       -22.1805
  93   2.0000      -0.805330       -21.9141
  94   2.0000      -0.792996       -21.5785
  95   2.0000      -0.787617       -21.4321
  96   2.0000      -0.775127       -21.0923
  97   2.0000      -0.769585       -20.9415
  98   2.0000      -0.760599       -20.6969
  99   2.0000      -0.752592       -20.4791
 100   2.0000      -0.733981       -19.9726
 101   2.0000      -0.723194       -19.6791
 102   2.0000      -0.715070       -19.4581
 103   2.0000      -0.700989       -19.0749
 104   2.0000      -0.692728       -18.8501
 105   2.0000      -0.684879       -18.6365
 106   2.0000      -0.683752       -18.6058
 107   2.0000      -0.673326       -18.3221
 108   2.0000      -0.667900       -18.1745
 109   2.0000      -0.664132       -18.0720
 110   2.0000      -0.650492       -17.7008
 111   2.0000      -0.649043       -17.6614
 112   2.0000      -0.640175       -17.4200
 113   2.0000      -0.637804       -17.3555
 114   2.0000      -0.635105       -17.2821
 115   2.0000      -0.629412       -17.1272
 116   2.0000      -0.627220       -17.0675
 117   2.0000      -0.614525       -16.7221
 118   2.0000      -0.613089       -16.6830
 119   2.0000      -0.604164       -16.4401
 120   2.0000      -0.599967       -16.3259
 121   2.0000      -0.596555       -16.2331
 122   2.0000      -0.590110       -16.0577
 123   2.0000      -0.588526       -16.0146
 124   2.0000      -0.583270       -15.8716
 125   2.0000      -0.576312       -15.6822
 126   2.0000      -0.561967       -15.2919
 127   2.0000      -0.556272       -15.1369
 128   2.0000      -0.554912       -15.0999
 129   2.0000      -0.553725       -15.0676
 130   2.0000      -0.546542       -14.8722
 131   2.0000      -0.543551       -14.7908
 132   2.0000      -0.540548       -14.7090
 133   2.0000      -0.539449       -14.6792
 134   2.0000      -0.537775       -14.6336
 135   2.0000      -0.534566       -14.5463
 136   2.0000      -0.532851       -14.4996
 137   2.0000      -0.530089       -14.4245
 138   2.0000      -0.521433       -14.1889
 139   2.0000      -0.513804       -13.9813
 140   2.0000      -0.513200       -13.9649
 141   2.0000      -0.511145       -13.9090
 142   2.0000      -0.508353       -13.8330
 143   2.0000      -0.502584       -13.6760
 144   2.0000      -0.500457       -13.6181
 145   2.0000      -0.499101       -13.5812
 146   2.0000      -0.494768       -13.4633
 147   2.0000      -0.494246       -13.4491
 148   2.0000      -0.493304       -13.4235
 149   2.0000      -0.487814       -13.2741
 150   2.0000      -0.484003       -13.1704
 151   2.0000      -0.480741       -13.0816
 152   2.0000      -0.479913       -13.0591
 153   2.0000      -0.477784       -13.0012
 154   2.0000      -0.475684       -12.9440
 155   2.0000      -0.470049       -12.7907
 156   2.0000      -0.468133       -12.7385
 157   2.0000      -0.467078       -12.7098
 158   2.0000      -0.460870       -12.5409
 159   2.0000      -0.459935       -12.5155
 160   2.0000      -0.456872       -12.4321
 161   2.0000      -0.454607       -12.3705
 162   2.0000      -0.451219       -12.2783
 163   2.0000      -0.449633       -12.2351
 164   2.0000      -0.440452       -11.9853
 165   2.0000      -0.439706       -11.9650
 166   2.0000      -0.434276       -11.8172
 167   2.0000      -0.432754       -11.7758
 168   2.0000      -0.432212       -11.7611
 169   2.0000      -0.430670       -11.7191
 170   2.0000      -0.428952       -11.6724
 171   2.0000      -0.427651       -11.6370
 172   2.0000      -0.426258       -11.5991
 173   2.0000      -0.423086       -11.5127
 174   2.0000      -0.421630       -11.4731
 175   2.0000      -0.419517       -11.4156
 176   2.0000      -0.418522       -11.3886
 177   2.0000      -0.418140       -11.3782
 178   2.0000      -0.417555       -11.3623
 179   2.0000      -0.410729       -11.1765
 180   2.0000      -0.409065       -11.1312
 181   2.0000      -0.399530       -10.8718
 182   2.0000      -0.398857       -10.8534
 183   2.0000      -0.398026       -10.8308
 184   2.0000      -0.397175       -10.8077
 185   2.0000      -0.388705       -10.5772
 186   2.0000      -0.385866       -10.4999
 187   2.0000      -0.379721       -10.3327
 188   2.0000      -0.368893       -10.0381
 189   2.0000      -0.362178        -9.8554
 190   2.0000      -0.351151        -9.5553
 191   2.0000      -0.343454        -9.3458
 192   2.0000      -0.325786        -8.8651
 193   2.0000      -0.319774        -8.7015
 194   2.0000      -0.311441        -8.4747
 195   2.0000      -0.302124        -8.2212
 196   2.0000      -0.292790        -7.9672
 197   2.0000      -0.287908        -7.8344
 198   2.0000      -0.282939        -7.6992
 199   2.0000      -0.271839        -7.3971
 200   2.0000      -0.259422        -7.0592
 201   2.0000      -0.221096        -6.0163
 202   2.0000      -0.200039        -5.4433
 203   0.0000      -0.072385        -1.9697
 204   0.0000      -0.052150        -1.4191
 205   0.0000      -0.015297        -0.4163
 206   0.0000       0.001835         0.0499
 207   0.0000       0.011400         0.3102

MULLIKEN ATOMIC CHARGES
-----------------------
   0 C :    0.071839
   1 O :   -0.180194
   2 C :    0.136252
   3 C :   -0.047108
   4 C :    0.048083
   5 C :    0.019391
   6 C :    0.015908
   7 C :    0.013961
   8 C :   -0.017880
   9 C :   -0.077536
  10 S :    0.111987
  11 C :   -0.094070
  12 C :    0.131904
  13 C :    0.136408
  14 C :   -0.097602
  15 C :   -0.095524
  16 C :    0.131820
  17 C :    0.219665
  18 O :   -0.309792
  19 C :    0.180700
  20 C :   -0.173150
  21 C :   -0.009353
  22 C :    0.044782
  23 C :   -0.063612
  24 S :    0.128232
  25 C :   -0.057830
  26 C :   -0.085505
  27 C :    0.000475
  28 C :   -0.175966
  29 N :    0.105651
  30 C :    0.015923
  31 C :    0.033467
  32 C :   -0.137255
  33 S :    0.167624
  34 C :   -0.131456
  35 C :    0.125931
  36 C :    0.132213
  37 C :   -0.107304
  38 C :   -0.094200
  39 C :    0.133342
  40 C :    0.223587
  41 O :   -0.310856
  42 C :    0.182730
  43 C :   -0.182144
  44 C :    0.044619
  45 C :   -0.056998
  46 C :    0.111974
  47 O :   -0.198361
  48 C :    0.153591
  49 C :   -0.045039
  50 C :    0.060890
  51 C :   -0.008457
  52 C :    0.007986
  53 C :    0.006488
  54 C :   -0.022006
  55 H :    0.003246
  56 H :    0.008002
  57 H :   -0.013752
  58 H :   -0.024566
  59 H :   -0.021226
  60 H :   -0.010337
  61 H :   -0.020542
  62 H :   -0.043822
  63 H :   -0.000510
  64 H :    0.025940
  65 H :    0.025511
  66 H :    0.037171
  67 H :    0.024710
  68 H :    0.024633
  69 H :   -0.052767
  70 H :   -0.018115
  71 H :   -0.017688
  72 H :   -0.016299
  73 H :   -0.016609
  74 H :    0.002203
  75 H :   -0.040500
  76 H :    0.001851
  77 H :    0.026107
  78 H :    0.025399
  79 H :    0.035994
  80 H :    0.029259
  81 H :    0.017973
  82 H :   -0.050152
  83 H :   -0.003838
  84 H :   -0.008168
  85 H :    0.007218
  86 H :   -0.014609
  87 H :   -0.032267
  88 H :   -0.022075
  89 H :   -0.016620
  90 H :    0.011208
  91 H :    0.019810
Sum of atomic charges:   -0.0000000

LOEWDIN ATOMIC CHARGES
----------------------
   0 C :    0.030493
   1 O :    0.021974
   2 C :    0.033454
   3 C :   -0.070125
   4 C :   -0.076923
   5 C :   -0.016932
   6 C :   -0.031071
   7 C :   -0.024429
   8 C :   -0.048511
   9 C :   -0.164835
  10 S :    0.453432
  11 C :   -0.186575
  12 C :   -0.031838
  13 C :   -0.052595
  14 C :   -0.018967
  15 C :   -0.035002
  16 C :   -0.041155
  17 C :    0.060884
  18 O :   -0.097070
  19 C :    0.076086
  20 C :   -0.085725
  21 C :   -0.027199
  22 C :   -0.067538
  23 C :   -0.164371
  24 S :    0.440181
  25 C :   -0.139622
  26 C :   -0.114952
  27 C :   -0.036255
  28 C :   -0.028581
  29 N :   -0.071951
  30 C :   -0.066713
  31 C :   -0.023713
  32 C :   -0.178513
  33 S :    0.480888
  34 C :   -0.179195
  35 C :   -0.036379
  36 C :   -0.046420
  37 C :   -0.021251
  38 C :   -0.031809
  39 C :   -0.040801
  40 C :    0.059526
  41 O :   -0.098116
  42 C :    0.076332
  43 C :   -0.083399
  44 C :   -0.036728
  45 C :   -0.052316
  46 C :    0.030916
  47 O :    0.011091
  48 C :    0.044095
  49 C :   -0.066990
  50 C :   -0.067102
  51 C :   -0.021864
  52 C :   -0.026924
  53 C :   -0.026201
  54 C :   -0.052004
  55 H :    0.020927
  56 H :    0.021741
  57 H :    0.027595
  58 H :    0.027892
  59 H :    0.025103
  60 H :    0.020931
  61 H :    0.030603
  62 H :    0.024982
  63 H :    0.025779
  64 H :    0.036297
  65 H :    0.036176
  66 H :    0.029167
  67 H :    0.016150
  68 H :    0.016162
  69 H :    0.023214
  70 H :    0.030647
  71 H :    0.019851
  72 H :    0.032725
  73 H :    0.026421
  74 H :    0.036815
  75 H :    0.026477
  76 H :    0.026697
  77 H :    0.036552
  78 H :    0.036710
  79 H :    0.028920
  80 H :    0.017244
  81 H :    0.013596
  82 H :    0.024180
  83 H :    0.031451
  84 H :    0.029784
  85 H :    0.022790
  86 H :    0.028443
  87 H :    0.023567
  88 H :    0.024661
  89 H :    0.025356
  90 H :    0.020510
  91 H :    0.023190

  Mayer bond orders larger than 0.100000
B(  0-C ,  1-O ) :   1.1632 B(  0-C ,  4-C ) :   1.4973 B(  0-C , 55-H ) :   1.0072
B(  1-O ,  2-C ) :   1.1452 B(  2-C ,  3-C ) :   1.5923 B(  2-C , 56-H ) :   0.9998
B(  3-C ,  4-C ) :   1.2100 B(  3-C , 57-H ) :   1.0029 B(  4-C ,  5-C ) :   1.0786
B(  5-C ,  6-C ) :   1.6743 B(  5-C , 58-H ) :   0.9797 B(  6-C ,  7-C ) :   1.1453
B(  6-C , 59-H ) :   0.9835 B(  7-C ,  8-C ) :   1.6127 B(  7-C , 60-H ) :   0.9846
B(  8-C ,  9-C ) :   1.1759 B(  8-C , 61-H ) :   0.9736 B(  9-C , 10-S ) :   1.1312
B(  9-C , 13-C ) :   1.3233 B( 10-S , 11-C ) :   1.1036 B( 11-C , 12-C ) :   1.3270
B( 11-C , 21-C ) :   1.2163 B( 12-C , 13-C ) :   1.2127 B( 12-C , 20-C ) :   1.1687
B( 13-C , 14-C ) :   1.1628 B( 14-C , 15-C ) :   1.5896 B( 14-C , 62-H ) :   0.9938
B( 15-C , 16-C ) :   1.0694 B( 15-C , 17-C ) :   1.2091 B( 16-C , 63-H ) :   0.9518
B( 16-C , 64-H ) :   0.9468 B( 16-C , 65-H ) :   0.9468 B( 17-C , 18-O ) :   1.1824
B( 17-C , 20-C ) :   1.4590 B( 18-O , 19-C ) :   0.9656 B( 19-C , 66-H ) :   0.9777
B( 19-C , 67-H ) :   0.9678 B( 19-C , 68-H ) :   0.9680 B( 20-C , 69-H ) :   0.9920
B( 21-C , 22-C ) :   1.6370 B( 21-C , 70-H ) :   0.9652 B( 22-C , 23-C ) :   1.1305
B( 22-C , 71-H ) :   0.9590 B( 23-C , 24-S ) :   1.1028 B( 23-C , 27-C ) :   1.4826
B( 24-S , 25-C ) :   1.1207 B( 25-C , 26-C ) :   1.4334 B( 25-C , 30-C ) :   1.1831
B( 26-C , 27-C ) :   1.2930 B( 26-C , 28-C ) :   1.1186 B( 27-C , 72-H ) :   0.9984
B( 28-C , 29-N ) :   2.9716 B( 30-C , 31-C ) :   1.6347 B( 30-C , 73-H ) :   0.9420
B( 31-C , 32-C ) :   1.1822 B( 31-C , 74-H ) :   0.9364 B( 32-C , 33-S ) :   1.1528
B( 32-C , 34-C ) :   0.1051 B( 32-C , 36-C ) :   1.3080 B( 33-S , 34-C ) :   1.1464
B( 34-C , 35-C ) :   1.3263 B( 34-C , 44-C ) :   1.1417 B( 35-C , 36-C ) :   1.2316
B( 35-C , 43-C ) :   1.1700 B( 36-C , 37-C ) :   1.1705 B( 37-C , 38-C ) :   1.5665
B( 37-C , 75-H ) :   0.9946 B( 38-C , 39-C ) :   1.0704 B( 38-C , 40-C ) :   1.2212
B( 39-C , 76-H ) :   0.9517 B( 39-C , 77-H ) :   0.9465 B( 39-C , 78-H ) :   0.9461
B( 40-C , 41-O ) :   1.1800 B( 40-C , 43-C ) :   1.4431 B( 41-O , 42-C ) :   0.9667
B( 42-C , 79-H ) :   0.9776 B( 42-C , 80-H ) :   0.9671 B( 42-C , 81-H ) :   0.9677
B( 43-C , 82-H ) :   0.9895 B( 44-C , 45-C ) :   1.6383 B( 44-C , 83-H ) :   0.9572
B( 45-C , 46-C ) :   1.1927 B( 45-C , 84-H ) :   0.9449 B( 46-C , 47-O ) :   1.1527
B( 46-C , 50-C ) :   1.3903 B( 47-O , 48-C ) :   1.1287 B( 48-C , 49-C ) :   1.5710
B( 48-C , 85-H ) :   1.0035 B( 49-C , 50-C ) :   1.2036 B( 49-C , 86-H ) :   0.9983
B( 50-C , 51-C ) :   1.0958 B( 51-C , 52-C ) :   1.7307 B( 51-C , 87-H ) :   0.9680
B( 52-C , 53-C ) :   1.1029 B( 52-C , 88-H ) :   0.9772 B( 53-C , 54-C ) :   1.9040
B( 53-C , 89-H ) :   0.9756 B( 54-C , 90-H ) :   0.9573 B( 54-C , 91-H ) :   0.9521

-----------------------------------------------------------------------------
         ABSORPTION SPECTRUM VIA TRANSITION ELECTRIC DIPOLE MOMENTS
-----------------------------------------------------------------------------
State   Energy  Wavelength   fosc         T2         TX        TY        TZ
        (cm-1)    (nm)                  (au**2)     (au)      (au)      (au)
-----------------------------------------------------------------------------
   0   14349.5    696.9   2.239106753  51.37042   7.09743  -0.11701  -0.99155
   1   19408.5    515.2   0.450991107   7.64982   0.87881   2.13277   1.52604
   2   20582.6    485.8   0.009352591   0.14959  -0.33283   0.19669  -0.01136
   3   25291.1    395.4   0.245315364   3.19325  -0.85335   1.55949  -0.18178
   4   25947.3    385.4   0.027032183   0.34298   0.44398   0.05568   0.37783
   5   28137.3    355.4   0.021895504   0.25618  -0.48279   0.12671   0.08392
   6   28414.2    351.9   0.104559193   1.21144  -0.02807   1.04632  -0.34039
   7   29695.8    336.7   0.095758604   1.06159   0.58485   0.39578   0.75027
   8   30690.3    325.8   0.498410402   5.34640   1.25478   1.94020   0.08687
   9   31539.7    317.1   0.010393092   0.10848  -0.09367   0.02871  -0.31446
  10   32285.0    309.7   0.708788775   7.22755   0.50919   2.46854   0.93519
  11   32493.0    307.8   0.037058518   0.37547   0.41935  -0.42566   0.13575
  12   33791.0    295.9   0.033918998   0.33046  -0.51818   0.23222  -0.08959
  13   34045.3    293.7   0.172476045   1.66781   1.26234  -0.14732  -0.22937
  14   34249.5    292.0   0.018825253   0.18095   0.13468   0.39815   0.06551
  15   34563.2    289.3   0.029076094   0.27695  -0.09303   0.51553  -0.05019
  16   36614.3    273.1   0.002462303   0.02214  -0.13016   0.04737  -0.05435
  17   37412.5    267.3   0.144066203   1.26771   0.47645  -0.99399   0.22955
  18   37504.6    266.6   0.100447921   0.88172   0.07340   0.93607   0.01018
  19   37735.1    265.0   0.012444723   0.10857   0.28110  -0.07314   0.15557
  20   38108.1    262.4   0.087956505   0.75985   0.06149  -0.86952  -0.00296
  21   38754.8    258.0   0.220036574   1.86915  -0.42461  -1.29256  -0.13473
  22   39127.9    255.6   0.048360424   0.40689  -0.46854  -0.37776   0.21133
  23   39451.6    253.5   0.047413542   0.39565   0.59810  -0.18229  -0.06853
  24   39575.7    252.7   0.066621024   0.55419   0.02452  -0.71290  -0.21300
  25   39845.9    251.0   0.011768587   0.09723   0.21565  -0.14696  -0.17069
  26   40032.3    249.8   0.151412296   1.24516   0.15399   1.10068  -0.09973

FINAL SINGLE POINT ENERGY     -3360.235999857327

DIPOLE MOMENT
-------------
                                X             Y             Z
Electronic contribution:    -10.58992     -13.73893       2.15872
Nuclear contribution   :     10.22961      14.71411      -1.94691
                        -----------------------------------------
Total Dipole Moment    :     -0.36031       0.97518       0.21181
                        -----------------------------------------
Magnitude (a.u.)       :      1.06097
Magnitude (Debye)      :      2.69677

Rotational constants in cm-1:     0.001920     0.000328     0.000292
Rotational constants in MHz :    57.572651     9.841652     8.741407

                             ****ORCA TERMINATED NORMALLY****
TOTAL RUN TIME: 0 days 0 hours 5 minutes 57 seconds 674 msec
