                         Program Version 4.2.0 -  RELEASE  -
|  1> # ORCA input file
|  2> # SCF done       -160.756317622080          0.000882769298
|  3> ! CAM-B3LYP def2-SVP def2/J RIJCOSX Grid4 TightSCF
|  4> %maxcore 5000
|  5> %tddft
|  6>     Mode sTDDFT
|  7>     Ethresh 5.0
|  8>     maxcore 5000
|  9> end
| 10>
| 11> %pal
| 12>   nprocs 6
| 13>   end
| 14> * xyz 0 1
| 15>    O        0.19585         2.27969        -7.81777
| 16>    C       -0.19741         3.33831        -7.06613
| 17>    N       -1.21774         3.07636        -6.30524
| 18>    C       -1.52933         1.76973        -6.55597
| 19>    C       -0.64234         1.29375        -7.49543
| 20>    C       -2.63033         1.08544        -5.88446
| 21>    O       -2.93510        -0.06288        -6.07004
| 22>    C        0.51273         4.57850        -7.15733
| 23>    O        0.12481         5.62558        -6.42034
| 24>    C        0.96809         6.65078        -6.66787
| 25>    C        1.92350         6.25798        -7.58711
| 26>    C        1.62787         4.92156        -7.90744
| 27>    C        2.36423         4.05473        -8.86808
| 28>    F        1.58299         3.61183        -9.86755
| 29>    F        3.38377         4.70664        -9.44332
| 30>    F        2.89043         2.96396        -8.28542
| 31>    C        0.79246         7.91184        -6.02322
| 32>    C       -0.26506         8.20746        -5.23825
| 33>    C       -0.43781         9.47049        -4.60239
| 34>    O        0.52609        10.41171        -4.64707
| 35>    C        0.08990        11.50349        -3.97984
| 36>    C       -1.18433        11.27840        -3.49799
| 37>    C       -1.52040         9.97117        -3.88924
| 38>    C       -2.79262         9.25615        -3.61091
| 39>    F       -3.44426         8.90727        -4.73744
| 40>    F       -2.60211         8.11104        -2.92842
| 41>    F       -3.64405         9.99480        -2.89010
| 42>    C        0.92579        12.65693        -3.83500
| 43>    C        2.21602        12.69291        -4.20566
| 44>    C        3.11310        13.81899        -3.98935
| 45>    C        4.35916        13.54107        -3.46558
| 46>    C        5.24176        14.56308        -3.08494
| 47>    C        4.85091        15.87992        -3.28433
| 48>    C        3.62900        16.21060        -3.87671
| 49>    C        2.74668        15.16550        -4.25550
| 50>    C        1.55473        15.48389        -4.96104
| 51>    C        1.21469        16.76849        -5.22057
| 52>    C        2.02844        17.85094        -4.78802
| 53>    C        3.24591        17.58415        -4.11906
| 54>    C        4.02730        18.68150        -3.72368
| 55>    C        3.62892        19.97165        -3.97612
| 56>    C        2.42860        20.22667        -4.63994
| 57>    C        1.64176        19.17763        -5.03857
| 58>    C        6.50599        14.19926        -2.48683
| 59>    C        7.35843        15.02880        -1.85874
| 60>    C        8.58477        14.61799        -1.25984
| 61>    S        9.16713        12.98167        -1.31671
| 62>    C       10.56262        13.38951        -0.41470
| 63>    C       10.59259        14.71359        -0.07800
| 64>    C        9.46828        15.41948        -0.55753
| 65>    S        9.14707        17.13462        -0.34158
| 66>    C       10.40088        17.82847         0.68741
| 67>    O       10.29453        18.99493         0.94989
| 68>    C       11.58831        17.05767         1.23423
| 69>    O       12.37145        17.62590         1.94365
| 70>    S       11.93133        15.36483         0.86332
| 71>    H       -0.52918         0.33955        -7.96765
| 72>    H       -3.16535         1.73635        -5.17230
| 73>    H        2.72444         6.84614        -7.98463
| 74>    H        1.55905         8.64831        -6.21049
| 75>    H       -1.04173         7.47530        -5.07646
| 76>    H       -1.79233        11.95470        -2.93379
| 77>    H        0.45825        13.50460        -3.35596
| 78>    H        2.66568        11.79349        -4.60673
| 79>    H        4.64220        12.51220        -3.29276
| 80>    H        5.52990        16.66441        -2.99791
| 81>    H        0.93526        14.67783        -5.32199
| 82>    H        0.31251        16.99667        -5.76973
| 83>    H        4.95975        18.52842        -3.20440
| 84>    H        4.24864        20.79629        -3.65659
| 85>    H        2.12627        21.24465        -4.83474
| 86>    H        0.70805        19.35613        -5.55235
| 87>    H        6.76093        13.14683        -2.53362
| 88>    H        7.14101        16.08240        -1.75276
| 89>    H       11.29193        12.64428        -0.17195
| 90> *
| 91>
| 92>                          ****END OF INPUT****

CARTESIAN COORDINATES (ANGSTROEM)
---------------------------------
  O      0.195850    2.279690   -7.817770
  C     -0.197410    3.338310   -7.066130
  N     -1.217740    3.076360   -6.305240
  C     -1.529330    1.769730   -6.555970
  C     -0.642340    1.293750   -7.495430
  C     -2.630330    1.085440   -5.884460
  O     -2.935100   -0.062880   -6.070040
  C      0.512730    4.578500   -7.157330
  O      0.124810    5.625580   -6.420340
  C      0.968090    6.650780   -6.667870
  C      1.923500    6.257980   -7.587110
  C      1.627870    4.921560   -7.907440
  C      2.364230    4.054730   -8.868080
  F      1.582990    3.611830   -9.867550
  F      3.383770    4.706640   -9.443320
  F      2.890430    2.963960   -8.285420
  C      0.792460    7.911840   -6.023220
  C     -0.265060    8.207460   -5.238250
  C     -0.437810    9.470490   -4.602390
  O      0.526090   10.411710   -4.647070
  C      0.089900   11.503490   -3.979840
  C     -1.184330   11.278400   -3.497990
  C     -1.520400    9.971170   -3.889240
  C     -2.792620    9.256150   -3.610910
  F     -3.444260    8.907270   -4.737440
  F     -2.602110    8.111040   -2.928420
  F     -3.644050    9.994800   -2.890100
  C      0.925790   12.656930   -3.835000
  C      2.216020   12.692910   -4.205660
  C      3.113100   13.818990   -3.989350
  C      4.359160   13.541070   -3.465580
  C      5.241760   14.563080   -3.084940
  C      4.850910   15.879920   -3.284330
  C      3.629000   16.210600   -3.876710
  C      2.746680   15.165500   -4.255500
  C      1.554730   15.483890   -4.961040
  C      1.214690   16.768490   -5.220570
  C      2.028440   17.850940   -4.788020
  C      3.245910   17.584150   -4.119060
  C      4.027300   18.681500   -3.723680
  C      3.628920   19.971650   -3.976120
  C      2.428600   20.226670   -4.639940
  C      1.641760   19.177630   -5.038570
  C      6.505990   14.199260   -2.486830
  C      7.358430   15.028800   -1.858740
  C      8.584770   14.617990   -1.259840
  S      9.167130   12.981670   -1.316710
  C     10.562620   13.389510   -0.414700
  C     10.592590   14.713590   -0.078000
  C      9.468280   15.419480   -0.557530
  S      9.147070   17.134620   -0.341580
  C     10.400880   17.828470    0.687410
  O     10.294530   18.994930    0.949890
  C     11.588310   17.057670    1.234230
  O     12.371450   17.625900    1.943650
  S     11.931330   15.364830    0.863320
  H     -0.529180    0.339550   -7.967650
  H     -3.165350    1.736350   -5.172300
  H      2.724440    6.846140   -7.984630
  H      1.559050    8.648310   -6.210490
  H     -1.041730    7.475300   -5.076460
  H     -1.792330   11.954700   -2.933790
  H      0.458250   13.504600   -3.355960
  H      2.665680   11.793490   -4.606730
  H      4.642200   12.512200   -3.292760
  H      5.529900   16.664410   -2.997910
  H      0.935260   14.677830   -5.321990
  H      0.312510   16.996670   -5.769730
  H      4.959750   18.528420   -3.204400
  H      4.248640   20.796290   -3.656590
  H      2.126270   21.244650   -4.834740
  H      0.708050   19.356130   -5.552350
  H      6.760930   13.146830   -2.533620
  H      7.141010   16.082400   -1.752760
  H     11.291930   12.644280   -0.171950

 Total Charge           Charge          ....    0
 Multiplicity           Mult            ....    1
 Number of Electrons    NEL             ....  416
 Basis Dimension        Dim             ....  891

ORBITAL ENERGIES
----------------

  NO   OCC          E(Eh)            E(eV)
   0   2.0000     -88.978688     -2421.2332
   1   2.0000     -88.971072     -2421.0259
   2   2.0000     -88.968554     -2420.9574
   3   2.0000     -24.805318      -674.9870
   4   2.0000     -24.802892      -674.9210
   5   2.0000     -24.798547      -674.8028
   6   2.0000     -24.798353      -674.7975
   7   2.0000     -24.796741      -674.7536
   8   2.0000     -24.795698      -674.7252
   9   2.0000     -19.327883      -525.9384
  10   2.0000     -19.320917      -525.7489
  11   2.0000     -19.311487      -525.4923
  12   2.0000     -19.240376      -523.5572
  13   2.0000     -19.239228      -523.5260
  14   2.0000     -19.215941      -522.8923
  15   2.0000     -14.427328      -392.5875
  16   2.0000     -10.526485      -286.4402
  17   2.0000     -10.521722      -286.3106
  18   2.0000     -10.406082      -283.1639
  19   2.0000     -10.405045      -283.1357
  20   2.0000     -10.387693      -282.6635
  21   2.0000     -10.369928      -282.1801
  22   2.0000     -10.360700      -281.9290
  23   2.0000     -10.357665      -281.8464
  24   2.0000     -10.356620      -281.8180
  25   2.0000     -10.355630      -281.7910
  26   2.0000     -10.348605      -281.5999
  27   2.0000     -10.330471      -281.1064
  28   2.0000     -10.329291      -281.0743
  29   2.0000     -10.325202      -280.9630
  30   2.0000     -10.318056      -280.7686
  31   2.0000     -10.312745      -280.6241
  32   2.0000     -10.312371      -280.6139
  33   2.0000     -10.303253      -280.3658
  34   2.0000     -10.302192      -280.3369
  35   2.0000     -10.300732      -280.2972
  36   2.0000     -10.300255      -280.2842
  37   2.0000     -10.296419      -280.1798
  38   2.0000     -10.294079      -280.1161
  39   2.0000     -10.292850      -280.0827
  40   2.0000     -10.292757      -280.0802
  41   2.0000     -10.290783      -280.0264
  42   2.0000     -10.290370      -280.0152
  43   2.0000     -10.289280      -279.9855
  44   2.0000     -10.288858      -279.9740
  45   2.0000     -10.288218      -279.9566
  46   2.0000     -10.283814      -279.8368
  47   2.0000     -10.280792      -279.7546
  48   2.0000     -10.279914      -279.7307
  49   2.0000     -10.279880      -279.7298
  50   2.0000     -10.275688      -279.6157
  51   2.0000     -10.274174      -279.5745
  52   2.0000     -10.273844      -279.5655
  53   2.0000     -10.273156      -279.5468
  54   2.0000     -10.272779      -279.5365
  55   2.0000     -10.272414      -279.5266
  56   2.0000      -8.074409      -219.7159
  57   2.0000      -8.067542      -219.5290
  58   2.0000      -8.065409      -219.4709
  59   2.0000      -6.043669      -164.4566
  60   2.0000      -6.039540      -164.3442
  61   2.0000      -6.037421      -164.2866
  62   2.0000      -6.036499      -164.2615
  63   2.0000      -6.035303      -164.2289
  64   2.0000      -6.032869      -164.1627
  65   2.0000      -6.030808      -164.1066
  66   2.0000      -6.028378      -164.0405
  67   2.0000      -6.026066      -163.9776
  68   2.0000      -1.391684       -37.8697
  69   2.0000      -1.388452       -37.7817
  70   2.0000      -1.295594       -35.2549
  71   2.0000      -1.293394       -35.1950
  72   2.0000      -1.290597       -35.1189
  73   2.0000      -1.286789       -35.0153
  74   2.0000      -1.258896       -34.2563
  75   2.0000      -1.242481       -33.8096
  76   2.0000      -1.231153       -33.5014
  77   2.0000      -1.178538       -32.0697
  78   2.0000      -1.145712       -31.1764
  79   2.0000      -1.129934       -30.7471
  80   2.0000      -1.035782       -28.1851
  81   2.0000      -1.019869       -27.7520
  82   2.0000      -0.986353       -26.8400
  83   2.0000      -0.956108       -26.0170
  84   2.0000      -0.946427       -25.7536
  85   2.0000      -0.940791       -25.6002
  86   2.0000      -0.935930       -25.4679
  87   2.0000      -0.930868       -25.3302
  88   2.0000      -0.926099       -25.2004
  89   2.0000      -0.918999       -25.0072
  90   2.0000      -0.909688       -24.7539
  91   2.0000      -0.902085       -24.5470
  92   2.0000      -0.885978       -24.1087
  93   2.0000      -0.878275       -23.8991
  94   2.0000      -0.859665       -23.3927
  95   2.0000      -0.847938       -23.0736
  96   2.0000      -0.833915       -22.6920
  97   2.0000      -0.828104       -22.5339
  98   2.0000      -0.820664       -22.3314
  99   2.0000      -0.814972       -22.1765
 100   2.0000      -0.806123       -21.9357
 101   2.0000      -0.796909       -21.6850
 102   2.0000      -0.791543       -21.5390
 103   2.0000      -0.778938       -21.1960
 104   2.0000      -0.757419       -20.6104
 105   2.0000      -0.751081       -20.4379
 106   2.0000      -0.741354       -20.1733
 107   2.0000      -0.729404       -19.8481
 108   2.0000      -0.726455       -19.7678
 109   2.0000      -0.720625       -19.6092
 110   2.0000      -0.716993       -19.5104
 111   2.0000      -0.705577       -19.1997
 112   2.0000      -0.704305       -19.1651
 113   2.0000      -0.700193       -19.0532
 114   2.0000      -0.697193       -18.9716
 115   2.0000      -0.688298       -18.7295
 116   2.0000      -0.678418       -18.4607
 117   2.0000      -0.674047       -18.3417
 118   2.0000      -0.670654       -18.2494
 119   2.0000      -0.670564       -18.2470
 120   2.0000      -0.669128       -18.2079
 121   2.0000      -0.667827       -18.1725
 122   2.0000      -0.658328       -17.9140
 123   2.0000      -0.638160       -17.3652
 124   2.0000      -0.629596       -17.1322
 125   2.0000      -0.624993       -17.0069
 126   2.0000      -0.619760       -16.8645
 127   2.0000      -0.617604       -16.8059
 128   2.0000      -0.616568       -16.7777
 129   2.0000      -0.606022       -16.4907
 130   2.0000      -0.604730       -16.4555
 131   2.0000      -0.598554       -16.2875
 132   2.0000      -0.587368       -15.9831
 133   2.0000      -0.583674       -15.8826
 134   2.0000      -0.580054       -15.7841
 135   2.0000      -0.578081       -15.7304
 136   2.0000      -0.574320       -15.6281
 137   2.0000      -0.571304       -15.5460
 138   2.0000      -0.570767       -15.5314
 139   2.0000      -0.565614       -15.3911
 140   2.0000      -0.561078       -15.2677
 141   2.0000      -0.556949       -15.1554
 142   2.0000      -0.551028       -14.9942
 143   2.0000      -0.549866       -14.9626
 144   2.0000      -0.549813       -14.9612
 145   2.0000      -0.547814       -14.9068
 146   2.0000      -0.547431       -14.8964
 147   2.0000      -0.546817       -14.8796
 148   2.0000      -0.542804       -14.7704
 149   2.0000      -0.534271       -14.5383
 150   2.0000      -0.526753       -14.3337
 151   2.0000      -0.523269       -14.2389
 152   2.0000      -0.519569       -14.1382
 153   2.0000      -0.516914       -14.0660
 154   2.0000      -0.513267       -13.9667
 155   2.0000      -0.512534       -13.9468
 156   2.0000      -0.510301       -13.8860
 157   2.0000      -0.510227       -13.8840
 158   2.0000      -0.509304       -13.8589
 159   2.0000      -0.508689       -13.8421
 160   2.0000      -0.507759       -13.8168
 161   2.0000      -0.507452       -13.8085
 162   2.0000      -0.505444       -13.7538
 163   2.0000      -0.498930       -13.5766
 164   2.0000      -0.492586       -13.4040
 165   2.0000      -0.490894       -13.3579
 166   2.0000      -0.487256       -13.2589
 167   2.0000      -0.486213       -13.2305
 168   2.0000      -0.484108       -13.1732
 169   2.0000      -0.483718       -13.1626
 170   2.0000      -0.483695       -13.1620
 171   2.0000      -0.480555       -13.0766
 172   2.0000      -0.478586       -13.0230
 173   2.0000      -0.475451       -12.9377
 174   2.0000      -0.474198       -12.9036
 175   2.0000      -0.469858       -12.7855
 176   2.0000      -0.467222       -12.7138
 177   2.0000      -0.464784       -12.6474
 178   2.0000      -0.460624       -12.5342
 179   2.0000      -0.457504       -12.4493
 180   2.0000      -0.447235       -12.1699
 181   2.0000      -0.446073       -12.1383
 182   2.0000      -0.441623       -12.0172
 183   2.0000      -0.434890       -11.8340
 184   2.0000      -0.426207       -11.5977
 185   2.0000      -0.425285       -11.5726
 186   2.0000      -0.419350       -11.4111
 187   2.0000      -0.413392       -11.2490
 188   2.0000      -0.406288       -11.0557
 189   2.0000      -0.400422       -10.8960
 190   2.0000      -0.397464       -10.8155
 191   2.0000      -0.396280       -10.7833
 192   2.0000      -0.392232       -10.6732
 193   2.0000      -0.389055       -10.5867
 194   2.0000      -0.388340       -10.5673
 195   2.0000      -0.383186       -10.4270
 196   2.0000      -0.372364       -10.1325
 197   2.0000      -0.366960        -9.9855
 198   2.0000      -0.349213        -9.5026
 199   2.0000      -0.341239        -9.2856
 200   2.0000      -0.336833        -9.1657
 201   2.0000      -0.336117        -9.1462
 202   2.0000      -0.310666        -8.4537
 203   2.0000      -0.304004        -8.2724
 204   2.0000      -0.297762        -8.1025
 205   2.0000      -0.289908        -7.8888
 206   2.0000      -0.264756        -7.2044
 207   2.0000      -0.252477        -6.8702
 208   0.0000      -0.068001        -1.8504
 209   0.0000      -0.059838        -1.6283
 210   0.0000      -0.049907        -1.3580
 211   0.0000      -0.026978        -0.7341
 212   0.0000      -0.019672        -0.5353

MULLIKEN ATOMIC CHARGES
-----------------------
   0 O :   -0.165140
   1 C :    0.035030
   2 N :   -0.055746
   3 C :   -0.053073
   4 C :    0.148402
   5 C :    0.170501
   6 O :   -0.172936
   7 C :    0.152548
   8 O :   -0.167534
   9 C :    0.199494
  10 C :   -0.063929
  11 C :   -0.130576
  12 C :    0.538242
  13 F :   -0.161867
  14 F :   -0.154992
  15 F :   -0.162692
  16 C :   -0.019875
  17 C :   -0.012094
  18 C :    0.125676
  19 O :   -0.196467
  20 C :    0.174076
  21 C :   -0.064720
  22 C :   -0.098755
  23 C :    0.521837
  24 F :   -0.167122
  25 F :   -0.166408
  26 F :   -0.153616
  27 C :   -0.006042
  28 C :   -0.033400
  29 C :    0.088541
  30 C :   -0.094632
  31 C :    0.148439
  32 C :   -0.107413
  33 C :    0.134444
  34 C :    0.048168
  35 C :   -0.042724
  36 C :   -0.009160
  37 C :    0.059011
  38 C :    0.091051
  39 C :   -0.044571
  40 C :    0.030176
  41 C :    0.033318
  42 C :   -0.023204
  43 C :   -0.018967
  44 C :    0.012740
  45 C :   -0.123187
  46 S :    0.148227
  47 C :   -0.099041
  48 C :   -0.035449
  49 C :   -0.011491
  50 S :    0.071809
  51 C :    0.080609
  52 O :   -0.133088
  53 C :    0.064325
  54 O :   -0.132199
  55 S :    0.101775
  56 H :    0.039973
  57 H :   -0.006095
  58 H :    0.000330
  59 H :    0.008942
  60 H :    0.031527
  61 H :   -0.003040
  62 H :    0.012792
  63 H :    0.010447
  64 H :   -0.035275
  65 H :   -0.045988
  66 H :   -0.018859
  67 H :   -0.029689
  68 H :   -0.032490
  69 H :   -0.014028
  70 H :   -0.013489
  71 H :   -0.027781
  72 H :   -0.014601
  73 H :    0.007663
  74 H :    0.033333
Sum of atomic charges:    0.0000000

LOEWDIN ATOMIC CHARGES
----------------------
   0 O :    0.039092
   1 C :    0.025402
   2 N :   -0.080396
   3 C :   -0.106547
   4 C :    0.081745
   5 C :    0.105260
   6 O :   -0.128144
   7 C :    0.026458
   8 O :    0.050962
   9 C :    0.042015
  10 C :   -0.040525
  11 C :   -0.109939
  12 C :    0.164050
  13 F :   -0.061408
  14 F :   -0.055312
  15 F :   -0.062274
  16 C :   -0.028528
  17 C :   -0.022984
  18 C :    0.046576
  19 O :    0.024334
  20 C :    0.037909
  21 C :   -0.044470
  22 C :   -0.119271
  23 C :    0.168497
  24 F :   -0.067128
  25 F :   -0.065543
  26 F :   -0.053221
  27 C :   -0.037807
  28 C :   -0.003014
  29 C :   -0.018111
  30 C :   -0.011752
  31 C :   -0.029496
  32 C :   -0.002337
  33 C :   -0.002473
  34 C :   -0.010362
  35 C :   -0.024892
  36 C :   -0.012069
  37 C :   -0.018017
  38 C :   -0.009731
  39 C :   -0.015447
  40 C :   -0.020313
  41 C :   -0.021441
  42 C :   -0.014338
  43 C :   -0.009313
  44 C :   -0.046251
  45 C :   -0.185191
  46 S :    0.465630
  47 C :   -0.200854
  48 C :   -0.222276
  49 C :   -0.222862
  50 S :    0.382701
  51 C :   -0.112564
  52 O :   -0.105051
  53 C :   -0.114075
  54 O :   -0.104578
  55 S :    0.380811
  56 H :    0.039455
  57 H :    0.003985
  58 H :    0.039321
  59 H :    0.041171
  60 H :    0.044629
  61 H :    0.037886
  62 H :    0.041505
  63 H :    0.031903
  64 H :    0.025978
  65 H :    0.023401
  66 H :    0.029834
  67 H :    0.028674
  68 H :    0.025421
  69 H :    0.029779
  70 H :    0.029427
  71 H :    0.027564
  72 H :    0.022642
  73 H :    0.026693
  74 H :    0.029596

  Mayer bond orders larger than 0.100000
B(  0-O ,  1-C ) :   1.2016 B(  0-O ,  4-C ) :   1.1690 B(  1-C ,  2-N ) :   1.7418
B(  1-C ,  7-C ) :   1.0262 B(  2-N ,  3-C ) :   1.2988 B(  3-C ,  4-C ) :   1.5031
B(  3-C ,  5-C ) :   0.9621 B(  4-C , 56-H ) :   0.9904 B(  5-C ,  6-O ) :   2.2081
B(  5-C , 57-H ) :   0.9527 B(  7-C ,  8-O ) :   1.2147 B(  7-C ,  9-C ) :   0.1229
B(  7-C , 11-C ) :   1.4965 B(  8-O ,  9-C ) :   1.1424 B(  9-C , 10-C ) :   1.4245
B(  9-C , 16-C ) :   1.1203 B( 10-C , 11-C ) :   1.2498 B( 10-C , 58-H ) :   1.0209
B( 11-C , 12-C ) :   0.9357 B( 12-C , 13-F ) :   1.1781 B( 12-C , 14-F ) :   1.1841
B( 12-C , 15-F ) :   1.1752 B( 16-C , 17-C ) :   1.6471 B( 16-C , 59-H ) :   0.9738
B( 17-C , 18-C ) :   1.1577 B( 17-C , 60-H ) :   0.9529 B( 18-C , 19-O ) :   1.1676
B( 18-C , 20-C ) :   0.1007 B( 18-C , 22-C ) :   1.4469 B( 19-O , 20-C ) :   1.1371
B( 20-C , 21-C ) :   1.4412 B( 20-C , 27-C ) :   1.1332 B( 21-C , 22-C ) :   1.2431
B( 21-C , 61-H ) :   1.0230 B( 22-C , 23-C ) :   0.9469 B( 23-C , 24-F ) :   1.1685
B( 23-C , 25-F ) :   1.1630 B( 23-C , 26-F ) :   1.1832 B( 27-C , 28-C ) :   1.7349
B( 27-C , 62-H ) :   0.9653 B( 28-C , 29-C ) :   1.0104 B( 28-C , 63-H ) :   0.9679
B( 29-C , 30-C ) :   1.4191 B( 29-C , 34-C ) :   1.2640 B( 30-C , 31-C ) :   1.2527
B( 30-C , 64-H ) :   1.0031 B( 31-C , 32-C ) :   1.3823 B( 31-C , 43-C ) :   1.0582
B( 32-C , 33-C ) :   1.3143 B( 32-C , 65-H ) :   0.9867 B( 33-C , 34-C ) :   1.2766
B( 33-C , 38-C ) :   1.0851 B( 34-C , 35-C ) :   1.1615 B( 35-C , 36-C ) :   1.5664
B( 35-C , 66-H ) :   0.9892 B( 36-C , 37-C ) :   1.1458 B( 36-C , 67-H ) :   0.9946
B( 37-C , 38-C ) :   1.3065 B( 37-C , 42-C ) :   1.2783 B( 38-C , 39-C ) :   1.3076
B( 39-C , 40-C ) :   1.4653 B( 39-C , 68-H ) :   0.9862 B( 40-C , 41-C ) :   1.3001
B( 40-C , 69-H ) :   0.9845 B( 41-C , 42-C ) :   1.4534 B( 41-C , 70-H ) :   0.9905
B( 42-C , 71-H ) :   0.9969 B( 43-C , 44-C ) :   1.7134 B( 43-C , 72-H ) :   0.9830
B( 44-C , 45-C ) :   1.1457 B( 44-C , 73-H ) :   0.9545 B( 45-C , 46-S ) :   1.1407
B( 45-C , 49-C ) :   1.5521 B( 46-S , 47-C ) :   1.1693 B( 47-C , 48-C ) :   1.5925
B( 47-C , 74-H ) :   0.9698 B( 48-C , 49-C ) :   1.2729 B( 48-C , 55-S ) :   0.9543
B( 49-C , 50-S ) :   0.9672 B( 50-S , 51-C ) :   1.0544 B( 50-S , 52-O ) :   0.1387
B( 51-C , 52-O ) :   2.1548 B( 51-C , 53-C ) :   0.7722 B( 53-C , 54-O ) :   2.1567
B( 53-C , 55-S ) :   1.0592 B( 54-O , 55-S ) :   0.1411

-----------------------------------------------------------------------------
         ABSORPTION SPECTRUM VIA TRANSITION ELECTRIC DIPOLE MOMENTS
-----------------------------------------------------------------------------
State   Energy  Wavelength   fosc         T2         TX        TY        TZ
        (cm-1)    (nm)                  (au**2)     (au)      (au)      (au)
-----------------------------------------------------------------------------
   0   24807.1    403.1   1.542233149  20.46677  -0.83408  -4.24972  -1.30802
   1   27352.9    365.6   0.475144920   5.71871  -1.96709   0.26282  -1.33424
   2   28562.7    350.1   0.065232151   0.75186   0.61338   0.32502   0.51960
   3   28998.6    344.8   0.231203720   2.62478  -1.15085   0.23271  -1.11632
   4   30057.1    332.7   0.000876807   0.00960   0.01488   0.09252   0.02868
   5   31483.4    317.6   0.532306204   5.56616  -2.08930   0.96113  -0.52651
   6   32362.2    309.0   0.235791917   2.39865   1.41286   0.34678   0.53125
   7   33964.3    294.4   0.226295296   2.19345  -0.10778  -1.39829  -0.47606
   8   34458.6    290.2   0.025347168   0.24216  -0.22839   0.41682  -0.12753
   9   34656.8    288.5   0.058831693   0.55885  -0.74568  -0.02937  -0.04411
  10   35452.9    282.1   0.032060039   0.29771  -0.18663  -0.46464  -0.21677
  11   36157.7    276.6   0.035495184   0.32318  -0.36672  -0.32176  -0.29183
  12   37302.6    268.1   0.086720156   0.76534   0.76604   0.38070   0.18330
  13   37859.2    264.1   0.004513828   0.03925   0.13586  -0.14342  -0.01494
  14   38084.7    262.6   0.050979037   0.44067  -0.63796  -0.15738  -0.09439
  15   38306.9    261.0   0.011416694   0.09812  -0.27083  -0.10930  -0.11323
  16   38799.0    257.7   0.113636971   0.96422   0.48502   0.83717  -0.16771
  17   39099.4    255.8   0.091717042   0.77225  -0.80960  -0.32949  -0.09078
  18   39833.2    251.0   0.041247552   0.34090   0.49620  -0.11993  -0.28338
  19   40008.8    249.9   0.015548739   0.12794   0.35568  -0.01778  -0.03346

FINAL SINGLE POINT ENERGY     -3831.923054221235

DIPOLE MOMENT
-------------
                                X             Y             Z
Electronic contribution:     -6.60206     -56.13184      -7.87512
Nuclear contribution   :      6.77686      56.57239       6.86559
                        -----------------------------------------
Total Dipole Moment    :      0.17480       0.44055      -1.00954
                        -----------------------------------------
Magnitude (a.u.)       :      1.11526
Magnitude (Debye)      :      2.83477

Rotational constants in cm-1:     0.001630     0.000388     0.000340
Rotational constants in MHz :    48.856848    11.623160    10.198106

                             ****ORCA TERMINATED NORMALLY****
TOTAL RUN TIME: 0 days 0 hours 4 minutes 29 seconds 125 msec
