                         Program Version 4.2.0 -  RELEASE  -
|  1> # ORCA input file
|  2> # SCF done       -178.742176800822          0.000374216887
|  3> ! CAM-B3LYP def2-SVP def2/J RIJCOSX Grid4 TightSCF
|  4> %maxcore 5000
|  5> %tddft
|  6>     Mode sTDDFT
|  7>     Ethresh 5.0
|  8>     maxcore 5000
|  9> end
| 10>
| 11> %pal
| 12>   nprocs 6
| 13>   end
| 14> * xyz 0 1
| 15>    C      -11.11626        -0.60914        -3.94548
| 16>    C      -12.28157        -0.24519        -3.30810
| 17>    C      -13.56359        -0.32240        -3.88750
| 18>    N      -14.63694        -0.32243        -4.29720
| 19>    C      -12.39463         0.26148        -2.00162
| 20>    N      -12.59612         0.64479        -0.93556
| 21>    C      -11.05233        -1.24983        -5.25413
| 22>    C       -9.69438        -1.47155        -5.58380
| 23>    C       -9.30451        -2.06687        -6.75729
| 24>    C      -10.30540        -2.47127        -7.64836
| 25>    C      -11.66029        -2.24962        -7.30862
| 26>    C      -12.05392        -1.64361        -6.12175
| 27>    S      -12.73276        -2.82120        -8.55140
| 28>    C      -11.36410        -3.34270        -9.49702
| 29>    C      -10.16550        -3.10311        -8.91426
| 30>   Br      -11.64663        -4.15349       -11.16485
| 31>    C       -8.83098        -0.93864        -4.50534
| 32>    O       -7.62424        -0.84624        -4.55018
| 33>    C       -9.76323        -0.44539        -3.46191
| 34>    C       -9.44137         0.22867        -2.30813
| 35>    C       -8.17822         0.38030        -1.69633
| 36>    C       -7.91285         1.41308        -0.79218
| 37>    O       -6.66920         1.61912        -0.26437
| 38>    C       -5.69036         0.76403        -0.68792
| 39>    C       -5.97202        -0.30832        -1.58170
| 40>    C       -4.87223        -1.04029        -1.88675
| 41>    S       -3.47606        -0.42976        -1.08070
| 42>    C       -4.38385         0.82590        -0.32835
| 43>    O       -7.22762        -0.54133        -2.04245
| 44>    C       -8.88696         2.36083        -0.39782
| 45>    C       -8.62467         3.52224         0.26566
| 46>    C       -9.59449         4.49092         0.60126
| 47>    S       -9.04101         6.08832         1.06082
| 48>    C      -10.66276         6.73593         1.07182
| 49>    C      -11.57912         5.69974         0.87170
| 50>    C      -10.98969         4.46687         0.57111
| 51>    S      -11.91919         3.05418         0.06873
| 52>    C      -13.43859         3.78149        -0.54290
| 53>    O      -13.91933         3.37595        -1.55800
| 54>    C      -14.16451         4.73273         0.37635
| 55>    O      -15.35884         4.66924         0.48566
| 56>    S      -13.26077         5.87470         1.36340
| 57>    C      -10.87868         8.12352         1.15056
| 58>    C      -11.87925         8.80538         0.49603
| 59>    C      -12.11593        10.20306         0.53209
| 60>    C      -13.10327        10.62975        -0.30555
| 61>    C      -13.70242         9.59503        -1.05585
| 62>    S      -12.95988         8.06173        -0.66504
| 63>    C      -14.73855         9.64534        -1.96820
| 64>    C      -15.44633        10.77923        -2.43353
| 65>    C      -16.41705        10.48175        -3.33802
| 66>    C      -16.53181         9.09710        -3.63179
| 67>    S      -15.35007         8.18591        -2.71357
| 68>    C      -17.41797         8.51556        -4.49825
| 69>    C      -17.50149         7.12919        -4.73407
| 70>    O      -16.70524         6.25550        -4.08602
| 71>    C      -17.00537         5.00427        -4.49920
| 72>    C      -18.01786         5.05925        -5.44172
| 73>    C      -18.33889         6.41409        -5.59478
| 74>    C      -19.35837         7.00141        -6.49785
| 75>    F      -20.29121         7.71557        -5.83473
| 76>    F      -18.82249         7.85918        -7.39263
| 77>    F      -20.01592         6.07673        -7.20450
| 78>    C      -16.28230         3.89703        -3.93871
| 79>    C      -16.47549         2.62454        -4.28383
| 80>    H       -8.26039        -2.21835        -6.98202
| 81>    H      -13.09958        -1.49491        -5.91053
| 82>    H       -9.22078        -3.35949        -9.35784
| 83>    H      -10.26225         0.71069        -1.80245
| 84>    H       -4.80880        -1.88830        -2.53503
| 85>    H       -3.91156         1.52628         0.32817
| 86>    H       -9.90149         2.15169        -0.67840
| 87>    H       -7.59922         3.77996         0.49315
| 88>    H      -10.12551         8.71165         1.65658
| 89>    H      -11.55047        10.84616         1.18277
| 90>    H      -13.41723        11.65388        -0.39815
| 91>    H      -15.21732        11.77230        -2.09109
| 92>    H      -17.06185        11.20422        -3.80579
| 93>    H      -18.10598         9.14653        -5.03999
| 94>    H      -18.47271         4.23739        -5.95386
| 95>    H      -15.54872         4.15907        -3.18991
| 96>    H      -17.20126         2.33522        -5.02439
| 97>    H      -15.90339         1.83254        -3.83466
| 98> *
| 99>
|100>                          ****END OF INPUT****

CARTESIAN COORDINATES (ANGSTROEM)
---------------------------------
  C    -11.116260   -0.609140   -3.945480
  C    -12.281570   -0.245190   -3.308100
  C    -13.563590   -0.322400   -3.887500
  N    -14.636940   -0.322430   -4.297200
  C    -12.394630    0.261480   -2.001620
  N    -12.596120    0.644790   -0.935560
  C    -11.052330   -1.249830   -5.254130
  C     -9.694380   -1.471550   -5.583800
  C     -9.304510   -2.066870   -6.757290
  C    -10.305400   -2.471270   -7.648360
  C    -11.660290   -2.249620   -7.308620
  C    -12.053920   -1.643610   -6.121750
  S    -12.732760   -2.821200   -8.551400
  C    -11.364100   -3.342700   -9.497020
  C    -10.165500   -3.103110   -8.914260
  Br   -11.646630   -4.153490  -11.164850
  C     -8.830980   -0.938640   -4.505340
  O     -7.624240   -0.846240   -4.550180
  C     -9.763230   -0.445390   -3.461910
  C     -9.441370    0.228670   -2.308130
  C     -8.178220    0.380300   -1.696330
  C     -7.912850    1.413080   -0.792180
  O     -6.669200    1.619120   -0.264370
  C     -5.690360    0.764030   -0.687920
  C     -5.972020   -0.308320   -1.581700
  C     -4.872230   -1.040290   -1.886750
  S     -3.476060   -0.429760   -1.080700
  C     -4.383850    0.825900   -0.328350
  O     -7.227620   -0.541330   -2.042450
  C     -8.886960    2.360830   -0.397820
  C     -8.624670    3.522240    0.265660
  C     -9.594490    4.490920    0.601260
  S     -9.041010    6.088320    1.060820
  C    -10.662760    6.735930    1.071820
  C    -11.579120    5.699740    0.871700
  C    -10.989690    4.466870    0.571110
  S    -11.919190    3.054180    0.068730
  C    -13.438590    3.781490   -0.542900
  O    -13.919330    3.375950   -1.558000
  C    -14.164510    4.732730    0.376350
  O    -15.358840    4.669240    0.485660
  S    -13.260770    5.874700    1.363400
  C    -10.878680    8.123520    1.150560
  C    -11.879250    8.805380    0.496030
  C    -12.115930   10.203060    0.532090
  C    -13.103270   10.629750   -0.305550
  C    -13.702420    9.595030   -1.055850
  S    -12.959880    8.061730   -0.665040
  C    -14.738550    9.645340   -1.968200
  C    -15.446330   10.779230   -2.433530
  C    -16.417050   10.481750   -3.338020
  C    -16.531810    9.097100   -3.631790
  S    -15.350070    8.185910   -2.713570
  C    -17.417970    8.515560   -4.498250
  C    -17.501490    7.129190   -4.734070
  O    -16.705240    6.255500   -4.086020
  C    -17.005370    5.004270   -4.499200
  C    -18.017860    5.059250   -5.441720
  C    -18.338890    6.414090   -5.594780
  C    -19.358370    7.001410   -6.497850
  F    -20.291210    7.715570   -5.834730
  F    -18.822490    7.859180   -7.392630
  F    -20.015920    6.076730   -7.204500
  C    -16.282300    3.897030   -3.938710
  C    -16.475490    2.624540   -4.283830
  H     -8.260390   -2.218350   -6.982020
  H    -13.099580   -1.494910   -5.910530
  H     -9.220780   -3.359490   -9.357840
  H    -10.262250    0.710690   -1.802450
  H     -4.808800   -1.888300   -2.535030
  H     -3.911560    1.526280    0.328170
  H     -9.901490    2.151690   -0.678400
  H     -7.599220    3.779960    0.493150
  H    -10.125510    8.711650    1.656580
  H    -11.550470   10.846160    1.182770
  H    -13.417230   11.653880   -0.398150
  H    -15.217320   11.772300   -2.091090
  H    -17.061850   11.204220   -3.805790
  H    -18.105980    9.146530   -5.039990
  H    -18.472710    4.237390   -5.953860
  H    -15.548720    4.159070   -3.189910
  H    -17.201260    2.335220   -5.024390
  H    -15.903390    1.832540   -3.834660

 Total Charge           Charge          ....    0
 Multiplicity           Mult            ....    1
 Number of Electrons    NEL             ....  530
 Basis Dimension        Dim             .... 1046

ORBITAL ENERGIES
----------------

  NO   OCC          E(Eh)            E(eV)
   0   2.0000    -482.882249    -13139.8940
   1   2.0000     -88.970779     -2421.0180
   2   2.0000     -88.967823     -2420.9375
   3   2.0000     -88.961405     -2420.7629
   4   2.0000     -88.960428     -2420.7363
   5   2.0000     -88.959149     -2420.7015
   6   2.0000     -88.949602     -2420.4417
   7   2.0000     -88.948830     -2420.4207
   8   2.0000     -62.559970     -1702.3433
   9   2.0000     -56.393915     -1534.5565
  10   2.0000     -56.391210     -1534.4828
  11   2.0000     -56.391174     -1534.4818
  12   2.0000     -24.795438      -674.7182
  13   2.0000     -24.788823      -674.5382
  14   2.0000     -24.788175      -674.5205
  15   2.0000     -19.299690      -525.1713
  16   2.0000     -19.296047      -525.0721
  17   2.0000     -19.272222      -524.4238
  18   2.0000     -19.251921      -523.8714
  19   2.0000     -19.232767      -523.3502
  20   2.0000     -19.203292      -522.5481
  21   2.0000     -14.415528      -392.2665
  22   2.0000     -14.411326      -392.1521
  23   2.0000     -10.513405      -286.0843
  24   2.0000     -10.405082      -283.1367
  25   2.0000     -10.396119      -282.8928
  26   2.0000     -10.376686      -282.3640
  27   2.0000     -10.357453      -281.8406
  28   2.0000     -10.357312      -281.8368
  29   2.0000     -10.354765      -281.7675
  30   2.0000     -10.346780      -281.5502
  31   2.0000     -10.342573      -281.4357
  32   2.0000     -10.342098      -281.4228
  33   2.0000     -10.336523      -281.2711
  34   2.0000     -10.334275      -281.2099
  35   2.0000     -10.334232      -281.2088
  36   2.0000     -10.327261      -281.0191
  37   2.0000     -10.325805      -280.9794
  38   2.0000     -10.320794      -280.8431
  39   2.0000     -10.320000      -280.8215
  40   2.0000     -10.319910      -280.8190
  41   2.0000     -10.319340      -280.8035
  42   2.0000     -10.319071      -280.7962
  43   2.0000     -10.318572      -280.7826
  44   2.0000     -10.316009      -280.7129
  45   2.0000     -10.315214      -280.6913
  46   2.0000     -10.313988      -280.6579
  47   2.0000     -10.310547      -280.5643
  48   2.0000     -10.307938      -280.4932
  49   2.0000     -10.302476      -280.3446
  50   2.0000     -10.301667      -280.3226
  51   2.0000     -10.301056      -280.3060
  52   2.0000     -10.300352      -280.2868
  53   2.0000     -10.295420      -280.1526
  54   2.0000     -10.294938      -280.1395
  55   2.0000     -10.294389      -280.1246
  56   2.0000     -10.294311      -280.1224
  57   2.0000     -10.294007      -280.1142
  58   2.0000     -10.293100      -280.0895
  59   2.0000     -10.292566      -280.0750
  60   2.0000     -10.292329      -280.0685
  61   2.0000     -10.290897      -280.0295
  62   2.0000     -10.290068      -280.0070
  63   2.0000     -10.289124      -279.9813
  64   2.0000     -10.287546      -279.9384
  65   2.0000     -10.285018      -279.8696
  66   2.0000     -10.277410      -279.6625
  67   2.0000     -10.265198      -279.3302
  68   2.0000     -10.256678      -279.0984
  69   2.0000      -8.789396      -239.1716
  70   2.0000      -8.066882      -219.5110
  71   2.0000      -8.063720      -219.4250
  72   2.0000      -8.057193      -219.2474
  73   2.0000      -8.056698      -219.2339
  74   2.0000      -8.054448      -219.1727
  75   2.0000      -8.045569      -218.9311
  76   2.0000      -8.044731      -218.9082
  77   2.0000      -6.625680      -180.2939
  78   2.0000      -6.611140      -179.8983
  79   2.0000      -6.610946      -179.8930
  80   2.0000      -6.036570      -164.2634
  81   2.0000      -6.033061      -164.1679
  82   2.0000      -6.032313      -164.1476
  83   2.0000      -6.029203      -164.0630
  84   2.0000      -6.028061      -164.0319
  85   2.0000      -6.026677      -163.9942
  86   2.0000      -6.026551      -163.9908
  87   2.0000      -6.025335      -163.9577
  88   2.0000      -6.024330      -163.9303
  89   2.0000      -6.022508      -163.8808
  90   2.0000      -6.022155      -163.8712
  91   2.0000      -6.020156      -163.8168
  92   2.0000      -6.018901      -163.7826
  93   2.0000      -6.017410      -163.7420
  94   2.0000      -6.015245      -163.6831
  95   2.0000      -6.014823      -163.6716
  96   2.0000      -6.014556      -163.6644
  97   2.0000      -6.011137      -163.5714
  98   2.0000      -6.010279      -163.5480
  99   2.0000      -6.006622      -163.4485
 100   2.0000      -6.005611      -163.4210
 101   2.0000      -2.741553       -74.6015
 102   2.0000      -2.737475       -74.4905
 103   2.0000      -2.737320       -74.4863
 104   2.0000      -2.725776       -74.1721
 105   2.0000      -2.725763       -74.1718
 106   2.0000      -1.380390       -37.5623
 107   2.0000      -1.285822       -34.9890
 108   2.0000      -1.278050       -34.7775
 109   2.0000      -1.219135       -33.1743
 110   2.0000      -1.215737       -33.0819
 111   2.0000      -1.178244       -32.0616
 112   2.0000      -1.175457       -31.9858
 113   2.0000      -1.145325       -31.1659
 114   2.0000      -1.118294       -30.4303
 115   2.0000      -1.018729       -27.7210
 116   2.0000      -1.014681       -27.6109
 117   2.0000      -1.010954       -27.5095
 118   2.0000      -1.000257       -27.2184
 119   2.0000      -0.992986       -27.0205
 120   2.0000      -0.992474       -27.0066
 121   2.0000      -0.984273       -26.7834
 122   2.0000      -0.978908       -26.6374
 123   2.0000      -0.943024       -25.6610
 124   2.0000      -0.935621       -25.4595
 125   2.0000      -0.930456       -25.3190
 126   2.0000      -0.922922       -25.1140
 127   2.0000      -0.917738       -24.9729
 128   2.0000      -0.910903       -24.7869
 129   2.0000      -0.903687       -24.5906
 130   2.0000      -0.894022       -24.3276
 131   2.0000      -0.883134       -24.0313
 132   2.0000      -0.880703       -23.9652
 133   2.0000      -0.871545       -23.7159
 134   2.0000      -0.866234       -23.5714
 135   2.0000      -0.853764       -23.2321
 136   2.0000      -0.849327       -23.1114
 137   2.0000      -0.830248       -22.5922
 138   2.0000      -0.829695       -22.5771
 139   2.0000      -0.826392       -22.4873
 140   2.0000      -0.825213       -22.4552
 141   2.0000      -0.823726       -22.4147
 142   2.0000      -0.817346       -22.2411
 143   2.0000      -0.804551       -21.8930
 144   2.0000      -0.792996       -21.5785
 145   2.0000      -0.778147       -21.1745
 146   2.0000      -0.765280       -20.8243
 147   2.0000      -0.754130       -20.5209
 148   2.0000      -0.746715       -20.3192
 149   2.0000      -0.742961       -20.2170
 150   2.0000      -0.730466       -19.8770
 151   2.0000      -0.716986       -19.5102
 152   2.0000      -0.714167       -19.4335
 153   2.0000      -0.700465       -19.0606
 154   2.0000      -0.697343       -18.9757
 155   2.0000      -0.694276       -18.8922
 156   2.0000      -0.688999       -18.7486
 157   2.0000      -0.681766       -18.5518
 158   2.0000      -0.680424       -18.5153
 159   2.0000      -0.665418       -18.1069
 160   2.0000      -0.663278       -18.0487
 161   2.0000      -0.662625       -18.0310
 162   2.0000      -0.661582       -18.0026
 163   2.0000      -0.658097       -17.9077
 164   2.0000      -0.652023       -17.7425
 165   2.0000      -0.643593       -17.5131
 166   2.0000      -0.636018       -17.3069
 167   2.0000      -0.625645       -17.0247
 168   2.0000      -0.619238       -16.8503
 169   2.0000      -0.616583       -16.7781
 170   2.0000      -0.615642       -16.7525
 171   2.0000      -0.609662       -16.5897
 172   2.0000      -0.606912       -16.5149
 173   2.0000      -0.598983       -16.2992
 174   2.0000      -0.593856       -16.1596
 175   2.0000      -0.593328       -16.1453
 176   2.0000      -0.584384       -15.9019
 177   2.0000      -0.577776       -15.7221
 178   2.0000      -0.575039       -15.6476
 179   2.0000      -0.570301       -15.5187
 180   2.0000      -0.565017       -15.3749
 181   2.0000      -0.562046       -15.2941
 182   2.0000      -0.557327       -15.1656
 183   2.0000      -0.552559       -15.0359
 184   2.0000      -0.552123       -15.0240
 185   2.0000      -0.548107       -14.9148
 186   2.0000      -0.543283       -14.7835
 187   2.0000      -0.540288       -14.7020
 188   2.0000      -0.538871       -14.6634
 189   2.0000      -0.538654       -14.6575
 190   2.0000      -0.534879       -14.5548
 191   2.0000      -0.531677       -14.4677
 192   2.0000      -0.527781       -14.3617
 193   2.0000      -0.525230       -14.2922
 194   2.0000      -0.522983       -14.2311
 195   2.0000      -0.519568       -14.1382
 196   2.0000      -0.516614       -14.0578
 197   2.0000      -0.515342       -14.0232
 198   2.0000      -0.511404       -13.9160
 199   2.0000      -0.507901       -13.8207
 200   2.0000      -0.505623       -13.7587
 201   2.0000      -0.503454       -13.6997
 202   2.0000      -0.502150       -13.6642
 203   2.0000      -0.501057       -13.6344
 204   2.0000      -0.498333       -13.5603
 205   2.0000      -0.497257       -13.5310
 206   2.0000      -0.496497       -13.5104
 207   2.0000      -0.494885       -13.4665
 208   2.0000      -0.492527       -13.4023
 209   2.0000      -0.488401       -13.2901
 210   2.0000      -0.487827       -13.2744
 211   2.0000      -0.486755       -13.2453
 212   2.0000      -0.484422       -13.1818
 213   2.0000      -0.479409       -13.0454
 214   2.0000      -0.476495       -12.9661
 215   2.0000      -0.474688       -12.9169
 216   2.0000      -0.471903       -12.8411
 217   2.0000      -0.470147       -12.7933
 218   2.0000      -0.469778       -12.7833
 219   2.0000      -0.468943       -12.7606
 220   2.0000      -0.467065       -12.7095
 221   2.0000      -0.462379       -12.5820
 222   2.0000      -0.459389       -12.5006
 223   2.0000      -0.458260       -12.4699
 224   2.0000      -0.452708       -12.3188
 225   2.0000      -0.445046       -12.1103
 226   2.0000      -0.441956       -12.0262
 227   2.0000      -0.440098       -11.9757
 228   2.0000      -0.437230       -11.8976
 229   2.0000      -0.435528       -11.8513
 230   2.0000      -0.432954       -11.7813
 231   2.0000      -0.431582       -11.7439
 232   2.0000      -0.428733       -11.6664
 233   2.0000      -0.425921       -11.5899
 234   2.0000      -0.422410       -11.4944
 235   2.0000      -0.421203       -11.4615
 236   2.0000      -0.417310       -11.3556
 237   2.0000      -0.411336       -11.1930
 238   2.0000      -0.409107       -11.1324
 239   2.0000      -0.406111       -11.0508
 240   2.0000      -0.402804       -10.9609
 241   2.0000      -0.399522       -10.8716
 242   2.0000      -0.391820       -10.6620
 243   2.0000      -0.387158       -10.5351
 244   2.0000      -0.385540       -10.4911
 245   2.0000      -0.379481       -10.3262
 246   2.0000      -0.378020       -10.2864
 247   2.0000      -0.371723       -10.1151
 248   2.0000      -0.368992       -10.0408
 249   2.0000      -0.363407        -9.8888
 250   2.0000      -0.352797        -9.6001
 251   2.0000      -0.341758        -9.2997
 252   2.0000      -0.339470        -9.2375
 253   2.0000      -0.328791        -8.9469
 254   2.0000      -0.325836        -8.8664
 255   2.0000      -0.319365        -8.6904
 256   2.0000      -0.316242        -8.6054
 257   2.0000      -0.309686        -8.4270
 258   2.0000      -0.304227        -8.2784
 259   2.0000      -0.296440        -8.0665
 260   2.0000      -0.291590        -7.9346
 261   2.0000      -0.288580        -7.8527
 262   2.0000      -0.272758        -7.4221
 263   2.0000      -0.248343        -6.7578
 264   2.0000      -0.214607        -5.8397
 265   0.0000      -0.101193        -2.7536
 266   0.0000      -0.082327        -2.2402
 267   0.0000      -0.057028        -1.5518
 268   0.0000      -0.048609        -1.3227
 269   0.0000      -0.030100        -0.8191

MULLIKEN ATOMIC CHARGES
-----------------------
   0 C :    0.316123
   1 C :   -0.379078
   2 C :   -0.150611
   3 N :    0.116243
   4 C :   -0.139257
   5 N :    0.112154
   6 C :    0.019882
   7 C :   -0.012706
   8 C :   -0.081879
   9 C :    0.125123
  10 C :   -0.089208
  11 C :   -0.029377
  12 S :    0.182242
  13 C :   -0.121910
  14 C :    0.034035
  15 Br:    0.020270
  16 C :    0.125620
  17 O :   -0.133564
  18 C :   -0.061281
  19 C :   -0.073503
  20 C :    0.158816
  21 C :    0.191635
  22 O :   -0.238701
  23 C :    0.208420
  24 C :    0.227328
  25 C :   -0.164512
  26 S :    0.115374
  27 C :   -0.167746
  28 O :   -0.219305
  29 C :   -0.072470
  30 C :    0.083904
  31 C :   -0.134716
  32 S :    0.145930
  33 C :   -0.115464
  34 C :   -0.112097
  35 C :    0.030734
  36 S :    0.073843
  37 C :    0.073333
  38 O :   -0.101880
  39 C :    0.094650
  40 O :   -0.146810
  41 S :    0.119707
  42 C :   -0.007880
  43 C :   -0.023645
  44 C :    0.026974
  45 C :    0.043697
  46 C :   -0.068179
  47 S :    0.091499
  48 C :   -0.031406
  49 C :    0.028476
  50 C :    0.038790
  51 C :   -0.018915
  52 S :    0.118913
  53 C :   -0.030656
  54 C :    0.109792
  55 O :   -0.200132
  56 C :    0.186302
  57 C :   -0.077936
  58 C :   -0.100097
  59 C :    0.523208
  60 F :   -0.171692
  61 F :   -0.172803
  62 F :   -0.151704
  63 C :   -0.003309
  64 C :   -0.012263
  65 H :   -0.013086
  66 H :   -0.008045
  67 H :   -0.005119
  68 H :    0.004823
  69 H :    0.033101
  70 H :    0.026934
  71 H :    0.011578
  72 H :    0.000732
  73 H :   -0.006812
  74 H :   -0.010957
  75 H :   -0.011672
  76 H :   -0.011653
  77 H :   -0.004513
  78 H :    0.008482
  79 H :   -0.005137
  80 H :   -0.000094
  81 H :    0.015506
  82 H :    0.049610
Sum of atomic charges:   -0.0000000

LOEWDIN ATOMIC CHARGES
----------------------
   0 C :    0.079332
   1 C :   -0.155491
   2 C :   -0.008725
   3 N :   -0.064883
   4 C :   -0.007188
   5 N :   -0.083477
   6 C :   -0.022560
   7 C :   -0.047009
   8 C :    0.018087
   9 C :   -0.032431
  10 C :   -0.145709
  11 C :   -0.011454
  12 S :    0.428879
  13 C :   -0.272476
  14 C :   -0.070665
  15 Br:    0.134068
  16 C :    0.074349
  17 O :   -0.137724
  18 C :   -0.095906
  19 C :    0.045676
  20 C :    0.004825
  21 C :    0.078989
  22 O :   -0.034706
  23 C :   -0.012417
  24 C :   -0.004170
  25 C :   -0.200636
  26 S :    0.443507
  27 C :   -0.205484
  28 O :   -0.030742
  29 C :   -0.063564
  30 C :   -0.005281
  31 C :   -0.197292
  32 S :    0.439003
  33 C :   -0.167988
  34 C :   -0.257057
  35 C :   -0.193950
  36 S :    0.410503
  37 C :   -0.082389
  38 O :   -0.074236
  39 C :   -0.115906
  40 O :   -0.111977
  41 S :    0.396580
  42 C :   -0.112532
  43 C :   -0.130159
  44 C :   -0.043848
  45 C :   -0.022682
  46 C :   -0.192647
  47 S :    0.389717
  48 C :   -0.160924
  49 C :   -0.036778
  50 C :   -0.017632
  51 C :   -0.146827
  52 S :    0.400190
  53 C :   -0.054943
  54 C :    0.031588
  55 O :    0.024071
  56 C :    0.049355
  57 C :   -0.044876
  58 C :   -0.115053
  59 C :    0.169738
  60 F :   -0.070370
  61 F :   -0.072257
  62 F :   -0.051502
  63 C :   -0.044371
  64 C :   -0.004930
  65 H :    0.039535
  66 H :    0.040117
  67 H :    0.038189
  68 H :    0.044324
  69 H :    0.033712
  70 H :    0.030114
  71 H :    0.015792
  72 H :    0.035076
  73 H :    0.034314
  74 H :    0.033446
  75 H :    0.033017
  76 H :    0.032532
  77 H :    0.036562
  78 H :    0.044345
  79 H :    0.036328
  80 H :    0.034965
  81 H :    0.022540
  82 H :    0.032456

  Mayer bond orders larger than 0.100000
B(  0-C ,  1-C ) :   1.5725 B(  0-C ,  6-C ) :   1.0007 B(  0-C , 18-C ) :   1.1092
B(  1-C ,  2-C ) :   1.1587 B(  1-C ,  4-C ) :   1.1705 B(  2-C ,  3-N ) :   2.8844
B(  4-C ,  5-N ) :   2.8717 B(  6-C ,  7-C ) :   1.2759 B(  6-C , 11-C ) :   1.4049
B(  7-C ,  8-C ) :   1.4302 B(  7-C , 16-C ) :   0.9301 B(  8-C ,  9-C ) :   1.2381
B(  8-C , 65-H ) :   1.0179 B(  9-C , 10-C ) :   1.3100 B(  9-C , 14-C ) :   1.1610
B( 10-C , 11-C ) :   1.3317 B( 10-C , 12-S ) :   1.0828 B( 11-C , 66-H ) :   0.9805
B( 12-S , 13-C ) :   1.0862 B( 13-C , 14-C ) :   1.6191 B( 13-C , 15-Br) :   1.0171
B( 14-C , 67-H ) :   1.0011 B( 16-C , 17-O ) :   2.2712 B( 16-C , 18-C ) :   0.9293
B( 18-C , 19-C ) :   1.5177 B( 19-C , 20-C ) :   1.2627 B( 19-C , 68-H ) :   0.9244
B( 20-C , 21-C ) :   1.3264 B( 20-C , 28-O ) :   1.0930 B( 21-C , 22-O ) :   1.1213
B( 21-C , 29-C ) :   1.2545 B( 22-O , 23-C ) :   1.0198 B( 23-C , 24-C ) :   1.2044
B( 23-C , 27-C ) :   1.5703 B( 24-C , 25-C ) :   1.5763 B( 24-C , 28-O ) :   1.0571
B( 25-C , 26-S ) :   1.1401 B( 25-C , 69-H ) :   0.9702 B( 26-S , 27-C ) :   1.1505
B( 27-C , 70-H ) :   0.9733 B( 29-C , 30-C ) :   1.6078 B( 29-C , 71-H ) :   0.9300
B( 30-C , 31-C ) :   1.1631 B( 30-C , 72-H ) :   0.9630 B( 31-C , 32-S ) :   1.0867
B( 31-C , 35-C ) :   1.5040 B( 32-S , 33-C ) :   1.1306 B( 33-C , 34-C ) :   1.4709
B( 33-C , 42-C ) :   1.1642 B( 34-C , 35-C ) :   1.2834 B( 34-C , 41-S ) :   0.9982
B( 35-C , 36-S ) :   0.9924 B( 36-S , 37-C ) :   1.0071 B( 36-S , 38-O ) :   0.1031
B( 37-C , 38-O ) :   2.1533 B( 37-C , 39-C ) :   0.7753 B( 39-C , 40-O ) :   2.1312
B( 39-C , 41-S ) :   1.0522 B( 40-O , 41-S ) :   0.1346 B( 42-C , 43-C ) :   1.5622
B( 42-C , 73-H ) :   0.9535 B( 43-C , 44-C ) :   1.1574 B( 43-C , 47-S ) :   1.0715
B( 44-C , 45-C ) :   1.5833 B( 44-C , 74-H ) :   0.9972 B( 45-C , 46-C ) :   1.1955
B( 45-C , 75-H ) :   0.9926 B( 46-C , 47-S ) :   1.0466 B( 46-C , 48-C ) :   1.4962
B( 48-C , 49-C ) :   1.1835 B( 48-C , 52-S ) :   1.0515 B( 49-C , 50-C ) :   1.5927
B( 49-C , 76-H ) :   0.9963 B( 50-C , 51-C ) :   1.1378 B( 50-C , 77-H ) :   0.9998
B( 51-C , 52-S ) :   1.0416 B( 51-C , 53-C ) :   1.5701 B( 53-C , 54-C ) :   1.2058
B( 53-C , 78-H ) :   0.9509 B( 54-C , 55-O ) :   1.1469 B( 54-C , 58-C ) :   1.4011
B( 55-O , 56-C ) :   1.1212 B( 56-C , 57-C ) :   1.4498 B( 56-C , 63-C ) :   1.0964
B( 57-C , 58-C ) :   1.2865 B( 57-C , 79-H ) :   1.0150 B( 58-C , 59-C ) :   0.9527
B( 59-C , 60-F ) :   1.1554 B( 59-C , 61-F ) :   1.1591 B( 59-C , 62-F ) :   1.1854
B( 63-C , 64-C ) :   1.9198 B( 63-C , 80-H ) :   0.9472 B( 64-C , 81-H ) :   0.9589
B( 64-C , 82-H ) :   0.9427

-----------------------------------------------------------------------------
         ABSORPTION SPECTRUM VIA TRANSITION ELECTRIC DIPOLE MOMENTS
-----------------------------------------------------------------------------
State   Energy  Wavelength   fosc         T2         TX        TY        TZ
        (cm-1)    (nm)                  (au**2)     (au)      (au)      (au)
-----------------------------------------------------------------------------
   0   10849.6    921.7   0.439216189  13.32726   2.51463  -2.62160   0.36209
   1   15956.9    626.7   0.813546397  16.78456   2.52320   1.40580   2.90547
   2   17190.6    581.7   0.387733282   7.42534  -1.21349  -1.60437  -1.83815
   3   18592.2    537.9   0.018173728   0.32180   0.30247   0.30253   0.37254
   4   21712.0    460.6   0.039651429   0.60122  -0.02441  -0.40729  -0.65935
   5   22359.6    447.2   0.461739953   6.79845  -1.07641   2.32311   0.49289
   6   23086.4    433.2   0.038112099   0.54348   0.48253  -0.55296  -0.06988
   7   25508.9    392.0   0.163759266   2.11344  -0.55346  -1.27050  -0.43926
   8   25720.1    388.8   0.022391896   0.28661  -0.48286   0.21457  -0.08612
   9   25839.0    387.0   0.126221501   1.60817   0.24285  -1.19855  -0.33566
  10   26211.8    381.5   0.157718758   1.98089   0.96946  -0.50155  -0.88853
  11   26579.0    376.2   0.145374868   1.80064   0.54408  -1.19569   0.27375
  12   26839.6    372.6   0.100616544   1.23415   0.64005  -0.86277   0.28304
  13   27254.8    366.9   0.218235657   2.63608  -0.11239  -0.97624  -1.29244
  14   28565.3    350.1   0.012425683   0.14320  -0.31613  -0.08502  -0.18984
  15   28846.7    346.7   0.179648809   2.05023   0.86012  -0.97727   0.59613
  16   29064.8    344.1   0.228792659   2.59149   0.35132   1.31758   0.85560
  17   29147.1    343.1   0.022784075   0.25734   0.34034   0.37571   0.01884
  18   29291.1    341.4   0.021378535   0.24028   0.06519  -0.40837  -0.26318
  19   29986.0    333.5   0.129648932   1.42340   0.84120   0.82065  -0.20572
  20   30545.2    327.4   0.035883548   0.38675  -0.38461   0.15446   0.46364
  21   30967.6    322.9   0.022133633   0.23530   0.44562  -0.06902  -0.17877
  22   31952.0    313.0   0.118118621   1.21701   0.55002   0.19239   0.93674
  23   32195.4    310.6   0.054796844   0.56032  -0.50243   0.55465  -0.01579
  24   32389.8    308.7   0.174636458   1.77502  -0.47403  -0.73083  -1.00806
  25   32482.4    307.9   0.039231948   0.39762  -0.43833   0.20472   0.40445
  26   32642.4    306.4   0.059628844   0.60138  -0.64574   0.42513   0.06053
  27   32783.5    305.0   0.407184180   4.08895   0.53275  -0.79507  -1.78129
  28   33563.3    297.9   0.068363492   0.67056   0.55837   0.30190   0.51733
  29   34161.0    292.7   0.071947880   0.69337  -0.52676  -0.11766  -0.63407
  30   34358.0    291.1   0.023915156   0.22915  -0.03072   0.47489  -0.05187
  31   34695.5    288.2   0.030739352   0.29167  -0.24865   0.25971  -0.40298
  32   34859.9    286.9   0.026805865   0.25315   0.31351  -0.39050   0.04874
  33   35467.2    282.0   0.019146172   0.17772   0.41818   0.04838  -0.02241
  34   35862.8    278.8   0.054781338   0.50288  -0.25968   0.45704   0.47598
  35   36300.9    275.5   0.046787479   0.42431  -0.07822   0.20819   0.61225
  36   36447.9    274.4   0.016935821   0.15297  -0.24549   0.28531  -0.10632
  37   36643.5    272.9   0.051321199   0.46108   0.43298  -0.14084   0.50376
  38   36884.8    271.1   0.017268487   0.15413  -0.03441  -0.23815   0.31021
  39   37196.0    268.8   0.036096330   0.31948   0.51666  -0.19507   0.12037
  40   37408.5    267.3   0.043024784   0.37864   0.05455  -0.60777  -0.07927
  41   37668.3    265.5   0.035500129   0.31026  -0.10315  -0.44005   0.32555
  42   37965.3    263.4   0.056601804   0.49082   0.54581   0.32795   0.29217
  43   38084.4    262.6   0.028204442   0.24381   0.41664   0.26490  -0.00713
  44   38273.8    261.3   0.155406925   1.33673   0.97608  -0.54721  -0.29080
  45   38554.5    259.4   0.008321779   0.07106   0.25310  -0.01173  -0.08284
  46   38856.8    257.4   0.000538390   0.00456   0.05433   0.03659  -0.01646
  47   38885.2    257.2   0.190525705   1.61304   1.17271  -0.38035   0.30517
  48   38953.4    256.7   0.005499213   0.04648   0.21248  -0.03206   0.01729
  49   39303.2    254.4   0.072733931   0.60923  -0.69651   0.35138   0.02535
  50   39423.6    253.7   0.004429662   0.03699  -0.18363   0.05193  -0.02397
  51   39557.8    252.8   0.010109723   0.08414   0.09361   0.27376   0.02062
  52   40200.9    248.8   0.020600048   0.16870  -0.08850   0.39874  -0.04325

FINAL SINGLE POINT ENERGY     -7981.206171731068

DIPOLE MOMENT
-------------
                                X             Y             Z
Electronic contribution:    -13.04135     -73.01040     -88.74844
Nuclear contribution   :     15.64744      74.49129      88.90986
                        -----------------------------------------
Total Dipole Moment    :      2.60609       1.48089       0.16142
                        -----------------------------------------
Magnitude (a.u.)       :      3.00180
Magnitude (Debye)      :      7.62996

Rotational constants in cm-1:     0.000819     0.000532     0.000346
Rotational constants in MHz :    24.548589    15.939628    10.379282

                             ****ORCA TERMINATED NORMALLY****
TOTAL RUN TIME: 0 days 0 hours 8 minutes 19 seconds 68 msec
