                         Program Version 4.2.0 -  RELEASE  -
|  1> # ORCA input file
|  2> # SCF done       -142.619235056499          0.000582689785
|  3> ! CAM-B3LYP def2-SVP def2/J RIJCOSX Grid4 TightSCF
|  4> %maxcore 5000
|  5> %tddft
|  6>     Mode sTDDFT
|  7>     Ethresh 5.0
|  8>     maxcore 5000
|  9> end
| 10>
| 11> %pal
| 12>   nprocs 6
| 13>   end
| 14> * xyz 0 1
| 15>    C        9.12248        -7.37968         7.24954
| 16>    C        9.51485        -6.84954         6.08376
| 17>    C       10.75557        -6.19095         5.78885
| 18>    C       10.86961        -5.75202         4.51641
| 19>    C        9.73769        -6.02227         3.69745
| 20>    S        8.51047        -6.87000         4.62541
| 21>    C        9.56270        -5.69483         2.37743
| 22>    C       10.44833        -5.00826         1.50878
| 23>    C        9.96922        -4.82738         0.25171
| 24>    C        8.66915        -5.35583         0.02219
| 25>    S        8.09219        -6.10689         1.51222
| 26>    C        7.97845        -5.27919        -1.15395
| 27>    C        6.69456        -5.77053        -1.45842
| 28>    N        5.89214        -6.50559        -0.56963
| 29>    C        4.76752        -6.76543        -1.25194
| 30>    N        3.56044        -7.35082        -1.21436
| 31>    C        2.99450        -7.10264        -2.47840
| 32>    N        3.79313        -6.40845        -3.26572
| 33>    C        4.90813        -6.18143        -2.53722
| 34>    N        6.10693        -5.57968        -2.63339
| 35>    C        1.69793        -7.58743        -2.78365
| 36>    C        1.06138        -7.37134        -3.95686
| 37>    C       -0.23402        -7.89303        -4.21142
| 38>    N       -0.90108        -7.65676        -5.42359
| 39>    C       -2.07501        -8.30607        -5.30855
| 40>    N       -3.23939        -8.62296        -5.90628
| 41>    C       -3.92075        -9.42254        -4.97509
| 42>    N       -3.23777        -9.59803        -3.85918
| 43>    C       -2.08586        -8.91676        -4.03346
| 44>    N       -0.93773        -8.64116        -3.38140
| 45>    C       -5.19763        -9.97472        -5.25901
| 46>    C       -5.83476       -10.78258        -4.38183
| 47>    C       -7.09693       -11.38185        -4.62026
| 48>    N       -7.65898       -12.24691        -3.66391
| 49>    C       -8.82426       -12.64695        -4.19890
| 50>    N       -9.92102       -13.40596        -4.03192
| 51>    C      -10.68183       -13.20885        -5.20199
| 52>    N      -10.09953       -12.37999        -6.04991
| 53>    C       -8.94348       -12.01383        -5.46015
| 54>    N       -7.85935       -11.24164        -5.68788
| 55>    C      -11.91861       -13.86863        -5.37433
| 56>    C      -12.71797       -13.70602        -6.46615
| 57>    C      -13.94033       -14.37535        -6.63035
| 58>    C      -14.78491       -14.22707        -7.70054
| 59>    C      -16.02056       -14.89603        -7.89795
| 60>    C      -16.66525       -14.55950        -9.04537
| 61>    C      -15.97960       -13.59731        -9.82859
| 62>    S      -14.47463       -13.14398        -9.04787
| 63>    C      -16.38015       -13.05169       -11.02497
| 64>    C      -17.57113       -13.33842       -11.74851
| 65>    C      -17.70919       -12.64031       -12.89737
| 66>    C      -16.62939       -11.73751       -13.17571
| 67>    S      -15.43074       -11.84824       -11.87642
| 68>    C      -16.49564       -10.91855       -14.22810
| 69>    H        9.76438        -7.34411         8.11183
| 70>    H        8.16391        -7.85177         7.36269
| 71>    H       11.50763        -6.07639         6.54933
| 72>    H       11.73043        -5.23819         4.12619
| 73>    H       11.41129        -4.66755         1.84454
| 74>    H       10.50361        -4.32601        -0.53584
| 75>    H        8.45395        -4.76713        -1.97793
| 76>    H        6.14302        -6.77080         0.36813
| 77>    H        3.11970        -7.85960        -0.46638
| 78>    H        1.19031        -8.16641        -2.02595
| 79>    H        1.54517        -6.79067        -4.72747
| 80>    H       -0.54346        -7.11223        -6.19049
| 81>    H       -3.58039        -8.36932        -6.81839
| 82>    H       -5.65967        -9.74747        -6.20765
| 83>    H       -5.34966       -10.99776        -3.44060
| 84>    H       -7.23996       -12.49027        -2.78196
| 85>    H      -10.17651       -13.99370        -3.25627
| 86>    H      -12.22586       -14.53573        -4.57816
| 87>    H      -12.38883       -13.02676        -7.23961
| 88>    H      -14.25041       -15.06624        -5.85544
| 89>    H      -16.38943       -15.60686        -7.17894
| 90>    H      -17.61101       -14.97020        -9.35085
| 91>    H      -18.28589       -14.05678       -11.38739
| 92>    H      -18.54233       -12.72396       -13.57269
| 93>    H      -17.24917       -10.88223       -14.99495
| 94>    H      -15.64088       -10.27735       -14.34004
| 95> *
| 96>
| 97>                          ****END OF INPUT****

CARTESIAN COORDINATES (ANGSTROEM)
---------------------------------
  C      9.122480   -7.379680    7.249540
  C      9.514850   -6.849540    6.083760
  C     10.755570   -6.190950    5.788850
  C     10.869610   -5.752020    4.516410
  C      9.737690   -6.022270    3.697450
  S      8.510470   -6.870000    4.625410
  C      9.562700   -5.694830    2.377430
  C     10.448330   -5.008260    1.508780
  C      9.969220   -4.827380    0.251710
  C      8.669150   -5.355830    0.022190
  S      8.092190   -6.106890    1.512220
  C      7.978450   -5.279190   -1.153950
  C      6.694560   -5.770530   -1.458420
  N      5.892140   -6.505590   -0.569630
  C      4.767520   -6.765430   -1.251940
  N      3.560440   -7.350820   -1.214360
  C      2.994500   -7.102640   -2.478400
  N      3.793130   -6.408450   -3.265720
  C      4.908130   -6.181430   -2.537220
  N      6.106930   -5.579680   -2.633390
  C      1.697930   -7.587430   -2.783650
  C      1.061380   -7.371340   -3.956860
  C     -0.234020   -7.893030   -4.211420
  N     -0.901080   -7.656760   -5.423590
  C     -2.075010   -8.306070   -5.308550
  N     -3.239390   -8.622960   -5.906280
  C     -3.920750   -9.422540   -4.975090
  N     -3.237770   -9.598030   -3.859180
  C     -2.085860   -8.916760   -4.033460
  N     -0.937730   -8.641160   -3.381400
  C     -5.197630   -9.974720   -5.259010
  C     -5.834760  -10.782580   -4.381830
  C     -7.096930  -11.381850   -4.620260
  N     -7.658980  -12.246910   -3.663910
  C     -8.824260  -12.646950   -4.198900
  N     -9.921020  -13.405960   -4.031920
  C    -10.681830  -13.208850   -5.201990
  N    -10.099530  -12.379990   -6.049910
  C     -8.943480  -12.013830   -5.460150
  N     -7.859350  -11.241640   -5.687880
  C    -11.918610  -13.868630   -5.374330
  C    -12.717970  -13.706020   -6.466150
  C    -13.940330  -14.375350   -6.630350
  C    -14.784910  -14.227070   -7.700540
  C    -16.020560  -14.896030   -7.897950
  C    -16.665250  -14.559500   -9.045370
  C    -15.979600  -13.597310   -9.828590
  S    -14.474630  -13.143980   -9.047870
  C    -16.380150  -13.051690  -11.024970
  C    -17.571130  -13.338420  -11.748510
  C    -17.709190  -12.640310  -12.897370
  C    -16.629390  -11.737510  -13.175710
  S    -15.430740  -11.848240  -11.876420
  C    -16.495640  -10.918550  -14.228100
  H      9.764380   -7.344110    8.111830
  H      8.163910   -7.851770    7.362690
  H     11.507630   -6.076390    6.549330
  H     11.730430   -5.238190    4.126190
  H     11.411290   -4.667550    1.844540
  H     10.503610   -4.326010   -0.535840
  H      8.453950   -4.767130   -1.977930
  H      6.143020   -6.770800    0.368130
  H      3.119700   -7.859600   -0.466380
  H      1.190310   -8.166410   -2.025950
  H      1.545170   -6.790670   -4.727470
  H     -0.543460   -7.112230   -6.190490
  H     -3.580390   -8.369320   -6.818390
  H     -5.659670   -9.747470   -6.207650
  H     -5.349660  -10.997760   -3.440600
  H     -7.239960  -12.490270   -2.781960
  H    -10.176510  -13.993700   -3.256270
  H    -12.225860  -14.535730   -4.578160
  H    -12.388830  -13.026760   -7.239610
  H    -14.250410  -15.066240   -5.855440
  H    -16.389430  -15.606860   -7.178940
  H    -17.611010  -14.970200   -9.350850
  H    -18.285890  -14.056780  -11.387390
  H    -18.542330  -12.723960  -13.572690
  H    -17.249170  -10.882230  -14.994950
  H    -15.640880  -10.277350  -14.340040

 Total Charge           Charge          ....    0
 Multiplicity           Mult            ....    1
 Number of Electrons    NEL             ....  402
 Basis Dimension        Dim             ....  902

ORBITAL ENERGIES
----------------

  NO   OCC          E(Eh)            E(eV)
   0   2.0000     -88.945418     -2420.3279
   1   2.0000     -88.934954     -2420.0431
   2   2.0000     -88.930214     -2419.9141
   3   2.0000     -88.927499     -2419.8403
   4   2.0000     -14.470930      -393.7740
   5   2.0000     -14.470801      -393.7705
   6   2.0000     -14.470463      -393.7613
   7   2.0000     -14.470364      -393.7586
   8   2.0000     -14.470095      -393.7513
   9   2.0000     -14.469893      -393.7458
  10   2.0000     -14.379852      -391.2957
  11   2.0000     -14.377923      -391.2432
  12   2.0000     -14.376798      -391.2126
  13   2.0000     -14.376518      -391.2050
  14   2.0000     -14.376153      -391.1950
  15   2.0000     -14.376110      -391.1939
  16   2.0000     -10.328705      -281.0584
  17   2.0000     -10.326029      -280.9855
  18   2.0000     -10.325069      -280.9594
  19   2.0000     -10.322703      -280.8950
  20   2.0000     -10.322006      -280.8761
  21   2.0000     -10.320112      -280.8245
  22   2.0000     -10.320031      -280.8223
  23   2.0000     -10.320013      -280.8218
  24   2.0000     -10.319449      -280.8065
  25   2.0000     -10.308570      -280.5105
  26   2.0000     -10.305063      -280.4150
  27   2.0000     -10.303252      -280.3657
  28   2.0000     -10.303200      -280.3643
  29   2.0000     -10.298360      -280.2326
  30   2.0000     -10.297794      -280.2172
  31   2.0000     -10.296456      -280.1808
  32   2.0000     -10.294362      -280.1238
  33   2.0000     -10.287927      -279.9487
  34   2.0000     -10.286618      -279.9131
  35   2.0000     -10.286335      -279.9054
  36   2.0000     -10.286150      -279.9004
  37   2.0000     -10.282249      -279.7942
  38   2.0000     -10.281485      -279.7734
  39   2.0000     -10.280508      -279.7468
  40   2.0000     -10.279898      -279.7303
  41   2.0000     -10.277552      -279.6664
  42   2.0000     -10.277460      -279.6639
  43   2.0000     -10.274438      -279.5817
  44   2.0000     -10.274009      -279.5700
  45   2.0000     -10.268427      -279.4181
  46   2.0000     -10.267872      -279.4030
  47   2.0000     -10.266029      -279.3529
  48   2.0000     -10.265995      -279.3519
  49   2.0000     -10.265799      -279.3466
  50   2.0000     -10.265597      -279.3411
  51   2.0000     -10.265226      -279.3310
  52   2.0000     -10.263127      -279.2739
  53   2.0000     -10.259528      -279.1760
  54   2.0000      -8.041706      -218.8260
  55   2.0000      -8.031666      -218.5527
  56   2.0000      -8.026476      -218.4115
  57   2.0000      -8.024148      -218.3482
  58   2.0000      -6.011479      -163.5807
  59   2.0000      -6.007706      -163.4780
  60   2.0000      -6.002411      -163.3339
  61   2.0000      -6.001520      -163.3097
  62   2.0000      -5.997640      -163.2041
  63   2.0000      -5.996216      -163.1653
  64   2.0000      -5.993965      -163.1041
  65   2.0000      -5.992306      -163.0589
  66   2.0000      -5.992125      -163.0540
  67   2.0000      -5.990084      -162.9985
  68   2.0000      -5.987244      -162.9212
  69   2.0000      -5.984672      -162.8512
  70   2.0000      -1.126601       -30.6564
  71   2.0000      -1.124504       -30.5993
  72   2.0000      -1.124277       -30.5931
  73   2.0000      -1.074662       -29.2430
  74   2.0000      -1.073048       -29.1991
  75   2.0000      -1.072235       -29.1770
  76   2.0000      -0.988933       -26.9102
  77   2.0000      -0.981564       -26.7097
  78   2.0000      -0.980845       -26.6901
  79   2.0000      -0.979696       -26.6589
  80   2.0000      -0.979438       -26.6519
  81   2.0000      -0.965160       -26.2633
  82   2.0000      -0.958175       -26.0733
  83   2.0000      -0.937198       -25.5025
  84   2.0000      -0.936015       -25.4703
  85   2.0000      -0.934891       -25.4397
  86   2.0000      -0.898200       -24.4413
  87   2.0000      -0.893693       -24.3186
  88   2.0000      -0.887422       -24.1480
  89   2.0000      -0.879054       -23.9203
  90   2.0000      -0.865518       -23.5520
  91   2.0000      -0.857287       -23.3280
  92   2.0000      -0.841837       -22.9075
  93   2.0000      -0.840843       -22.8805
  94   2.0000      -0.833645       -22.6846
  95   2.0000      -0.826486       -22.4898
  96   2.0000      -0.817783       -22.2530
  97   2.0000      -0.810371       -22.0513
  98   2.0000      -0.805353       -21.9148
  99   2.0000      -0.792820       -21.5737
 100   2.0000      -0.780269       -21.2322
 101   2.0000      -0.763099       -20.7650
 102   2.0000      -0.747409       -20.3380
 103   2.0000      -0.733593       -19.9621
 104   2.0000      -0.726516       -19.7695
 105   2.0000      -0.723510       -19.6877
 106   2.0000      -0.708593       -19.2818
 107   2.0000      -0.700626       -19.0650
 108   2.0000      -0.691894       -18.8274
 109   2.0000      -0.682886       -18.5823
 110   2.0000      -0.677677       -18.4405
 111   2.0000      -0.674199       -18.3459
 112   2.0000      -0.672120       -18.2893
 113   2.0000      -0.671492       -18.2722
 114   2.0000      -0.670628       -18.2487
 115   2.0000      -0.669831       -18.2270
 116   2.0000      -0.667801       -18.1718
 117   2.0000      -0.661471       -17.9996
 118   2.0000      -0.639496       -17.4016
 119   2.0000      -0.632678       -17.2160
 120   2.0000      -0.623557       -16.9678
 121   2.0000      -0.620075       -16.8731
 122   2.0000      -0.614249       -16.7146
 123   2.0000      -0.612757       -16.6740
 124   2.0000      -0.606088       -16.4925
 125   2.0000      -0.600134       -16.3305
 126   2.0000      -0.596141       -16.2218
 127   2.0000      -0.594272       -16.1710
 128   2.0000      -0.588146       -16.0043
 129   2.0000      -0.583073       -15.8662
 130   2.0000      -0.576627       -15.6908
 131   2.0000      -0.564842       -15.3701
 132   2.0000      -0.555740       -15.1224
 133   2.0000      -0.554006       -15.0753
 134   2.0000      -0.552649       -15.0383
 135   2.0000      -0.552188       -15.0258
 136   2.0000      -0.544387       -14.8135
 137   2.0000      -0.530394       -14.4327
 138   2.0000      -0.529466       -14.4075
 139   2.0000      -0.526409       -14.3243
 140   2.0000      -0.519869       -14.1464
 141   2.0000      -0.517561       -14.0836
 142   2.0000      -0.514760       -14.0073
 143   2.0000      -0.513347       -13.9689
 144   2.0000      -0.506329       -13.7779
 145   2.0000      -0.500234       -13.6121
 146   2.0000      -0.496738       -13.5169
 147   2.0000      -0.494923       -13.4676
 148   2.0000      -0.493789       -13.4367
 149   2.0000      -0.493449       -13.4274
 150   2.0000      -0.488041       -13.2803
 151   2.0000      -0.486239       -13.2312
 152   2.0000      -0.484297       -13.1784
 153   2.0000      -0.483079       -13.1452
 154   2.0000      -0.482038       -13.1169
 155   2.0000      -0.478881       -13.0310
 156   2.0000      -0.475261       -12.9325
 157   2.0000      -0.473785       -12.8923
 158   2.0000      -0.473622       -12.8879
 159   2.0000      -0.461277       -12.5520
 160   2.0000      -0.453468       -12.3395
 161   2.0000      -0.451977       -12.2989
 162   2.0000      -0.451391       -12.2830
 163   2.0000      -0.450517       -12.2592
 164   2.0000      -0.445700       -12.1281
 165   2.0000      -0.440099       -11.9757
 166   2.0000      -0.437499       -11.9049
 167   2.0000      -0.424808       -11.5596
 168   2.0000      -0.420732       -11.4487
 169   2.0000      -0.416613       -11.3366
 170   2.0000      -0.408679       -11.1207
 171   2.0000      -0.407564       -11.0904
 172   2.0000      -0.405548       -11.0355
 173   2.0000      -0.401332       -10.9208
 174   2.0000      -0.397072       -10.8049
 175   2.0000      -0.394392       -10.7320
 176   2.0000      -0.386567       -10.5190
 177   2.0000      -0.385004       -10.4765
 178   2.0000      -0.372370       -10.1327
 179   2.0000      -0.362958        -9.8766
 180   2.0000      -0.358901        -9.7662
 181   2.0000      -0.358299        -9.7498
 182   2.0000      -0.356345        -9.6966
 183   2.0000      -0.355828        -9.6826
 184   2.0000      -0.336720        -9.1626
 185   2.0000      -0.335850        -9.1389
 186   2.0000      -0.326610        -8.8875
 187   2.0000      -0.322802        -8.7839
 188   2.0000      -0.321555        -8.7500
 189   2.0000      -0.320527        -8.7220
 190   2.0000      -0.319052        -8.6819
 191   2.0000      -0.317583        -8.6419
 192   2.0000      -0.315613        -8.5883
 193   2.0000      -0.310209        -8.4412
 194   2.0000      -0.303557        -8.2602
 195   2.0000      -0.291117        -7.9217
 196   2.0000      -0.271008        -7.3745
 197   2.0000      -0.249167        -6.7802
 198   2.0000      -0.225409        -6.1337
 199   2.0000      -0.204360        -5.5609
 200   2.0000      -0.193095        -5.2544
 201   0.0000      -0.063183        -1.7193
 202   0.0000      -0.059731        -1.6254
 203   0.0000      -0.025289        -0.6882
 204   0.0000      -0.001820        -0.0495
 205   0.0000       0.012816         0.3487

MULLIKEN ATOMIC CHARGES
-----------------------
   0 C :   -0.031203
   1 C :   -0.062231
   2 C :    0.048253
   3 C :    0.031797
   4 C :   -0.068022
   5 S :    0.063759
   6 C :   -0.034708
   7 C :    0.028663
   8 C :    0.038391
   9 C :   -0.018094
  10 S :    0.004025
  11 C :    0.006775
  12 C :   -0.005776
  13 N :   -0.048684
  14 C :    0.008993
  15 N :   -0.046559
  16 C :    0.039980
  17 N :   -0.053014
  18 C :   -0.095639
  19 N :   -0.050761
  20 C :   -0.004346
  21 C :    0.003174
  22 C :    0.026728
  23 N :   -0.044411
  24 C :    0.007513
  25 N :   -0.042414
  26 C :    0.028155
  27 N :   -0.065926
  28 C :   -0.088388
  29 N :   -0.061997
  30 C :    0.000231
  31 C :   -0.002831
  32 C :    0.037193
  33 N :   -0.045406
  34 C :    0.007910
  35 N :   -0.051016
  36 C :    0.038185
  37 N :   -0.051879
  38 C :   -0.088221
  39 N :   -0.055159
  40 C :   -0.016828
  41 C :    0.017978
  42 C :   -0.023499
  43 C :   -0.013044
  44 C :    0.033390
  45 C :    0.024469
  46 C :   -0.048674
  47 S :    0.083763
  48 C :   -0.069190
  49 C :    0.028028
  50 C :    0.049059
  51 C :   -0.064755
  52 S :    0.080296
  53 C :   -0.033526
  54 H :    0.018599
  55 H :    0.018367
  56 H :   -0.012239
  57 H :   -0.012442
  58 H :   -0.015553
  59 H :   -0.009680
  60 H :   -0.001249
  61 H :    0.133682
  62 H :    0.131249
  63 H :   -0.009417
  64 H :   -0.010466
  65 H :    0.129786
  66 H :    0.129949
  67 H :   -0.011657
  68 H :   -0.011623
  69 H :    0.128522
  70 H :    0.125832
  71 H :   -0.041016
  72 H :    0.021886
  73 H :   -0.025041
  74 H :   -0.018377
  75 H :   -0.018213
  76 H :   -0.014821
  77 H :   -0.014416
  78 H :    0.017176
  79 H :    0.020653
Sum of atomic charges:   -0.0000000

LOEWDIN ATOMIC CHARGES
----------------------
   0 C :   -0.082597
   1 C :   -0.138126
   2 C :   -0.034987
   3 C :   -0.025598
   4 C :   -0.183007
   5 S :    0.338405
   6 C :   -0.174415
   7 C :   -0.042608
   8 C :   -0.025875
   9 C :   -0.158211
  10 S :    0.340111
  11 C :   -0.054657
  12 C :    0.003700
  13 N :    0.055602
  14 C :   -0.006122
  15 N :    0.057566
  16 C :    0.015611
  17 N :   -0.117484
  18 C :   -0.065436
  19 N :   -0.107545
  20 C :   -0.033158
  21 C :   -0.028667
  22 C :    0.010855
  23 N :    0.057431
  24 C :   -0.016359
  25 N :    0.056784
  26 C :    0.012935
  27 N :   -0.120174
  28 C :   -0.064307
  29 N :   -0.118321
  30 C :   -0.032660
  31 C :   -0.030749
  32 C :    0.011170
  33 N :    0.056596
  34 C :   -0.014595
  35 N :    0.052425
  36 C :    0.012096
  37 N :   -0.113001
  38 C :   -0.061841
  39 N :   -0.116298
  40 C :   -0.057306
  41 C :   -0.007294
  42 C :   -0.063506
  43 C :   -0.145211
  44 C :   -0.036758
  45 C :   -0.033835
  46 C :   -0.179460
  47 S :    0.369992
  48 C :   -0.180837
  49 C :   -0.027392
  50 C :   -0.035843
  51 C :   -0.138886
  52 S :    0.350970
  53 C :   -0.082769
  54 H :    0.027998
  55 H :    0.025014
  56 H :    0.032920
  57 H :    0.032231
  58 H :    0.031567
  59 H :    0.035094
  60 H :    0.050377
  61 H :    0.064845
  62 H :    0.093564
  63 H :    0.033069
  64 H :    0.033594
  65 H :    0.092731
  66 H :    0.092788
  67 H :    0.033350
  68 H :    0.032551
  69 H :    0.092083
  70 H :    0.089824
  71 H :    0.021507
  72 H :    0.034007
  73 H :    0.028254
  74 H :    0.031082
  75 H :    0.029636
  76 H :    0.030982
  77 H :    0.031891
  78 H :    0.027139
  79 H :    0.025547

  Mayer bond orders larger than 0.100000
B(  0-C ,  1-C ) :   1.8657 B(  0-C , 54-H ) :   0.9502 B(  0-C , 55-H ) :   0.9411
B(  1-C ,  2-C ) :   1.0812 B(  1-C ,  5-S ) :   1.0075 B(  2-C ,  3-C ) :   1.6626
B(  2-C , 56-H ) :   0.9926 B(  3-C ,  4-C ) :   1.1523 B(  3-C , 57-H ) :   0.9913
B(  4-C ,  5-S ) :   1.0346 B(  4-C ,  6-C ) :   1.5715 B(  6-C ,  7-C ) :   1.1654
B(  6-C , 10-S ) :   1.0363 B(  7-C ,  8-C ) :   1.6142 B(  7-C , 58-H ) :   0.9911
B(  8-C ,  9-C ) :   1.1390 B(  8-C , 59-H ) :   0.9983 B(  9-C , 10-S ) :   0.9957
B(  9-C , 11-C ) :   1.5737 B( 11-C , 12-C ) :   1.1538 B( 11-C , 60-H ) :   0.9587
B( 12-C , 13-N ) :   1.1323 B( 12-C , 19-N ) :   1.6072 B( 13-N , 14-C ) :   1.2611
B( 13-N , 61-H ) :   0.9035 B( 14-C , 15-N ) :   1.2452 B( 14-C , 18-C ) :   1.2192
B( 15-N , 16-C ) :   1.1091 B( 15-N , 62-H ) :   0.9261 B( 16-C , 17-N ) :   1.6733
B( 16-C , 20-C ) :   1.0753 B( 17-N , 18-C ) :   1.3984 B( 18-C , 19-N ) :   1.4340
B( 20-C , 21-C ) :   1.7165 B( 20-C , 63-H ) :   0.9557 B( 21-C , 22-C ) :   1.0810
B( 21-C , 64-H ) :   0.9637 B( 22-C , 23-N ) :   1.1199 B( 22-C , 29-N ) :   1.6587
B( 23-N , 24-C ) :   1.2343 B( 23-N , 65-H ) :   0.9267 B( 24-C , 25-N ) :   1.2351
B( 24-C , 28-C ) :   1.2405 B( 25-N , 26-C ) :   1.1216 B( 25-N , 66-H ) :   0.9256
B( 26-C , 27-N ) :   1.6611 B( 26-C , 30-C ) :   1.0775 B( 27-N , 28-C ) :   1.4010
B( 28-C , 29-N ) :   1.4067 B( 30-C , 31-C ) :   1.7195 B( 30-C , 67-H ) :   0.9639
B( 31-C , 32-C ) :   1.0742 B( 31-C , 68-H ) :   0.9556 B( 32-C , 33-N ) :   1.1142
B( 32-C , 39-N ) :   1.6664 B( 33-N , 34-C ) :   1.2417 B( 33-N , 69-H ) :   0.9259
B( 34-C , 35-N ) :   1.2401 B( 34-C , 38-C ) :   1.2292 B( 35-N , 36-C ) :   1.1047
B( 35-N , 70-H ) :   0.9271 B( 36-C , 37-N ) :   1.6522 B( 36-C , 40-C ) :   1.1024
B( 37-N , 38-C ) :   1.4090 B( 38-C , 39-N ) :   1.4017 B( 40-C , 41-C ) :   1.6485
B( 40-C , 71-H ) :   0.9539 B( 41-C , 42-C ) :   1.1388 B( 41-C , 72-H ) :   0.9813
B( 42-C , 43-C ) :   1.5660 B( 42-C , 73-H ) :   0.9798 B( 43-C , 44-C ) :   1.1365
B( 43-C , 47-S ) :   1.0315 B( 44-C , 45-C ) :   1.6029 B( 44-C , 74-H ) :   0.9989
B( 45-C , 46-C ) :   1.1732 B( 45-C , 75-H ) :   0.9930 B( 46-C , 47-S ) :   1.0378
B( 46-C , 48-C ) :   1.5541 B( 48-C , 49-C ) :   1.1543 B( 48-C , 52-S ) :   1.0415
B( 49-C , 50-C ) :   1.6587 B( 49-C , 76-H ) :   0.9917 B( 50-C , 51-C ) :   1.0821
B( 50-C , 77-H ) :   0.9925 B( 51-C , 52-S ) :   1.0097 B( 51-C , 53-C ) :   1.8623
B( 53-C , 78-H ) :   0.9504 B( 53-C , 79-H ) :   0.9412

-----------------------------------------------------------------------------
         ABSORPTION SPECTRUM VIA TRANSITION ELECTRIC DIPOLE MOMENTS
-----------------------------------------------------------------------------
State   Energy  Wavelength   fosc         T2         TX        TY        TZ
        (cm-1)    (nm)                  (au**2)     (au)      (au)      (au)
-----------------------------------------------------------------------------
   0   15767.6    634.2   3.633765266  75.86955  -6.85051  -1.05754  -5.27462
   1   17542.9    570.0   0.185938496   3.48935  -1.16958  -0.45872  -1.38239
   2   22716.3    440.2   0.100572998   1.45754  -0.65785  -0.82601   0.58521
   3   22933.2    436.0   0.996224111  14.30104  -1.64818  -2.09291   2.68407
   4   24436.7    409.2   0.242016360   3.26045  -1.61114  -0.73405  -0.35474
   5   26314.8    380.0   0.404967751   5.06635  -1.60736  -1.24119   0.97066
   6   26698.7    374.6   0.049402771   0.60917   0.33113   0.09044   0.70096
   7   27669.1    361.4   0.066843177   0.79531  -0.33508   0.56862  -0.59975
   8   29783.0    335.8   0.000538958   0.00596   0.04702   0.04402  -0.04253
   9   30410.0    328.8   0.038506116   0.41686   0.56238   0.24702  -0.19890
  10   31498.7    317.5   0.215295347   2.25018  -0.64211  -0.92144   0.99440
  11   31731.9    315.1   0.021922120   0.22744   0.24862   0.13792  -0.38289
  12   32203.5    310.5   0.003622651   0.03703   0.00793   0.11036  -0.15745
  13   32736.5    305.5   0.061431942   0.61778   0.18292  -0.19332   0.73956
  14   33493.0    298.6   0.125123642   1.22987  -0.92917  -0.56270   0.22336
  15   34464.4    290.2   0.001972906   0.01885   0.05317   0.12141  -0.03574
  16   35091.2    285.0   0.001985175   0.01862   0.10899   0.08030   0.01724
  17   35575.1    281.1   0.034414081   0.31847   0.47207   0.26243  -0.16354
  18   35860.7    278.9   0.078028467   0.71632   0.75312   0.32144   0.21403
  19   36599.4    273.2   0.020302777   0.18262   0.31233   0.07794   0.28107
  20   36850.8    271.4   0.008217899   0.07342   0.12645   0.15162  -0.18558
  21   37750.6    264.9   0.010462200   0.09124  -0.22586  -0.08873  -0.17987
  22   38129.9    262.3   0.057876074   0.49970   0.58471   0.15717   0.36485
  23   38937.5    256.8   0.036772888   0.31091  -0.40067  -0.02410  -0.38703
  24   39402.5    253.8   0.033726950   0.28179  -0.33451   0.05908  -0.40793
  25   39878.0    250.8   0.007043347   0.05815   0.23517   0.01817   0.05013
  26   39983.3    250.1   0.048054339   0.39567  -0.21488  -0.38139   0.45170
  27   40183.9    248.9   0.024142915   0.19779   0.07625   0.31958  -0.29975

FINAL SINGLE POINT ENERGY     -3710.205237616710

DIPOLE MOMENT
-------------
                                X             Y             Z
Electronic contribution:     12.42883       5.44696       0.95053
Nuclear contribution   :    -12.59620      -6.65385       1.09884
                        -----------------------------------------
Total Dipole Moment    :     -0.16737      -1.20689       2.04938
                        -----------------------------------------
Magnitude (a.u.)       :      2.38423
Magnitude (Debye)      :      6.06022

Rotational constants in cm-1:     0.004376     0.000171     0.000165
Rotational constants in MHz :   131.176400     5.123194     4.935661

                             ****ORCA TERMINATED NORMALLY****
TOTAL RUN TIME: 0 days 0 hours 4 minutes 43 seconds 296 msec
