                         Program Version 4.2.0 -  RELEASE  -
|  1> # ORCA input file
|  2> # SCF done       -200.259576168552          0.000547399180
|  3> ! CAM-B3LYP def2-SVP def2/J RIJCOSX Grid4 TightSCF
|  4> %maxcore 5000
|  5> %tddft
|  6>     Mode sTDDFT
|  7>     Ethresh 5.0
|  8>     maxcore 5000
|  9> end
| 10>
| 11> %pal
| 12>   nprocs 6
| 13>   end
| 14> * xyz 0 1
| 15>    C      -15.89916        -0.09894         3.22958
| 16>    C      -16.17749         0.23845         4.53078
| 17>    C      -15.30461         0.00432         5.60708
| 18>    N      -14.62724        -0.14538         6.52384
| 19>    C      -17.39533         0.80693         4.95921
| 20>    N      -18.37002         1.23942         5.38606
| 21>    C      -14.71615        -0.79506         2.75294
| 22>    C      -14.92721        -1.17084         1.40251
| 23>    C      -13.97440        -1.83970         0.67329
| 24>    C      -12.74650        -2.11334         1.29088
| 25>    C      -12.53483        -1.68749         2.62385
| 26>    C      -13.51063        -1.04519         3.37476
| 27>    S      -10.92923        -2.04154         3.16734
| 28>    C      -10.57077        -2.77251         1.63443
| 29>    C      -11.59474        -2.74672         0.74795
| 30>   Br       -8.85616        -3.46294         1.35151
| 31>    C      -16.22902        -0.63304         0.94311
| 32>    O      -16.68032        -0.70457        -0.18214
| 33>    C      -16.76360         0.12335         2.09220
| 34>    C      -17.67198         1.14664         2.04987
| 35>    C      -18.54564         1.58813         1.03969
| 36>    O      -18.69798         2.94259         1.03854
| 37>    C      -19.53588         3.29005         0.04763
| 38>    C      -20.02279         2.12759        -0.55254
| 39>    C      -19.39001         1.04290         0.05943
| 40>    C      -19.63609        -0.39179        -0.21235
| 41>    C      -19.64228         4.66438        -0.24743
| 42>    C      -18.77185         5.57242         0.30980
| 43>    C      -18.64397         6.95813         0.02732
| 44>    C      -17.56307         7.55322         0.60556
| 45>    C      -16.78353         6.67276         1.39116
| 46>    S      -17.51044         5.08118         1.41992
| 47>    C      -15.56423         6.86412         2.00574
| 48>    C      -14.71926         8.00093         2.00931
| 49>    C      -13.50800         7.78369         2.58255
| 50>    C      -13.31416         6.46138         3.08401
| 51>    S      -14.79319         5.53326         2.84310
| 52>    C      -12.14358         5.94671         3.55028
| 53>    C      -11.89860         4.61216         4.02828
| 54>    C      -10.61830         4.05705         3.84415
| 55>    C      -10.36855         2.76867         4.24627
| 56>    C      -11.35317         2.04326         4.94621
| 57>    C      -12.61128         2.59089         5.16275
| 58>    C      -12.88342         3.85280         4.67765
| 59>    C      -10.79040         0.77888         5.35884
| 60>    C       -9.46865         0.70221         4.88350
| 61>    C       -9.12008         1.93296         4.07409
| 62>    C       -8.96193         1.46318         2.60699
| 63>    C       -8.77550         2.56574         1.57369
| 64>    C       -7.85740         2.63567         4.58975
| 65>    C       -7.95595         2.98330         6.07085
| 66>    C       -8.70407        -0.40976         5.12724
| 67>    C       -9.25449        -1.49249         5.83740
| 68>    C      -10.56293        -1.38277         6.33738
| 69>    C      -11.32756        -0.25775         6.11536
| 70>    C       -8.46531        -2.68155         5.98727
| 71>    C       -8.92832        -3.91737         6.30184
| 72>    C       -8.06602        -5.02928         6.42481
| 73>    C       -8.40650        -6.33329         6.64068
| 74>    C       -9.67809        -7.01702         6.59774
| 75>    C      -10.75366        -6.70579         5.80437
| 76>    C      -11.95002        -7.45142         5.77544
| 77>    N      -12.95174        -8.01021         5.72514
| 78>    C      -10.76125        -5.69094         4.82802
| 79>    N      -10.82688        -4.93163         3.96899
| 80>    C       -9.53665        -8.24613         7.37371
| 81>    C       -8.16589        -8.43025         7.68508
| 82>    C       -7.39265        -7.27841         7.17420
| 83>    O       -6.19521        -7.11063         7.22363
| 84>    C       -7.70807        -9.52434         8.37729
| 85>    C       -8.64733       -10.47527         8.79137
| 86>    C      -10.01477       -10.27438         8.48800
| 87>    C      -10.47800        -9.17200         7.77996
| 88>    S      -11.00283       -11.56349         9.10509
| 89>    C       -9.58439       -12.34682         9.74942
| 90>    C       -8.42998       -11.67852         9.51744
| 91>   Br       -9.76287       -13.97122        10.66986
| 92>    H      -14.15893        -2.12640        -0.35033
| 93>    H      -13.30317        -0.74235         4.38665
| 94>    H      -11.54164        -3.15305        -0.24553
| 95>    H      -17.62368         1.86001         2.86797
| 96>    H      -20.73711         2.08242        -1.34981
| 97>    H      -18.73002        -0.85361        -0.60301
| 98>    H      -20.44210        -0.50864        -0.93111
| 99>    H      -19.89559        -0.91007         0.70963
|100>    H      -20.36319         4.98613        -0.98112
|101>    H      -19.34128         7.46140        -0.61926
|102>    H      -17.29951         8.58771         0.47260
|103>    H      -15.02404         8.93110         1.56357
|104>    H      -12.72808         8.52145         2.65467
|105>    H      -11.27870         6.59714         3.49295
|106>    H       -9.85463         4.65202         3.36498
|107>    H      -13.36054         2.04206         5.71221
|108>    H      -13.85436         4.28902         4.85451
|109>    H       -9.85250         0.88467         2.34489
|110>    H       -8.10606         0.78607         2.56517
|111>    H       -9.65171         3.20699         1.52743
|112>    H       -8.63357         2.11726         0.59274
|113>    H       -7.90183         3.17321         1.79434
|114>    H       -7.69844         3.55148         4.01913
|115>    H       -6.99737         1.98366         4.42401
|116>    H       -8.80440         3.63913         6.25423
|117>    H       -7.05129         3.48995         6.39887
|118>    H       -8.08396         2.08467         6.67012
|119>    H       -7.69172        -0.48165         4.75652
|120>    H      -10.97650        -2.19046         6.92077
|121>    H      -12.32529        -0.18524         6.52249
|122>    H       -7.41136        -2.58087         5.75561
|123>    H       -9.98265        -4.06790         6.48016
|124>    H       -6.99987        -4.82677         6.44219
|125>    H       -6.65825        -9.64434         8.59417
|126>    H      -11.53004        -9.05804         7.57697
|127>    H       -7.46401       -12.01765         9.84434
|128> *
|129>
|130>                          ****END OF INPUT****

CARTESIAN COORDINATES (ANGSTROEM)
---------------------------------
  C    -15.899160   -0.098940    3.229580
  C    -16.177490    0.238450    4.530780
  C    -15.304610    0.004320    5.607080
  N    -14.627240   -0.145380    6.523840
  C    -17.395330    0.806930    4.959210
  N    -18.370020    1.239420    5.386060
  C    -14.716150   -0.795060    2.752940
  C    -14.927210   -1.170840    1.402510
  C    -13.974400   -1.839700    0.673290
  C    -12.746500   -2.113340    1.290880
  C    -12.534830   -1.687490    2.623850
  C    -13.510630   -1.045190    3.374760
  S    -10.929230   -2.041540    3.167340
  C    -10.570770   -2.772510    1.634430
  C    -11.594740   -2.746720    0.747950
  Br    -8.856160   -3.462940    1.351510
  C    -16.229020   -0.633040    0.943110
  O    -16.680320   -0.704570   -0.182140
  C    -16.763600    0.123350    2.092200
  C    -17.671980    1.146640    2.049870
  C    -18.545640    1.588130    1.039690
  O    -18.697980    2.942590    1.038540
  C    -19.535880    3.290050    0.047630
  C    -20.022790    2.127590   -0.552540
  C    -19.390010    1.042900    0.059430
  C    -19.636090   -0.391790   -0.212350
  C    -19.642280    4.664380   -0.247430
  C    -18.771850    5.572420    0.309800
  C    -18.643970    6.958130    0.027320
  C    -17.563070    7.553220    0.605560
  C    -16.783530    6.672760    1.391160
  S    -17.510440    5.081180    1.419920
  C    -15.564230    6.864120    2.005740
  C    -14.719260    8.000930    2.009310
  C    -13.508000    7.783690    2.582550
  C    -13.314160    6.461380    3.084010
  S    -14.793190    5.533260    2.843100
  C    -12.143580    5.946710    3.550280
  C    -11.898600    4.612160    4.028280
  C    -10.618300    4.057050    3.844150
  C    -10.368550    2.768670    4.246270
  C    -11.353170    2.043260    4.946210
  C    -12.611280    2.590890    5.162750
  C    -12.883420    3.852800    4.677650
  C    -10.790400    0.778880    5.358840
  C     -9.468650    0.702210    4.883500
  C     -9.120080    1.932960    4.074090
  C     -8.961930    1.463180    2.606990
  C     -8.775500    2.565740    1.573690
  C     -7.857400    2.635670    4.589750
  C     -7.955950    2.983300    6.070850
  C     -8.704070   -0.409760    5.127240
  C     -9.254490   -1.492490    5.837400
  C    -10.562930   -1.382770    6.337380
  C    -11.327560   -0.257750    6.115360
  C     -8.465310   -2.681550    5.987270
  C     -8.928320   -3.917370    6.301840
  C     -8.066020   -5.029280    6.424810
  C     -8.406500   -6.333290    6.640680
  C     -9.678090   -7.017020    6.597740
  C    -10.753660   -6.705790    5.804370
  C    -11.950020   -7.451420    5.775440
  N    -12.951740   -8.010210    5.725140
  C    -10.761250   -5.690940    4.828020
  N    -10.826880   -4.931630    3.968990
  C     -9.536650   -8.246130    7.373710
  C     -8.165890   -8.430250    7.685080
  C     -7.392650   -7.278410    7.174200
  O     -6.195210   -7.110630    7.223630
  C     -7.708070   -9.524340    8.377290
  C     -8.647330  -10.475270    8.791370
  C    -10.014770  -10.274380    8.488000
  C    -10.478000   -9.172000    7.779960
  S    -11.002830  -11.563490    9.105090
  C     -9.584390  -12.346820    9.749420
  C     -8.429980  -11.678520    9.517440
  Br    -9.762870  -13.971220   10.669860
  H    -14.158930   -2.126400   -0.350330
  H    -13.303170   -0.742350    4.386650
  H    -11.541640   -3.153050   -0.245530
  H    -17.623680    1.860010    2.867970
  H    -20.737110    2.082420   -1.349810
  H    -18.730020   -0.853610   -0.603010
  H    -20.442100   -0.508640   -0.931110
  H    -19.895590   -0.910070    0.709630
  H    -20.363190    4.986130   -0.981120
  H    -19.341280    7.461400   -0.619260
  H    -17.299510    8.587710    0.472600
  H    -15.024040    8.931100    1.563570
  H    -12.728080    8.521450    2.654670
  H    -11.278700    6.597140    3.492950
  H     -9.854630    4.652020    3.364980
  H    -13.360540    2.042060    5.712210
  H    -13.854360    4.289020    4.854510
  H     -9.852500    0.884670    2.344890
  H     -8.106060    0.786070    2.565170
  H     -9.651710    3.206990    1.527430
  H     -8.633570    2.117260    0.592740
  H     -7.901830    3.173210    1.794340
  H     -7.698440    3.551480    4.019130
  H     -6.997370    1.983660    4.424010
  H     -8.804400    3.639130    6.254230
  H     -7.051290    3.489950    6.398870
  H     -8.083960    2.084670    6.670120
  H     -7.691720   -0.481650    4.756520
  H    -10.976500   -2.190460    6.920770
  H    -12.325290   -0.185240    6.522490
  H     -7.411360   -2.580870    5.755610
  H     -9.982650   -4.067900    6.480160
  H     -6.999870   -4.826770    6.442190
  H     -6.658250   -9.644340    8.594170
  H    -11.530040   -9.058040    7.576970
  H     -7.464010  -12.017650    9.844340

 Total Charge           Charge          ....    0
 Multiplicity           Mult            ....    1
 Number of Electrons    NEL             ....  606
 Basis Dimension        Dim             .... 1310

ORBITAL ENERGIES
----------------

  NO   OCC          E(Eh)            E(eV)
   0   2.0000    -482.882805    -13139.9091
   1   2.0000    -482.870246    -13139.5674
   2   2.0000     -88.972325     -2421.0600
   3   2.0000     -88.956428     -2420.6275
   4   2.0000     -88.947131     -2420.3745
   5   2.0000     -88.942506     -2420.2486
   6   2.0000     -62.560530     -1702.3586
   7   2.0000     -62.547888     -1702.0146
   8   2.0000     -56.394479     -1534.5718
   9   2.0000     -56.391766     -1534.4980
  10   2.0000     -56.391731     -1534.4970
  11   2.0000     -56.381782     -1534.2263
  12   2.0000     -56.379191     -1534.1558
  13   2.0000     -56.379091     -1534.1531
  14   2.0000     -19.288933      -524.8786
  15   2.0000     -19.209436      -522.7153
  16   2.0000     -19.203079      -522.5423
  17   2.0000     -14.412008      -392.1707
  18   2.0000     -14.410777      -392.1372
  19   2.0000     -14.410355      -392.1257
  20   2.0000     -14.399328      -391.8256
  21   2.0000     -10.360513      -281.9239
  22   2.0000     -10.355672      -281.7922
  23   2.0000     -10.354614      -281.7634
  24   2.0000     -10.342853      -281.4433
  25   2.0000     -10.339398      -281.3493
  26   2.0000     -10.339250      -281.3453
  27   2.0000     -10.337761      -281.3048
  28   2.0000     -10.327019      -281.0125
  29   2.0000     -10.326688      -281.0035
  30   2.0000     -10.326076      -280.9868
  31   2.0000     -10.322330      -280.8849
  32   2.0000     -10.317609      -280.7564
  33   2.0000     -10.316408      -280.7237
  34   2.0000     -10.316269      -280.7199
  35   2.0000     -10.314703      -280.6773
  36   2.0000     -10.313702      -280.6501
  37   2.0000     -10.311067      -280.5784
  38   2.0000     -10.309927      -280.5474
  39   2.0000     -10.306836      -280.4633
  40   2.0000     -10.305649      -280.4310
  41   2.0000     -10.304900      -280.4106
  42   2.0000     -10.304048      -280.3874
  43   2.0000     -10.304011      -280.3864
  44   2.0000     -10.303457      -280.3713
  45   2.0000     -10.302108      -280.3346
  46   2.0000     -10.300731      -280.2971
  47   2.0000     -10.297704      -280.2148
  48   2.0000     -10.293676      -280.1052
  49   2.0000     -10.293290      -280.0947
  50   2.0000     -10.293091      -280.0892
  51   2.0000     -10.292489      -280.0729
  52   2.0000     -10.291616      -280.0491
  53   2.0000     -10.291164      -280.0368
  54   2.0000     -10.290610      -280.0217
  55   2.0000     -10.289931      -280.0033
  56   2.0000     -10.289207      -279.9835
  57   2.0000     -10.288771      -279.9717
  58   2.0000     -10.287600      -279.9398
  59   2.0000     -10.286603      -279.9127
  60   2.0000     -10.285862      -279.8925
  61   2.0000     -10.284921      -279.8669
  62   2.0000     -10.284673      -279.8602
  63   2.0000     -10.284176      -279.8466
  64   2.0000     -10.284037      -279.8429
  65   2.0000     -10.282866      -279.8110
  66   2.0000     -10.281890      -279.7845
  67   2.0000     -10.278768      -279.6995
  68   2.0000     -10.278739      -279.6987
  69   2.0000     -10.278708      -279.6979
  70   2.0000     -10.277473      -279.6643
  71   2.0000     -10.276857      -279.6475
  72   2.0000     -10.274080      -279.5719
  73   2.0000     -10.273952      -279.5684
  74   2.0000     -10.273115      -279.5457
  75   2.0000     -10.272747      -279.5357
  76   2.0000     -10.271309      -279.4965
  77   2.0000     -10.271162      -279.4925
  78   2.0000     -10.270930      -279.4862
  79   2.0000     -10.270808      -279.4829
  80   2.0000     -10.266083      -279.3543
  81   2.0000     -10.264179      -279.3025
  82   2.0000     -10.254264      -279.0327
  83   2.0000     -10.252219      -278.9771
  84   2.0000     -10.249354      -278.8991
  85   2.0000      -8.789965      -239.1871
  86   2.0000      -8.777310      -238.8428
  87   2.0000      -8.068351      -219.5510
  88   2.0000      -8.050681      -219.0702
  89   2.0000      -8.043210      -218.8669
  90   2.0000      -8.038225      -218.7312
  91   2.0000      -6.626273      -180.3100
  92   2.0000      -6.613419      -179.9603
  93   2.0000      -6.611690      -179.9132
  94   2.0000      -6.611504      -179.9082
  95   2.0000      -6.599167      -179.5725
  96   2.0000      -6.598954      -179.5667
  97   2.0000      -6.038032      -164.3032
  98   2.0000      -6.033778      -164.1875
  99   2.0000      -6.029560      -164.0727
 100   2.0000      -6.020464      -163.8252
 101   2.0000      -6.016062      -163.7054
 102   2.0000      -6.013013      -163.6224
 103   2.0000      -6.012054      -163.5963
 104   2.0000      -6.008873      -163.5098
 105   2.0000      -6.008166      -163.4905
 106   2.0000      -6.004032      -163.3780
 107   2.0000      -6.003631      -163.3671
 108   2.0000      -5.999063      -163.2428
 109   2.0000      -2.742114       -74.6167
 110   2.0000      -2.738068       -74.5066
 111   2.0000      -2.737910       -74.5023
 112   2.0000      -2.729355       -74.2695
 113   2.0000      -2.726329       -74.1872
 114   2.0000      -2.726310       -74.1867
 115   2.0000      -2.725332       -74.1601
 116   2.0000      -2.725176       -74.1558
 117   2.0000      -2.713842       -73.8474
 118   2.0000      -2.713829       -73.8470
 119   2.0000      -1.214161       -33.0390
 120   2.0000      -1.124394       -30.5963
 121   2.0000      -1.116701       -30.3870
 122   2.0000      -1.019332       -27.7374
 123   2.0000      -1.010134       -27.4871
 124   2.0000      -1.009545       -27.4711
 125   2.0000      -1.000304       -27.2197
 126   2.0000      -0.998209       -27.1626
 127   2.0000      -0.991552       -26.9815
 128   2.0000      -0.989854       -26.9353
 129   2.0000      -0.985679       -26.8217
 130   2.0000      -0.984401       -26.7869
 131   2.0000      -0.976505       -26.5721
 132   2.0000      -0.975151       -26.5352
 133   2.0000      -0.952674       -25.9236
 134   2.0000      -0.940338       -25.5879
 135   2.0000      -0.930212       -25.3124
 136   2.0000      -0.927923       -25.2501
 137   2.0000      -0.914856       -24.8945
 138   2.0000      -0.909653       -24.7529
 139   2.0000      -0.908037       -24.7089
 140   2.0000      -0.904905       -24.6237
 141   2.0000      -0.894311       -24.3354
 142   2.0000      -0.893206       -24.3054
 143   2.0000      -0.884610       -24.0715
 144   2.0000      -0.882459       -24.0129
 145   2.0000      -0.877287       -23.8722
 146   2.0000      -0.869836       -23.6694
 147   2.0000      -0.866086       -23.5674
 148   2.0000      -0.853716       -23.2308
 149   2.0000      -0.849229       -23.1087
 150   2.0000      -0.840544       -22.8724
 151   2.0000      -0.837543       -22.7907
 152   2.0000      -0.835703       -22.7406
 153   2.0000      -0.833005       -22.6672
 154   2.0000      -0.825759       -22.4700
 155   2.0000      -0.824311       -22.4306
 156   2.0000      -0.817393       -22.2424
 157   2.0000      -0.812639       -22.1130
 158   2.0000      -0.802476       -21.8365
 159   2.0000      -0.788700       -21.4616
 160   2.0000      -0.781926       -21.2773
 161   2.0000      -0.767194       -20.8764
 162   2.0000      -0.766255       -20.8509
 163   2.0000      -0.756036       -20.5728
 164   2.0000      -0.748637       -20.3714
 165   2.0000      -0.744150       -20.2494
 166   2.0000      -0.731630       -19.9087
 167   2.0000      -0.720106       -19.5951
 168   2.0000      -0.712913       -19.3994
 169   2.0000      -0.699955       -19.0468
 170   2.0000      -0.697658       -18.9843
 171   2.0000      -0.692371       -18.8404
 172   2.0000      -0.690155       -18.7801
 173   2.0000      -0.684705       -18.6318
 174   2.0000      -0.682177       -18.5630
 175   2.0000      -0.680394       -18.5145
 176   2.0000      -0.676873       -18.4187
 177   2.0000      -0.669455       -18.2168
 178   2.0000      -0.661415       -17.9980
 179   2.0000      -0.660711       -17.9789
 180   2.0000      -0.655114       -17.8266
 181   2.0000      -0.650673       -17.7057
 182   2.0000      -0.644093       -17.5267
 183   2.0000      -0.639325       -17.3969
 184   2.0000      -0.634755       -17.2726
 185   2.0000      -0.631664       -17.1885
 186   2.0000      -0.624328       -16.9888
 187   2.0000      -0.619683       -16.8624
 188   2.0000      -0.611805       -16.6480
 189   2.0000      -0.610259       -16.6060
 190   2.0000      -0.598356       -16.2821
 191   2.0000      -0.596600       -16.2343
 192   2.0000      -0.594825       -16.1860
 193   2.0000      -0.594147       -16.1676
 194   2.0000      -0.591107       -16.0848
 195   2.0000      -0.586186       -15.9509
 196   2.0000      -0.579313       -15.7639
 197   2.0000      -0.574849       -15.6424
 198   2.0000      -0.570871       -15.5342
 199   2.0000      -0.562884       -15.3168
 200   2.0000      -0.560521       -15.2526
 201   2.0000      -0.554453       -15.0874
 202   2.0000      -0.547162       -14.8890
 203   2.0000      -0.546300       -14.8656
 204   2.0000      -0.544127       -14.8064
 205   2.0000      -0.539576       -14.6826
 206   2.0000      -0.537267       -14.6198
 207   2.0000      -0.534227       -14.5370
 208   2.0000      -0.532462       -14.4890
 209   2.0000      -0.530843       -14.4450
 210   2.0000      -0.528046       -14.3689
 211   2.0000      -0.525868       -14.3096
 212   2.0000      -0.524395       -14.2695
 213   2.0000      -0.523083       -14.2338
 214   2.0000      -0.519900       -14.1472
 215   2.0000      -0.519103       -14.1255
 216   2.0000      -0.517177       -14.0731
 217   2.0000      -0.514455       -13.9990
 218   2.0000      -0.508495       -13.8368
 219   2.0000      -0.507393       -13.8069
 220   2.0000      -0.505248       -13.7485
 221   2.0000      -0.504052       -13.7160
 222   2.0000      -0.502506       -13.6739
 223   2.0000      -0.501637       -13.6502
 224   2.0000      -0.499139       -13.5823
 225   2.0000      -0.498373       -13.5614
 226   2.0000      -0.495979       -13.4963
 227   2.0000      -0.494860       -13.4658
 228   2.0000      -0.492944       -13.4137
 229   2.0000      -0.492277       -13.3955
 230   2.0000      -0.490553       -13.3486
 231   2.0000      -0.487783       -13.2732
 232   2.0000      -0.483791       -13.1646
 233   2.0000      -0.483113       -13.1462
 234   2.0000      -0.481117       -13.0919
 235   2.0000      -0.478293       -13.0150
 236   2.0000      -0.476257       -12.9596
 237   2.0000      -0.472185       -12.8488
 238   2.0000      -0.472026       -12.8445
 239   2.0000      -0.466814       -12.7026
 240   2.0000      -0.465457       -12.6657
 241   2.0000      -0.460914       -12.5421
 242   2.0000      -0.459559       -12.5052
 243   2.0000      -0.457764       -12.4564
 244   2.0000      -0.455525       -12.3955
 245   2.0000      -0.455141       -12.3850
 246   2.0000      -0.451420       -12.2837
 247   2.0000      -0.450769       -12.2661
 248   2.0000      -0.449486       -12.2311
 249   2.0000      -0.447100       -12.1662
 250   2.0000      -0.444344       -12.0912
 251   2.0000      -0.443113       -12.0577
 252   2.0000      -0.441599       -12.0165
 253   2.0000      -0.440591       -11.9891
 254   2.0000      -0.437915       -11.9163
 255   2.0000      -0.435527       -11.8513
 256   2.0000      -0.434733       -11.8297
 257   2.0000      -0.432917       -11.7803
 258   2.0000      -0.431031       -11.7289
 259   2.0000      -0.430514       -11.7149
 260   2.0000      -0.427298       -11.6274
 261   2.0000      -0.424990       -11.5646
 262   2.0000      -0.423470       -11.5232
 263   2.0000      -0.421597       -11.4722
 264   2.0000      -0.419104       -11.4044
 265   2.0000      -0.418858       -11.3977
 266   2.0000      -0.417018       -11.3476
 267   2.0000      -0.414818       -11.2878
 268   2.0000      -0.411285       -11.1916
 269   2.0000      -0.408693       -11.1211
 270   2.0000      -0.407007       -11.0752
 271   2.0000      -0.405699       -11.0396
 272   2.0000      -0.401858       -10.9351
 273   2.0000      -0.398593       -10.8463
 274   2.0000      -0.394060       -10.7229
 275   2.0000      -0.391501       -10.6533
 276   2.0000      -0.388195       -10.5633
 277   2.0000      -0.384239       -10.4557
 278   2.0000      -0.383947       -10.4477
 279   2.0000      -0.381301       -10.3757
 280   2.0000      -0.375262       -10.2114
 281   2.0000      -0.372321       -10.1314
 282   2.0000      -0.370857       -10.0915
 283   2.0000      -0.363373        -9.8879
 284   2.0000      -0.359453        -9.7812
 285   2.0000      -0.357011        -9.7148
 286   2.0000      -0.349527        -9.5111
 287   2.0000      -0.343267        -9.3408
 288   2.0000      -0.339583        -9.2405
 289   2.0000      -0.332241        -9.0407
 290   2.0000      -0.328590        -8.9414
 291   2.0000      -0.326304        -8.8792
 292   2.0000      -0.324160        -8.8209
 293   2.0000      -0.319452        -8.6927
 294   2.0000      -0.316574        -8.6144
 295   2.0000      -0.311893        -8.4870
 296   2.0000      -0.304744        -8.2925
 297   2.0000      -0.294265        -8.0073
 298   2.0000      -0.289047        -7.8654
 299   2.0000      -0.277809        -7.5596
 300   2.0000      -0.275513        -7.4971
 301   2.0000      -0.258713        -7.0399
 302   2.0000      -0.216232        -5.8840
 303   0.0000      -0.093260        -2.5377
 304   0.0000      -0.085226        -2.3191
 305   0.0000      -0.064500        -1.7551
 306   0.0000      -0.054814        -1.4916
 307   0.0000      -0.040570        -1.1040

MULLIKEN ATOMIC CHARGES
-----------------------
   0 C :    0.284968
   1 C :   -0.360703
   2 C :   -0.142797
   3 N :    0.120386
   4 C :   -0.213668
   5 N :    0.163428
   6 C :    0.021529
   7 C :   -0.019235
   8 C :   -0.077677
   9 C :    0.107457
  10 C :   -0.062527
  11 C :   -0.007428
  12 S :    0.182371
  13 C :   -0.079151
  14 C :    0.034793
  15 Br:    0.005169
  16 C :    0.152734
  17 O :   -0.162467
  18 C :   -0.083581
  19 C :   -0.074161
  20 C :    0.152363
  21 O :   -0.237091
  22 C :    0.218591
  23 C :   -0.094353
  24 C :   -0.065141
  25 C :    0.114484
  26 C :   -0.048447
  27 C :   -0.013137
  28 C :    0.028256
  29 C :    0.041080
  30 C :   -0.051991
  31 S :    0.103868
  32 C :   -0.046303
  33 C :    0.034880
  34 C :    0.041541
  35 C :   -0.020770
  36 S :    0.082739
  37 C :   -0.028627
  38 C :    0.090628
  39 C :   -0.103023
  40 C :    0.025052
  41 C :    0.113793
  42 C :   -0.056559
  43 C :   -0.008092
  44 C :    0.097184
  45 C :    0.030769
  46 C :   -0.132654
  47 C :    0.079531
  48 C :    0.029140
  49 C :    0.053899
  50 C :    0.025076
  51 C :   -0.101696
  52 C :    0.118891
  53 C :   -0.010434
  54 C :   -0.050711
  55 C :    0.008932
  56 C :    0.016570
  57 C :    0.024620
  58 C :   -0.113284
  59 C :    0.280513
  60 C :   -0.332286
  61 C :   -0.184804
  62 N :    0.150023
  63 C :   -0.213451
  64 N :    0.172610
  65 C :    0.007408
  66 C :   -0.005238
  67 C :    0.141778
  68 O :   -0.146469
  69 C :   -0.075141
  70 C :    0.116616
  71 C :   -0.087813
  72 C :   -0.024517
  73 S :    0.184959
  74 C :   -0.124974
  75 C :    0.038885
  76 Br:    0.021578
  77 H :   -0.016070
  78 H :   -0.049956
  79 H :   -0.012218
  80 H :    0.044375
  81 H :   -0.020042
  82 H :    0.062830
  83 H :    0.001044
  84 H :    0.028526
  85 H :   -0.008989
  86 H :   -0.010401
  87 H :   -0.011824
  88 H :   -0.011347
  89 H :   -0.007102
  90 H :   -0.007985
  91 H :   -0.037545
  92 H :   -0.029522
  93 H :   -0.009042
  94 H :    0.007378
  95 H :   -0.003361
  96 H :    0.020608
  97 H :    0.014528
  98 H :    0.001830
  99 H :    0.005615
 100 H :   -0.002503
 101 H :    0.020275
 102 H :    0.009171
 103 H :    0.020769
 104 H :   -0.036604
 105 H :   -0.018290
 106 H :   -0.016965
 107 H :   -0.003232
 108 H :    0.020197
 109 H :    0.014311
 110 H :   -0.009877
 111 H :   -0.003428
 112 H :   -0.003846
Sum of atomic charges:   -0.0000000

LOEWDIN ATOMIC CHARGES
----------------------
   0 C :    0.083004
   1 C :   -0.160653
   2 C :    0.001385
   3 N :   -0.075294
   4 C :   -0.030322
   5 N :   -0.058536
   6 C :   -0.024376
   7 C :   -0.051614
   8 C :    0.018173
   9 C :   -0.032706
  10 C :   -0.144016
  11 C :   -0.012564
  12 S :    0.493594
  13 C :   -0.264196
  14 C :   -0.073451
  15 Br:    0.128465
  16 C :    0.084893
  17 O :   -0.149729
  18 C :   -0.104469
  19 C :    0.046854
  20 C :    0.006994
  21 O :    0.005231
  22 C :    0.060971
  23 C :   -0.071834
  24 C :    0.002647
  25 C :   -0.051690
  26 C :   -0.094773
  27 C :   -0.120754
  28 C :   -0.043130
  29 C :   -0.020371
  30 C :   -0.197405
  31 S :    0.404161
  32 C :   -0.160948
  33 C :   -0.035996
  34 C :   -0.019567
  35 C :   -0.146901
  36 S :    0.384690
  37 C :   -0.034674
  38 C :   -0.030149
  39 C :   -0.018335
  40 C :    0.006440
  41 C :   -0.016053
  42 C :   -0.011176
  43 C :   -0.022564
  44 C :   -0.006797
  45 C :    0.003878
  46 C :   -0.034277
  47 C :   -0.009141
  48 C :   -0.059319
  49 C :   -0.016052
  50 C :   -0.056517
  51 C :   -0.011667
  52 C :   -0.046091
  53 C :   -0.007383
  54 C :   -0.021668
  55 C :    0.044998
  56 C :   -0.039006
  57 C :    0.072260
  58 C :   -0.100196
  59 C :    0.071763
  60 C :   -0.142702
  61 C :   -0.019480
  62 N :   -0.053322
  63 C :   -0.018782
  64 N :   -0.060171
  65 C :   -0.017899
  66 C :   -0.052030
  67 C :    0.082318
  68 O :   -0.146938
  69 C :    0.021468
  70 C :   -0.033856
  71 C :   -0.143606
  72 C :   -0.012736
  73 S :    0.431409
  74 C :   -0.272537
  75 C :   -0.070103
  76 Br:    0.135175
  77 H :    0.038440
  78 H :    0.035027
  79 H :    0.035680
  80 H :    0.052942
  81 H :    0.030532
  82 H :    0.044903
  83 H :    0.030072
  84 H :    0.041625
  85 H :    0.039670
  86 H :    0.033198
  87 H :    0.031873
  88 H :    0.033028
  89 H :    0.034625
  90 H :    0.034843
  91 H :    0.023991
  92 H :    0.032185
  93 H :    0.020132
  94 H :    0.023971
  95 H :    0.019836
  96 H :    0.024494
  97 H :    0.028828
  98 H :    0.018892
  99 H :    0.019810
 100 H :    0.020129
 101 H :    0.025677
 102 H :    0.023903
 103 H :    0.024916
 104 H :    0.025112
 105 H :    0.030536
 106 H :    0.030918
 107 H :    0.034230
 108 H :    0.031268
 109 H :    0.044002
 110 H :    0.041016
 111 H :    0.040881
 112 H :    0.038565

  Mayer bond orders larger than 0.100000
B(  0-C ,  1-C ) :   1.6075 B(  0-C ,  6-C ) :   1.0127 B(  0-C , 18-C ) :   1.0797
B(  1-C ,  2-C ) :   1.1662 B(  1-C ,  4-C ) :   1.1366 B(  2-C ,  3-N ) :   2.8901
B(  4-C ,  5-N ) :   3.0177 B(  6-C ,  7-C ) :   1.2620 B(  6-C , 11-C ) :   1.4150
B(  7-C ,  8-C ) :   1.4339 B(  7-C , 16-C ) :   0.9432 B(  8-C ,  9-C ) :   1.2368
B(  8-C , 77-H ) :   1.0147 B(  9-C , 10-C ) :   1.3092 B(  9-C , 14-C ) :   1.1710
B( 10-C , 11-C ) :   1.3245 B( 10-C , 12-S ) :   1.1020 B( 11-C , 78-H ) :   0.9792
B( 12-S , 13-C ) :   1.1046 B( 13-C , 14-C ) :   1.6126 B( 13-C , 15-Br) :   1.0100
B( 14-C , 79-H ) :   0.9990 B( 16-C , 17-O ) :   2.1625 B( 16-C , 18-C ) :   0.9691
B( 18-C , 19-C ) :   1.5404 B( 19-C , 20-C ) :   1.2313 B( 19-C , 80-H ) :   0.9299
B( 20-C , 21-O ) :   1.0454 B( 20-C , 24-C ) :   1.3737 B( 21-O , 22-C ) :   1.1414
B( 22-C , 23-C ) :   1.3191 B( 22-C , 26-C ) :   1.1835 B( 23-C , 24-C ) :   1.3215
B( 23-C , 81-H ) :   1.0165 B( 24-C , 25-C ) :   1.1174 B( 25-C , 82-H ) :   0.9152
B( 25-C , 83-H ) :   0.9418 B( 25-C , 84-H ) :   0.9428 B( 26-C , 27-C ) :   1.5351
B( 26-C , 85-H ) :   0.9744 B( 27-C , 28-C ) :   1.1500 B( 27-C , 31-S ) :   1.0771
B( 28-C , 29-C ) :   1.5946 B( 28-C , 86-H ) :   0.9983 B( 29-C , 30-C ) :   1.1858
B( 29-C , 87-H ) :   0.9945 B( 30-C , 31-S ) :   1.0161 B( 30-C , 32-C ) :   1.5210
B( 32-C , 33-C ) :   1.1701 B( 32-C , 36-S ) :   1.0574 B( 33-C , 34-C ) :   1.6184
B( 33-C , 88-H ) :   0.9938 B( 34-C , 35-C ) :   1.1162 B( 34-C , 89-H ) :   0.9972
B( 35-C , 36-S ) :   1.0208 B( 35-C , 37-C ) :   1.6521 B( 37-C , 38-C ) :   1.0552
B( 37-C , 90-H ) :   0.9693 B( 38-C , 39-C ) :   1.2783 B( 38-C , 43-C ) :   1.3381
B( 39-C , 40-C ) :   1.4061 B( 39-C , 91-H ) :   1.0033 B( 40-C , 41-C ) :   1.3631
B( 40-C , 46-C ) :   0.9215 B( 41-C , 42-C ) :   1.3334 B( 41-C , 44-C ) :   1.0022
B( 42-C , 43-C ) :   1.3945 B( 42-C , 92-H ) :   0.9905 B( 43-C , 93-H ) :   0.9746
B( 44-C , 45-C ) :   1.3781 B( 44-C , 54-C ) :   1.3116 B( 45-C , 46-C ) :   0.9227
B( 45-C , 51-C ) :   1.3823 B( 46-C , 47-C ) :   1.0129 B( 46-C , 49-C ) :   1.0336
B( 47-C , 48-C ) :   1.1129 B( 47-C , 94-H ) :   0.9364 B( 47-C , 95-H ) :   0.9367
B( 48-C , 96-H ) :   0.9613 B( 48-C , 97-H ) :   0.9596 B( 48-C , 98-H ) :   0.9630
B( 49-C , 50-C ) :   1.1035 B( 49-C , 99-H ) :   0.9374 B( 49-C ,100-H ) :   0.9391
B( 50-C ,101-H ) :   0.9650 B( 50-C ,102-H ) :   0.9650 B( 50-C ,103-H ) :   0.9631
B( 51-C , 52-C ) :   1.2727 B( 51-C ,104-H ) :   1.0082 B( 52-C , 53-C ) :   1.3165
B( 52-C , 55-C ) :   1.0705 B( 53-C , 54-C ) :   1.4080 B( 53-C ,105-H ) :   0.9924
B( 54-C ,106-H ) :   0.9628 B( 55-C , 56-C ) :   1.6464 B( 55-C ,107-H ) :   0.9879
B( 56-C , 57-C ) :   1.1447 B( 56-C ,108-H ) :   0.9534 B( 57-C , 58-C ) :   1.5919
B( 57-C ,109-H ) :   0.9578 B( 58-C , 59-C ) :   1.0457 B( 58-C , 67-C ) :   0.9443
B( 59-C , 60-C ) :   1.6336 B( 59-C , 65-C ) :   1.0152 B( 60-C , 61-C ) :   1.1308
B( 60-C , 63-C ) :   1.1586 B( 61-C , 62-N ) :   2.9861 B( 63-C , 64-N ) :   3.0064
B( 65-C , 66-C ) :   1.2739 B( 65-C , 72-C ) :   1.4131 B( 66-C , 67-C ) :   0.9210
B( 66-C , 69-C ) :   1.4282 B( 67-C , 68-O ) :   2.2629 B( 69-C , 70-C ) :   1.2485
B( 69-C ,110-H ) :   1.0169 B( 70-C , 71-C ) :   1.3092 B( 70-C , 75-C ) :   1.1616
B( 71-C , 72-C ) :   1.3263 B( 71-C , 73-S ) :   1.0838 B( 72-C ,111-H ) :   0.9832
B( 73-S , 74-C ) :   1.0867 B( 74-C , 75-C ) :   1.6204 B( 74-C , 76-Br) :   1.0176
B( 75-C ,112-H ) :   1.0006

-----------------------------------------------------------------------------
         ABSORPTION SPECTRUM VIA TRANSITION ELECTRIC DIPOLE MOMENTS
-----------------------------------------------------------------------------
State   Energy  Wavelength   fosc         T2         TX        TY        TZ
        (cm-1)    (nm)                  (au**2)     (au)      (au)      (au)
-----------------------------------------------------------------------------
   0   11972.8    835.2   0.210441497   5.78643   1.71057   1.56880   0.63186
   1   17368.0    575.8   0.692707233  13.13032   1.69781  -2.84622   1.46518
   2   19394.4    515.6   0.299505285   5.08397  -1.17343  -1.79667  -0.69209
   3   21499.5    465.1   0.963544574  14.75428   1.07177  -3.42418   1.37135
   4   22764.9    439.3   0.488831103   7.06918   0.94048  -2.40500   0.63299
   5   23853.5    419.2   0.814350624  11.23920  -2.91076   0.55615  -1.56759
   6   25164.7    397.4   0.020805243   0.27218  -0.36179   0.15088   0.34427
   7   26096.6    383.2   0.134035701   1.69088  -0.50777   1.13810  -0.37120
   8   26315.3    380.0   0.085605720   1.07095   0.63518   0.25782   0.77526
   9   27201.9    367.6   0.213674413   2.58600  -1.27140   0.88960   0.42208
  10   27299.8    366.3   0.259778500   3.13270   1.63697   0.11525   0.66315
  11   27635.0    361.9   0.214608565   2.55660  -0.41301   1.37138  -0.71087
  12   28401.1    352.1   0.072623819   0.84182  -0.29180  -0.86949  -0.02560
  13   28988.8    345.0   0.002732739   0.03103   0.11658  -0.01659  -0.13103
  14   29582.8    338.0   0.049789119   0.55408  -0.32967  -0.66633   0.03737
  15   29782.2    335.8   0.060340548   0.66700   0.01683   0.69722   0.42497
  16   29831.3    335.2   0.199153950   2.19782   0.38448  -1.34501   0.49086
  17   30155.2    331.6   0.003018571   0.03295   0.03695  -0.16481   0.06653
  18   30352.9    329.5   0.084562548   0.91718  -0.95466   0.06795   0.03443
  19   30634.9    326.4   0.292501909   3.14332   0.60264  -1.51584   0.69454
  20   30785.2    324.8   0.054235618   0.57999  -0.29524   0.59675  -0.36974
  21   31134.2    321.2   0.390371816   4.12777   1.43806  -1.19723  -0.79146
  22   31839.2    314.1   0.053587391   0.55408   0.26663  -0.35950   0.59477
  23   32118.2    311.4   0.144175977   1.47781   1.21089   0.00274   0.10745
  24   32618.8    306.6   0.050466780   0.50935  -0.53979  -0.37028   0.28438
  25   32905.5    303.9   0.034966408   0.34983   0.39013  -0.09934   0.43332
  26   32997.8    303.1   0.101622498   1.01387  -0.30498   0.63580  -0.71876
  27   33520.1    298.3   0.031732371   0.31165   0.49843   0.13613  -0.21140
  28   33738.1    296.4   0.106119730   1.03550   0.16639  -0.80232   0.60340
  29   33883.4    295.1   0.367729679   3.57287   0.55264  -1.31993   1.23500
  30   34138.5    292.9   0.025409870   0.24504  -0.23676   0.42026   0.11119
  31   34332.7    291.3   0.071846460   0.68893   0.04626  -0.10180   0.82245
  32   34839.6    287.0   0.068328022   0.64566  -0.17702   0.77529   0.11509
  33   35045.6    285.3   0.138501671   1.30106  -0.56220   0.19044   0.97403
  34   35111.0    284.8   0.035958613   0.33716  -0.37617  -0.43226  -0.09381
  35   35818.8    279.2   0.053061790   0.48769  -0.23661   0.45938   0.46977
  36   36073.2    277.2   0.031120732   0.28401   0.51862  -0.08903  -0.08436
  37   36234.2    276.0   0.211345319   1.92022   0.83118   0.63690   0.90759
  38   36494.8    274.0   0.062062135   0.55985   0.37381  -0.63742  -0.11752
  39   36741.9    272.2   0.031283047   0.28030  -0.30970  -0.05129  -0.42633
  40   36979.5    270.4   0.012304953   0.10955   0.04064   0.21537  -0.24801
  41   37241.3    268.5   0.017558272   0.15521   0.10449  -0.02618  -0.37896
  42   37685.8    265.4   0.039796150   0.34765  -0.20418  -0.11207   0.54166
  43   37986.5    263.3   0.010168476   0.08813  -0.06150   0.23401   0.17200
  44   38094.5    262.5   0.016301176   0.14087  -0.24128  -0.26273  -0.11676
  45   38292.9    261.1   0.060811773   0.52281   0.69789   0.17554   0.07030
  46   38496.5    259.8   0.004862024   0.04158  -0.17550  -0.06648   0.07974
  47   38904.0    257.0   0.017638176   0.14926   0.29161   0.13574   0.21400
  48   39197.3    255.1   0.239365443   2.01039   1.36067   0.24626   0.31355
  49   39405.4    253.8   0.060048451   0.50167   0.19500  -0.59708   0.32733
  50   39479.9    253.3   0.021095559   0.17591   0.32806  -0.09396  -0.24384
  51   39742.4    251.6   0.120515904   0.99831   0.06844   0.99680  -0.00275
  52   39894.5    250.7   0.039293614   0.32425  -0.56427  -0.07525  -0.01371
  53   40042.6    249.7   0.004208602   0.03460   0.05349   0.15793   0.08245
  54   40257.7    248.4   0.067751630   0.55405   0.45243  -0.52464   0.27223

FINAL SINGLE POINT ENERGY     -9641.563275277300

DIPOLE MOMENT
-------------
                                X             Y             Z
Electronic contribution:     47.07578    -216.93948      58.56929
Nuclear contribution   :    -45.42274     219.26148     -59.98587
                        -----------------------------------------
Total Dipole Moment    :      1.65304       2.32200      -1.41659
                        -----------------------------------------
Magnitude (a.u.)       :      3.18292
Magnitude (Debye)      :      8.09033

Rotational constants in cm-1:     0.001240     0.000275     0.000251
Rotational constants in MHz :    37.174301     8.236698     7.513428

                             ****ORCA TERMINATED NORMALLY****
TOTAL RUN TIME: 0 days 0 hours 15 minutes 33 seconds 658 msec
