                         Program Version 4.2.0 -  RELEASE  -
|  1> # ORCA input file
|  2> # SCF done       -194.872751275752          0.000622568708
|  3> ! CAM-B3LYP def2-SVP def2/J RIJCOSX Grid4 TightSCF
|  4> %maxcore 5000
|  5> %tddft
|  6>     Mode sTDDFT
|  7>     Ethresh 5.0
|  8>     maxcore 5000
|  9> end
| 10>
| 11> %pal
| 12>   nprocs 6
| 13>   end
| 14> * xyz 0 1
| 15>    C       -2.55168        -2.05005        -3.03551
| 16>    C       -1.19684        -1.93049        -2.83336
| 17>    C       -0.26216        -2.94168        -3.13947
| 18>    N        0.54853        -3.72127        -3.36905
| 19>    C       -0.54193        -0.81107        -2.28256
| 20>    N        0.05549         0.06438        -1.83451
| 21>    C       -3.22545        -3.23312        -3.56022
| 22>    C       -4.62466        -3.00571        -3.54047
| 23>    C       -5.53580        -3.93779        -3.97203
| 24>    C       -5.04324        -5.15660        -4.45108
| 25>    C       -3.64484        -5.37580        -4.46985
| 26>    C       -2.72378        -4.43223        -4.03034
| 27>    S       -3.25292        -6.94461        -5.10372
| 28>    C       -4.94847        -7.28104        -5.33171
| 29>    C       -5.76817        -6.27108        -4.95287
| 30>   Br       -5.47611        -8.93112        -6.04854
| 31>    C       -4.88800        -1.65749        -3.00841
| 32>    O       -5.97897        -1.14300        -2.84541
| 33>    C       -3.57307        -1.06752        -2.73197
| 34>    C       -3.31403         0.20902        -2.29523
| 35>    C       -4.15846         1.25563        -1.91479
| 36>    S       -5.90263         1.17202        -1.98123
| 37>    C       -6.01091         2.79375        -1.40969
| 38>    C       -7.09827         3.62447        -1.11199
| 39>    C       -6.69323         4.83753        -0.62157
| 40>    C       -7.62240         5.95382        -0.30767
| 41>    O       -8.75831         5.91768        -0.70552
| 42>    O       -7.15443         6.98434         0.38145
| 43>    S       -4.95674         4.97258        -0.53238
| 44>    C       -4.76220         3.38479        -1.19037
| 45>    C       -3.66998         2.52802        -1.47083
| 46>    C       -2.28331         2.77746        -1.33849
| 47>    C       -1.57047         3.94539        -1.25150
| 48>    C       -0.15216         3.98246        -1.13107
| 49>    C        0.37567         5.23357        -1.04805
| 50>    C       -0.59881         6.25621        -1.08804
| 51>    S       -2.19152         5.57841        -1.32176
| 52>    C       -0.45861         7.61340        -0.87292
| 53>    C        0.69939         8.37672        -0.61095
| 54>    C        0.43443         9.66884        -0.26966
| 55>    C       -0.94852         9.98391        -0.20853
| 56>    S       -1.89095         8.61137        -0.73352
| 57>    C       -1.48393        11.19094         0.18336
| 58>    C       -2.81884        11.53378         0.44639
| 59>    S       -3.19546        13.23359         0.18704
| 60>    C       -4.87736        12.95426         0.46710
| 61>    C       -6.02934        13.74526         0.44915
| 62>    C       -7.14091        12.99532         0.74872
| 63>    C       -8.51728        13.47720         0.80386
| 64>    O       -8.85533        14.61263         0.58156
| 65>    O       -9.37770        12.50348         1.13368
| 66>    S       -6.78461        11.32242         1.06739
| 67>    C       -5.11579        11.61848         0.77397
| 68>    C       -3.95927        10.78780         0.83584
| 69>    C       -4.12378         9.46827         1.31255
| 70>    C       -3.26381         8.52813         1.81914
| 71>    C       -1.88737         8.58522         2.25393
| 72>    C       -1.23740         9.68517         2.75226
| 73>    C        0.12680         9.69321         3.09995
| 74>    N        1.24764         9.75104         3.34154
| 75>    C       -1.89817        10.89153         3.05477
| 76>    N       -2.42003        11.86226         3.37529
| 77>    C       -1.36348         7.22204         2.23356
| 78>    C       -2.45051         6.33322         2.04563
| 79>    C       -3.67848         7.11490         1.84182
| 80>    O       -4.79518         6.66118         1.64522
| 81>    C       -2.29105         4.97042         1.98303
| 82>    C       -0.99031         4.46442         2.06644
| 83>    C        0.09091         5.36134         2.23288
| 84>    C       -0.07524         6.73859         2.33628
| 85>    S        1.61228         4.52514         2.25464
| 86>    C        0.78882         3.00151         2.04359
| 87>    C       -0.55838         3.11394         1.96446
| 88>   Br        1.78206         1.41567         1.91908
| 89>    H       -6.59451        -3.73338        -3.94261
| 90>    H       -1.66920        -4.64783        -4.06791
| 91>    H       -6.83976        -6.30912        -5.02457
| 92>    H       -2.26374         0.44911        -2.24061
| 93>    H       -8.13167         3.36276        -1.24225
| 94>    H       -6.27249         6.84619         0.79481
| 95>    H       -1.64059         1.90661        -1.32800
| 96>    H        0.42273         3.07297        -1.11012
| 97>    H        1.42308         5.44866        -0.93657
| 98>    H        1.68560         7.95312        -0.66654
| 99>    H        1.18319        10.39451        -0.00655
|100>    H       -0.78213        12.01596         0.23600
|101>    H       -6.06967        14.79621         0.23271
|102>    H      -10.28474        12.84466         1.15637
|103>    H       -5.15069         9.11834         1.23443
|104>    H       -3.13790         4.31637         1.84847
|105>    H        0.77800         7.38427         2.46287
|106>    H       -1.22207         2.27932         1.83181
|107> *
|108>
|109>                          ****END OF INPUT****

CARTESIAN COORDINATES (ANGSTROEM)
---------------------------------
  C     -2.551680   -2.050050   -3.035510
  C     -1.196840   -1.930490   -2.833360
  C     -0.262160   -2.941680   -3.139470
  N      0.548530   -3.721270   -3.369050
  C     -0.541930   -0.811070   -2.282560
  N      0.055490    0.064380   -1.834510
  C     -3.225450   -3.233120   -3.560220
  C     -4.624660   -3.005710   -3.540470
  C     -5.535800   -3.937790   -3.972030
  C     -5.043240   -5.156600   -4.451080
  C     -3.644840   -5.375800   -4.469850
  C     -2.723780   -4.432230   -4.030340
  S     -3.252920   -6.944610   -5.103720
  C     -4.948470   -7.281040   -5.331710
  C     -5.768170   -6.271080   -4.952870
  Br    -5.476110   -8.931120   -6.048540
  C     -4.888000   -1.657490   -3.008410
  O     -5.978970   -1.143000   -2.845410
  C     -3.573070   -1.067520   -2.731970
  C     -3.314030    0.209020   -2.295230
  C     -4.158460    1.255630   -1.914790
  S     -5.902630    1.172020   -1.981230
  C     -6.010910    2.793750   -1.409690
  C     -7.098270    3.624470   -1.111990
  C     -6.693230    4.837530   -0.621570
  C     -7.622400    5.953820   -0.307670
  O     -8.758310    5.917680   -0.705520
  O     -7.154430    6.984340    0.381450
  S     -4.956740    4.972580   -0.532380
  C     -4.762200    3.384790   -1.190370
  C     -3.669980    2.528020   -1.470830
  C     -2.283310    2.777460   -1.338490
  C     -1.570470    3.945390   -1.251500
  C     -0.152160    3.982460   -1.131070
  C      0.375670    5.233570   -1.048050
  C     -0.598810    6.256210   -1.088040
  S     -2.191520    5.578410   -1.321760
  C     -0.458610    7.613400   -0.872920
  C      0.699390    8.376720   -0.610950
  C      0.434430    9.668840   -0.269660
  C     -0.948520    9.983910   -0.208530
  S     -1.890950    8.611370   -0.733520
  C     -1.483930   11.190940    0.183360
  C     -2.818840   11.533780    0.446390
  S     -3.195460   13.233590    0.187040
  C     -4.877360   12.954260    0.467100
  C     -6.029340   13.745260    0.449150
  C     -7.140910   12.995320    0.748720
  C     -8.517280   13.477200    0.803860
  O     -8.855330   14.612630    0.581560
  O     -9.377700   12.503480    1.133680
  S     -6.784610   11.322420    1.067390
  C     -5.115790   11.618480    0.773970
  C     -3.959270   10.787800    0.835840
  C     -4.123780    9.468270    1.312550
  C     -3.263810    8.528130    1.819140
  C     -1.887370    8.585220    2.253930
  C     -1.237400    9.685170    2.752260
  C      0.126800    9.693210    3.099950
  N      1.247640    9.751040    3.341540
  C     -1.898170   10.891530    3.054770
  N     -2.420030   11.862260    3.375290
  C     -1.363480    7.222040    2.233560
  C     -2.450510    6.333220    2.045630
  C     -3.678480    7.114900    1.841820
  O     -4.795180    6.661180    1.645220
  C     -2.291050    4.970420    1.983030
  C     -0.990310    4.464420    2.066440
  C      0.090910    5.361340    2.232880
  C     -0.075240    6.738590    2.336280
  S      1.612280    4.525140    2.254640
  C      0.788820    3.001510    2.043590
  C     -0.558380    3.113940    1.964460
  Br     1.782060    1.415670    1.919080
  H     -6.594510   -3.733380   -3.942610
  H     -1.669200   -4.647830   -4.067910
  H     -6.839760   -6.309120   -5.024570
  H     -2.263740    0.449110   -2.240610
  H     -8.131670    3.362760   -1.242250
  H     -6.272490    6.846190    0.794810
  H     -1.640590    1.906610   -1.328000
  H      0.422730    3.072970   -1.110120
  H      1.423080    5.448660   -0.936570
  H      1.685600    7.953120   -0.666540
  H      1.183190   10.394510   -0.006550
  H     -0.782130   12.015960    0.236000
  H     -6.069670   14.796210    0.232710
  H    -10.284740   12.844660    1.156370
  H     -5.150690    9.118340    1.234430
  H     -3.137900    4.316370    1.848470
  H      0.778000    7.384270    2.462870
  H     -1.222070    2.279320    1.831810

 Total Charge           Charge          ....    0
 Multiplicity           Mult            ....    1
 Number of Electrons    NEL             ....  616
 Basis Dimension        Dim             .... 1194

ORBITAL ENERGIES
----------------

  NO   OCC          E(Eh)            E(eV)
   0   2.0000    -482.890814    -13140.1271
   1   2.0000    -482.890227    -13140.1111
   2   2.0000     -88.984051     -2421.3791
   3   2.0000     -88.982038     -2421.3243
   4   2.0000     -88.976712     -2421.1794
   5   2.0000     -88.975795     -2421.1545
   6   2.0000     -88.974236     -2421.1121
   7   2.0000     -88.974009     -2421.1059
   8   2.0000     -88.966118     -2420.8911
   9   2.0000     -88.965542     -2420.8755
  10   2.0000     -62.568514     -1702.5758
  11   2.0000     -62.567833     -1702.5573
  12   2.0000     -56.402470     -1534.7892
  13   2.0000     -56.401814     -1534.7714
  14   2.0000     -56.399742     -1534.7150
  15   2.0000     -56.399712     -1534.7142
  16   2.0000     -56.399072     -1534.6968
  17   2.0000     -56.399013     -1534.6952
  18   2.0000     -19.259667      -524.0822
  19   2.0000     -19.239658      -523.5377
  20   2.0000     -19.237320      -523.4741
  21   2.0000     -19.228659      -523.2384
  22   2.0000     -19.198285      -522.4119
  23   2.0000     -19.186111      -522.0806
  24   2.0000     -14.434387      -392.7796
  25   2.0000     -14.423178      -392.4746
  26   2.0000     -14.422217      -392.4485
  27   2.0000     -14.414594      -392.2410
  28   2.0000     -10.404182      -283.1122
  29   2.0000     -10.398268      -282.9513
  30   2.0000     -10.384434      -282.5748
  31   2.0000     -10.377390      -282.3831
  32   2.0000     -10.365201      -282.0515
  33   2.0000     -10.364109      -282.0217
  34   2.0000     -10.351933      -281.6904
  35   2.0000     -10.350233      -281.6441
  36   2.0000     -10.347162      -281.5606
  37   2.0000     -10.344300      -281.4827
  38   2.0000     -10.341333      -281.4020
  39   2.0000     -10.339598      -281.3548
  40   2.0000     -10.339019      -281.3390
  41   2.0000     -10.338875      -281.3351
  42   2.0000     -10.336383      -281.2673
  43   2.0000     -10.334590      -281.2185
  44   2.0000     -10.333383      -281.1856
  45   2.0000     -10.333350      -281.1848
  46   2.0000     -10.332337      -281.1572
  47   2.0000     -10.330836      -281.1163
  48   2.0000     -10.330545      -281.1084
  49   2.0000     -10.325809      -280.9795
  50   2.0000     -10.325663      -280.9756
  51   2.0000     -10.321598      -280.8650
  52   2.0000     -10.317812      -280.7619
  53   2.0000     -10.316739      -280.7328
  54   2.0000     -10.316642      -280.7301
  55   2.0000     -10.315779      -280.7066
  56   2.0000     -10.315003      -280.6855
  57   2.0000     -10.314999      -280.6854
  58   2.0000     -10.314524      -280.6725
  59   2.0000     -10.314252      -280.6651
  60   2.0000     -10.313189      -280.6361
  61   2.0000     -10.312632      -280.6210
  62   2.0000     -10.312258      -280.6108
  63   2.0000     -10.311540      -280.5913
  64   2.0000     -10.311456      -280.5890
  65   2.0000     -10.310663      -280.5674
  66   2.0000     -10.310550      -280.5643
  67   2.0000     -10.309554      -280.5372
  68   2.0000     -10.308861      -280.5184
  69   2.0000     -10.308394      -280.5057
  70   2.0000     -10.307210      -280.4734
  71   2.0000     -10.306794      -280.4621
  72   2.0000     -10.306535      -280.4551
  73   2.0000     -10.306530      -280.4549
  74   2.0000     -10.306258      -280.4475
  75   2.0000     -10.303605      -280.3753
  76   2.0000     -10.303485      -280.3721
  77   2.0000     -10.302658      -280.3496
  78   2.0000     -10.300107      -280.2802
  79   2.0000     -10.298858      -280.2462
  80   2.0000     -10.295909      -280.1659
  81   2.0000     -10.294357      -280.1237
  82   2.0000      -8.797947      -239.4043
  83   2.0000      -8.797211      -239.3843
  84   2.0000      -8.079751      -219.8612
  85   2.0000      -8.077984      -219.8131
  86   2.0000      -8.071698      -219.6421
  87   2.0000      -8.070002      -219.5959
  88   2.0000      -8.069954      -219.5946
  89   2.0000      -8.067640      -219.5316
  90   2.0000      -8.061237      -219.3574
  91   2.0000      -8.060965      -219.3500
  92   2.0000      -6.634259      -180.5274
  93   2.0000      -6.633576      -180.5088
  94   2.0000      -6.619684      -180.1307
  95   2.0000      -6.619461      -180.1247
  96   2.0000      -6.618930      -180.1102
  97   2.0000      -6.618675      -180.1033
  98   2.0000      -6.049418      -164.6130
  99   2.0000      -6.047651      -164.5650
 100   2.0000      -6.045180      -164.4977
 101   2.0000      -6.043388      -164.4489
 102   2.0000      -6.041310      -164.3924
 103   2.0000      -6.041047      -164.3852
 104   2.0000      -6.039747      -164.3499
 105   2.0000      -6.039554      -164.3446
 106   2.0000      -6.039249      -164.3363
 107   2.0000      -6.037164      -164.2796
 108   2.0000      -6.037075      -164.2772
 109   2.0000      -6.035612      -164.2373
 110   2.0000      -6.035140      -164.2245
 111   2.0000      -6.033143      -164.1702
 112   2.0000      -6.032720      -164.1586
 113   2.0000      -6.031689      -164.1306
 114   2.0000      -6.030883      -164.1087
 115   2.0000      -6.030846      -164.1077
 116   2.0000      -6.030380      -164.0950
 117   2.0000      -6.029439      -164.0694
 118   2.0000      -6.026855      -163.9991
 119   2.0000      -6.026210      -163.9815
 120   2.0000      -6.022873      -163.8907
 121   2.0000      -6.022426      -163.8785
 122   2.0000      -2.750151       -74.8354
 123   2.0000      -2.749419       -74.8155
 124   2.0000      -2.746029       -74.7233
 125   2.0000      -2.745866       -74.7188
 126   2.0000      -2.745311       -74.7037
 127   2.0000      -2.745181       -74.7002
 128   2.0000      -2.734276       -74.4034
 129   2.0000      -2.734263       -74.4031
 130   2.0000      -2.733514       -74.3827
 131   2.0000      -2.733492       -74.3821
 132   2.0000      -1.186033       -32.2736
 133   2.0000      -1.170389       -31.8479
 134   2.0000      -1.149497       -31.2794
 135   2.0000      -1.144286       -31.1376
 136   2.0000      -1.089813       -29.6553
 137   2.0000      -1.082480       -29.4558
 138   2.0000      -1.033400       -28.1203
 139   2.0000      -1.032788       -28.1036
 140   2.0000      -1.027629       -27.9632
 141   2.0000      -1.023961       -27.8634
 142   2.0000      -1.022693       -27.8289
 143   2.0000      -1.020103       -27.7584
 144   2.0000      -1.016118       -27.6500
 145   2.0000      -1.006808       -27.3966
 146   2.0000      -1.001474       -27.2515
 147   2.0000      -0.998619       -27.1738
 148   2.0000      -0.997665       -27.1478
 149   2.0000      -0.994000       -27.0481
 150   2.0000      -0.969626       -26.3849
 151   2.0000      -0.960313       -26.1314
 152   2.0000      -0.948940       -25.8220
 153   2.0000      -0.947320       -25.7779
 154   2.0000      -0.923320       -25.1248
 155   2.0000      -0.916816       -24.9478
 156   2.0000      -0.914752       -24.8917
 157   2.0000      -0.910847       -24.7854
 158   2.0000      -0.906322       -24.6623
 159   2.0000      -0.899748       -24.4834
 160   2.0000      -0.893346       -24.3092
 161   2.0000      -0.892031       -24.2734
 162   2.0000      -0.882473       -24.0133
 163   2.0000      -0.877805       -23.8863
 164   2.0000      -0.872905       -23.7530
 165   2.0000      -0.862926       -23.4814
 166   2.0000      -0.850525       -23.1440
 167   2.0000      -0.844813       -22.9885
 168   2.0000      -0.842860       -22.9354
 169   2.0000      -0.836904       -22.7733
 170   2.0000      -0.835271       -22.7289
 171   2.0000      -0.822951       -22.3936
 172   2.0000      -0.819949       -22.3120
 173   2.0000      -0.809113       -22.0171
 174   2.0000      -0.798168       -21.7193
 175   2.0000      -0.782120       -21.2826
 176   2.0000      -0.773375       -21.0446
 177   2.0000      -0.769971       -20.9520
 178   2.0000      -0.763187       -20.7674
 179   2.0000      -0.760206       -20.6862
 180   2.0000      -0.735565       -20.0157
 181   2.0000      -0.729307       -19.8455
 182   2.0000      -0.718904       -19.5624
 183   2.0000      -0.709370       -19.3029
 184   2.0000      -0.703933       -19.1550
 185   2.0000      -0.702348       -19.1119
 186   2.0000      -0.698252       -19.0004
 187   2.0000      -0.695155       -18.9161
 188   2.0000      -0.689721       -18.7683
 189   2.0000      -0.681699       -18.5500
 190   2.0000      -0.672599       -18.3024
 191   2.0000      -0.669013       -18.2048
 192   2.0000      -0.666708       -18.1421
 193   2.0000      -0.663595       -18.0573
 194   2.0000      -0.655548       -17.8384
 195   2.0000      -0.653579       -17.7848
 196   2.0000      -0.643110       -17.4999
 197   2.0000      -0.641332       -17.4515
 198   2.0000      -0.639236       -17.3945
 199   2.0000      -0.632478       -17.2106
 200   2.0000      -0.631542       -17.1851
 201   2.0000      -0.619905       -16.8685
 202   2.0000      -0.612625       -16.6704
 203   2.0000      -0.609170       -16.5763
 204   2.0000      -0.607567       -16.5327
 205   2.0000      -0.603251       -16.4153
 206   2.0000      -0.600513       -16.3408
 207   2.0000      -0.593896       -16.1607
 208   2.0000      -0.589613       -16.0442
 209   2.0000      -0.586684       -15.9645
 210   2.0000      -0.578637       -15.7455
 211   2.0000      -0.568163       -15.4605
 212   2.0000      -0.565413       -15.3857
 213   2.0000      -0.560954       -15.2643
 214   2.0000      -0.559419       -15.2226
 215   2.0000      -0.555447       -15.1145
 216   2.0000      -0.554546       -15.0900
 217   2.0000      -0.551743       -15.0137
 218   2.0000      -0.551099       -14.9962
 219   2.0000      -0.546621       -14.8743
 220   2.0000      -0.545436       -14.8421
 221   2.0000      -0.540558       -14.7093
 222   2.0000      -0.539160       -14.6713
 223   2.0000      -0.535211       -14.5638
 224   2.0000      -0.533656       -14.5215
 225   2.0000      -0.530587       -14.4380
 226   2.0000      -0.530054       -14.4235
 227   2.0000      -0.527022       -14.3410
 228   2.0000      -0.524181       -14.2637
 229   2.0000      -0.523309       -14.2400
 230   2.0000      -0.520282       -14.1576
 231   2.0000      -0.518965       -14.1218
 232   2.0000      -0.516376       -14.0513
 233   2.0000      -0.514723       -14.0063
 234   2.0000      -0.511745       -13.9253
 235   2.0000      -0.509806       -13.8725
 236   2.0000      -0.507833       -13.8188
 237   2.0000      -0.505618       -13.7586
 238   2.0000      -0.504289       -13.7224
 239   2.0000      -0.503024       -13.6880
 240   2.0000      -0.502059       -13.6617
 241   2.0000      -0.499014       -13.5789
 242   2.0000      -0.496342       -13.5062
 243   2.0000      -0.491637       -13.3781
 244   2.0000      -0.484208       -13.1760
 245   2.0000      -0.483290       -13.1510
 246   2.0000      -0.480272       -13.0689
 247   2.0000      -0.478582       -13.0229
 248   2.0000      -0.477947       -13.0056
 249   2.0000      -0.474968       -12.9245
 250   2.0000      -0.470856       -12.8126
 251   2.0000      -0.469040       -12.7632
 252   2.0000      -0.467223       -12.7138
 253   2.0000      -0.465791       -12.6748
 254   2.0000      -0.462427       -12.5833
 255   2.0000      -0.458368       -12.4728
 256   2.0000      -0.456963       -12.4346
 257   2.0000      -0.455530       -12.3956
 258   2.0000      -0.454222       -12.3600
 259   2.0000      -0.452354       -12.3092
 260   2.0000      -0.451308       -12.2807
 261   2.0000      -0.448280       -12.1983
 262   2.0000      -0.447738       -12.1836
 263   2.0000      -0.447495       -12.1770
 264   2.0000      -0.444726       -12.1016
 265   2.0000      -0.442575       -12.0431
 266   2.0000      -0.441531       -12.0147
 267   2.0000      -0.439634       -11.9631
 268   2.0000      -0.438464       -11.9312
 269   2.0000      -0.435484       -11.8501
 270   2.0000      -0.431118       -11.7313
 271   2.0000      -0.427034       -11.6202
 272   2.0000      -0.424574       -11.5533
 273   2.0000      -0.422596       -11.4994
 274   2.0000      -0.418509       -11.3882
 275   2.0000      -0.417084       -11.3494
 276   2.0000      -0.415567       -11.3082
 277   2.0000      -0.414211       -11.2713
 278   2.0000      -0.409793       -11.1510
 279   2.0000      -0.403662       -10.9842
 280   2.0000      -0.398488       -10.8434
 281   2.0000      -0.395051       -10.7499
 282   2.0000      -0.393555       -10.7092
 283   2.0000      -0.389883       -10.6092
 284   2.0000      -0.385383       -10.4868
 285   2.0000      -0.383570       -10.4375
 286   2.0000      -0.379963       -10.3393
 287   2.0000      -0.379271       -10.3205
 288   2.0000      -0.377004       -10.2588
 289   2.0000      -0.365633        -9.9494
 290   2.0000      -0.363803        -9.8996
 291   2.0000      -0.356511        -9.7012
 292   2.0000      -0.353001        -9.6056
 293   2.0000      -0.352385        -9.5889
 294   2.0000      -0.346320        -9.4238
 295   2.0000      -0.342990        -9.3332
 296   2.0000      -0.339934        -9.2501
 297   2.0000      -0.337111        -9.1733
 298   2.0000      -0.328272        -8.9327
 299   2.0000      -0.323504        -8.8030
 300   2.0000      -0.321412        -8.7461
 301   2.0000      -0.313074        -8.5192
 302   2.0000      -0.304822        -8.2946
 303   2.0000      -0.301541        -8.2054
 304   2.0000      -0.294000        -8.0002
 305   2.0000      -0.287224        -7.8158
 306   2.0000      -0.277773        -7.5586
 307   2.0000      -0.240259        -6.5378
 308   0.0000      -0.125692        -3.4202
 309   0.0000      -0.095636        -2.6024
 310   0.0000      -0.077557        -2.1104
 311   0.0000      -0.071181        -1.9369
 312   0.0000      -0.064519        -1.7556

MULLIKEN ATOMIC CHARGES
-----------------------
   0 C :    0.318959
   1 C :   -0.360074
   2 C :   -0.186735
   3 N :    0.149081
   4 C :   -0.163481
   5 N :    0.126602
   6 C :    0.014323
   7 C :   -0.009629
   8 C :   -0.075230
   9 C :    0.119423
  10 C :   -0.091025
  11 C :   -0.023284
  12 S :    0.189968
  13 C :   -0.123173
  14 C :    0.038784
  15 Br:    0.028913
  16 C :    0.156930
  17 O :   -0.170267
  18 C :   -0.090465
  19 C :   -0.031478
  20 C :   -0.093120
  21 S :    0.216313
  22 C :    0.019380
  23 C :   -0.010813
  24 C :   -0.146047
  25 C :    0.176058
  26 O :   -0.180505
  27 O :   -0.180083
  28 S :    0.141589
  29 C :   -0.085744
  30 C :    0.124159
  31 C :   -0.079512
  32 C :   -0.043769
  33 C :    0.051761
  34 C :    0.053015
  35 C :   -0.036728
  36 S :    0.092110
  37 C :   -0.056485
  38 C :    0.036206
  39 C :    0.049931
  40 C :   -0.049314
  41 S :    0.113814
  42 C :    0.030972
  43 C :   -0.178871
  44 S :    0.162486
  45 C :    0.004245
  46 C :   -0.005498
  47 C :   -0.148825
  48 C :    0.159104
  49 O :   -0.188557
  50 O :   -0.181799
  51 S :    0.206439
  52 C :   -0.107575
  53 C :    0.153058
  54 C :   -0.063296
  55 C :   -0.095544
  56 C :    0.242482
  57 C :   -0.313687
  58 C :   -0.192876
  59 N :    0.153068
  60 C :   -0.221758
  61 N :    0.187248
  62 C :    0.027291
  63 C :    0.014178
  64 C :    0.196161
  65 O :   -0.227091
  66 C :   -0.079676
  67 C :    0.110869
  68 C :   -0.080634
  69 C :   -0.026201
  70 S :    0.171819
  71 C :   -0.136269
  72 C :    0.047642
  73 Br:    0.035725
  74 H :   -0.006975
  75 H :   -0.004631
  76 H :   -0.000216
  77 H :   -0.023388
  78 H :    0.012046
  79 H :    0.205013
  80 H :    0.009568
  81 H :    0.022719
  82 H :   -0.001981
  83 H :   -0.002803
  84 H :    0.006968
  85 H :    0.010199
  86 H :    0.008925
  87 H :    0.196891
  88 H :    0.011062
  89 H :   -0.015725
  90 H :   -0.010373
  91 H :   -0.002283
Sum of atomic charges:   -0.0000000

LOEWDIN ATOMIC CHARGES
----------------------
   0 C :    0.081542
   1 C :   -0.152627
   2 C :   -0.020034
   3 N :   -0.054265
   4 C :   -0.006962
   5 N :   -0.073876
   6 C :   -0.022200
   7 C :   -0.049674
   8 C :    0.023508
   9 C :   -0.031268
  10 C :   -0.144210
  11 C :   -0.008088
  12 S :    0.436247
  13 C :   -0.270285
  14 C :   -0.069932
  15 Br:    0.140876
  16 C :    0.082280
  17 O :   -0.159717
  18 C :   -0.105216
  19 C :    0.045333
  20 C :   -0.171569
  21 S :    0.511902
  22 C :   -0.189659
  23 C :   -0.032806
  24 C :   -0.205837
  25 C :    0.057262
  26 O :   -0.166084
  27 O :   -0.034756
  28 S :    0.457344
  29 C :   -0.208495
  30 C :   -0.037991
  31 C :   -0.043774
  32 C :   -0.142265
  33 C :    0.001249
  34 C :   -0.033735
  35 C :   -0.150218
  36 S :    0.402877
  37 C :   -0.186221
  38 C :   -0.024424
  39 C :   -0.027118
  40 C :   -0.134270
  41 S :    0.455467
  42 C :   -0.086211
  43 C :   -0.122360
  44 S :    0.443386
  45 C :   -0.202176
  46 C :   -0.020727
  47 C :   -0.218989
  48 C :    0.060476
  49 O :   -0.182324
  50 O :   -0.045183
  51 S :    0.478850
  52 C :   -0.181395
  53 C :   -0.087510
  54 C :    0.033479
  55 C :   -0.107918
  56 C :    0.044323
  57 C :   -0.131944
  58 C :   -0.016484
  59 N :   -0.057849
  60 C :   -0.020955
  61 N :   -0.043941
  62 C :   -0.011544
  63 C :   -0.059984
  64 C :    0.112560
  65 O :   -0.169466
  66 C :    0.020290
  67 C :   -0.041177
  68 C :   -0.141115
  69 C :   -0.018930
  70 S :    0.429340
  71 C :   -0.276663
  72 C :   -0.066231
  73 Br:    0.144409
  74 H :    0.042316
  75 H :    0.041581
  76 H :    0.039919
  77 H :    0.043362
  78 H :    0.045355
  79 H :    0.051764
  80 H :    0.042388
  81 H :    0.045128
  82 H :    0.034657
  83 H :    0.037064
  84 H :    0.041108
  85 H :    0.041946
  86 H :    0.044209
  87 H :    0.104830
  88 H :    0.039313
  89 H :    0.034592
  90 H :    0.037948
  91 H :    0.038173

  Mayer bond orders larger than 0.100000
B(  0-C ,  1-C ) :   1.5941 B(  0-C ,  6-C ) :   1.0014 B(  0-C , 18-C ) :   1.0965
B(  1-C ,  2-C ) :   1.1470 B(  1-C ,  4-C ) :   1.1553 B(  2-C ,  3-N ) :   2.9676
B(  4-C ,  5-N ) :   2.9419 B(  6-C ,  7-C ) :   1.2723 B(  6-C , 11-C ) :   1.4105
B(  7-C ,  8-C ) :   1.4232 B(  7-C , 16-C ) :   0.9565 B(  8-C ,  9-C ) :   1.2380
B(  8-C , 74-H ) :   1.0191 B(  9-C , 10-C ) :   1.3063 B(  9-C , 14-C ) :   1.1661
B( 10-C , 11-C ) :   1.3258 B( 10-C , 12-S ) :   1.0882 B( 11-C , 75-H ) :   0.9811
B( 12-S , 13-C ) :   1.0885 B( 13-C , 14-C ) :   1.6142 B( 13-C , 15-Br) :   1.0221
B( 14-C , 76-H ) :   1.0008 B( 16-C , 17-O ) :   2.1527 B( 16-C , 18-C ) :   0.9594
B( 18-C , 19-C ) :   1.5101 B( 19-C , 20-C ) :   1.3034 B( 19-C , 77-H ) :   0.9230
B( 20-C , 21-S ) :   1.0966 B( 20-C , 30-C ) :   1.2932 B( 21-S , 22-C ) :   1.0446
B( 22-C , 23-C ) :   1.2205 B( 22-C , 29-C ) :   1.3892 B( 23-C , 24-C ) :   1.5607
B( 23-C , 78-H ) :   1.0135 B( 24-C , 25-C ) :   0.9120 B( 24-C , 28-S ) :   1.0983
B( 25-C , 26-O ) :   2.1867 B( 25-C , 27-O ) :   1.2980 B( 27-O , 79-H ) :   0.8755
B( 28-S , 29-C ) :   1.0899 B( 29-C , 30-C ) :   1.2721 B( 30-C , 31-C ) :   1.1315
B( 31-C , 32-C ) :   1.6011 B( 31-C , 80-H ) :   0.9416 B( 32-C , 33-C ) :   1.1209
B( 32-C , 36-S ) :   1.0318 B( 33-C , 34-C ) :   1.5872 B( 33-C , 81-H ) :   0.9956
B( 34-C , 35-C ) :   1.1693 B( 34-C , 82-H ) :   0.9972 B( 35-C , 36-S ) :   1.0711
B( 35-C , 37-C ) :   1.4817 B( 37-C , 38-C ) :   1.1819 B( 37-C , 41-S ) :   1.0437
B( 38-C , 39-C ) :   1.5724 B( 38-C , 83-H ) :   1.0001 B( 39-C , 40-C ) :   1.1514
B( 39-C , 84-H ) :   0.9989 B( 40-C , 41-S ) :   1.0874 B( 40-C , 42-C ) :   1.5104
B( 42-C , 43-C ) :   1.2524 B( 42-C , 85-H ) :   0.9388 B( 43-C , 44-S ) :   1.1178
B( 43-C , 53-C ) :   1.3046 B( 44-S , 45-C ) :   1.0318 B( 45-C , 46-C ) :   1.2429
B( 45-C , 52-C ) :   1.4656 B( 46-C , 47-C ) :   1.5460 B( 46-C , 86-H ) :   1.0125
B( 47-C , 48-C ) :   0.9616 B( 47-C , 51-S ) :   1.1030 B( 48-C , 49-O ) :   2.1813
B( 48-C , 50-O ) :   1.2828 B( 50-O , 87-H ) :   0.9415 B( 51-S , 52-C ) :   1.1226
B( 52-C , 53-C ) :   1.1995 B( 53-C , 54-C ) :   1.1963 B( 54-C , 55-C ) :   1.5523
B( 54-C , 88-H ) :   0.9395 B( 55-C , 56-C ) :   1.0543 B( 55-C , 64-C ) :   1.0036
B( 56-C , 57-C ) :   1.6335 B( 56-C , 62-C ) :   1.0054 B( 57-C , 58-C ) :   1.1383
B( 57-C , 60-C ) :   1.1591 B( 58-C , 59-N ) :   2.9729 B( 60-C , 61-N ) :   3.0141
B( 62-C , 63-C ) :   1.2797 B( 62-C , 69-C ) :   1.4274 B( 63-C , 64-C ) :   0.9591
B( 63-C , 66-C ) :   1.3967 B( 64-C , 65-O ) :   2.0056 B( 65-O , 79-H ) :   0.1306
B( 66-C , 67-C ) :   1.2443 B( 66-C , 89-H ) :   1.0229 B( 67-C , 68-C ) :   1.3168
B( 67-C , 72-C ) :   1.1562 B( 68-C , 69-C ) :   1.3074 B( 68-C , 70-S ) :   1.0820
B( 69-C , 90-H ) :   0.9808 B( 70-S , 71-C ) :   1.0788 B( 71-C , 72-C ) :   1.6125
B( 71-C , 73-Br) :   1.0257 B( 72-C , 91-H ) :   1.0020

-----------------------------------------------------------------------------
         ABSORPTION SPECTRUM VIA TRANSITION ELECTRIC DIPOLE MOMENTS
-----------------------------------------------------------------------------
State   Energy  Wavelength   fosc         T2         TX        TY        TZ
        (cm-1)    (nm)                  (au**2)     (au)      (au)      (au)
-----------------------------------------------------------------------------
   0   10450.0    956.9   0.801619675  25.25395  -0.15770  -4.63009  -1.94715
   1   16316.7    612.9   0.132618907   2.67576  -0.22571  -1.57137   0.39448
   2   18099.2    552.5   0.140439789   2.55451   0.23688   1.55876   0.26205
   3   18141.6    551.2   0.163254987   2.96255  -0.62180  -1.58483  -0.25342
   4   20200.4    495.0   0.031616170   0.51526   0.19514  -0.31638   0.61407
   5   20761.4    481.7   0.254850072   4.04113  -0.71351   1.86651   0.21948
   6   22242.7    449.6   0.188653872   2.79224  -0.47771  -1.46224   0.65260
   7   23288.6    429.4   0.118418706   1.67399   0.99507  -0.76892  -0.30427
   8   23789.9    420.3   0.144481308   1.99938   1.13347  -0.84186  -0.07665
   9   24669.2    405.4   0.021217564   0.28315   0.03184  -0.30903   0.43202
  10   25338.1    394.7   0.290401142   3.77311  -0.73177  -1.64948  -0.71893
  11   25421.7    393.4   0.001426739   0.01848   0.00716   0.13328  -0.02571
  12   25552.2    391.4   0.011317904   0.14582   0.32216   0.18522   0.08791
  13   26671.7    374.9   0.232235967   2.86651   1.49053  -0.76532  -0.24314
  14   27124.7    368.7   0.006857419   0.08323  -0.18499   0.22113   0.01055
  15   27212.8    367.5   0.004729983   0.05722  -0.13365  -0.10071  -0.17094
  16   27886.6    358.6   0.089941609   1.06179   0.52351  -0.73028  -0.50440
  17   28293.4    353.4   0.089494216   1.04132   0.47169  -0.85582   0.29395
  18   28551.0    350.3   0.213178611   2.45809  -0.80909   1.33784   0.11687
  19   28751.9    347.8   0.096906322   1.10958   1.03723   0.05391  -0.17561
  20   28915.5    345.8   0.120892645   1.37640  -0.17385   1.14509  -0.18691
  21   29269.9    341.6   0.194879676   2.19190   0.14761  -1.47274  -0.03381
  22   29914.8    334.3   0.318233254   3.50216  -1.61574   0.94376  -0.02905
  23   30461.0    328.3   0.361266346   3.90444   0.30546  -1.95199  -0.02960
  24   30601.6    326.8   0.285286228   3.06911  -1.05304   1.32402   0.45518
  25   30872.1    323.9   0.140389458   1.49708   1.02535  -0.54561   0.38477
  26   31211.8    320.4   0.132066340   1.39299   1.05596  -0.48634  -0.20350
  27   31479.4    317.7   0.036007520   0.37657  -0.52792   0.09321   0.29862
  28   31713.9    315.3   0.708568175   7.35543  -1.56509  -1.98829  -0.97603
  29   31774.1    314.7   0.064071813   0.66385   0.81087   0.07648  -0.02230
  30   32140.2    311.1   0.035874712   0.36746  -0.03062   0.60410   0.03993
  31   32380.6    308.8   0.015328587   0.15585   0.29860   0.25695  -0.02565
  32   32575.8    307.0   0.000901980   0.00912   0.08667   0.03879   0.00993
  33   32919.8    303.8   0.067089690   0.67092  -0.63829   0.50544   0.08964
  34   32957.1    303.4   0.007406264   0.07398   0.16739   0.20153   0.07314
  35   33260.3    300.7   0.063881168   0.63230  -0.56121  -0.31126  -0.46953
  36   33330.0    300.0   0.173829797   1.71698  -0.78863   1.03485   0.15530
  37   33723.4    296.5   0.017812908   0.17389  -0.03500  -0.41532  -0.01317
  38   33947.1    294.6   0.048215151   0.46758   0.07930   0.61862   0.28035
  39   34090.1    293.3   0.104006204   1.00440  -0.33884   0.91199   0.24055
  40   34307.4    291.5   0.033985257   0.32612  -0.32719   0.45692   0.10145
  41   34572.2    289.2   0.078740756   0.74980  -0.37502   0.74806   0.22266
  42   34667.5    288.5   0.028205060   0.26784   0.16412  -0.34983  -0.34428
  43   35286.6    283.4   0.057921775   0.54039   0.58499   0.11422   0.43026
  44   35534.7    281.4   0.044693490   0.41406  -0.62397  -0.10703  -0.11520
  45   35660.5    280.4   0.019915114   0.18385  -0.03511  -0.42671  -0.02320
  46   36037.1    277.5   0.123155212   1.12507  -0.64247  -0.83453   0.12594
  47   36385.5    274.8   0.020656325   0.18690   0.36000   0.07084  -0.22865
  48   36581.8    273.4   0.016212724   0.14590  -0.36443  -0.10795  -0.03793
  49   36900.2    271.0   0.063000781   0.56207   0.67497  -0.21788  -0.24294
  50   37230.0    268.6   0.111633448   0.98714  -0.91996  -0.31870  -0.19810
  51   37342.8    267.8   0.009710964   0.08561   0.26232   0.03327  -0.12526
  52   37480.1    266.8   0.169802658   1.49149   1.06882  -0.55529   0.20192
  53   37593.1    266.0   0.021213248   0.18577   0.34173   0.25031  -0.07958
  54   37650.5    265.6   0.057854727   0.50588   0.58141   0.37069  -0.17443
  55   37947.9    263.5   0.020823626   0.18065  -0.08512  -0.24549   0.33637
  56   38064.8    262.7   0.020765800   0.17960   0.34915  -0.03677  -0.23736
  57   38373.5    260.6   0.025533678   0.21906  -0.23387   0.32416   0.24347
  58   38508.1    259.7   0.013713305   0.11724  -0.32887   0.08909   0.03388
  59   38700.0    258.4   0.000748660   0.00637   0.06979  -0.02090  -0.03257
  60   38844.4    257.4   0.001492166   0.01265  -0.09935   0.05137   0.01176
  61   39004.7    256.4   0.032290748   0.27254   0.01709   0.45339   0.25824
  62   39333.8    254.2   0.249558847   2.08873  -0.57118  -1.30346  -0.25193
  63   39430.2    253.6   0.093397250   0.77979  -0.74065   0.40716   0.25583
  64   39612.0    252.4   0.040194475   0.33405  -0.13796  -0.54082   0.15011
  65   39639.6    252.3   0.019722513   0.16380  -0.37904  -0.08948  -0.11008
  66   39983.0    250.1   0.251689031   2.07236   0.85857  -1.05681  -0.46728

FINAL SINGLE POINT ENERGY    -11067.926952171551

DIPOLE MOMENT
-------------
                                X             Y             Z
Electronic contribution:     23.53214    -160.78716     -28.44104
Nuclear contribution   :    -22.39954     158.23751      27.12163
                        -----------------------------------------
Total Dipole Moment    :      1.13260      -2.54965      -1.31942
                        -----------------------------------------
Magnitude (a.u.)       :      3.08616
Magnitude (Debye)      :      7.84439

Rotational constants in cm-1:     0.001267     0.000290     0.000247
Rotational constants in MHz :    37.972765     8.687766     7.403593

                             ****ORCA TERMINATED NORMALLY****
TOTAL RUN TIME: 0 days 0 hours 13 minutes 13 seconds 853 msec
