                         Program Version 4.2.0 -  RELEASE  -
|  1> # ORCA input file
|  2> # SCF done       -200.307565378123          0.000855236660
|  3> ! CAM-B3LYP def2-SVP def2/J RIJCOSX Grid4 TightSCF
|  4> %maxcore 5000
|  5> %tddft
|  6>     Mode sTDDFT
|  7>     Ethresh 5.0
|  8>     maxcore 5000
|  9> end
| 10>
| 11> %pal
| 12>   nprocs 6
| 13>   end
| 14> * xyz 0 1
| 15>    C       -0.72813        -1.12412        -0.60580
| 16>    C       -1.06310        -2.20367        -1.37919
| 17>    C       -0.22522        -3.32033        -1.58042
| 18>    N        0.41103        -4.25705        -1.76869
| 19>    C       -2.26126        -2.32625        -2.11513
| 20>    N       -3.19763        -2.48753        -2.75970
| 21>    C        0.54203        -0.92461         0.07666
| 22>    C        0.56538         0.38493         0.61446
| 23>    C        1.63650         0.87640         1.32061
| 24>    C        2.73816         0.03472         1.50419
| 25>    C        2.70432        -1.27437         0.96618
| 26>    C        1.62119        -1.77139         0.25276
| 27>    S        4.16577        -2.14689         1.31613
| 28>    C        4.79472        -0.75997         2.16532
| 29>    C        3.95525         0.30235         2.18861
| 30>   Br        6.49977        -0.84571         2.94178
| 31>    C       -0.70156         1.07758         0.30090
| 32>    O       -0.98876         2.20996         0.61999
| 33>    C       -1.53820         0.06679        -0.40033
| 34>    C       -2.88306         0.13965        -0.58793
| 35>    C       -3.71985         1.30003        -0.45417
| 36>    C       -3.28923         2.57934        -0.83984
| 37>    C       -4.12990         3.64849        -0.66044
| 38>    C       -5.40488         3.47332        -0.09131
| 39>    C       -5.85623         2.20458         0.25462
| 40>    C       -5.02027         1.12928         0.05015
| 41>    C       -6.04221         4.76379         0.01357
| 42>    C       -5.16857         5.74014        -0.50183
| 43>    C       -3.88784         5.10276        -0.98748
| 44>    C       -2.66348         5.65307        -0.23233
| 45>    C       -2.73963         5.41818         1.27111
| 46>    C       -3.69651         5.30998        -2.50207
| 47>    C       -4.86900         4.79092        -3.32583
| 48>    C       -5.52910         7.06331        -0.50369
| 49>    C       -6.77140         7.45358         0.03235
| 50>    C       -7.63336         6.46064         0.53194
| 51>    C       -7.28253         5.12918         0.52269
| 52>    C       -7.10304         8.84870         0.06323
| 53>    C       -8.15451         9.40171         0.72612
| 54>    C       -8.43424        10.77749         0.77335
| 55>    C       -9.46331        11.30681         1.51441
| 56>    C       -9.82143        12.66687         1.66614
| 57>    C      -10.87395        12.87926         2.50811
| 58>    C      -11.40731        11.69795         3.06448
| 59>    S      -10.54025        10.30275         2.47662
| 60>    C      -12.44255        11.55287         3.97443
| 61>    C      -13.24051        12.54777         4.57203
| 62>    C      -14.14462        12.05129         5.46499
| 63>    C      -14.11926        10.64183         5.60854
| 64>    S      -12.90432         9.96735         4.55033
| 65>    C      -14.87308         9.94645         6.53152
| 66>    C      -14.92418         8.57369         6.79323
| 67>    S      -15.59615         8.02218         8.30717
| 68>    C      -15.17572         6.36906         7.96971
| 69>    C      -14.66581         6.24752         6.67546
| 70>    C      -14.53683         7.47222         6.00997
| 71>    O      -14.12390         7.70575         4.73783
| 72>    C      -13.91855         6.65715         3.84988
| 73>    S      -12.92312         5.30181         4.58561
| 74>    S      -14.40600         4.70374         5.85483
| 75>    C      -15.38056         5.39055         8.97708
| 76>    C      -14.60310         4.21164         9.10361
| 77>    C      -14.93087         3.19814        10.08110
| 78>    N      -14.23158         2.04175        10.09936
| 79>    C      -13.21776         1.90311         9.28680
| 80>    C      -12.79844         2.97736         8.43343
| 81>    N      -13.50180         4.08498         8.35763
| 82>    C      -11.62487         2.86314         7.65302
| 83>    N      -10.68161         2.74408         7.01231
| 84>    C      -12.50100         0.67931         9.26486
| 85>    N      -11.89247        -0.28977         9.21303
| 86>    C      -15.94629         3.37981        11.01213
| 87>    C      -16.63792         4.58573        10.98254
| 88>    C      -16.35438         5.58958         9.97921
| 89>    N      -17.12554         6.66563        10.11618
| 90>    S      -18.10379         6.44558        11.37634
| 91>    N      -17.61235         4.98245        11.80975
| 92>    H        1.62411         1.87885         1.71897
| 93>    H        1.63845        -2.77784        -0.13087
| 94>    H        4.18244         1.23650         2.66891
| 95>    H       -3.41094        -0.78205        -0.80605
| 96>    H       -2.32126         2.70565        -1.29607
| 97>    H       -6.84137         2.06348         0.67228
| 98>    H       -5.34810         0.13497         0.31704
| 99>    H       -2.58408         6.72370        -0.43444
|100>    H       -1.76604         5.16877        -0.62059
|101>    H       -3.65775         5.83140         1.68404
|102>    H       -1.89522         5.89443         1.76352
|103>    H       -2.70402         4.35411         1.48968
|104>    H       -2.78269         4.79791        -2.80991
|105>    H       -3.56227         6.37673        -2.69384
|106>    H       -5.00815         3.72371        -3.16778
|107>    H       -4.68547         4.95974        -4.38440
|108>    H       -5.78969         5.30099        -3.05072
|109>    H       -4.86291         7.81875        -0.89594
|110>    H       -8.59711         6.74253         0.92543
|111>    H       -7.95906         4.38367         0.91223
|112>    H       -6.42518         9.51034        -0.46284
|113>    H       -8.82553         8.76762         1.28987
|114>    H       -7.80600        11.46145         0.21828
|115>    H       -9.28622        13.44704         1.15400
|116>    H      -11.27447        13.84872         2.74465
|117>    H      -13.13027        13.59154         4.33856
|118>    H      -14.83207        12.65531         6.03062
|119>    H      -15.46091        10.55779         7.20547
|120>    H      -13.35435         7.07240         3.01462
|121>    H      -14.86288         6.22194         3.50639
|122>    H      -16.17223         2.61235        11.73187
|123> *
|124>
|125>                          ****END OF INPUT****

CARTESIAN COORDINATES (ANGSTROEM)
---------------------------------
  C     -0.728130   -1.124120   -0.605800
  C     -1.063100   -2.203670   -1.379190
  C     -0.225220   -3.320330   -1.580420
  N      0.411030   -4.257050   -1.768690
  C     -2.261260   -2.326250   -2.115130
  N     -3.197630   -2.487530   -2.759700
  C      0.542030   -0.924610    0.076660
  C      0.565380    0.384930    0.614460
  C      1.636500    0.876400    1.320610
  C      2.738160    0.034720    1.504190
  C      2.704320   -1.274370    0.966180
  C      1.621190   -1.771390    0.252760
  S      4.165770   -2.146890    1.316130
  C      4.794720   -0.759970    2.165320
  C      3.955250    0.302350    2.188610
  Br     6.499770   -0.845710    2.941780
  C     -0.701560    1.077580    0.300900
  O     -0.988760    2.209960    0.619990
  C     -1.538200    0.066790   -0.400330
  C     -2.883060    0.139650   -0.587930
  C     -3.719850    1.300030   -0.454170
  C     -3.289230    2.579340   -0.839840
  C     -4.129900    3.648490   -0.660440
  C     -5.404880    3.473320   -0.091310
  C     -5.856230    2.204580    0.254620
  C     -5.020270    1.129280    0.050150
  C     -6.042210    4.763790    0.013570
  C     -5.168570    5.740140   -0.501830
  C     -3.887840    5.102760   -0.987480
  C     -2.663480    5.653070   -0.232330
  C     -2.739630    5.418180    1.271110
  C     -3.696510    5.309980   -2.502070
  C     -4.869000    4.790920   -3.325830
  C     -5.529100    7.063310   -0.503690
  C     -6.771400    7.453580    0.032350
  C     -7.633360    6.460640    0.531940
  C     -7.282530    5.129180    0.522690
  C     -7.103040    8.848700    0.063230
  C     -8.154510    9.401710    0.726120
  C     -8.434240   10.777490    0.773350
  C     -9.463310   11.306810    1.514410
  C     -9.821430   12.666870    1.666140
  C    -10.873950   12.879260    2.508110
  C    -11.407310   11.697950    3.064480
  S    -10.540250   10.302750    2.476620
  C    -12.442550   11.552870    3.974430
  C    -13.240510   12.547770    4.572030
  C    -14.144620   12.051290    5.464990
  C    -14.119260   10.641830    5.608540
  S    -12.904320    9.967350    4.550330
  C    -14.873080    9.946450    6.531520
  C    -14.924180    8.573690    6.793230
  S    -15.596150    8.022180    8.307170
  C    -15.175720    6.369060    7.969710
  C    -14.665810    6.247520    6.675460
  C    -14.536830    7.472220    6.009970
  O    -14.123900    7.705750    4.737830
  C    -13.918550    6.657150    3.849880
  S    -12.923120    5.301810    4.585610
  S    -14.406000    4.703740    5.854830
  C    -15.380560    5.390550    8.977080
  C    -14.603100    4.211640    9.103610
  C    -14.930870    3.198140   10.081100
  N    -14.231580    2.041750   10.099360
  C    -13.217760    1.903110    9.286800
  C    -12.798440    2.977360    8.433430
  N    -13.501800    4.084980    8.357630
  C    -11.624870    2.863140    7.653020
  N    -10.681610    2.744080    7.012310
  C    -12.501000    0.679310    9.264860
  N    -11.892470   -0.289770    9.213030
  C    -15.946290    3.379810   11.012130
  C    -16.637920    4.585730   10.982540
  C    -16.354380    5.589580    9.979210
  N    -17.125540    6.665630   10.116180
  S    -18.103790    6.445580   11.376340
  N    -17.612350    4.982450   11.809750
  H      1.624110    1.878850    1.718970
  H      1.638450   -2.777840   -0.130870
  H      4.182440    1.236500    2.668910
  H     -3.410940   -0.782050   -0.806050
  H     -2.321260    2.705650   -1.296070
  H     -6.841370    2.063480    0.672280
  H     -5.348100    0.134970    0.317040
  H     -2.584080    6.723700   -0.434440
  H     -1.766040    5.168770   -0.620590
  H     -3.657750    5.831400    1.684040
  H     -1.895220    5.894430    1.763520
  H     -2.704020    4.354110    1.489680
  H     -2.782690    4.797910   -2.809910
  H     -3.562270    6.376730   -2.693840
  H     -5.008150    3.723710   -3.167780
  H     -4.685470    4.959740   -4.384400
  H     -5.789690    5.300990   -3.050720
  H     -4.862910    7.818750   -0.895940
  H     -8.597110    6.742530    0.925430
  H     -7.959060    4.383670    0.912230
  H     -6.425180    9.510340   -0.462840
  H     -8.825530    8.767620    1.289870
  H     -7.806000   11.461450    0.218280
  H     -9.286220   13.447040    1.154000
  H    -11.274470   13.848720    2.744650
  H    -13.130270   13.591540    4.338560
  H    -14.832070   12.655310    6.030620
  H    -15.460910   10.557790    7.205470
  H    -13.354350    7.072400    3.014620
  H    -14.862880    6.221940    3.506390
  H    -16.172230    2.612350   11.731870

 Total Charge           Charge          ....    0
 Multiplicity           Mult            ....    1
 Number of Electrons    NEL             ....  604
 Basis Dimension        Dim             .... 1279

ORBITAL ENERGIES
----------------

  NO   OCC          E(Eh)            E(eV)
   0   2.0000    -482.885133    -13139.9725
   1   2.0000     -89.039958     -2422.9004
   2   2.0000     -88.975136     -2421.1365
   3   2.0000     -88.961928     -2420.7771
   4   2.0000     -88.955185     -2420.5937
   5   2.0000     -88.949656     -2420.4432
   6   2.0000     -88.947492     -2420.3843
   7   2.0000     -88.946941     -2420.3693
   8   2.0000     -62.562859     -1702.4219
   9   2.0000     -56.396813     -1534.6353
  10   2.0000     -56.394090     -1534.5612
  11   2.0000     -56.394059     -1534.5604
  12   2.0000     -19.271799      -524.4123
  13   2.0000     -19.216472      -522.9068
  14   2.0000     -14.450909      -393.2292
  15   2.0000     -14.449908      -393.2020
  16   2.0000     -14.448112      -393.1531
  17   2.0000     -14.445623      -393.0854
  18   2.0000     -14.421145      -392.4193
  19   2.0000     -14.417855      -392.3298
  20   2.0000     -14.413475      -392.2106
  21   2.0000     -14.412123      -392.1738
  22   2.0000     -10.371724      -282.2289
  23   2.0000     -10.368413      -282.1389
  24   2.0000     -10.365067      -282.0478
  25   2.0000     -10.363394      -282.0023
  26   2.0000     -10.358547      -281.8704
  27   2.0000     -10.350528      -281.6522
  28   2.0000     -10.340441      -281.3777
  29   2.0000     -10.338821      -281.3336
  30   2.0000     -10.337695      -281.3030
  31   2.0000     -10.337589      -281.3001
  32   2.0000     -10.337308      -281.2925
  33   2.0000     -10.335417      -281.2410
  34   2.0000     -10.325411      -280.9687
  35   2.0000     -10.321681      -280.8672
  36   2.0000     -10.319534      -280.8088
  37   2.0000     -10.318854      -280.7903
  38   2.0000     -10.317575      -280.7555
  39   2.0000     -10.316179      -280.7175
  40   2.0000     -10.315540      -280.7001
  41   2.0000     -10.314924      -280.6833
  42   2.0000     -10.314330      -280.6672
  43   2.0000     -10.313887      -280.6551
  44   2.0000     -10.312425      -280.6153
  45   2.0000     -10.312349      -280.6133
  46   2.0000     -10.311145      -280.5805
  47   2.0000     -10.308253      -280.5018
  48   2.0000     -10.307413      -280.4790
  49   2.0000     -10.307279      -280.4753
  50   2.0000     -10.305010      -280.4136
  51   2.0000     -10.300533      -280.2917
  52   2.0000     -10.296278      -280.1760
  53   2.0000     -10.295574      -280.1568
  54   2.0000     -10.293175      -280.0915
  55   2.0000     -10.291964      -280.0586
  56   2.0000     -10.291828      -280.0549
  57   2.0000     -10.291200      -280.0378
  58   2.0000     -10.290921      -280.0302
  59   2.0000     -10.290434      -280.0169
  60   2.0000     -10.287162      -279.9279
  61   2.0000     -10.286943      -279.9220
  62   2.0000     -10.284551      -279.8568
  63   2.0000     -10.282805      -279.8094
  64   2.0000     -10.281847      -279.7833
  65   2.0000     -10.280138      -279.7368
  66   2.0000     -10.279436      -279.7177
  67   2.0000     -10.279370      -279.7159
  68   2.0000     -10.277165      -279.6559
  69   2.0000     -10.276137      -279.6279
  70   2.0000     -10.274899      -279.5942
  71   2.0000     -10.274104      -279.5726
  72   2.0000     -10.273143      -279.5464
  73   2.0000     -10.272785      -279.5367
  74   2.0000     -10.272547      -279.5302
  75   2.0000     -10.270890      -279.4851
  76   2.0000     -10.269218      -279.4396
  77   2.0000     -10.262670      -279.2614
  78   2.0000     -10.258307      -279.1427
  79   2.0000     -10.245617      -278.7974
  80   2.0000     -10.238255      -278.5971
  81   2.0000      -8.792294      -239.2505
  82   2.0000      -8.131194      -221.2610
  83   2.0000      -8.071120      -219.6264
  84   2.0000      -8.056580      -219.2307
  85   2.0000      -8.050130      -219.0552
  86   2.0000      -8.045904      -218.9402
  87   2.0000      -8.043827      -218.8837
  88   2.0000      -8.042408      -218.8451
  89   2.0000      -6.628622      -180.3740
  90   2.0000      -6.614024      -179.9768
  91   2.0000      -6.613805      -179.9708
  92   2.0000      -6.102189      -166.0490
  93   2.0000      -6.094499      -165.8397
  94   2.0000      -6.094089      -165.8286
  95   2.0000      -6.040813      -164.3789
  96   2.0000      -6.036536      -164.2625
  97   2.0000      -6.032333      -164.1481
  98   2.0000      -6.026035      -163.9768
  99   2.0000      -6.022012      -163.8673
 100   2.0000      -6.021127      -163.8432
 101   2.0000      -6.018191      -163.7633
 102   2.0000      -6.016747      -163.7240
 103   2.0000      -6.015568      -163.6919
 104   2.0000      -6.014738      -163.6693
 105   2.0000      -6.012172      -163.5995
 106   2.0000      -6.011633      -163.5848
 107   2.0000      -6.010422      -163.5519
 108   2.0000      -6.008679      -163.5045
 109   2.0000      -6.007926      -163.4840
 110   2.0000      -6.006883      -163.4556
 111   2.0000      -6.003458      -163.3624
 112   2.0000      -6.002224      -163.3288
 113   2.0000      -2.744443       -74.6801
 114   2.0000      -2.740396       -74.5700
 115   2.0000      -2.740272       -74.5666
 116   2.0000      -2.728649       -74.2503
 117   2.0000      -2.728622       -74.2496
 118   2.0000      -1.182647       -32.1815
 119   2.0000      -1.135852       -30.9081
 120   2.0000      -1.131965       -30.8023
 121   2.0000      -1.108067       -30.1520
 122   2.0000      -1.035340       -28.1730
 123   2.0000      -1.021954       -27.8088
 124   2.0000      -1.011570       -27.5262
 125   2.0000      -1.006617       -27.3914
 126   2.0000      -1.002040       -27.2669
 127   2.0000      -0.999452       -27.1965
 128   2.0000      -0.992662       -27.0117
 129   2.0000      -0.991617       -26.9833
 130   2.0000      -0.990741       -26.9594
 131   2.0000      -0.987880       -26.8816
 132   2.0000      -0.986250       -26.8372
 133   2.0000      -0.977442       -26.5975
 134   2.0000      -0.964012       -26.2321
 135   2.0000      -0.953152       -25.9366
 136   2.0000      -0.941045       -25.6071
 137   2.0000      -0.936457       -25.4823
 138   2.0000      -0.926063       -25.1994
 139   2.0000      -0.907708       -24.7000
 140   2.0000      -0.907390       -24.6913
 141   2.0000      -0.899407       -24.4741
 142   2.0000      -0.896338       -24.3906
 143   2.0000      -0.893184       -24.3048
 144   2.0000      -0.885298       -24.0902
 145   2.0000      -0.881656       -23.9911
 146   2.0000      -0.875683       -23.8285
 147   2.0000      -0.867173       -23.5970
 148   2.0000      -0.858141       -23.3512
 149   2.0000      -0.852164       -23.1886
 150   2.0000      -0.839151       -22.8345
 151   2.0000      -0.835438       -22.7334
 152   2.0000      -0.834284       -22.7020
 153   2.0000      -0.831358       -22.6224
 154   2.0000      -0.828892       -22.5553
 155   2.0000      -0.827911       -22.5286
 156   2.0000      -0.824660       -22.4401
 157   2.0000      -0.818036       -22.2599
 158   2.0000      -0.803363       -21.8606
 159   2.0000      -0.790703       -21.5161
 160   2.0000      -0.780806       -21.2468
 161   2.0000      -0.775345       -21.0982
 162   2.0000      -0.764565       -20.8049
 163   2.0000      -0.760091       -20.6831
 164   2.0000      -0.757294       -20.6070
 165   2.0000      -0.746516       -20.3137
 166   2.0000      -0.742807       -20.2128
 167   2.0000      -0.727751       -19.8031
 168   2.0000      -0.723404       -19.6848
 169   2.0000      -0.714947       -19.4547
 170   2.0000      -0.704815       -19.1790
 171   2.0000      -0.693747       -18.8778
 172   2.0000      -0.691835       -18.8258
 173   2.0000      -0.691113       -18.8062
 174   2.0000      -0.684695       -18.6315
 175   2.0000      -0.679364       -18.4864
 176   2.0000      -0.673160       -18.3176
 177   2.0000      -0.670535       -18.2462
 178   2.0000      -0.669360       -18.2142
 179   2.0000      -0.661950       -18.0126
 180   2.0000      -0.661256       -17.9937
 181   2.0000      -0.654536       -17.8108
 182   2.0000      -0.652559       -17.7570
 183   2.0000      -0.643486       -17.5101
 184   2.0000      -0.640119       -17.4185
 185   2.0000      -0.632315       -17.2062
 186   2.0000      -0.629950       -17.1418
 187   2.0000      -0.625206       -17.0127
 188   2.0000      -0.623118       -16.9559
 189   2.0000      -0.617542       -16.8042
 190   2.0000      -0.616389       -16.7728
 191   2.0000      -0.614455       -16.7202
 192   2.0000      -0.601075       -16.3561
 193   2.0000      -0.595515       -16.2048
 194   2.0000      -0.593035       -16.1373
 195   2.0000      -0.591903       -16.1065
 196   2.0000      -0.584359       -15.9012
 197   2.0000      -0.583244       -15.8709
 198   2.0000      -0.574704       -15.6385
 199   2.0000      -0.571985       -15.5645
 200   2.0000      -0.567776       -15.4500
 201   2.0000      -0.564109       -15.3502
 202   2.0000      -0.556711       -15.1489
 203   2.0000      -0.549900       -14.9636
 204   2.0000      -0.546910       -14.8822
 205   2.0000      -0.543863       -14.7993
 206   2.0000      -0.541714       -14.7408
 207   2.0000      -0.540874       -14.7179
 208   2.0000      -0.538659       -14.6576
 209   2.0000      -0.534215       -14.5367
 210   2.0000      -0.532374       -14.4866
 211   2.0000      -0.531280       -14.4569
 212   2.0000      -0.527545       -14.3552
 213   2.0000      -0.527314       -14.3489
 214   2.0000      -0.522112       -14.2074
 215   2.0000      -0.520598       -14.1662
 216   2.0000      -0.520138       -14.1537
 217   2.0000      -0.515220       -14.0198
 218   2.0000      -0.514266       -13.9939
 219   2.0000      -0.512452       -13.9445
 220   2.0000      -0.508514       -13.8374
 221   2.0000      -0.508121       -13.8267
 222   2.0000      -0.502971       -13.6865
 223   2.0000      -0.502055       -13.6616
 224   2.0000      -0.500179       -13.6106
 225   2.0000      -0.497015       -13.5245
 226   2.0000      -0.493759       -13.4359
 227   2.0000      -0.490675       -13.3520
 228   2.0000      -0.487913       -13.2768
 229   2.0000      -0.484942       -13.1959
 230   2.0000      -0.484291       -13.1782
 231   2.0000      -0.480106       -13.0644
 232   2.0000      -0.478511       -13.0209
 233   2.0000      -0.475528       -12.9398
 234   2.0000      -0.474418       -12.9096
 235   2.0000      -0.472741       -12.8639
 236   2.0000      -0.470430       -12.8010
 237   2.0000      -0.467414       -12.7190
 238   2.0000      -0.467019       -12.7082
 239   2.0000      -0.466006       -12.6807
 240   2.0000      -0.463264       -12.6061
 241   2.0000      -0.460019       -12.5178
 242   2.0000      -0.457479       -12.4486
 243   2.0000      -0.453443       -12.3388
 244   2.0000      -0.451472       -12.2852
 245   2.0000      -0.447298       -12.1716
 246   2.0000      -0.447107       -12.1664
 247   2.0000      -0.446362       -12.1461
 248   2.0000      -0.444648       -12.0995
 249   2.0000      -0.443797       -12.0763
 250   2.0000      -0.442779       -12.0486
 251   2.0000      -0.441965       -12.0265
 252   2.0000      -0.439280       -11.9534
 253   2.0000      -0.437845       -11.9144
 254   2.0000      -0.437171       -11.8960
 255   2.0000      -0.434294       -11.8177
 256   2.0000      -0.433070       -11.7844
 257   2.0000      -0.428234       -11.6528
 258   2.0000      -0.427223       -11.6253
 259   2.0000      -0.426383       -11.6025
 260   2.0000      -0.424503       -11.5513
 261   2.0000      -0.423010       -11.5107
 262   2.0000      -0.421269       -11.4633
 263   2.0000      -0.420556       -11.4439
 264   2.0000      -0.418773       -11.3954
 265   2.0000      -0.417562       -11.3624
 266   2.0000      -0.413042       -11.2394
 267   2.0000      -0.409527       -11.1438
 268   2.0000      -0.408039       -11.1033
 269   2.0000      -0.406162       -11.0522
 270   2.0000      -0.404246       -11.0001
 271   2.0000      -0.403024       -10.9668
 272   2.0000      -0.402606       -10.9555
 273   2.0000      -0.399214       -10.8632
 274   2.0000      -0.394581       -10.7371
 275   2.0000      -0.389489       -10.5985
 276   2.0000      -0.388134       -10.5617
 277   2.0000      -0.387568       -10.5463
 278   2.0000      -0.385473       -10.4893
 279   2.0000      -0.381960       -10.3937
 280   2.0000      -0.376754       -10.2520
 281   2.0000      -0.374599       -10.1934
 282   2.0000      -0.373212       -10.1556
 283   2.0000      -0.366089        -9.9618
 284   2.0000      -0.357563        -9.7298
 285   2.0000      -0.344755        -9.3813
 286   2.0000      -0.342279        -9.3139
 287   2.0000      -0.339522        -9.2389
 288   2.0000      -0.339122        -9.2280
 289   2.0000      -0.336213        -9.1488
 290   2.0000      -0.328753        -8.9458
 291   2.0000      -0.323460        -8.8018
 292   2.0000      -0.318570        -8.6687
 293   2.0000      -0.315282        -8.5793
 294   2.0000      -0.313742        -8.5374
 295   2.0000      -0.312577        -8.5057
 296   2.0000      -0.301501        -8.2043
 297   2.0000      -0.292688        -7.9644
 298   2.0000      -0.283503        -7.7145
 299   2.0000      -0.276423        -7.5218
 300   2.0000      -0.255646        -6.9565
 301   2.0000      -0.206724        -5.6252
 302   0.0000      -0.117873        -3.2075
 303   0.0000      -0.088303        -2.4029
 304   0.0000      -0.077702        -2.1144
 305   0.0000      -0.057468        -1.5638
 306   0.0000      -0.041431        -1.1274

MULLIKEN ATOMIC CHARGES
-----------------------
   0 C :    0.290835
   1 C :   -0.338587
   2 C :   -0.184086
   3 N :    0.149453
   4 C :   -0.205127
   5 N :    0.162775
   6 C :    0.016684
   7 C :   -0.016532
   8 C :   -0.071141
   9 C :    0.118790
  10 C :   -0.091278
  11 C :   -0.019027
  12 S :    0.187497
  13 C :   -0.123414
  14 C :    0.040161
  15 Br:    0.024031
  16 C :    0.145773
  17 O :   -0.141157
  18 C :   -0.089645
  19 C :   -0.023748
  20 C :    0.059344
  21 C :    0.018179
  22 C :   -0.025977
  23 C :    0.119956
  24 C :   -0.047381
  25 C :    0.006532
  26 C :    0.098808
  27 C :    0.026500
  28 C :   -0.147943
  29 C :    0.069930
  30 C :    0.028554
  31 C :    0.070286
  32 C :    0.023271
  33 C :   -0.103648
  34 C :    0.124799
  35 C :   -0.010217
  36 C :   -0.035457
  37 C :   -0.005679
  38 C :    0.012165
  39 C :    0.002800
  40 C :   -0.026700
  41 C :    0.041788
  42 C :    0.025122
  43 C :   -0.037876
  44 S :    0.060589
  45 C :   -0.051163
  46 C :    0.037070
  47 C :    0.021649
  48 C :   -0.015086
  49 S :    0.109357
  50 C :    0.004661
  51 C :   -0.123550
  52 S :    0.184767
  53 C :   -0.252385
  54 C :    0.005671
  55 C :    0.195176
  56 O :   -0.292333
  57 C :    0.133255
  58 S :   -0.025149
  59 S :    0.034985
  60 C :    0.170483
  61 C :   -0.103900
  62 C :    0.031042
  63 N :    0.046029
  64 C :   -0.139701
  65 C :   -0.143652
  66 N :    0.054370
  67 C :   -0.203525
  68 N :    0.225181
  69 C :   -0.198580
  70 N :    0.223631
  71 C :   -0.089973
  72 C :    0.111687
  73 C :   -0.042062
  74 N :   -0.304122
  75 S :    0.533581
  76 N :   -0.269764
  77 H :   -0.011121
  78 H :   -0.006354
  79 H :   -0.003451
  80 H :    0.034484
  81 H :   -0.032540
  82 H :   -0.027319
  83 H :   -0.016447
  84 H :   -0.006260
  85 H :    0.004159
  86 H :    0.014589
  87 H :    0.004937
  88 H :    0.032595
  89 H :   -0.000335
  90 H :   -0.003328
  91 H :    0.023267
  92 H :    0.010347
  93 H :    0.019738
  94 H :   -0.040399
  95 H :   -0.029629
  96 H :   -0.029916
  97 H :   -0.022991
  98 H :    0.005365
  99 H :   -0.014513
 100 H :   -0.010594
 101 H :   -0.012559
 102 H :   -0.013747
 103 H :   -0.011901
 104 H :   -0.014413
 105 H :    0.061177
 106 H :    0.071449
 107 H :   -0.021945
Sum of atomic charges:   -0.0000000

LOEWDIN ATOMIC CHARGES
----------------------
   0 C :    0.075976
   1 C :   -0.139224
   2 C :   -0.018066
   3 N :   -0.053268
   4 C :   -0.025760
   5 N :   -0.048986
   6 C :   -0.021207
   7 C :   -0.050590
   8 C :    0.022143
   9 C :   -0.032316
  10 C :   -0.143306
  11 C :   -0.009293
  12 S :    0.433051
  13 C :   -0.271157
  14 C :   -0.070261
  15 Br:    0.137140
  16 C :    0.085305
  17 O :   -0.136140
  18 C :   -0.098516
  19 C :    0.086987
  20 C :   -0.044200
  21 C :    0.022736
  22 C :   -0.001029
  23 C :    0.005622
  24 C :   -0.022880
  25 C :    0.004987
  26 C :   -0.019547
  27 C :    0.008603
  28 C :   -0.035458
  29 C :   -0.010818
  30 C :   -0.057007
  31 C :   -0.011034
  32 C :   -0.058076
  33 C :   -0.019013
  34 C :   -0.022053
  35 C :   -0.011921
  36 C :   -0.010104
  37 C :   -0.006310
  38 C :   -0.033797
  39 C :   -0.041062
  40 C :   -0.148199
  41 C :   -0.027734
  42 C :   -0.034517
  43 C :   -0.169149
  44 S :    0.372471
  45 C :   -0.190965
  46 C :   -0.029574
  47 C :   -0.037903
  48 C :   -0.136887
  49 S :    0.411815
  50 C :   -0.086447
  51 C :   -0.178174
  52 S :    0.481479
  53 C :   -0.188695
  54 C :   -0.211278
  55 C :   -0.008879
  56 O :   -0.095187
  57 C :   -0.042457
  58 S :    0.132264
  59 S :    0.215988
  60 C :   -0.031760
  61 C :   -0.026927
  62 C :   -0.006427
  63 N :   -0.009393
  64 C :   -0.024982
  65 C :   -0.044985
  66 N :   -0.002510
  67 C :   -0.038381
  68 N :   -0.018525
  69 C :   -0.033104
  70 N :   -0.009190
  71 C :   -0.026938
  72 C :   -0.045741
  73 C :   -0.052955
  74 N :   -0.299332
  75 S :    0.670319
  76 N :   -0.287022
  77 H :    0.040785
  78 H :    0.041191
  79 H :    0.038890
  80 H :    0.046259
  81 H :    0.027503
  82 H :    0.030184
  83 H :    0.031497
  84 H :    0.017660
  85 H :    0.023045
  86 H :    0.022616
  87 H :    0.023736
  88 H :    0.028652
  89 H :    0.020802
  90 H :    0.019559
  91 H :    0.025709
  92 H :    0.024623
  93 H :    0.024717
  94 H :    0.024112
  95 H :    0.026371
  96 H :    0.029852
  97 H :    0.027661
  98 H :    0.019317
  99 H :    0.033484
 100 H :    0.034473
 101 H :    0.032442
 102 H :    0.031347
 103 H :    0.032578
 104 H :    0.034394
 105 H :    0.024918
 106 H :    0.015690
 107 H :    0.045660

  Mayer bond orders larger than 0.100000
B(  0-C ,  1-C ) :   1.6524 B(  0-C ,  6-C ) :   1.0102 B(  0-C , 18-C ) :   1.0467
B(  1-C ,  2-C ) :   1.1365 B(  1-C ,  4-C ) :   1.1400 B(  2-C ,  3-N ) :   2.9746
B(  4-C ,  5-N ) :   2.9983 B(  6-C ,  7-C ) :   1.2740 B(  6-C , 11-C ) :   1.4053
B(  7-C ,  8-C ) :   1.4235 B(  7-C , 16-C ) :   0.9443 B(  8-C ,  9-C ) :   1.2457
B(  8-C , 77-H ) :   1.0164 B(  9-C , 10-C ) :   1.3056 B(  9-C , 14-C ) :   1.1631
B( 10-C , 11-C ) :   1.3334 B( 10-C , 12-S ) :   1.0856 B( 11-C , 78-H ) :   0.9806
B( 12-S , 13-C ) :   1.0867 B( 13-C , 14-C ) :   1.6183 B( 13-C , 15-Br) :   1.0184
B( 14-C , 79-H ) :   1.0002 B( 16-C , 17-O ) :   2.2074 B( 16-C , 18-C ) :   0.9374
B( 18-C , 19-C ) :   1.6316 B( 19-C , 20-C ) :   1.0841 B( 19-C , 80-H ) :   0.9532
B( 20-C , 21-C ) :   1.3002 B( 20-C , 25-C ) :   1.3070 B( 21-C , 22-C ) :   1.4351
B( 21-C , 81-H ) :   0.9868 B( 22-C , 23-C ) :   1.3514 B( 22-C , 28-C ) :   0.9138
B( 23-C , 24-C ) :   1.3264 B( 23-C , 26-C ) :   1.0105 B( 24-C , 25-C ) :   1.3951
B( 24-C , 82-H ) :   0.9929 B( 25-C , 83-H ) :   0.9928 B( 26-C , 27-C ) :   1.3627
B( 26-C , 36-C ) :   1.3170 B( 27-C , 28-C ) :   0.9168 B( 27-C , 33-C ) :   1.3850
B( 28-C , 29-C ) :   1.0413 B( 28-C , 31-C ) :   1.0367 B( 29-C , 30-C ) :   1.1048
B( 29-C , 84-H ) :   0.9398 B( 29-C , 85-H ) :   0.9362 B( 30-C , 86-H ) :   0.9659
B( 30-C , 87-H ) :   0.9625 B( 30-C , 88-H ) :   0.9587 B( 31-C , 32-C ) :   1.0999
B( 31-C , 89-H ) :   0.9396 B( 31-C , 90-H ) :   0.9399 B( 32-C , 91-H ) :   0.9646
B( 32-C , 92-H ) :   0.9640 B( 32-C , 93-H ) :   0.9645 B( 33-C , 34-C ) :   1.2770
B( 33-C , 94-H ) :   1.0120 B( 34-C , 35-C ) :   1.3284 B( 34-C , 37-C ) :   1.0775
B( 35-C , 36-C ) :   1.4165 B( 35-C , 95-H ) :   0.9824 B( 36-C , 96-H ) :   0.9898
B( 37-C , 38-C ) :   1.6340 B( 37-C , 97-H ) :   0.9905 B( 38-C , 39-C ) :   1.1576
B( 38-C , 98-H ) :   0.9617 B( 39-C , 40-C ) :   1.5504 B( 39-C , 99-H ) :   0.9873
B( 40-C , 41-C ) :   1.1509 B( 40-C , 44-S ) :   1.0285 B( 41-C , 42-C ) :   1.5737
B( 41-C ,100-H ) :   0.9990 B( 42-C , 43-C ) :   1.2022 B( 42-C ,101-H ) :   0.9952
B( 43-C , 44-S ) :   1.0579 B( 43-C , 45-C ) :   1.4748 B( 45-C , 46-C ) :   1.2036
B( 45-C , 49-S ) :   1.0378 B( 46-C , 47-C ) :   1.5669 B( 46-C ,102-H ) :   0.9939
B( 47-C , 48-C ) :   1.1635 B( 47-C ,103-H ) :   0.9993 B( 48-C , 49-S ) :   1.0680
B( 48-C , 50-C ) :   1.5523 B( 50-C , 51-C ) :   1.1985 B( 50-C ,104-H ) :   0.9395
B( 51-C , 52-S ) :   1.0972 B( 51-C , 53-C ) :   0.1112 B( 51-C , 55-C ) :   1.3943
B( 52-S , 53-C ) :   1.1337 B( 53-C , 54-C ) :   1.4645 B( 53-C , 60-C ) :   1.1783
B( 54-C , 55-C ) :   1.3174 B( 54-C , 59-S ) :   0.9539 B( 55-C , 56-O ) :   1.1241
B( 56-O , 57-C ) :   0.9540 B( 57-C , 58-S ) :   0.9993 B( 57-C ,105-H ) :   0.9513
B( 57-C ,106-H ) :   0.9451 B( 58-S , 59-S ) :   1.0603 B( 60-C , 61-C ) :   1.2521
B( 60-C , 71-C ) :   0.1207 B( 60-C , 73-C ) :   1.2045 B( 61-C , 62-C ) :   1.1120
B( 61-C , 66-N ) :   1.4552 B( 62-C , 63-N ) :   1.3311 B( 62-C , 71-C ) :   1.3180
B( 63-N , 64-C ) :   1.7833 B( 64-C , 65-C ) :   1.1911 B( 64-C , 69-C ) :   1.1468
B( 65-C , 66-N ) :   1.6900 B( 65-C , 67-C ) :   1.1565 B( 67-C , 68-N ) :   3.0432
B( 69-C , 70-N ) :   3.0517 B( 71-C , 72-C ) :   1.1723 B( 71-C ,107-H ) :   1.0570
B( 72-C , 73-C ) :   1.1276 B( 72-C , 76-N ) :   1.4697 B( 73-C , 74-N ) :   1.4993
B( 74-N , 75-S ) :   1.2681 B( 74-N , 76-N ) :   0.1543 B( 75-S , 76-N ) :   1.2953

-----------------------------------------------------------------------------
         ABSORPTION SPECTRUM VIA TRANSITION ELECTRIC DIPOLE MOMENTS
-----------------------------------------------------------------------------
State   Energy  Wavelength   fosc         T2         TX        TY        TZ
        (cm-1)    (nm)                  (au**2)     (au)      (au)      (au)
-----------------------------------------------------------------------------
   0    6948.3   1439.2   0.554689526  26.28127   2.78365   2.19538  -3.70309
   1   14550.4    687.3   0.855297650  19.35159   3.55029  -1.48794  -2.12910
   2   15811.6    632.4   0.025907761   0.53942  -0.52670   0.51185   0.00497
   3   18033.9    554.5   0.507391323   9.26250  -1.37255   2.71020  -0.18292
   4   18403.1    543.4   0.068526202   1.22586   0.26866   0.84208  -0.66678
   5   22066.3    453.2   0.123151619   1.83732  -0.55763   1.23482  -0.03997
   6   22922.4    436.3   0.419273279   6.02161   1.29080  -2.08412  -0.10907
   7   23861.3    419.1   0.148872535   2.05398  -0.36174   1.32531  -0.40827
   8   23955.7    417.4   0.348551839   4.78998  -1.35326   1.71624   0.11483
   9   24476.3    408.6   0.011188379   0.15049   0.04656  -0.08916  -0.37466
  10   24996.5    400.1   0.052440802   0.69066   0.40512  -0.68353   0.24358
  11   25188.8    397.0   0.019115726   0.24984   0.38278   0.09731  -0.30635
  12   26666.6    375.0   0.485192220   5.98993   0.33482  -2.42001   0.14629
  13   26806.3    373.0   0.011305714   0.13885  -0.36912   0.04028   0.03121
  14   27624.7    362.0   0.054089847   0.64461  -0.59047   0.41234   0.35487
  15   28091.0    356.0   0.056751470   0.66510   0.38617   0.52446   0.49083
  16   28594.0    349.7   0.025196663   0.29010   0.40948  -0.34173  -0.07516
  17   28959.2    345.3   0.234687990   2.66796   1.27520   0.27246   0.98366
  18   29510.5    338.9   0.101165659   1.12858   0.93311  -0.42864   0.27229
  19   29973.6    333.6   0.102492699   1.12572  -1.02981  -0.11527  -0.22785
  20   30108.2    332.1   0.192838423   2.10855   0.76250  -1.02617  -0.68856
  21   30579.7    327.0   0.015460179   0.16644   0.24433   0.20185  -0.25690
  22   30735.9    325.4   0.011092657   0.11881  -0.21958   0.25419   0.07736
  23   31128.6    321.2   0.031010136   0.32796   0.56117   0.10587  -0.04282
  24   31386.3    318.6   0.080119570   0.84038  -0.27857   0.83923   0.24180
  25   31871.5    313.8   0.085432810   0.88246  -0.93324  -0.00941  -0.10692
  26   32240.4    310.2   0.011601815   0.11847   0.00245  -0.30972  -0.15011
  27   32315.0    309.5   0.020392230   0.20775  -0.01969  -0.30570   0.33750
  28   32438.0    308.3   0.061226973   0.62139   0.75446  -0.12126  -0.19358
  29   32464.8    308.0   0.051608098   0.52334  -0.30736   0.34490   0.55670
  30   32805.4    304.8   0.025292763   0.25382   0.42749  -0.23315  -0.12930
  31   32861.4    304.3   0.117235480   1.17449   1.01698  -0.35849   0.10827
  32   33608.1    297.5   0.029581212   0.28977   0.41657   0.31788  -0.12325
  33   34003.7    294.1   0.045223367   0.43784  -0.00434   0.66079   0.03436
  34   34078.1    293.4   0.550669542   5.31976   1.63519   0.90362   1.35255
  35   34187.1    292.5   0.031592511   0.30423   0.23541   0.39679   0.30227
  36   34467.3    290.1   0.040538019   0.38720   0.10385   0.41824   0.44888
  37   34693.7    288.2   0.047335892   0.44918   0.52369  -0.25131  -0.33431
  38   34750.1    287.8   0.083471936   0.79079  -0.09211   0.80166  -0.37369
  39   34887.3    286.6   0.044355481   0.41856  -0.57683   0.27943   0.08800
  40   35283.8    283.4   0.096790786   0.90310   0.78597  -0.46274  -0.26689
  41   35495.2    281.7   0.194557132   1.80449   1.15013  -0.47660  -0.50451
  42   35715.1    280.0   0.032852829   0.30283   0.14174  -0.53092  -0.02933
  43   35785.5    279.4   0.013248540   0.12188   0.23523   0.11415  -0.23134
  44   36181.7    276.4   0.014641033   0.13322   0.12304  -0.31184   0.14434
  45   36478.9    274.1   0.138987098   1.25432  -0.87947   0.58295   0.37553
  46   36753.3    272.1   0.069286197   0.62062   0.10538  -0.20674  -0.75285
  47   37073.0    269.7   0.048676884   0.43226  -0.31527  -0.55118  -0.17049
  48   37241.3    268.5   0.033283933   0.29423  -0.17224  -0.03759   0.51298
  49   37396.9    267.4   0.023212658   0.20435   0.06359  -0.44669  -0.02773
  50   37682.8    265.4   0.007057914   0.06166  -0.22440   0.09208  -0.05315
  51   37848.7    264.2   0.266451414   2.31762   1.34942  -0.67943  -0.18724
  52   38388.4    260.5   0.004399819   0.03773   0.01789  -0.17091  -0.09057
  53   38699.7    258.4   0.080615123   0.68578   0.43379  -0.22202  -0.66956
  54   38914.6    257.0   0.012866632   0.10885   0.19077  -0.26438  -0.05061
  55   39062.9    256.0   0.010815386   0.09115  -0.08212   0.27834   0.08326
  56   39243.8    254.8   0.088067814   0.73879   0.54220  -0.66370  -0.06567
  57   39651.2    252.2   0.080838802   0.67118  -0.29022   0.76421   0.05425
  58   39896.4    250.6   0.080019761   0.66030   0.38842  -0.71274   0.03781
  59   40032.7    249.8   0.027409244   0.22540  -0.27561   0.38575   0.02515
  60   40189.5    248.8   0.119193560   0.97637   0.66101  -0.72422  -0.12224
  61   40245.3    248.5   0.123968586   1.01408  -0.60157   0.74084   0.32148

FINAL SINGLE POINT ENERGY     -8212.095193491325

DIPOLE MOMENT
-------------
                                X             Y             Z
Electronic contribution:     96.93279     -91.86619      67.40253
Nuclear contribution   :    -97.91414      97.41536     -67.17084
                        -----------------------------------------
Total Dipole Moment    :     -0.98135       5.54917       0.23168
                        -----------------------------------------
Magnitude (a.u.)       :      5.64004
Magnitude (Debye)      :     14.33584

Rotational constants in cm-1:     0.000833     0.000188     0.000167
Rotational constants in MHz :    24.967313     5.624823     5.000748

                             ****ORCA TERMINATED NORMALLY****
TOTAL RUN TIME: 0 days 0 hours 13 minutes 41 seconds 195 msec
