                         Program Version 4.2.0 -  RELEASE  -
|  1> # ORCA input file
|  2> # SCF done       -184.060791823147          0.000331295794
|  3> ! CAM-B3LYP def2-SVP def2/J RIJCOSX Grid4 TightSCF
|  4> %maxcore 5000
|  5> %tddft
|  6>     Mode sTDDFT
|  7>     Ethresh 5.0
|  8>     maxcore 5000
|  9> end
| 10>
| 11> %pal
| 12>   nprocs 6
| 13>   end
| 14> * xyz 0 1
| 15>    C      -16.41523       -11.69737        -1.63873
| 16>    C      -15.04593       -11.57605        -1.72912
| 17>    C      -14.20167       -12.56918        -2.26555
| 18>    N      -13.45446       -13.33212        -2.68875
| 19>    C      -14.27100       -10.47548        -1.31401
| 20>    N      -13.54290        -9.63820        -1.00958
| 21>    C      -17.18833       -12.85955        -2.07211
| 22>    C      -18.56081       -12.61304        -1.81953
| 23>    C      -19.54378       -13.52501        -2.11329
| 24>    C      -19.15593       -14.74247        -2.68463
| 25>    C      -17.78408       -14.97968        -2.93417
| 26>    C      -16.78898       -14.05543        -2.63691
| 27>    S      -17.52418       -16.54521        -3.64158
| 28>    C      -19.23915       -16.85574        -3.59263
| 29>    C      -19.97040       -15.84061        -3.07405
| 30>   Br      -19.90211       -18.49065        -4.22958
| 31>    C      -18.71153       -11.27356        -1.21352
| 32>    O      -19.75086       -10.74384        -0.87416
| 33>    C      -17.34185       -10.73125        -1.11002
| 34>    C      -17.01902        -9.50042        -0.57741
| 35>    C      -17.91152        -8.56972        -0.05729
| 36>    C      -17.46591        -7.37242         0.47992
| 37>    C      -18.22281        -6.33193         1.05674
| 38>    C      -17.46937        -5.28314         1.51602
| 39>    C      -16.08892        -5.45582         1.31793
| 40>    S      -15.76377        -6.97525         0.52998
| 41>    C      -15.01188        -4.63902         1.65485
| 42>    C      -14.98067        -3.39244         2.30278
| 43>    C      -13.70916        -2.91846         2.47021
| 44>    C      -12.69119        -3.76364         1.96379
| 45>    S      -13.40626        -5.18550         1.25422
| 46>    C      -11.34451        -3.46381         2.06292
| 47>    C      -10.20360        -4.15572         1.64443
| 48>    C       -8.92012        -3.58707         1.93481
| 49>    C       -7.69720        -4.23290         1.54858
| 50>    N       -6.52243        -3.67047         1.85535
| 51>    C       -6.49161        -2.52932         2.50263
| 52>    C       -7.70844        -1.88420         2.87619
| 53>    N       -8.87473        -2.42430         2.58779
| 54>    C       -7.68078        -0.64799         3.56704
| 55>    N       -7.63401         0.35131         4.12539
| 56>    C       -5.24036        -1.94725         2.82568
| 57>    N       -4.24919        -1.44584         3.10414
| 58>    C       -7.66315        -5.46334         0.84255
| 59>    C       -8.92808        -6.03027         0.54913
| 60>    C      -10.15972        -5.39175         0.94531
| 61>    N      -11.21275        -6.10564         0.56773
| 62>    S      -10.73811        -7.43812        -0.19898
| 63>    N       -9.15787        -7.17487        -0.09422
| 64>    C       -6.43339        -6.05466         0.47434
| 65>    S       -4.91190        -5.32523         0.89732
| 66>    C       -4.05102        -6.62062         0.10649
| 67>    C       -4.92124        -7.55287        -0.45254
| 68>    C       -6.24849        -7.23788        -0.24304
| 69>    C       -2.67780        -6.65743         0.07532
| 70>    C       -1.46004        -6.67311         0.06484
| 71>    C       -0.07595        -6.72733         0.02767
| 72>    C        0.59746        -7.72346        -0.72008
| 73>    C        2.03955        -7.77719        -0.75803
| 74>    N        2.65333        -8.73735        -1.48608
| 75>    C        1.91895        -9.59422        -2.14074
| 76>    C        0.48072        -9.53611        -2.09870
| 77>    N       -0.13649        -8.61655        -1.39922
| 78>    C       -0.28506       -10.48265        -2.82263
| 79>    N       -0.87462       -11.26232        -3.42032
| 80>    C        2.54969       -10.60510        -2.91251
| 81>    N        3.01864       -11.43472        -3.54726
| 82>    C        2.82312        -6.86111        -0.06287
| 83>    C        2.17288        -5.87860         0.67490
| 84>    C        0.72666        -5.80315         0.72416
| 85>    N        0.30525        -4.79221         1.48489
| 86>    S        1.58000        -4.02149         2.07170
| 87>    N        2.73522        -4.90842         1.40937
| 88>    H      -20.58040       -13.30813        -1.90824
| 89>    H      -15.75790       -14.28584        -2.84608
| 90>    H      -21.03972       -15.86400        -2.96930
| 91>    H      -15.97085        -9.22674        -0.55151
| 92>    H      -18.97045        -8.78234        -0.06242
| 93>    H      -19.29507        -6.38462         1.12035
| 94>    H      -17.87514        -4.40540         1.98660
| 95>    H      -15.86826        -2.88048         2.62904
| 96>    H      -13.47114        -1.98380         2.94720
| 97>    H      -11.12087        -2.52780         2.56289
| 98>    H       -4.57354        -8.42055        -0.98421
| 99>    H       -7.08066        -7.82406        -0.58677
|100>    H        3.89718        -6.92144        -0.10441
|101> *
|102>
|103>                          ****END OF INPUT****

CARTESIAN COORDINATES (ANGSTROEM)
---------------------------------
  C    -16.415230  -11.697370   -1.638730
  C    -15.045930  -11.576050   -1.729120
  C    -14.201670  -12.569180   -2.265550
  N    -13.454460  -13.332120   -2.688750
  C    -14.271000  -10.475480   -1.314010
  N    -13.542900   -9.638200   -1.009580
  C    -17.188330  -12.859550   -2.072110
  C    -18.560810  -12.613040   -1.819530
  C    -19.543780  -13.525010   -2.113290
  C    -19.155930  -14.742470   -2.684630
  C    -17.784080  -14.979680   -2.934170
  C    -16.788980  -14.055430   -2.636910
  S    -17.524180  -16.545210   -3.641580
  C    -19.239150  -16.855740   -3.592630
  C    -19.970400  -15.840610   -3.074050
  Br   -19.902110  -18.490650   -4.229580
  C    -18.711530  -11.273560   -1.213520
  O    -19.750860  -10.743840   -0.874160
  C    -17.341850  -10.731250   -1.110020
  C    -17.019020   -9.500420   -0.577410
  C    -17.911520   -8.569720   -0.057290
  C    -17.465910   -7.372420    0.479920
  C    -18.222810   -6.331930    1.056740
  C    -17.469370   -5.283140    1.516020
  C    -16.088920   -5.455820    1.317930
  S    -15.763770   -6.975250    0.529980
  C    -15.011880   -4.639020    1.654850
  C    -14.980670   -3.392440    2.302780
  C    -13.709160   -2.918460    2.470210
  C    -12.691190   -3.763640    1.963790
  S    -13.406260   -5.185500    1.254220
  C    -11.344510   -3.463810    2.062920
  C    -10.203600   -4.155720    1.644430
  C     -8.920120   -3.587070    1.934810
  C     -7.697200   -4.232900    1.548580
  N     -6.522430   -3.670470    1.855350
  C     -6.491610   -2.529320    2.502630
  C     -7.708440   -1.884200    2.876190
  N     -8.874730   -2.424300    2.587790
  C     -7.680780   -0.647990    3.567040
  N     -7.634010    0.351310    4.125390
  C     -5.240360   -1.947250    2.825680
  N     -4.249190   -1.445840    3.104140
  C     -7.663150   -5.463340    0.842550
  C     -8.928080   -6.030270    0.549130
  C    -10.159720   -5.391750    0.945310
  N    -11.212750   -6.105640    0.567730
  S    -10.738110   -7.438120   -0.198980
  N     -9.157870   -7.174870   -0.094220
  C     -6.433390   -6.054660    0.474340
  S     -4.911900   -5.325230    0.897320
  C     -4.051020   -6.620620    0.106490
  C     -4.921240   -7.552870   -0.452540
  C     -6.248490   -7.237880   -0.243040
  C     -2.677800   -6.657430    0.075320
  C     -1.460040   -6.673110    0.064840
  C     -0.075950   -6.727330    0.027670
  C      0.597460   -7.723460   -0.720080
  C      2.039550   -7.777190   -0.758030
  N      2.653330   -8.737350   -1.486080
  C      1.918950   -9.594220   -2.140740
  C      0.480720   -9.536110   -2.098700
  N     -0.136490   -8.616550   -1.399220
  C     -0.285060  -10.482650   -2.822630
  N     -0.874620  -11.262320   -3.420320
  C      2.549690  -10.605100   -2.912510
  N      3.018640  -11.434720   -3.547260
  C      2.823120   -6.861110   -0.062870
  C      2.172880   -5.878600    0.674900
  C      0.726660   -5.803150    0.724160
  N      0.305250   -4.792210    1.484890
  S      1.580000   -4.021490    2.071700
  N      2.735220   -4.908420    1.409370
  H    -20.580400  -13.308130   -1.908240
  H    -15.757900  -14.285840   -2.846080
  H    -21.039720  -15.864000   -2.969300
  H    -15.970850   -9.226740   -0.551510
  H    -18.970450   -8.782340   -0.062420
  H    -19.295070   -6.384620    1.120350
  H    -17.875140   -4.405400    1.986600
  H    -15.868260   -2.880480    2.629040
  H    -13.471140   -1.983800    2.947200
  H    -11.120870   -2.527800    2.562890
  H     -4.573540   -8.420550   -0.984210
  H     -7.080660   -7.824060   -0.586770
  H      3.897180   -6.921440   -0.104410

 Total Charge           Charge          ....    0
 Multiplicity           Mult            ....    1
 Number of Electrons    NEL             ....  556
 Basis Dimension        Dim             .... 1129

ORBITAL ENERGIES
----------------

  NO   OCC          E(Eh)            E(eV)
   0   2.0000    -482.883987    -13139.9413
   1   2.0000     -89.049504     -2423.1602
   2   2.0000     -89.046087     -2423.0672
   3   2.0000     -88.973197     -2421.0838
   4   2.0000     -88.970727     -2421.0166
   5   2.0000     -88.969758     -2420.9902
   6   2.0000     -88.966654     -2420.9057
   7   2.0000     -62.561690     -1702.3901
   8   2.0000     -56.395636     -1534.6033
   9   2.0000     -56.392926     -1534.5295
  10   2.0000     -56.392894     -1534.5286
  11   2.0000     -19.212910      -522.8099
  12   2.0000     -14.472049      -393.8045
  13   2.0000     -14.471909      -393.8007
  14   2.0000     -14.462340      -393.5403
  15   2.0000     -14.460713      -393.4960
  16   2.0000     -14.459155      -393.4536
  17   2.0000     -14.457963      -393.4212
  18   2.0000     -14.452476      -393.2719
  19   2.0000     -14.450132      -393.2081
  20   2.0000     -14.437050      -392.8521
  21   2.0000     -14.434874      -392.7929
  22   2.0000     -14.427150      -392.5827
  23   2.0000     -14.425973      -392.5507
  24   2.0000     -14.418831      -392.3563
  25   2.0000     -14.410271      -392.1234
  26   2.0000     -10.391992      -282.7805
  27   2.0000     -10.387938      -282.6702
  28   2.0000     -10.380604      -282.4706
  29   2.0000     -10.378198      -282.4051
  30   2.0000     -10.362854      -281.9876
  31   2.0000     -10.360051      -281.9113
  32   2.0000     -10.357040      -281.8294
  33   2.0000     -10.356741      -281.8213
  34   2.0000     -10.355070      -281.7758
  35   2.0000     -10.351901      -281.6895
  36   2.0000     -10.348802      -281.6052
  37   2.0000     -10.346874      -281.5528
  38   2.0000     -10.344170      -281.4792
  39   2.0000     -10.341803      -281.4148
  40   2.0000     -10.338369      -281.3213
  41   2.0000     -10.337636      -281.3014
  42   2.0000     -10.337346      -281.2935
  43   2.0000     -10.336491      -281.2702
  44   2.0000     -10.336157      -281.2611
  45   2.0000     -10.332990      -281.1750
  46   2.0000     -10.332782      -281.1693
  47   2.0000     -10.330341      -281.1029
  48   2.0000     -10.328719      -281.0587
  49   2.0000     -10.327694      -281.0308
  50   2.0000     -10.326274      -280.9922
  51   2.0000     -10.323235      -280.9095
  52   2.0000     -10.322488      -280.8892
  53   2.0000     -10.320337      -280.8306
  54   2.0000     -10.320121      -280.8248
  55   2.0000     -10.319493      -280.8077
  56   2.0000     -10.318650      -280.7847
  57   2.0000     -10.317048      -280.7412
  58   2.0000     -10.314343      -280.6676
  59   2.0000     -10.313491      -280.6443
  60   2.0000     -10.312296      -280.6118
  61   2.0000     -10.311413      -280.5878
  62   2.0000     -10.310648      -280.5670
  63   2.0000     -10.307618      -280.4845
  64   2.0000     -10.305126      -280.4167
  65   2.0000     -10.304813      -280.4082
  66   2.0000     -10.304620      -280.4030
  67   2.0000     -10.302173      -280.3364
  68   2.0000     -10.297973      -280.2221
  69   2.0000     -10.295630      -280.1583
  70   2.0000     -10.294668      -280.1321
  71   2.0000     -10.291969      -280.0587
  72   2.0000     -10.291935      -280.0578
  73   2.0000     -10.290464      -280.0178
  74   2.0000     -10.288698      -279.9697
  75   2.0000     -10.287273      -279.9309
  76   2.0000     -10.283923      -279.8398
  77   2.0000      -8.791121      -239.2186
  78   2.0000      -8.140333      -221.5097
  79   2.0000      -8.137390      -221.4296
  80   2.0000      -8.069225      -219.5748
  81   2.0000      -8.065985      -219.4866
  82   2.0000      -8.065223      -219.4659
  83   2.0000      -8.060134      -219.3274
  84   2.0000      -6.627384      -180.3403
  85   2.0000      -6.612872      -179.9454
  86   2.0000      -6.612677      -179.9401
  87   2.0000      -6.111525      -166.3030
  88   2.0000      -6.108218      -166.2131
  89   2.0000      -6.103601      -166.0874
  90   2.0000      -6.102928      -166.0691
  91   2.0000      -6.100665      -166.0075
  92   2.0000      -6.100435      -166.0013
  93   2.0000      -6.038885      -164.3264
  94   2.0000      -6.035528      -164.2351
  95   2.0000      -6.034961      -164.2196
  96   2.0000      -6.034658      -164.2114
  97   2.0000      -6.031443      -164.1239
  98   2.0000      -6.030489      -164.0979
  99   2.0000      -6.030449      -164.0969
 100   2.0000      -6.029761      -164.0781
 101   2.0000      -6.027240      -164.0095
 102   2.0000      -6.026464      -163.9884
 103   2.0000      -6.024971      -163.9478
 104   2.0000      -6.022235      -163.8733
 105   2.0000      -2.743304       -74.6491
 106   2.0000      -2.739168       -74.5366
 107   2.0000      -2.739022       -74.5326
 108   2.0000      -2.727499       -74.2190
 109   2.0000      -2.727478       -74.2184
 110   2.0000      -1.149569       -31.2814
 111   2.0000      -1.141324       -31.0570
 112   2.0000      -1.131509       -30.7899
 113   2.0000      -1.126296       -30.6481
 114   2.0000      -1.117747       -30.4155
 115   2.0000      -1.058344       -28.7990
 116   2.0000      -1.044727       -28.4285
 117   2.0000      -1.023722       -27.8569
 118   2.0000      -1.021307       -27.7912
 119   2.0000      -1.020124       -27.7590
 120   2.0000      -1.012177       -27.5427
 121   2.0000      -1.011499       -27.5243
 122   2.0000      -1.011018       -27.5112
 123   2.0000      -1.006982       -27.4014
 124   2.0000      -1.000998       -27.2386
 125   2.0000      -1.000721       -27.2310
 126   2.0000      -0.994034       -27.0490
 127   2.0000      -0.993315       -27.0295
 128   2.0000      -0.993034       -27.0218
 129   2.0000      -0.986164       -26.8349
 130   2.0000      -0.978833       -26.6354
 131   2.0000      -0.975842       -26.5540
 132   2.0000      -0.941652       -25.6237
 133   2.0000      -0.926618       -25.2146
 134   2.0000      -0.917226       -24.9590
 135   2.0000      -0.916040       -24.9267
 136   2.0000      -0.905670       -24.6445
 137   2.0000      -0.905510       -24.6402
 138   2.0000      -0.899347       -24.4725
 139   2.0000      -0.891089       -24.2478
 140   2.0000      -0.883045       -24.0289
 141   2.0000      -0.876932       -23.8625
 142   2.0000      -0.873198       -23.7609
 143   2.0000      -0.862504       -23.4699
 144   2.0000      -0.849422       -23.1140
 145   2.0000      -0.846991       -23.0478
 146   2.0000      -0.838185       -22.8082
 147   2.0000      -0.835763       -22.7423
 148   2.0000      -0.832936       -22.6653
 149   2.0000      -0.826570       -22.4921
 150   2.0000      -0.820105       -22.3162
 151   2.0000      -0.810803       -22.0631
 152   2.0000      -0.798369       -21.7247
 153   2.0000      -0.789560       -21.4850
 154   2.0000      -0.774711       -21.0810
 155   2.0000      -0.758223       -20.6323
 156   2.0000      -0.752983       -20.4897
 157   2.0000      -0.746612       -20.3163
 158   2.0000      -0.740350       -20.1460
 159   2.0000      -0.727893       -19.8070
 160   2.0000      -0.720616       -19.6090
 161   2.0000      -0.713577       -19.4174
 162   2.0000      -0.707113       -19.2415
 163   2.0000      -0.701816       -19.0974
 164   2.0000      -0.699356       -19.0304
 165   2.0000      -0.694186       -18.8898
 166   2.0000      -0.688394       -18.7321
 167   2.0000      -0.681341       -18.5402
 168   2.0000      -0.673995       -18.3403
 169   2.0000      -0.669889       -18.2286
 170   2.0000      -0.668115       -18.1803
 171   2.0000      -0.656720       -17.8703
 172   2.0000      -0.653994       -17.7961
 173   2.0000      -0.649472       -17.6730
 174   2.0000      -0.644271       -17.5315
 175   2.0000      -0.638854       -17.3841
 176   2.0000      -0.631345       -17.1798
 177   2.0000      -0.630382       -17.1536
 178   2.0000      -0.630199       -17.1486
 179   2.0000      -0.628835       -17.1115
 180   2.0000      -0.620769       -16.8920
 181   2.0000      -0.614602       -16.7242
 182   2.0000      -0.601601       -16.3704
 183   2.0000      -0.598084       -16.2747
 184   2.0000      -0.594544       -16.1784
 185   2.0000      -0.590141       -16.0585
 186   2.0000      -0.589252       -16.0343
 187   2.0000      -0.589129       -16.0310
 188   2.0000      -0.580858       -15.8059
 189   2.0000      -0.576434       -15.6856
 190   2.0000      -0.565581       -15.3903
 191   2.0000      -0.564847       -15.3703
 192   2.0000      -0.554948       -15.1009
 193   2.0000      -0.553303       -15.0561
 194   2.0000      -0.544656       -14.8208
 195   2.0000      -0.539075       -14.6690
 196   2.0000      -0.537183       -14.6175
 197   2.0000      -0.536978       -14.6119
 198   2.0000      -0.535083       -14.5603
 199   2.0000      -0.531990       -14.4762
 200   2.0000      -0.530485       -14.4352
 201   2.0000      -0.525908       -14.3107
 202   2.0000      -0.522895       -14.2287
 203   2.0000      -0.520653       -14.1677
 204   2.0000      -0.512927       -13.9575
 205   2.0000      -0.511100       -13.9077
 206   2.0000      -0.507490       -13.8095
 207   2.0000      -0.506943       -13.7946
 208   2.0000      -0.505921       -13.7668
 209   2.0000      -0.505345       -13.7511
 210   2.0000      -0.497303       -13.5323
 211   2.0000      -0.494956       -13.4684
 212   2.0000      -0.492887       -13.4121
 213   2.0000      -0.491585       -13.3767
 214   2.0000      -0.490720       -13.3532
 215   2.0000      -0.490166       -13.3381
 216   2.0000      -0.487524       -13.2662
 217   2.0000      -0.485504       -13.2112
 218   2.0000      -0.483528       -13.1575
 219   2.0000      -0.479637       -13.0516
 220   2.0000      -0.478178       -13.0119
 221   2.0000      -0.476013       -12.9530
 222   2.0000      -0.469852       -12.7853
 223   2.0000      -0.466025       -12.6812
 224   2.0000      -0.462721       -12.5913
 225   2.0000      -0.460575       -12.5329
 226   2.0000      -0.459593       -12.5062
 227   2.0000      -0.456151       -12.4125
 228   2.0000      -0.455557       -12.3963
 229   2.0000      -0.455217       -12.3871
 230   2.0000      -0.452790       -12.3210
 231   2.0000      -0.451783       -12.2936
 232   2.0000      -0.450668       -12.2633
 233   2.0000      -0.449103       -12.2207
 234   2.0000      -0.445850       -12.1322
 235   2.0000      -0.444384       -12.0923
 236   2.0000      -0.441390       -12.0108
 237   2.0000      -0.441265       -12.0074
 238   2.0000      -0.437244       -11.8980
 239   2.0000      -0.435723       -11.8566
 240   2.0000      -0.435258       -11.8440
 241   2.0000      -0.432425       -11.7669
 242   2.0000      -0.430741       -11.7210
 243   2.0000      -0.426649       -11.6097
 244   2.0000      -0.425911       -11.5896
 245   2.0000      -0.423251       -11.5172
 246   2.0000      -0.422713       -11.5026
 247   2.0000      -0.419089       -11.4040
 248   2.0000      -0.417920       -11.3722
 249   2.0000      -0.413172       -11.2430
 250   2.0000      -0.410749       -11.1770
 251   2.0000      -0.409869       -11.1531
 252   2.0000      -0.406389       -11.0584
 253   2.0000      -0.406033       -11.0487
 254   2.0000      -0.400301       -10.8927
 255   2.0000      -0.394202       -10.7268
 256   2.0000      -0.386685       -10.5222
 257   2.0000      -0.383014       -10.4223
 258   2.0000      -0.380491       -10.3537
 259   2.0000      -0.373335       -10.1589
 260   2.0000      -0.369389       -10.0516
 261   2.0000      -0.363055        -9.8792
 262   2.0000      -0.361079        -9.8255
 263   2.0000      -0.360219        -9.8021
 264   2.0000      -0.359526        -9.7832
 265   2.0000      -0.357996        -9.7416
 266   2.0000      -0.348591        -9.4857
 267   2.0000      -0.346121        -9.4184
 268   2.0000      -0.345292        -9.3959
 269   2.0000      -0.339449        -9.2369
 270   2.0000      -0.333153        -9.0656
 271   2.0000      -0.332441        -9.0462
 272   2.0000      -0.322874        -8.7858
 273   2.0000      -0.312998        -8.5171
 274   2.0000      -0.296178        -8.0594
 275   2.0000      -0.290819        -7.9136
 276   2.0000      -0.267248        -7.2722
 277   2.0000      -0.226903        -6.1743
 278   0.0000      -0.149290        -4.0624
 279   0.0000      -0.115998        -3.1565
 280   0.0000      -0.101092        -2.7509
 281   0.0000      -0.068926        -1.8756
 282   0.0000      -0.059604        -1.6219

MULLIKEN ATOMIC CHARGES
-----------------------
   0 C :    0.334214
   1 C :   -0.362563
   2 C :   -0.193902
   3 N :    0.142641
   4 C :   -0.180369
   5 N :    0.113258
   6 C :    0.015334
   7 C :   -0.010326
   8 C :   -0.079477
   9 C :    0.120232
  10 C :   -0.089784
  11 C :   -0.028696
  12 S :    0.185153
  13 C :   -0.123036
  14 C :    0.035500
  15 Br:    0.021761
  16 C :    0.138759
  17 O :   -0.159069
  18 C :   -0.072666
  19 C :   -0.060675
  20 C :   -0.005812
  21 C :    0.002672
  22 C :    0.030862
  23 C :    0.043003
  24 C :   -0.040470
  25 S :    0.091512
  26 C :   -0.009710
  27 C :    0.039538
  28 C :    0.033451
  29 C :    0.011389
  30 S :    0.141736
  31 C :   -0.110936
  32 C :    0.101964
  33 C :   -0.044984
  34 C :   -0.058003
  35 N :   -0.006124
  36 C :   -0.088333
  37 C :   -0.145761
  38 N :    0.051463
  39 C :   -0.221636
  40 N :    0.239849
  41 C :   -0.230274
  42 N :    0.250592
  43 C :    0.203709
  44 C :   -0.008888
  45 C :    0.059741
  46 N :   -0.343194
  47 S :    0.601202
  48 N :   -0.292440
  49 C :   -0.187703
  50 S :    0.205935
  51 C :   -0.182244
  52 C :    0.072383
  53 C :    0.017598
  54 C :    0.025642
  55 C :    0.016209
  56 C :    0.063687
  57 C :   -0.062858
  58 C :    0.013226
  59 N :    0.054147
  60 C :   -0.141852
  61 C :   -0.150234
  62 N :    0.085613
  63 C :   -0.196456
  64 N :    0.233485
  65 C :   -0.198386
  66 N :    0.232838
  67 C :   -0.081894
  68 C :    0.097710
  69 C :   -0.014877
  70 N :   -0.247251
  71 S :    0.552732
  72 N :   -0.270117
  73 H :   -0.012810
  74 H :   -0.007503
  75 H :   -0.003954
  76 H :    0.020270
  77 H :    0.020734
  78 H :    0.004946
  79 H :   -0.001711
  80 H :   -0.006456
  81 H :    0.003353
  82 H :    0.009283
  83 H :    0.001729
  84 H :    0.008148
  85 H :   -0.015768
Sum of atomic charges:   -0.0000000

LOEWDIN ATOMIC CHARGES
----------------------
   0 C :    0.073963
   1 C :   -0.155221
   2 C :   -0.020181
   3 N :   -0.062751
   4 C :   -0.013230
   5 N :   -0.084565
   6 C :   -0.019402
   7 C :   -0.049567
   8 C :    0.019329
   9 C :   -0.033907
  10 C :   -0.144944
  11 C :   -0.011859
  12 S :    0.431938
  13 C :   -0.272740
  14 C :   -0.070860
  15 Br:    0.135106
  16 C :    0.082051
  17 O :   -0.153326
  18 C :   -0.097400
  19 C :    0.041161
  20 C :   -0.055501
  21 C :   -0.109386
  22 C :   -0.032587
  23 C :   -0.010741
  24 C :   -0.175787
  25 S :    0.418945
  26 C :   -0.169287
  27 C :   -0.030319
  28 C :   -0.013122
  29 C :   -0.140293
  30 S :    0.464421
  31 C :   -0.017961
  32 C :   -0.040159
  33 C :    0.001627
  34 C :   -0.011170
  35 N :   -0.019383
  36 C :   -0.018450
  37 C :   -0.032625
  38 N :    0.000816
  39 C :   -0.038340
  40 N :   -0.006923
  41 C :   -0.036401
  42 N :    0.000432
  43 C :   -0.041840
  44 C :   -0.036720
  45 C :   -0.034451
  46 N :   -0.291958
  47 S :    0.709548
  48 N :   -0.277119
  49 C :   -0.161272
  50 S :    0.496020
  51 C :   -0.188808
  52 C :   -0.020841
  53 C :   -0.029260
  54 C :   -0.009238
  55 C :   -0.007856
  56 C :   -0.023994
  57 C :   -0.007853
  58 C :   -0.010880
  59 N :   -0.000992
  60 C :   -0.025409
  61 C :   -0.032856
  62 N :    0.010390
  63 C :   -0.036202
  64 N :   -0.007221
  65 C :   -0.034755
  66 N :   -0.003133
  67 C :   -0.004852
  68 C :   -0.048481
  69 C :   -0.041855
  70 N :   -0.273610
  71 S :    0.696591
  72 N :   -0.288866
  73 H :    0.039937
  74 H :    0.040702
  75 H :    0.038434
  76 H :    0.028759
  77 H :    0.040859
  78 H :    0.040467
  79 H :    0.037434
  80 H :    0.034403
  81 H :    0.039048
  82 H :    0.043778
  83 H :    0.040016
  84 H :    0.033588
  85 H :    0.048945

  Mayer bond orders larger than 0.100000
B(  0-C ,  1-C ) :   1.5722 B(  0-C ,  6-C ) :   0.9908 B(  0-C , 18-C ) :   1.1167
B(  1-C ,  2-C ) :   1.1506 B(  1-C ,  4-C ) :   1.1555 B(  2-C ,  3-N ) :   2.9627
B(  4-C ,  5-N ) :   2.9576 B(  6-C ,  7-C ) :   1.2741 B(  6-C , 11-C ) :   1.4166
B(  7-C ,  8-C ) :   1.4271 B(  7-C , 16-C ) :   0.9344 B(  8-C ,  9-C ) :   1.2390
B(  8-C , 73-H ) :   1.0176 B(  9-C , 10-C ) :   1.3113 B(  9-C , 14-C ) :   1.1625
B( 10-C , 11-C ) :   1.3207 B( 10-C , 12-S ) :   1.0865 B( 11-C , 74-H ) :   0.9801
B( 12-S , 13-C ) :   1.0866 B( 13-C , 14-C ) :   1.6178 B( 13-C , 15-Br) :   1.0180
B( 14-C , 75-H ) :   1.0010 B( 16-C , 17-O ) :   2.1999 B( 16-C , 18-C ) :   0.9570
B( 18-C , 19-C ) :   1.4876 B( 19-C , 20-C ) :   1.2570 B( 19-C , 76-H ) :   0.9375
B( 20-C , 21-C ) :   1.4034 B( 20-C , 77-H ) :   0.9845 B( 21-C , 22-C ) :   1.1921
B( 21-C , 25-S ) :   1.0826 B( 22-C , 23-C ) :   1.5152 B( 22-C , 78-H ) :   1.0020
B( 23-C , 24-C ) :   1.2413 B( 23-C , 79-H ) :   0.9963 B( 24-C , 25-S ) :   1.0688
B( 24-C , 26-C ) :   1.4089 B( 26-C , 27-C ) :   1.2179 B( 26-C , 30-S ) :   1.0501
B( 27-C , 28-C ) :   1.5380 B( 27-C , 80-H ) :   0.9959 B( 28-C , 29-C ) :   1.1814
B( 28-C , 81-H ) :   1.0022 B( 29-C , 30-S ) :   1.0727 B( 29-C , 31-C ) :   1.4214
B( 31-C , 32-C ) :   1.3035 B( 31-C , 82-H ) :   0.9453 B( 32-C , 33-C ) :   1.1822
B( 32-C , 43-C ) :   0.1102 B( 32-C , 45-C ) :   1.1314 B( 33-C , 34-C ) :   1.1272
B( 33-C , 38-N ) :   1.4904 B( 34-C , 35-N ) :   1.4113 B( 34-C , 43-C ) :   1.2216
B( 35-N , 36-C ) :   1.6844 B( 36-C , 37-C ) :   1.2393 B( 36-C , 41-C ) :   1.1575
B( 37-C , 38-N ) :   1.6918 B( 37-C , 39-C ) :   1.1673 B( 39-C , 40-N ) :   3.0454
B( 41-C , 42-N ) :   3.0410 B( 43-C , 44-C ) :   1.1913 B( 43-C , 49-C ) :   1.2133
B( 44-C , 45-C ) :   1.1180 B( 44-C , 48-N ) :   1.5267 B( 45-C , 46-N ) :   1.4705
B( 46-N , 47-S ) :   1.2591 B( 46-N , 48-N ) :   0.1356 B( 47-S , 48-N ) :   1.2684
B( 49-C , 50-S ) :   1.1190 B( 49-C , 53-C ) :   1.4074 B( 50-S , 51-C ) :   1.0680
B( 51-C , 52-C ) :   1.4195 B( 51-C , 54-C ) :   1.0286 B( 52-C , 53-C ) :   1.3086
B( 52-C , 83-H ) :   1.0053 B( 53-C , 84-H ) :   0.9801 B( 54-C , 55-C ) :   2.2408
B( 55-C , 56-C ) :   0.9565 B( 56-C , 57-C ) :   1.2875 B( 56-C , 67-C ) :   0.1338
B( 56-C , 69-C ) :   1.2452 B( 57-C , 58-C ) :   1.1259 B( 57-C , 62-N ) :   1.4929
B( 58-C , 59-N ) :   1.3364 B( 58-C , 67-C ) :   1.2972 B( 59-N , 60-C ) :   1.7900
B( 60-C , 61-C ) :   1.1854 B( 60-C , 65-C ) :   1.1472 B( 61-C , 62-N ) :   1.7426
B( 61-C , 63-C ) :   1.1512 B( 63-C , 64-N ) :   3.0487 B( 65-C , 66-N ) :   3.0528
B( 67-C , 68-C ) :   1.1711 B( 67-C , 85-H ) :   1.0632 B( 68-C , 69-C ) :   1.1186
B( 68-C , 72-N ) :   1.4582 B( 69-C , 70-N ) :   1.5436 B( 70-N , 71-S ) :   1.2983
B( 70-N , 72-N ) :   0.1577 B( 71-S , 72-N ) :   1.3099

-----------------------------------------------------------------------------
         ABSORPTION SPECTRUM VIA TRANSITION ELECTRIC DIPOLE MOMENTS
-----------------------------------------------------------------------------
State   Energy  Wavelength   fosc         T2         TX        TY        TZ
        (cm-1)    (nm)                  (au**2)     (au)      (au)      (au)
-----------------------------------------------------------------------------
   0    4063.8   2460.7   0.392162788  31.76906   5.43041   1.45616   0.39920
   1   12569.4    795.6   0.102308183   2.67961  -1.58633  -0.39190  -0.09785
   2   13128.5    761.7   0.537995096  13.49082  -2.31272   2.53378   1.31230
   3   13576.4    736.6   0.431988940  10.47522   1.21205   2.72761   1.25153
   4   18654.2    536.1   0.067134025   1.18479  -0.91115  -0.54931  -0.22991
   5   20194.3    495.2   0.093319292   1.52131  -0.28739  -1.09800  -0.48282
   6   20621.1    484.9   0.008613138   0.13751   0.35842   0.09355  -0.01705
   7   21199.1    471.7   0.259463980   4.02936  -1.99423   0.14773   0.17491
   8   22570.0    443.1   0.099440026   1.45046  -1.01824   0.52119   0.37683
   9   23059.5    433.7   0.219071250   3.12760  -0.68787   1.45334   0.73637
  10   23627.7    423.2   0.017786869   0.24783   0.41785  -0.24672  -0.11118
  11   23907.5    418.3   0.106420032   1.46543  -1.15338   0.31601   0.18782
  12   24424.5    409.4   0.018637754   0.25121  -0.20193  -0.38600  -0.24788
  13   24696.8    404.9   0.003615706   0.04820   0.02957  -0.20887  -0.06080
  14   24713.4    404.6   0.008546259   0.11385  -0.07284   0.32243   0.06768
  15   24924.9    401.2   0.131633820   1.73864  -0.99844   0.75628   0.41205
  16   24991.5    400.1   0.006121698   0.08064   0.27033  -0.03220  -0.08080
  17   26089.0    383.3   0.263733117   3.32800  -0.79345   1.47527   0.72250
  18   26436.7    378.3   0.008131432   0.10126   0.07826  -0.29905  -0.07551
  19   26854.8    372.4   0.003804756   0.04664   0.05236   0.11079  -0.17784
  20   27239.7    367.1   0.022334668   0.26993   0.51396   0.06045   0.04609
  21   27382.8    365.2   0.014355381   0.17259  -0.02236   0.37423   0.17900
  22   28569.7    350.0   0.004972526   0.05730  -0.14941   0.09482   0.16120
  23   28690.2    348.6   0.017928354   0.20572  -0.32853   0.27462   0.14960
  24   28895.3    346.1   0.164322084   1.87217  -1.34849   0.09023   0.21353
  25   29266.5    341.7   0.320654517   3.60697  -0.44112  -1.67503  -0.77889
  26   29692.0    336.8   0.013777138   0.15275   0.01716  -0.36092  -0.14898
  27   30006.3    333.3   0.271972408   2.98393  -0.84956  -1.37764  -0.60357
  28   30156.0    331.6   0.259952298   2.83789   1.15918   1.04518   0.63387
  29   30819.4    324.5   0.094985310   1.01463  -0.63916   0.52756   0.57253
  30   31086.0    321.7   0.037288826   0.39490  -0.11757  -0.58119  -0.20809
  31   31337.6    319.1   0.008475070   0.08903  -0.22479  -0.05437   0.18854
  32   31693.9    315.5   0.005278659   0.05483  -0.00632   0.22124   0.07645
  33   31706.4    315.4   0.228286139   2.37032  -0.23889  -1.26513  -0.84421
  34   31731.9    315.1   0.126461396   1.31201  -0.53411  -0.86341  -0.53034
  35   31873.5    313.7   0.112977500   1.16691  -0.75367  -0.68793  -0.35445
  36   32271.6    309.9   0.000032929   0.00034  -0.00028  -0.00540   0.01751
  37   32417.4    308.5   0.023972353   0.24345  -0.03853  -0.43226  -0.23477
  38   32669.4    306.1   0.000847798   0.00854   0.03452   0.04973  -0.06985
  39   33117.1    302.0   0.308374774   3.06550   1.54047   0.73804   0.38439
  40   33340.8    299.9   0.078941075   0.77948  -0.10557   0.78278   0.39445
  41   33765.7    296.2   0.007928960   0.07731  -0.27065  -0.05968  -0.02221
  42   34195.5    292.4   0.274258536   2.64038  -1.20574  -1.04614  -0.30356
  43   34574.7    289.2   0.006284570   0.05984  -0.12074   0.16704   0.13175
  44   34734.4    287.9   0.001998875   0.01895   0.05572   0.05863  -0.11137
  45   34886.6    286.6   0.016985505   0.16029   0.28619   0.24053   0.14328
  46   35120.9    284.7   0.099122083   0.92914  -0.66100   0.51282   0.47877
  47   35283.4    283.4   0.002583672   0.02411  -0.12941  -0.06648  -0.05422
  48   35327.0    283.1   0.084736204   0.78966   0.70113   0.48147   0.25741
  49   36158.1    276.6   0.076676429   0.69812   0.05951  -0.64176  -0.53172
  50   36287.2    275.6   0.007739091   0.07021   0.00858   0.24779   0.09348
  51   36574.3    273.4   0.030458389   0.27416  -0.17505   0.34459   0.35324
  52   36647.5    272.9   0.263320511   2.36546   0.16716  -1.20881  -0.93611
  53   36744.2    272.2   0.001921264   0.01721  -0.03262  -0.10529  -0.07116
  54   36894.5    271.0   0.060994692   0.54426   0.21387   0.54243   0.45198
  55   36899.9    271.0   0.118646934   1.05854   0.26690   0.80588   0.58126
  56   37076.0    269.7   0.009645984   0.08565  -0.19571  -0.09216   0.19712
  57   37194.0    268.9   0.072954003   0.64573   0.73825  -0.27599  -0.15668
  58   37559.1    266.2   0.151330101   1.32643  -0.52765  -0.87473  -0.53185
  59   37743.7    264.9   0.112872591   0.98451   0.59678   0.69992   0.37213
  60   38088.9    262.5   0.115227196   0.99594   0.97486   0.19159   0.09424
  61   38264.4    261.3   0.124412144   1.07039   0.26413   0.82417   0.56690
  62   38564.2    259.3   0.003684639   0.03145   0.02789   0.15828   0.07499
  63   38652.9    258.7   0.024540139   0.20901   0.21408   0.35443   0.19382
  64   38922.9    256.9   0.054477555   0.46077  -0.32251  -0.54366  -0.24737
  65   39210.6    255.0   0.001908127   0.01602  -0.03251  -0.01140  -0.12179
  66   39604.5    252.5   0.028378272   0.23589   0.46257   0.13692  -0.05635
  67   39634.9    252.3   0.160244558   1.33101   0.53563  -0.88543  -0.51001
  68   39774.9    251.4   0.002515996   0.02082   0.12944  -0.00162  -0.06377
  69   39855.9    250.9   0.034143065   0.28202   0.50733  -0.09017   0.12849
  70   40061.2    249.6   0.054947071   0.45154   0.15803  -0.54105  -0.36582

FINAL SINGLE POINT ENERGY     -7751.617304553655

DIPOLE MOMENT
-------------
                                X             Y             Z
Electronic contribution:    -51.83570     -97.70607     -39.68556
Nuclear contribution   :     47.44496      99.69710      41.37283
                        -----------------------------------------
Total Dipole Moment    :     -4.39075       1.99104       1.68727
                        -----------------------------------------
Magnitude (a.u.)       :      5.10782
Magnitude (Debye)      :     12.98304

Rotational constants in cm-1:     0.000831     0.000227     0.000179
Rotational constants in MHz :    24.907069     6.796824     5.353458

                             ****ORCA TERMINATED NORMALLY****
TOTAL RUN TIME: 0 days 0 hours 10 minutes 5 seconds 246 msec
