                         Program Version 4.2.0 -  RELEASE  -
|  1> # ORCA input file
|  2> # SCF done       -165.679281062367          0.000222543057
|  3> ! CAM-B3LYP def2-SVP def2/J RIJCOSX Grid4 TightSCF
|  4> %maxcore 5000
|  5> %tddft
|  6>     Mode sTDDFT
|  7>     Ethresh 5.0
|  8>     maxcore 5000
|  9> end
| 10>
| 11> %pal
| 12>   nprocs 6
| 13>   end
| 14> * xyz 0 1
| 15>    C       -4.99982        -3.75695         7.84087
| 16>    C       -4.28234        -3.46302         6.70232
| 17>    C       -2.89585        -3.66480         6.57405
| 18>    N       -1.76114        -3.76778         6.42429
| 19>    C       -4.80819        -2.89064         5.52929
| 20>    N       -5.16357        -2.45476         4.52635
| 21>    C       -4.46636        -4.43231         9.02288
| 22>    C       -5.46480        -4.43968        10.02653
| 23>    C       -5.27406        -5.00750        11.26134
| 24>    C       -4.05312        -5.64578        11.50303
| 25>    C       -3.07885        -5.67339        10.48005
| 26>    C       -3.25575        -5.05731         9.24579
| 27>    S       -1.66803        -6.55829        10.97189
| 28>    C       -2.38733        -6.85191        12.53131
| 29>    C       -3.62495        -6.32508        12.67585
| 30>   Br       -1.42966        -7.81155        13.82099
| 31>    C       -6.69440        -3.82459         9.48569
| 32>    O       -7.77341        -3.76195        10.05526
| 33>    C       -6.37291        -3.42514         8.11130
| 34>    C       -7.29014        -2.88070         7.22742
| 35>    C       -8.56450        -2.44585         7.56152
| 36>    C       -9.49683        -2.06789         6.60883
| 37>    C      -10.75613        -1.46848         6.83301
| 38>    C      -11.47445        -1.23859         5.69430
| 39>    C      -10.83406        -1.68980         4.52172
| 40>    S       -9.25628        -2.34480         4.90352
| 41>    C      -11.30632        -1.75045         3.22469
| 42>    C      -12.50780        -1.21604         2.69604
| 43>    C      -12.69340        -1.51452         1.38450
| 44>    C      -11.66504        -2.32745         0.82484
| 45>    S      -10.42593        -2.66107         2.00939
| 46>    C      -11.57645        -2.84981        -0.42581
| 47>    C      -10.48431        -3.71603        -0.76937
| 48>    N      -10.43831        -4.19809        -2.01295
| 49>    C       -9.42978        -5.00675        -2.29341
| 50>    C       -8.46898        -5.35032        -1.36183
| 51>    C       -8.58263        -4.80269        -0.06857
| 52>    N       -9.60454        -3.98023         0.19713
| 53>    C       -7.61327        -5.12961         0.93605
| 54>    C       -7.68208        -4.73181         2.22892
| 55>    C       -6.75251        -5.05393         3.24970
| 56>    S       -7.41957        -5.34106         4.81844
| 57>    C       -5.95008        -6.02317         5.43397
| 58>    C       -4.91376        -5.92145         4.48418
| 59>    C       -5.37315        -5.31857         3.25256
| 60>    C       -4.44696        -4.90673         2.26088
| 61>    C       -4.80175        -3.99027         1.13081
| 62>    C       -3.13555        -5.26933         2.42984
| 63>    C       -2.69817        -5.94026         3.57379
| 64>    C       -3.53104        -6.22402         4.62735
| 65>    C       -2.89522        -6.78070         5.86466
| 66>    C       -6.06958        -6.50380         6.77573
| 67>    C       -5.44880        -7.55635         7.35234
| 68>    C       -5.51769        -7.94457         8.72456
| 69>    C       -4.55321        -8.80719         9.32636
| 70>    C       -4.78317        -8.98391        10.67620
| 71>    C       -5.96760        -8.24010        10.98640
| 72>    C       -6.39271        -7.59148         9.74684
| 73>    N       -7.53549        -6.85863         9.78565
| 74>    C       -8.20146        -6.71082        10.94326
| 75>    N       -7.85490        -7.27279        12.06146
| 76>    C       -6.75861        -8.04989        12.09027
| 77>    C       -3.93549        -9.78015        11.52822
| 78>    C       -4.00464        -9.92797        12.84821
| 79>    H       -6.04648        -4.97663        12.01460
| 80>    H       -2.46910        -5.08264         8.51029
| 81>    H       -4.21545        -6.41023        13.56948
| 82>    H       -6.99971        -2.77859         6.18950
| 83>    H       -8.85046        -2.39087         8.60197
| 84>    H      -11.08833        -1.21738         7.82484
| 85>    H      -12.45056        -0.78761         5.67286
| 86>    H      -13.18376        -0.62110         3.28521
| 87>    H      -13.53562        -1.19872         0.79421
| 88>    H      -12.31841        -2.65217        -1.18188
| 89>    H       -9.40234        -5.38942        -3.30599
| 90>    H       -7.65900        -6.01791        -1.60771
| 91>    H       -6.80174        -5.76422         0.61235
| 92>    H       -8.57252        -4.21194         2.55316
| 93>    H       -5.04109        -4.53638         0.21952
| 94>    H       -3.94790        -3.35110         0.91496
| 95>    H       -5.64809        -3.36261         1.39240
| 96>    H       -2.40523        -4.97712         1.68947
| 97>    H       -1.64703        -6.17002         3.66543
| 98>    H       -1.85711        -6.45811         5.91013
| 99>    H       -2.90085        -7.87108         5.84084
|100>    H       -3.39956        -6.44650         6.76520
|101>    H       -6.81057        -5.95659         7.34839
|102>    H       -4.79690        -8.16890         6.74964
|103>    H       -3.73246        -9.24157         8.78292
|104>    H       -7.88019        -6.41228         8.94417
|105>    H       -9.07725        -6.08001        10.93464
|106>    H       -6.56391        -8.50950        13.04772
|107>    H       -3.14937       -10.29708        10.98935
|108>    H       -4.74264        -9.43541        13.45480
|109>    H       -3.30434       -10.55396        13.37342
|110> *
|111>
|112>                          ****END OF INPUT****

CARTESIAN COORDINATES (ANGSTROEM)
---------------------------------
  C     -4.999820   -3.756950    7.840870
  C     -4.282340   -3.463020    6.702320
  C     -2.895850   -3.664800    6.574050
  N     -1.761140   -3.767780    6.424290
  C     -4.808190   -2.890640    5.529290
  N     -5.163570   -2.454760    4.526350
  C     -4.466360   -4.432310    9.022880
  C     -5.464800   -4.439680   10.026530
  C     -5.274060   -5.007500   11.261340
  C     -4.053120   -5.645780   11.503030
  C     -3.078850   -5.673390   10.480050
  C     -3.255750   -5.057310    9.245790
  S     -1.668030   -6.558290   10.971890
  C     -2.387330   -6.851910   12.531310
  C     -3.624950   -6.325080   12.675850
  Br    -1.429660   -7.811550   13.820990
  C     -6.694400   -3.824590    9.485690
  O     -7.773410   -3.761950   10.055260
  C     -6.372910   -3.425140    8.111300
  C     -7.290140   -2.880700    7.227420
  C     -8.564500   -2.445850    7.561520
  C     -9.496830   -2.067890    6.608830
  C    -10.756130   -1.468480    6.833010
  C    -11.474450   -1.238590    5.694300
  C    -10.834060   -1.689800    4.521720
  S     -9.256280   -2.344800    4.903520
  C    -11.306320   -1.750450    3.224690
  C    -12.507800   -1.216040    2.696040
  C    -12.693400   -1.514520    1.384500
  C    -11.665040   -2.327450    0.824840
  S    -10.425930   -2.661070    2.009390
  C    -11.576450   -2.849810   -0.425810
  C    -10.484310   -3.716030   -0.769370
  N    -10.438310   -4.198090   -2.012950
  C     -9.429780   -5.006750   -2.293410
  C     -8.468980   -5.350320   -1.361830
  C     -8.582630   -4.802690   -0.068570
  N     -9.604540   -3.980230    0.197130
  C     -7.613270   -5.129610    0.936050
  C     -7.682080   -4.731810    2.228920
  C     -6.752510   -5.053930    3.249700
  S     -7.419570   -5.341060    4.818440
  C     -5.950080   -6.023170    5.433970
  C     -4.913760   -5.921450    4.484180
  C     -5.373150   -5.318570    3.252560
  C     -4.446960   -4.906730    2.260880
  C     -4.801750   -3.990270    1.130810
  C     -3.135550   -5.269330    2.429840
  C     -2.698170   -5.940260    3.573790
  C     -3.531040   -6.224020    4.627350
  C     -2.895220   -6.780700    5.864660
  C     -6.069580   -6.503800    6.775730
  C     -5.448800   -7.556350    7.352340
  C     -5.517690   -7.944570    8.724560
  C     -4.553210   -8.807190    9.326360
  C     -4.783170   -8.983910   10.676200
  C     -5.967600   -8.240100   10.986400
  C     -6.392710   -7.591480    9.746840
  N     -7.535490   -6.858630    9.785650
  C     -8.201460   -6.710820   10.943260
  N     -7.854900   -7.272790   12.061460
  C     -6.758610   -8.049890   12.090270
  C     -3.935490   -9.780150   11.528220
  C     -4.004640   -9.927970   12.848210
  H     -6.046480   -4.976630   12.014600
  H     -2.469100   -5.082640    8.510290
  H     -4.215450   -6.410230   13.569480
  H     -6.999710   -2.778590    6.189500
  H     -8.850460   -2.390870    8.601970
  H    -11.088330   -1.217380    7.824840
  H    -12.450560   -0.787610    5.672860
  H    -13.183760   -0.621100    3.285210
  H    -13.535620   -1.198720    0.794210
  H    -12.318410   -2.652170   -1.181880
  H     -9.402340   -5.389420   -3.305990
  H     -7.659000   -6.017910   -1.607710
  H     -6.801740   -5.764220    0.612350
  H     -8.572520   -4.211940    2.553160
  H     -5.041090   -4.536380    0.219520
  H     -3.947900   -3.351100    0.914960
  H     -5.648090   -3.362610    1.392400
  H     -2.405230   -4.977120    1.689470
  H     -1.647030   -6.170020    3.665430
  H     -1.857110   -6.458110    5.910130
  H     -2.900850   -7.871080    5.840840
  H     -3.399560   -6.446500    6.765200
  H     -6.810570   -5.956590    7.348390
  H     -4.796900   -8.168900    6.749640
  H     -3.732460   -9.241570    8.782920
  H     -7.880190   -6.412280    8.944170
  H     -9.077250   -6.080010   10.934640
  H     -6.563910   -8.509500   13.047720
  H     -3.149370  -10.297080   10.989350
  H     -4.742640   -9.435410   13.454800
  H     -3.304340  -10.553960   13.373420

 Total Charge           Charge          ....    0
 Multiplicity           Mult            ....    1
 Number of Electrons    NEL             ....  492
 Basis Dimension        Dim             .... 1085

ORBITAL ENERGIES
----------------

  NO   OCC          E(Eh)            E(eV)
   0   2.0000    -482.872908    -13139.6398
   1   2.0000     -88.962205     -2420.7847
   2   2.0000     -88.959700     -2420.7165
   3   2.0000     -88.954863     -2420.5849
   4   2.0000     -88.954208     -2420.5671
   5   2.0000     -62.550382     -1702.0824
   6   2.0000     -56.384305     -1534.2950
   7   2.0000     -56.381689     -1534.2238
   8   2.0000     -56.381585     -1534.2209
   9   2.0000     -19.205732      -522.6145
  10   2.0000     -14.499654      -394.5556
  11   2.0000     -14.410319      -392.1247
  12   2.0000     -14.408233      -392.0679
  13   2.0000     -14.403898      -391.9500
  14   2.0000     -14.399645      -391.8343
  15   2.0000     -14.397989      -391.7892
  16   2.0000     -10.360402      -281.9209
  17   2.0000     -10.354858      -281.7700
  18   2.0000     -10.344028      -281.4753
  19   2.0000     -10.342776      -281.4412
  20   2.0000     -10.328538      -281.0538
  21   2.0000     -10.327795      -281.0336
  22   2.0000     -10.323110      -280.9061
  23   2.0000     -10.320881      -280.8455
  24   2.0000     -10.320648      -280.8391
  25   2.0000     -10.319902      -280.8188
  26   2.0000     -10.319644      -280.8118
  27   2.0000     -10.319500      -280.8079
  28   2.0000     -10.318157      -280.7713
  29   2.0000     -10.316376      -280.7229
  30   2.0000     -10.311153      -280.5807
  31   2.0000     -10.307119      -280.4710
  32   2.0000     -10.303856      -280.3822
  33   2.0000     -10.303554      -280.3740
  34   2.0000     -10.303231      -280.3652
  35   2.0000     -10.302644      -280.3492
  36   2.0000     -10.300907      -280.3019
  37   2.0000     -10.299106      -280.2529
  38   2.0000     -10.294134      -280.1176
  39   2.0000     -10.292815      -280.0817
  40   2.0000     -10.292339      -280.0688
  41   2.0000     -10.290925      -280.0303
  42   2.0000     -10.287627      -279.9406
  43   2.0000     -10.287446      -279.9356
  44   2.0000     -10.287034      -279.9244
  45   2.0000     -10.282623      -279.8044
  46   2.0000     -10.282404      -279.7984
  47   2.0000     -10.280324      -279.7418
  48   2.0000     -10.277698      -279.6704
  49   2.0000     -10.277669      -279.6696
  50   2.0000     -10.277162      -279.6558
  51   2.0000     -10.276638      -279.6415
  52   2.0000     -10.276217      -279.6301
  53   2.0000     -10.273919      -279.5675
  54   2.0000     -10.273567      -279.5580
  55   2.0000     -10.271408      -279.4992
  56   2.0000     -10.266642      -279.3695
  57   2.0000     -10.262795      -279.2649
  58   2.0000     -10.262058      -279.2448
  59   2.0000     -10.262054      -279.2447
  60   2.0000     -10.258531      -279.1488
  61   2.0000     -10.258507      -279.1482
  62   2.0000     -10.252688      -278.9898
  63   2.0000     -10.251384      -278.9543
  64   2.0000     -10.249213      -278.8953
  65   2.0000     -10.248898      -278.8867
  66   2.0000     -10.243697      -278.7452
  67   2.0000     -10.243356      -278.7359
  68   2.0000      -8.779728      -238.9085
  69   2.0000      -8.058088      -219.2717
  70   2.0000      -8.055339      -219.1969
  71   2.0000      -8.049725      -219.0441
  72   2.0000      -8.046941      -218.9684
  73   2.0000      -6.615925      -180.0285
  74   2.0000      -6.601448      -179.6345
  75   2.0000      -6.601394      -179.6331
  76   2.0000      -6.027780      -164.0242
  77   2.0000      -6.024897      -163.9458
  78   2.0000      -6.023541      -163.9089
  79   2.0000      -6.020805      -163.8344
  80   2.0000      -6.019315      -163.7939
  81   2.0000      -6.018677      -163.7765
  82   2.0000      -6.017171      -163.7355
  83   2.0000      -6.016724      -163.7234
  84   2.0000      -6.014596      -163.6655
  85   2.0000      -6.012621      -163.6117
  86   2.0000      -6.012256      -163.6018
  87   2.0000      -6.008035      -163.4870
  88   2.0000      -2.731863       -74.3378
  89   2.0000      -2.727751       -74.2259
  90   2.0000      -2.727640       -74.2229
  91   2.0000      -2.716180       -73.9110
  92   2.0000      -2.716156       -73.9104
  93   2.0000      -1.118892       -30.4466
  94   2.0000      -1.112569       -30.2745
  95   2.0000      -1.081311       -29.4240
  96   2.0000      -1.008809       -27.4511
  97   2.0000      -1.008227       -27.4353
  98   2.0000      -1.007724       -27.4216
  99   2.0000      -0.998445       -27.1691
 100   2.0000      -0.987915       -26.8825
 101   2.0000      -0.984964       -26.8022
 102   2.0000      -0.977810       -26.6076
 103   2.0000      -0.976946       -26.5841
 104   2.0000      -0.974570       -26.5194
 105   2.0000      -0.961993       -26.1772
 106   2.0000      -0.930117       -25.3098
 107   2.0000      -0.922052       -25.0903
 108   2.0000      -0.919349       -25.0168
 109   2.0000      -0.906429       -24.6652
 110   2.0000      -0.898887       -24.4600
 111   2.0000      -0.893356       -24.3094
 112   2.0000      -0.878917       -23.9165
 113   2.0000      -0.872655       -23.7461
 114   2.0000      -0.870869       -23.6976
 115   2.0000      -0.862721       -23.4758
 116   2.0000      -0.859799       -23.3963
 117   2.0000      -0.855288       -23.2736
 118   2.0000      -0.850829       -23.1522
 119   2.0000      -0.838009       -22.8034
 120   2.0000      -0.836419       -22.7601
 121   2.0000      -0.826217       -22.4825
 122   2.0000      -0.815402       -22.1882
 123   2.0000      -0.815024       -22.1779
 124   2.0000      -0.804715       -21.8974
 125   2.0000      -0.795312       -21.6415
 126   2.0000      -0.791193       -21.5295
 127   2.0000      -0.778262       -21.1776
 128   2.0000      -0.767406       -20.8822
 129   2.0000      -0.757269       -20.6063
 130   2.0000      -0.746142       -20.3036
 131   2.0000      -0.744996       -20.2724
 132   2.0000      -0.735806       -20.0223
 133   2.0000      -0.729555       -19.8522
 134   2.0000      -0.716386       -19.4939
 135   2.0000      -0.709808       -19.3148
 136   2.0000      -0.698567       -19.0090
 137   2.0000      -0.697204       -18.9719
 138   2.0000      -0.684734       -18.6326
 139   2.0000      -0.682751       -18.5786
 140   2.0000      -0.678034       -18.4502
 141   2.0000      -0.675786       -18.3891
 142   2.0000      -0.675022       -18.3683
 143   2.0000      -0.658526       -17.9194
 144   2.0000      -0.649229       -17.6664
 145   2.0000      -0.643885       -17.5210
 146   2.0000      -0.638675       -17.3792
 147   2.0000      -0.633158       -17.2291
 148   2.0000      -0.631289       -17.1782
 149   2.0000      -0.626821       -17.0567
 150   2.0000      -0.617815       -16.8116
 151   2.0000      -0.613905       -16.7052
 152   2.0000      -0.610199       -16.6043
 153   2.0000      -0.602599       -16.3976
 154   2.0000      -0.596969       -16.2443
 155   2.0000      -0.588779       -16.0215
 156   2.0000      -0.587045       -15.9743
 157   2.0000      -0.583395       -15.8750
 158   2.0000      -0.581593       -15.8260
 159   2.0000      -0.580810       -15.8046
 160   2.0000      -0.569087       -15.4857
 161   2.0000      -0.565284       -15.3822
 162   2.0000      -0.555739       -15.1224
 163   2.0000      -0.550954       -14.9922
 164   2.0000      -0.545496       -14.8437
 165   2.0000      -0.541223       -14.7274
 166   2.0000      -0.536494       -14.5987
 167   2.0000      -0.534113       -14.5339
 168   2.0000      -0.530054       -14.4235
 169   2.0000      -0.527927       -14.3656
 170   2.0000      -0.527586       -14.3563
 171   2.0000      -0.525082       -14.2882
 172   2.0000      -0.522660       -14.2223
 173   2.0000      -0.518338       -14.1047
 174   2.0000      -0.515739       -14.0340
 175   2.0000      -0.515161       -14.0182
 176   2.0000      -0.511092       -13.9075
 177   2.0000      -0.509490       -13.8639
 178   2.0000      -0.507159       -13.8005
 179   2.0000      -0.505596       -13.7580
 180   2.0000      -0.503069       -13.6892
 181   2.0000      -0.500323       -13.6145
 182   2.0000      -0.496954       -13.5228
 183   2.0000      -0.496874       -13.5206
 184   2.0000      -0.489372       -13.3165
 185   2.0000      -0.485325       -13.2064
 186   2.0000      -0.484071       -13.1722
 187   2.0000      -0.480992       -13.0885
 188   2.0000      -0.478827       -13.0296
 189   2.0000      -0.477416       -12.9911
 190   2.0000      -0.474052       -12.8996
 191   2.0000      -0.472425       -12.8553
 192   2.0000      -0.468545       -12.7498
 193   2.0000      -0.465287       -12.6611
 194   2.0000      -0.463447       -12.6110
 195   2.0000      -0.461042       -12.5456
 196   2.0000      -0.458471       -12.4756
 197   2.0000      -0.458086       -12.4652
 198   2.0000      -0.452770       -12.3205
 199   2.0000      -0.451094       -12.2749
 200   2.0000      -0.445570       -12.1246
 201   2.0000      -0.443534       -12.0692
 202   2.0000      -0.442122       -12.0308
 203   2.0000      -0.437850       -11.9145
 204   2.0000      -0.436298       -11.8723
 205   2.0000      -0.435594       -11.8531
 206   2.0000      -0.433528       -11.7969
 207   2.0000      -0.429450       -11.6859
 208   2.0000      -0.426729       -11.6119
 209   2.0000      -0.425690       -11.5836
 210   2.0000      -0.423526       -11.5247
 211   2.0000      -0.422793       -11.5048
 212   2.0000      -0.420466       -11.4415
 213   2.0000      -0.418749       -11.3948
 214   2.0000      -0.410781       -11.1779
 215   2.0000      -0.409925       -11.1546
 216   2.0000      -0.405894       -11.0449
 217   2.0000      -0.404869       -11.0171
 218   2.0000      -0.403083       -10.9685
 219   2.0000      -0.399882       -10.8813
 220   2.0000      -0.396543       -10.7905
 221   2.0000      -0.393309       -10.7025
 222   2.0000      -0.385641       -10.4938
 223   2.0000      -0.383698       -10.4410
 224   2.0000      -0.376169       -10.2361
 225   2.0000      -0.372186       -10.1277
 226   2.0000      -0.363121        -9.8810
 227   2.0000      -0.361571        -9.8388
 228   2.0000      -0.359253        -9.7758
 229   2.0000      -0.350214        -9.5298
 230   2.0000      -0.347247        -9.4491
 231   2.0000      -0.347002        -9.4424
 232   2.0000      -0.334190        -9.0938
 233   2.0000      -0.332072        -9.0361
 234   2.0000      -0.327862        -8.9216
 235   2.0000      -0.325852        -8.8669
 236   2.0000      -0.312512        -8.5039
 237   2.0000      -0.307531        -8.3684
 238   2.0000      -0.302377        -8.2281
 239   2.0000      -0.300490        -8.1767
 240   2.0000      -0.291636        -7.9358
 241   2.0000      -0.285705        -7.7744
 242   2.0000      -0.278235        -7.5712
 243   2.0000      -0.247283        -6.7289
 244   2.0000      -0.233196        -6.3456
 245   2.0000      -0.212083        -5.7711
 246   0.0000      -0.108338        -2.9480
 247   0.0000      -0.059537        -1.6201
 248   0.0000      -0.056242        -1.5304
 249   0.0000      -0.041558        -1.1308
 250   0.0000      -0.025620        -0.6971

MULLIKEN ATOMIC CHARGES
-----------------------
   0 C :    0.349048
   1 C :   -0.383954
   2 C :   -0.203033
   3 N :    0.150501
   4 C :   -0.177665
   5 N :    0.145841
   6 C :    0.020272
   7 C :    0.001080
   8 C :   -0.107854
   9 C :    0.135374
  10 C :   -0.081555
  11 C :   -0.021272
  12 S :    0.171034
  13 C :   -0.107617
  14 C :    0.040800
  15 Br:    0.012165
  16 C :    0.088718
  17 O :   -0.196735
  18 C :   -0.099883
  19 C :   -0.053867
  20 C :   -0.026899
  21 C :    0.010915
  22 C :    0.020749
  23 C :    0.054339
  24 C :   -0.070496
  25 S :    0.102380
  26 C :   -0.000163
  27 C :    0.022500
  28 C :    0.059734
  29 C :    0.023068
  30 S :    0.110614
  31 C :    0.007438
  32 C :    0.003516
  33 N :   -0.080088
  34 C :    0.082452
  35 C :   -0.050536
  36 C :    0.088800
  37 N :   -0.165072
  38 C :   -0.037334
  39 C :    0.083884
  40 C :   -0.177320
  41 S :    0.122243
  42 C :   -0.189798
  43 C :    0.148808
  44 C :    0.121418
  45 C :   -0.109361
  46 C :    0.124898
  47 C :   -0.034476
  48 C :   -0.019651
  49 C :   -0.130664
  50 C :    0.091140
  51 C :    0.014723
  52 C :    0.015647
  53 C :    0.032409
  54 C :   -0.073212
  55 C :    0.056434
  56 C :    0.064264
  57 C :   -0.022850
  58 N :    0.039192
  59 C :    0.111525
  60 N :   -0.122604
  61 C :   -0.043512
  62 C :    0.017778
  63 C :   -0.040751
  64 H :   -0.009981
  65 H :   -0.012385
  66 H :   -0.011309
  67 H :    0.031916
  68 H :    0.013042
  69 H :   -0.002702
  70 H :   -0.004970
  71 H :   -0.009255
  72 H :   -0.001588
  73 H :   -0.007836
  74 H :    0.003992
  75 H :   -0.006007
  76 H :   -0.014885
  77 H :   -0.007693
  78 H :    0.006484
  79 H :    0.012390
  80 H :    0.037113
  81 H :   -0.032820
  82 H :   -0.031999
  83 H :    0.022319
  84 H :    0.026300
  85 H :    0.027519
  86 H :   -0.058907
  87 H :   -0.020995
  88 H :   -0.035107
  89 H :    0.153398
  90 H :    0.043399
  91 H :    0.000772
  92 H :   -0.029431
  93 H :   -0.011164
  94 H :    0.012910
Sum of atomic charges:   -0.0000000

LOEWDIN ATOMIC CHARGES
----------------------
   0 C :    0.072740
   1 C :   -0.153807
   2 C :   -0.011920
   3 N :   -0.071462
   4 C :   -0.017076
   5 N :   -0.065405
   6 C :   -0.015331
   7 C :   -0.057361
   8 C :    0.012499
   9 C :   -0.032272
  10 C :   -0.139499
  11 C :   -0.013295
  12 S :    0.427423
  13 C :   -0.266730
  14 C :   -0.068151
  15 Br:    0.139741
  16 C :    0.071718
  17 O :   -0.183090
  18 C :   -0.120447
  19 C :    0.038858
  20 C :   -0.081193
  21 C :   -0.102590
  22 C :   -0.046346
  23 C :   -0.003462
  24 C :   -0.191483
  25 S :    0.417979
  26 C :   -0.157067
  27 C :   -0.032030
  28 C :   -0.006159
  29 C :   -0.130679
  30 S :    0.454652
  31 C :   -0.039146
  32 C :    0.022356
  33 N :   -0.099097
  34 C :    0.046613
  35 C :   -0.063125
  36 C :    0.048822
  37 N :   -0.122740
  38 C :   -0.068675
  39 C :    0.000963
  40 C :   -0.192268
  41 S :    0.485789
  42 C :   -0.156035
  43 C :   -0.051025
  44 C :   -0.028541
  45 C :   -0.019539
  46 C :   -0.042908
  47 C :   -0.022835
  48 C :   -0.029473
  49 C :   -0.018582
  50 C :   -0.048657
  51 C :   -0.100455
  52 C :    0.005799
  53 C :   -0.118167
  54 C :    0.009216
  55 C :   -0.081892
  56 C :   -0.040580
  57 C :    0.033264
  58 N :    0.125290
  59 C :    0.081580
  60 N :   -0.113008
  61 C :    0.052696
  62 C :   -0.018451
  63 C :   -0.079380
  64 H :    0.037029
  65 H :    0.037826
  66 H :    0.035098
  67 H :    0.026387
  68 H :    0.037023
  69 H :    0.037389
  70 H :    0.035888
  71 H :    0.031616
  72 H :    0.037978
  73 H :    0.040706
  74 H :    0.026144
  75 H :    0.033505
  76 H :    0.028077
  77 H :    0.011560
  78 H :    0.026266
  79 H :    0.032283
  80 H :    0.037045
  81 H :    0.025769
  82 H :    0.026752
  83 H :    0.033349
  84 H :    0.030431
  85 H :    0.026696
  86 H :    0.008929
  87 H :    0.032813
  88 H :    0.021340
  89 H :    0.101749
  90 H :    0.032203
  91 H :    0.025210
  92 H :    0.027656
  93 H :    0.009683
  94 H :    0.019037

  Mayer bond orders larger than 0.100000
B(  0-C ,  1-C ) :   1.5857 B(  0-C ,  6-C ) :   0.9848 B(  0-C , 18-C ) :   1.1030
B(  1-C ,  2-C ) :   1.1730 B(  1-C ,  4-C ) :   1.1613 B(  2-C ,  3-N ) :   2.9320
B(  4-C ,  5-N ) :   2.9101 B(  6-C ,  7-C ) :   1.2810 B(  6-C , 11-C ) :   1.4264
B(  7-C ,  8-C ) :   1.4070 B(  7-C , 16-C ) :   0.9388 B(  8-C ,  9-C ) :   1.2371
B(  8-C , 64-H ) :   1.0108 B(  9-C , 10-C ) :   1.3269 B(  9-C , 14-C ) :   1.1620
B( 10-C , 11-C ) :   1.3192 B( 10-C , 12-S ) :   1.0790 B( 11-C , 65-H ) :   0.9690
B( 12-S , 13-C ) :   1.0825 B( 13-C , 14-C ) :   1.6185 B( 13-C , 15-Br) :   1.0133
B( 14-C , 66-H ) :   1.0008 B( 16-C , 17-O ) :   2.1188 B( 16-C , 18-C ) :   0.9988
B( 18-C , 19-C ) :   1.4428 B( 19-C , 20-C ) :   1.2749 B( 19-C , 67-H ) :   0.9390
B( 20-C , 21-C ) :   1.4026 B( 20-C , 68-H ) :   0.9819 B( 21-C , 22-C ) :   1.1812
B( 21-C , 25-S ) :   1.1023 B( 22-C , 23-C ) :   1.5401 B( 22-C , 69-H ) :   1.0019
B( 23-C , 24-C ) :   1.2095 B( 23-C , 70-H ) :   0.9935 B( 24-C , 25-S ) :   1.0444
B( 24-C , 26-C ) :   1.4889 B( 26-C , 27-C ) :   1.1684 B( 26-C , 30-S ) :   1.0125
B( 27-C , 28-C ) :   1.6171 B( 27-C , 71-H ) :   0.9965 B( 28-C , 29-C ) :   1.1114
B( 28-C , 72-H ) :   1.0000 B( 29-C , 30-S ) :   1.0509 B( 29-C , 31-C ) :   1.5890
B( 30-S , 37-N ) :   0.1268 B( 31-C , 32-C ) :   1.0717 B( 31-C , 73-H ) :   0.9852
B( 32-C , 33-N ) :   1.5196 B( 32-C , 37-N ) :   1.4262 B( 33-N , 34-C ) :   1.5259
B( 34-C , 35-C ) :   1.3893 B( 34-C , 74-H ) :   0.9783 B( 35-C , 36-C ) :   1.3063
B( 35-C , 75-H ) :   0.9760 B( 36-C , 37-N ) :   1.4572 B( 36-C , 38-C ) :   1.1385
B( 38-C , 39-C ) :   1.6518 B( 38-C , 76-H ) :   0.9649 B( 39-C , 40-C ) :   1.1454
B( 39-C , 77-H ) :   0.9385 B( 40-C , 41-S ) :   1.1236 B( 40-C , 42-C ) :   0.1115
B( 40-C , 44-C ) :   1.3146 B( 41-S , 42-C ) :   1.1816 B( 42-C , 43-C ) :   1.3234
B( 42-C , 51-C ) :   1.1113 B( 43-C , 44-C ) :   1.2085 B( 43-C , 49-C ) :   1.2078
B( 44-C , 45-C ) :   1.2298 B( 45-C , 46-C ) :   1.0980 B( 45-C , 47-C ) :   1.5274
B( 46-C , 78-H ) :   0.9363 B( 46-C , 79-H ) :   0.9491 B( 46-C , 80-H ) :   0.9400
B( 47-C , 48-C ) :   1.2140 B( 47-C , 81-H ) :   0.9882 B( 48-C , 49-C ) :   1.5447
B( 48-C , 82-H ) :   0.9865 B( 49-C , 50-C ) :   1.0852 B( 50-C , 83-H ) :   0.9355
B( 50-C , 84-H ) :   0.9352 B( 50-C , 85-H ) :   0.9432 B( 51-C , 52-C ) :   1.6883
B( 51-C , 86-H ) :   0.9086 B( 52-C , 53-C ) :   1.1341 B( 52-C , 87-H ) :   0.9555
B( 53-C , 54-C ) :   1.1500 B( 53-C , 57-C ) :   1.3720 B( 54-C , 55-C ) :   1.4694
B( 54-C , 88-H ) :   1.0138 B( 55-C , 56-C ) :   1.1134 B( 55-C , 62-C ) :   1.1204
B( 56-C , 57-C ) :   1.1114 B( 56-C , 61-C ) :   1.4099 B( 57-C , 58-N ) :   1.2196
B( 58-N , 59-C ) :   1.2516 B( 58-N , 89-H ) :   0.9013 B( 59-C , 60-N ) :   1.6402
B( 59-C , 90-H ) :   0.9665 B( 60-N , 61-C ) :   1.4101 B( 61-C , 91-H ) :   0.9934
B( 62-C , 63-C ) :   1.9178 B( 62-C , 92-H ) :   0.9560 B( 63-C , 93-H ) :   0.9557
B( 63-C , 94-H ) :   0.9410

-----------------------------------------------------------------------------
         ABSORPTION SPECTRUM VIA TRANSITION ELECTRIC DIPOLE MOMENTS
-----------------------------------------------------------------------------
State   Energy  Wavelength   fosc         T2         TX        TY        TZ
        (cm-1)    (nm)                  (au**2)     (au)      (au)      (au)
-----------------------------------------------------------------------------
   0    7848.9   1274.1   0.030153427   1.26475   0.47127  -1.01188   0.13694
   1   12234.2    817.4   0.548498934  14.75962  -2.34954   0.13818  -3.03648
   2   15928.1    627.8   0.061720788   1.27569  -0.87527  -0.37683  -0.60629
   3   16785.3    595.8   0.041862675   0.82106   0.22895   0.44421  -0.75586
   4   18587.6    538.0   1.253271857  22.19722   2.03087  -1.26286   4.05930
   5   20597.6    485.5   0.026888460   0.42976  -0.39282   0.06233  -0.52112
   6   21936.6    455.9   0.103579125   1.55446   0.10215   0.07244  -1.24047
   7   22093.3    452.6   0.069594125   1.03702   0.85589  -0.47832   0.27512
   8   22335.7    447.7   0.073621642   1.08513  -0.52414   0.44431  -0.78294
   9   23401.8    427.3   0.217378936   3.05804  -0.02471   0.01399  -1.74849
  10   24204.1    413.2   0.008049889   0.10949   0.30065  -0.11520  -0.07636
  11   24388.4    410.0   0.110489907   1.49147  -0.22916   0.44156  -1.11534
  12   24781.6    403.5   0.005717983   0.07596  -0.21405   0.04979  -0.16632
  13   25301.4    395.2   0.043502636   0.56604  -0.55502   0.10386   0.49719
  14   25844.3    386.9   0.183682832   2.33980   1.26587  -0.85229   0.10475
  15   26316.3    380.0   0.103166611   1.29060  -1.11013   0.01353  -0.24088
  16   26612.1    375.8   0.078025082   0.96523  -0.46258   0.68850   0.52651
  17   27577.9    362.6   0.066658540   0.79574  -0.57550   0.46304   0.50013
  18   28018.0    356.9   0.040836570   0.47983   0.53471  -0.29771  -0.32447
  19   28092.3    356.0   0.056086585   0.65728  -0.63715   0.49500   0.07931
  20   28238.1    354.1   0.001433329   0.01671  -0.04107  -0.09149   0.08157
  21   29073.0    344.0   0.102805079   1.16413   1.00447   0.03229  -0.39258
  22   30001.7    333.3   0.149826011   1.64406   0.78543  -0.75899  -0.67163
  23   30234.5    330.7   0.029855369   0.32508   0.04186  -0.30760   0.47824
  24   30953.6    323.1   0.391236265   4.16106   0.31586  -1.10664   1.68423
  25   31146.6    321.1   0.162197430   1.71439   0.55970  -0.59522   1.02315
  26   31428.2    318.2   0.009821915   0.10289   0.31635   0.03752  -0.03743
  27   31504.6    317.4   0.015497935   0.16195  -0.26811   0.27934   0.10971
  28   31649.2    316.0   0.017331989   0.18029  -0.13252  -0.29557  -0.27452
  29   31992.8    312.6   0.021062883   0.21674  -0.42577  -0.02165  -0.18707
  30   32287.0    309.7   0.067364331   0.68688   0.07424  -0.10488  -0.81876
  31   32904.0    303.9   0.008726133   0.08731   0.01020  -0.28219   0.08702
  32   33121.3    301.9   0.116146456   1.15445   0.55326  -0.25543   0.88493
  33   33731.1    296.5   0.005655658   0.05520   0.09419  -0.16542   0.13770
  34   33880.2    295.2   0.047661894   0.46313  -0.43871   0.01053  -0.52014
  35   33961.7    294.4   0.016621965   0.16113  -0.27633   0.28284  -0.06907
  36   34153.0    292.8   0.042447118   0.40916   0.41242  -0.14568   0.46675
  37   34473.4    290.1   0.044838929   0.42820   0.11625  -0.21906   0.60556
  38   34717.3    288.0   0.033193145   0.31476   0.52316  -0.17413   0.10365
  39   34975.8    285.9   0.030523377   0.28730   0.40909   0.25983  -0.22899
  40   35340.0    283.0   0.268689220   2.50299  -1.09978  -0.27070   1.10462
  41   35670.2    280.3   0.179111428   1.65308   1.01110  -0.28153  -0.74263
  42   35790.4    279.4   0.076787649   0.70632  -0.51164   0.32022   0.58481
  43   35963.0    278.1   0.003651402   0.03343   0.11374  -0.06863   0.12561
  44   36190.6    276.3   0.047781480   0.43465  -0.63678  -0.16072   0.05770
  45   36503.7    273.9   0.142826608   1.28810   0.03197  -0.45311   1.04008
  46   36820.1    271.6   0.051818639   0.46332   0.05500  -0.21046   0.64498
  47   37200.0    268.8   0.045503423   0.40270  -0.52941   0.27794  -0.21255
  48   37338.8    267.8   0.047859455   0.42197   0.45414  -0.15001   0.43957
  49   37650.5    265.6   0.062909133   0.55007   0.55972  -0.48551  -0.03265
  50   37719.3    265.1   0.202829811   1.77029  -0.01868  -0.53809   1.21672
  51   38071.3    262.7   0.007040615   0.06088   0.05999   0.23922  -0.00764
  52   38359.6    260.7   0.008821402   0.07571  -0.24719   0.01032  -0.12040
  53   38718.9    258.3   0.006693811   0.05691   0.13685  -0.19533  -0.00572
  54   38790.7    257.8   0.034056706   0.28904  -0.26470   0.05806   0.46432
  55   38866.7    257.3   0.008061658   0.06828   0.07012  -0.21547   0.13016
  56   38919.0    256.9   0.006342632   0.05365  -0.16332  -0.08015   0.14337
  57   38973.5    256.6   0.014007605   0.11832  -0.03627  -0.21778   0.26378
  58   39104.5    255.7   0.018533872   0.15603  -0.20507   0.31370   0.12479
  59   39330.7    254.3   0.077617713   0.64969  -0.37244  -0.28069   0.65741
  60   39472.7    253.3   0.044441734   0.37065  -0.39481  -0.20127   0.41746
  61   39697.1    251.9   0.017193864   0.14259  -0.03464   0.19680  -0.32041
  62   39930.6    250.4   0.047758681   0.39375   0.03332  -0.01966  -0.62630
  63   39985.8    250.1   0.003629055   0.02988  -0.13153   0.10429  -0.04127
  64   40117.5    249.3   0.030155050   0.24746   0.30243   0.09201  -0.38410

FINAL SINGLE POINT ENERGY     -6566.964153670564

DIPOLE MOMENT
-------------
                                X             Y             Z
Electronic contribution:     48.51114     -16.51854      88.74882
Nuclear contribution   :    -51.15730      16.51347     -89.35247
                        -----------------------------------------
Total Dipole Moment    :     -2.64616      -0.00507      -0.60365
                        -----------------------------------------
Magnitude (a.u.)       :      2.71415
Magnitude (Debye)      :      6.89881

Rotational constants in cm-1:     0.002410     0.000581     0.000528
Rotational constants in MHz :    72.255013    17.428865    15.840966

                             ****ORCA TERMINATED NORMALLY****
TOTAL RUN TIME: 0 days 0 hours 12 minutes 35 seconds 471 msec
