                         Program Version 4.2.0 -  RELEASE  -
|  1> # ORCA input file
|  2> # SCF done       -216.347719214185          0.000703658739
|  3> ! CAM-B3LYP def2-SVP def2/J RIJCOSX Grid4 TightSCF
|  4> %maxcore 5000
|  5> %tddft
|  6>     Mode sTDDFT
|  7>     Ethresh 5.0
|  8>     maxcore 5000
|  9> end
| 10>
| 11> %pal
| 12>   nprocs 6
| 13>   end
| 14> * xyz 0 1
| 15>    C      -12.45470       -11.20284        -8.25010
| 16>    C      -13.17605       -12.36315        -8.30476
| 17>    F      -13.92022       -12.64220        -9.38212
| 18>    C      -13.14631       -13.27711        -7.23283
| 19>    F      -13.86212       -14.40602        -7.31306
| 20>    C      -12.39525       -13.01804        -6.11997
| 21>    C      -11.64188       -11.83183        -6.03429
| 22>    C      -11.67139       -10.90653        -7.11746
| 23>    C      -10.92368        -9.70705        -7.05233
| 24>    C      -10.16990        -9.44444        -5.94067
| 25>    C      -10.14233       -10.37826        -4.86317
| 26>    C      -10.85547       -11.54134        -4.89635
| 27>    C       -9.25065        -9.86491        -3.81352
| 28>    O       -8.97126       -10.38740        -2.74097
| 29>    C       -8.71837        -8.59724        -4.32007
| 30>    C       -9.32287        -8.30424        -5.59442
| 31>    C       -9.20065        -7.14166        -6.31480
| 32>    C       -9.82022        -6.91186        -7.55929
| 33>    N      -10.29605        -6.67068        -8.57587
| 34>    C       -8.48748        -6.01592        -5.86293
| 35>    N       -7.94523        -5.06409        -5.51492
| 36>    C       -7.73452        -7.90498        -3.65296
| 37>    N       -7.31873        -8.31212        -2.44808
| 38>    C       -6.34994        -7.78010        -1.65173
| 39>    S       -5.68317        -8.81838        -0.42664
| 40>    C       -4.58703        -7.55571         0.02407
| 41>    N       -3.70434        -7.80340         1.09027
| 42>    O       -2.93729        -6.91643         1.40412
| 43>    O       -3.78442        -8.89691         1.61841
| 44>    C       -4.72839        -6.41719        -0.71677
| 45>    C       -5.75639        -6.50841        -1.68416
| 46>    C       -6.17298        -5.41190        -2.50641
| 47>    C       -5.40182        -4.33387        -2.80707
| 48>    C       -5.86438        -3.27344        -3.60769
| 49>    C       -5.11182        -2.18143        -3.95229
| 50>    C       -5.52982        -1.07904        -4.74075
| 51>    C       -4.57876        -0.12180        -4.91159
| 52>    C       -3.34905        -0.41645        -4.27627
| 53>    S       -3.44408        -1.94973        -3.44661
| 54>    C       -2.19686         0.34692        -4.26955
| 55>    C       -1.99974         1.61813        -4.85550
| 56>    C       -0.75204         2.12994        -4.66947
| 57>    C        0.11666         1.28565        -3.93306
| 58>    S       -0.73001        -0.18510        -3.48143
| 59>    C        1.42969         1.44004        -3.56286
| 60>    C        2.28024         2.53827        -3.76898
| 61>    C        3.62754         2.56852        -3.38535
| 62>    C        4.23731         1.46049        -2.78147
| 63>    N        4.69471         0.52752        -2.29465
| 64>    C        4.25558         3.80446        -3.67512
| 65>    C        3.37044         4.69587        -4.27126
| 66>    S        1.78912         4.05753        -4.50161
| 67>    S        4.03121         6.25547        -4.64888
| 68>    C        5.53622         5.71407        -3.99487
| 69>    C        5.54139         4.40272        -3.51890
| 70>    C        6.81981         4.04327        -3.03084
| 71>    C        7.19157         2.79244        -2.50560
| 72>    N        7.55170         1.78565        -2.09454
| 73>    C        7.73440         5.08867        -3.09642
| 74>    S        7.04044         6.52366        -3.82670
| 75>    C        9.10134         5.01762        -2.71769
| 76>    C        9.92841         6.03096        -2.35695
| 77>    C       11.40838         5.84992        -2.44533
| 78>    O       12.00165         4.81038        -2.59589
| 79>    C       11.96373         7.21731        -2.38086
| 80>    C       13.25778         7.62388        -2.53744
| 81>    C       13.55992         9.00140        -2.45197
| 82>    C       12.50970         9.93561        -2.21301
| 83>    C       12.81810        11.30868        -2.13372
| 84>    C       14.10839        11.73413        -2.28058
| 85>    C       15.14659        10.80947        -2.51549
| 86>    C       14.87953         9.47171        -2.59976
| 87>    F       16.40100        11.25564        -2.65687
| 88>    F       14.39989        13.03832        -2.20299
| 89>    C       11.17986         9.48556        -2.05100
| 90>    C       10.91270         8.14468        -2.12611
| 91>    C        9.66929         7.39999        -1.95598
| 92>    C        8.56604         7.84590        -1.27871
| 93>    C        7.49686         7.00892        -0.89508
| 94>    N        6.62625         6.35257        -0.53671
| 95>    C        8.41314         9.16955        -0.81675
| 96>    N        8.23553        10.23803        -0.43831
| 97>    H      -12.48959       -10.51374        -9.07946
| 98>    H      -12.38286       -13.72815        -5.30798
| 99>    H      -10.96384        -9.02787        -7.88872
|100>    H      -10.82090       -12.23123        -4.06696
|101>    H       -7.24318        -7.05362        -4.09893
|102>    H       -7.75850        -9.19953        -2.14603
|103>    H       -4.13604        -5.53847        -0.53875
|104>    H       -7.18134        -5.43200        -2.89412
|105>    H       -4.37992        -4.28030        -2.45583
|106>    H       -6.87312        -3.32820        -3.99272
|107>    H       -6.52224        -1.03602        -5.15265
|108>    H       -4.72213         0.78035        -5.47834
|109>    H       -2.78125         2.12381        -5.39354
|110>    H       -0.43902         3.08366        -5.05264
|111>    H        1.88876         0.61434        -3.03265
|112>    H        9.55872         4.03421        -2.78885
|113>    H       14.04056         6.90394        -2.72167
|114>    H       12.03621        12.02899        -1.95022
|115>    H       15.68510         8.77714        -2.77962
|116>    H       10.40192        10.21269        -1.88002
|117> *
|118>
|119>                          ****END OF INPUT****

CARTESIAN COORDINATES (ANGSTROEM)
---------------------------------
  C    -12.454700  -11.202840   -8.250100
  C    -13.176050  -12.363150   -8.304760
  F    -13.920220  -12.642200   -9.382120
  C    -13.146310  -13.277110   -7.232830
  F    -13.862120  -14.406020   -7.313060
  C    -12.395250  -13.018040   -6.119970
  C    -11.641880  -11.831830   -6.034290
  C    -11.671390  -10.906530   -7.117460
  C    -10.923680   -9.707050   -7.052330
  C    -10.169900   -9.444440   -5.940670
  C    -10.142330  -10.378260   -4.863170
  C    -10.855470  -11.541340   -4.896350
  C     -9.250650   -9.864910   -3.813520
  O     -8.971260  -10.387400   -2.740970
  C     -8.718370   -8.597240   -4.320070
  C     -9.322870   -8.304240   -5.594420
  C     -9.200650   -7.141660   -6.314800
  C     -9.820220   -6.911860   -7.559290
  N    -10.296050   -6.670680   -8.575870
  C     -8.487480   -6.015920   -5.862930
  N     -7.945230   -5.064090   -5.514920
  C     -7.734520   -7.904980   -3.652960
  N     -7.318730   -8.312120   -2.448080
  C     -6.349940   -7.780100   -1.651730
  S     -5.683170   -8.818380   -0.426640
  C     -4.587030   -7.555710    0.024070
  N     -3.704340   -7.803400    1.090270
  O     -2.937290   -6.916430    1.404120
  O     -3.784420   -8.896910    1.618410
  C     -4.728390   -6.417190   -0.716770
  C     -5.756390   -6.508410   -1.684160
  C     -6.172980   -5.411900   -2.506410
  C     -5.401820   -4.333870   -2.807070
  C     -5.864380   -3.273440   -3.607690
  C     -5.111820   -2.181430   -3.952290
  C     -5.529820   -1.079040   -4.740750
  C     -4.578760   -0.121800   -4.911590
  C     -3.349050   -0.416450   -4.276270
  S     -3.444080   -1.949730   -3.446610
  C     -2.196860    0.346920   -4.269550
  C     -1.999740    1.618130   -4.855500
  C     -0.752040    2.129940   -4.669470
  C      0.116660    1.285650   -3.933060
  S     -0.730010   -0.185100   -3.481430
  C      1.429690    1.440040   -3.562860
  C      2.280240    2.538270   -3.768980
  C      3.627540    2.568520   -3.385350
  C      4.237310    1.460490   -2.781470
  N      4.694710    0.527520   -2.294650
  C      4.255580    3.804460   -3.675120
  C      3.370440    4.695870   -4.271260
  S      1.789120    4.057530   -4.501610
  S      4.031210    6.255470   -4.648880
  C      5.536220    5.714070   -3.994870
  C      5.541390    4.402720   -3.518900
  C      6.819810    4.043270   -3.030840
  C      7.191570    2.792440   -2.505600
  N      7.551700    1.785650   -2.094540
  C      7.734400    5.088670   -3.096420
  S      7.040440    6.523660   -3.826700
  C      9.101340    5.017620   -2.717690
  C      9.928410    6.030960   -2.356950
  C     11.408380    5.849920   -2.445330
  O     12.001650    4.810380   -2.595890
  C     11.963730    7.217310   -2.380860
  C     13.257780    7.623880   -2.537440
  C     13.559920    9.001400   -2.451970
  C     12.509700    9.935610   -2.213010
  C     12.818100   11.308680   -2.133720
  C     14.108390   11.734130   -2.280580
  C     15.146590   10.809470   -2.515490
  C     14.879530    9.471710   -2.599760
  F     16.401000   11.255640   -2.656870
  F     14.399890   13.038320   -2.202990
  C     11.179860    9.485560   -2.051000
  C     10.912700    8.144680   -2.126110
  C      9.669290    7.399990   -1.955980
  C      8.566040    7.845900   -1.278710
  C      7.496860    7.008920   -0.895080
  N      6.626250    6.352570   -0.536710
  C      8.413140    9.169550   -0.816750
  N      8.235530   10.238030   -0.438310
  H    -12.489590  -10.513740   -9.079460
  H    -12.382860  -13.728150   -5.307980
  H    -10.963840   -9.027870   -7.888720
  H    -10.820900  -12.231230   -4.066960
  H     -7.243180   -7.053620   -4.098930
  H     -7.758500   -9.199530   -2.146030
  H     -4.136040   -5.538470   -0.538750
  H     -7.181340   -5.432000   -2.894120
  H     -4.379920   -4.280300   -2.455830
  H     -6.873120   -3.328200   -3.992720
  H     -6.522240   -1.036020   -5.152650
  H     -4.722130    0.780350   -5.478340
  H     -2.781250    2.123810   -5.393540
  H     -0.439020    3.083660   -5.052640
  H      1.888760    0.614340   -3.032650
  H      9.558720    4.034210   -2.788850
  H     14.040560    6.903940   -2.721670
  H     12.036210   12.028990   -1.950220
  H     15.685100    8.777140   -2.779620
  H     10.401920   10.212690   -1.880020

 Total Charge           Charge          ....    0
 Multiplicity           Mult            ....    1
 Number of Electrons    NEL             ....  600
 Basis Dimension        Dim             .... 1272

ORBITAL ENERGIES
----------------

  NO   OCC          E(Eh)            E(eV)
   0   2.0000     -88.995715     -2421.6965
   1   2.0000     -88.995355     -2421.6867
   2   2.0000     -88.994122     -2421.6532
   3   2.0000     -88.985736     -2421.4250
   4   2.0000     -88.955527     -2420.6030
   5   2.0000     -88.952729     -2420.5268
   6   2.0000     -24.806131      -675.0091
   7   2.0000     -24.805323      -674.9872
   8   2.0000     -24.801851      -674.8927
   9   2.0000     -24.801412      -674.8807
  10   2.0000     -19.246530      -523.7247
  11   2.0000     -19.246214      -523.7161
  12   2.0000     -19.240440      -523.5590
  13   2.0000     -19.222922      -523.0823
  14   2.0000     -14.658096      -398.8671
  15   2.0000     -14.508073      -394.7847
  16   2.0000     -14.434718      -392.7887
  17   2.0000     -14.424420      -392.5084
  18   2.0000     -14.423976      -392.4964
  19   2.0000     -14.421415      -392.4266
  20   2.0000     -14.411684      -392.1619
  21   2.0000     -14.398095      -391.7921
  22   2.0000     -10.390133      -282.7299
  23   2.0000     -10.389542      -282.7138
  24   2.0000     -10.387964      -282.6709
  25   2.0000     -10.385571      -282.6057
  26   2.0000     -10.385193      -282.5955
  27   2.0000     -10.379569      -282.4424
  28   2.0000     -10.379230      -282.4332
  29   2.0000     -10.374630      -282.3080
  30   2.0000     -10.356875      -281.8249
  31   2.0000     -10.355541      -281.7886
  32   2.0000     -10.353821      -281.7418
  33   2.0000     -10.351088      -281.6674
  34   2.0000     -10.350887      -281.6619
  35   2.0000     -10.349428      -281.6222
  36   2.0000     -10.342410      -281.4313
  37   2.0000     -10.339070      -281.3404
  38   2.0000     -10.338842      -281.3342
  39   2.0000     -10.338534      -281.3258
  40   2.0000     -10.334994      -281.2295
  41   2.0000     -10.331663      -281.1389
  42   2.0000     -10.327558      -281.0271
  43   2.0000     -10.326319      -280.9934
  44   2.0000     -10.325508      -280.9714
  45   2.0000     -10.323209      -280.9088
  46   2.0000     -10.322886      -280.9000
  47   2.0000     -10.320310      -280.8299
  48   2.0000     -10.320047      -280.8228
  49   2.0000     -10.319265      -280.8015
  50   2.0000     -10.318784      -280.7884
  51   2.0000     -10.318088      -280.7695
  52   2.0000     -10.317295      -280.7479
  53   2.0000     -10.317278      -280.7474
  54   2.0000     -10.316661      -280.7306
  55   2.0000     -10.316221      -280.7186
  56   2.0000     -10.315817      -280.7076
  57   2.0000     -10.315330      -280.6944
  58   2.0000     -10.314811      -280.6803
  59   2.0000     -10.314413      -280.6695
  60   2.0000     -10.313486      -280.6442
  61   2.0000     -10.311884      -280.6006
  62   2.0000     -10.310561      -280.5646
  63   2.0000     -10.310223      -280.5554
  64   2.0000     -10.309363      -280.5320
  65   2.0000     -10.308963      -280.5211
  66   2.0000     -10.308382      -280.5053
  67   2.0000     -10.308178      -280.4998
  68   2.0000     -10.307538      -280.4824
  69   2.0000     -10.306578      -280.4562
  70   2.0000     -10.305194      -280.4186
  71   2.0000     -10.304636      -280.4034
  72   2.0000     -10.303372      -280.3690
  73   2.0000     -10.299900      -280.2745
  74   2.0000     -10.298346      -280.2322
  75   2.0000     -10.298193      -280.2281
  76   2.0000     -10.297774      -280.2167
  77   2.0000     -10.295941      -280.1668
  78   2.0000     -10.295142      -280.1450
  79   2.0000     -10.294497      -280.1275
  80   2.0000     -10.291728      -280.0522
  81   2.0000     -10.287567      -279.9389
  82   2.0000      -8.091522      -220.1815
  83   2.0000      -8.090001      -220.1401
  84   2.0000      -8.089182      -220.1178
  85   2.0000      -8.080604      -219.8844
  86   2.0000      -8.051968      -219.1052
  87   2.0000      -8.049243      -219.0310
  88   2.0000      -6.061175      -164.9330
  89   2.0000      -6.059608      -164.8903
  90   2.0000      -6.059132      -164.8774
  91   2.0000      -6.056773      -164.8132
  92   2.0000      -6.055374      -164.7751
  93   2.0000      -6.054863      -164.7612
  94   2.0000      -6.052904      -164.7079
  95   2.0000      -6.051598      -164.6724
  96   2.0000      -6.050229      -164.6351
  97   2.0000      -6.050100      -164.6316
  98   2.0000      -6.046039      -164.5211
  99   2.0000      -6.042131      -164.4147
 100   2.0000      -6.021656      -163.8576
 101   2.0000      -6.019038      -163.7863
 102   2.0000      -6.017706      -163.7501
 103   2.0000      -6.014984      -163.6760
 104   2.0000      -6.012851      -163.6180
 105   2.0000      -6.009984      -163.5400
 106   2.0000      -1.328878       -36.1606
 107   2.0000      -1.328819       -36.1590
 108   2.0000      -1.324882       -36.0519
 109   2.0000      -1.313992       -35.7555
 110   2.0000      -1.309987       -35.6466
 111   2.0000      -1.155880       -31.4531
 112   2.0000      -1.148316       -31.2473
 113   2.0000      -1.139160       -30.9981
 114   2.0000      -1.111283       -30.2396
 115   2.0000      -1.047422       -28.5018
 116   2.0000      -1.033351       -28.1189
 117   2.0000      -1.028019       -27.9738
 118   2.0000      -1.018892       -27.7255
 119   2.0000      -1.016840       -27.6696
 120   2.0000      -1.013207       -27.5708
 121   2.0000      -1.010021       -27.4841
 122   2.0000      -1.006807       -27.3966
 123   2.0000      -1.005837       -27.3702
 124   2.0000      -1.000742       -27.2316
 125   2.0000      -0.993577       -27.0366
 126   2.0000      -0.992029       -26.9945
 127   2.0000      -0.988005       -26.8850
 128   2.0000      -0.983980       -26.7755
 129   2.0000      -0.979102       -26.6427
 130   2.0000      -0.955741       -26.0070
 131   2.0000      -0.942580       -25.6489
 132   2.0000      -0.936878       -25.4938
 133   2.0000      -0.932610       -25.3776
 134   2.0000      -0.919481       -25.0204
 135   2.0000      -0.912286       -24.8246
 136   2.0000      -0.906715       -24.6730
 137   2.0000      -0.903811       -24.5939
 138   2.0000      -0.900519       -24.5044
 139   2.0000      -0.898425       -24.4474
 140   2.0000      -0.895398       -24.3650
 141   2.0000      -0.887949       -24.1623
 142   2.0000      -0.878524       -23.9058
 143   2.0000      -0.871065       -23.7029
 144   2.0000      -0.864308       -23.5190
 145   2.0000      -0.859042       -23.3757
 146   2.0000      -0.851367       -23.1669
 147   2.0000      -0.845935       -23.0191
 148   2.0000      -0.844760       -22.9871
 149   2.0000      -0.836348       -22.7582
 150   2.0000      -0.832594       -22.6560
 151   2.0000      -0.820118       -22.3165
 152   2.0000      -0.815621       -22.1942
 153   2.0000      -0.800799       -21.7909
 154   2.0000      -0.788456       -21.4550
 155   2.0000      -0.780629       -21.2420
 156   2.0000      -0.775853       -21.1120
 157   2.0000      -0.770938       -20.9783
 158   2.0000      -0.756456       -20.5842
 159   2.0000      -0.750728       -20.4283
 160   2.0000      -0.743047       -20.2193
 161   2.0000      -0.731511       -19.9054
 162   2.0000      -0.727053       -19.7841
 163   2.0000      -0.724890       -19.7252
 164   2.0000      -0.722493       -19.6600
 165   2.0000      -0.712034       -19.3754
 166   2.0000      -0.706158       -19.2155
 167   2.0000      -0.700785       -19.0693
 168   2.0000      -0.695641       -18.9294
 169   2.0000      -0.694202       -18.8902
 170   2.0000      -0.691991       -18.8300
 171   2.0000      -0.679766       -18.4974
 172   2.0000      -0.675456       -18.3801
 173   2.0000      -0.672402       -18.2970
 174   2.0000      -0.665664       -18.1136
 175   2.0000      -0.663927       -18.0664
 176   2.0000      -0.659290       -17.9402
 177   2.0000      -0.657711       -17.8972
 178   2.0000      -0.652622       -17.7588
 179   2.0000      -0.651075       -17.7167
 180   2.0000      -0.647730       -17.6256
 181   2.0000      -0.644392       -17.5348
 182   2.0000      -0.639470       -17.4009
 183   2.0000      -0.637975       -17.3602
 184   2.0000      -0.633717       -17.2443
 185   2.0000      -0.628556       -17.1039
 186   2.0000      -0.626887       -17.0584
 187   2.0000      -0.622096       -16.9281
 188   2.0000      -0.618867       -16.8402
 189   2.0000      -0.612929       -16.6786
 190   2.0000      -0.605554       -16.4780
 191   2.0000      -0.599612       -16.3163
 192   2.0000      -0.596608       -16.2345
 193   2.0000      -0.593654       -16.1541
 194   2.0000      -0.593516       -16.1504
 195   2.0000      -0.589320       -16.0362
 196   2.0000      -0.588688       -16.0190
 197   2.0000      -0.584829       -15.9140
 198   2.0000      -0.582651       -15.8548
 199   2.0000      -0.577344       -15.7103
 200   2.0000      -0.570666       -15.5286
 201   2.0000      -0.567752       -15.4493
 202   2.0000      -0.565362       -15.3843
 203   2.0000      -0.563083       -15.3223
 204   2.0000      -0.560669       -15.2566
 205   2.0000      -0.558973       -15.2104
 206   2.0000      -0.557083       -15.1590
 207   2.0000      -0.554893       -15.0994
 208   2.0000      -0.550857       -14.9896
 209   2.0000      -0.547494       -14.8981
 210   2.0000      -0.547257       -14.8916
 211   2.0000      -0.545976       -14.8568
 212   2.0000      -0.543517       -14.7899
 213   2.0000      -0.540923       -14.7193
 214   2.0000      -0.538897       -14.6641
 215   2.0000      -0.537024       -14.6132
 216   2.0000      -0.535173       -14.5628
 217   2.0000      -0.533175       -14.5084
 218   2.0000      -0.528658       -14.3855
 219   2.0000      -0.525802       -14.3078
 220   2.0000      -0.522960       -14.2305
 221   2.0000      -0.522230       -14.2106
 222   2.0000      -0.519392       -14.1334
 223   2.0000      -0.518653       -14.1133
 224   2.0000      -0.516350       -14.0506
 225   2.0000      -0.514314       -13.9952
 226   2.0000      -0.511929       -13.9303
 227   2.0000      -0.510670       -13.8960
 228   2.0000      -0.508422       -13.8349
 229   2.0000      -0.507294       -13.8042
 230   2.0000      -0.506778       -13.7901
 231   2.0000      -0.502017       -13.6606
 232   2.0000      -0.499219       -13.5844
 233   2.0000      -0.490539       -13.3482
 234   2.0000      -0.488724       -13.2989
 235   2.0000      -0.487501       -13.2656
 236   2.0000      -0.484708       -13.1896
 237   2.0000      -0.481947       -13.1144
 238   2.0000      -0.478795       -13.0287
 239   2.0000      -0.478244       -13.0137
 240   2.0000      -0.474706       -12.9174
 241   2.0000      -0.474305       -12.9065
 242   2.0000      -0.473448       -12.8832
 243   2.0000      -0.472152       -12.8479
 244   2.0000      -0.471297       -12.8246
 245   2.0000      -0.468198       -12.7403
 246   2.0000      -0.462625       -12.5887
 247   2.0000      -0.461465       -12.5571
 248   2.0000      -0.458854       -12.4860
 249   2.0000      -0.457282       -12.4433
 250   2.0000      -0.456796       -12.4301
 251   2.0000      -0.456504       -12.4221
 252   2.0000      -0.454231       -12.3603
 253   2.0000      -0.451251       -12.2792
 254   2.0000      -0.448948       -12.2165
 255   2.0000      -0.445630       -12.1262
 256   2.0000      -0.443796       -12.0763
 257   2.0000      -0.443172       -12.0593
 258   2.0000      -0.441704       -12.0194
 259   2.0000      -0.440352       -11.9826
 260   2.0000      -0.439103       -11.9486
 261   2.0000      -0.437386       -11.9019
 262   2.0000      -0.433550       -11.7975
 263   2.0000      -0.433295       -11.7906
 264   2.0000      -0.431685       -11.7467
 265   2.0000      -0.429116       -11.6769
 266   2.0000      -0.426448       -11.6042
 267   2.0000      -0.425953       -11.5908
 268   2.0000      -0.423047       -11.5117
 269   2.0000      -0.422798       -11.5049
 270   2.0000      -0.421386       -11.4665
 271   2.0000      -0.410956       -11.1827
 272   2.0000      -0.409279       -11.1370
 273   2.0000      -0.404956       -11.0194
 274   2.0000      -0.401415       -10.9231
 275   2.0000      -0.393390       -10.7047
 276   2.0000      -0.393067       -10.6959
 277   2.0000      -0.392048       -10.6682
 278   2.0000      -0.389445       -10.5973
 279   2.0000      -0.386739       -10.5237
 280   2.0000      -0.383979       -10.4486
 281   2.0000      -0.376663       -10.2495
 282   2.0000      -0.374765       -10.1979
 283   2.0000      -0.366785        -9.9807
 284   2.0000      -0.365476        -9.9451
 285   2.0000      -0.355169        -9.6646
 286   2.0000      -0.352791        -9.5999
 287   2.0000      -0.348512        -9.4835
 288   2.0000      -0.342504        -9.3200
 289   2.0000      -0.334167        -9.0931
 290   2.0000      -0.330261        -8.9869
 291   2.0000      -0.329387        -8.9631
 292   2.0000      -0.322326        -8.7709
 293   2.0000      -0.320056        -8.7092
 294   2.0000      -0.312551        -8.5050
 295   2.0000      -0.307228        -8.3601
 296   2.0000      -0.297372        -8.0919
 297   2.0000      -0.288861        -7.8603
 298   2.0000      -0.276269        -7.5177
 299   2.0000      -0.220095        -5.9891
 300   0.0000      -0.106649        -2.9021
 301   0.0000      -0.103568        -2.8182
 302   0.0000      -0.089584        -2.4377
 303   0.0000      -0.075913        -2.0657
 304   0.0000      -0.064257        -1.7485

MULLIKEN ATOMIC CHARGES
-----------------------
   0 C :   -0.111503
   1 C :    0.244679
   2 F :   -0.168217
   3 C :    0.240809
   4 F :   -0.168981
   5 C :   -0.109351
   6 C :    0.119710
   7 C :    0.117816
   8 C :   -0.088436
   9 C :    0.043733
  10 C :    0.001831
  11 C :   -0.082908
  12 C :    0.179708
  13 O :   -0.209785
  14 C :   -0.151491
  15 C :    0.332497
  16 C :   -0.348510
  17 C :   -0.185140
  18 N :    0.151211
  19 C :   -0.198240
  20 N :    0.144877
  21 C :    0.028972
  22 N :    0.012715
  23 C :   -0.125068
  24 S :    0.197790
  25 C :    0.001532
  26 N :    0.277470
  27 O :   -0.238108
  28 O :   -0.254909
  29 C :   -0.005302
  30 C :    0.129729
  31 C :   -0.051378
  32 C :    0.003499
  33 C :    0.001662
  34 C :   -0.024044
  35 C :    0.048462
  36 C :    0.027262
  37 C :   -0.036110
  38 S :    0.081940
  39 C :   -0.054817
  40 C :    0.023812
  41 C :    0.014829
  42 C :   -0.062342
  43 S :    0.109523
  44 C :   -0.015292
  45 C :   -0.056693
  46 C :   -0.034105
  47 C :   -0.324692
  48 N :    0.205265
  49 C :    0.163142
  50 C :   -0.227741
  51 S :    0.128145
  52 S :    0.200880
  53 C :   -0.220773
  54 C :    0.159122
  55 C :    0.035425
  56 C :   -0.313632
  57 N :    0.245685
  58 C :   -0.152532
  59 S :    0.192489
  60 C :    0.018149
  61 C :   -0.125077
  62 C :    0.141571
  63 O :   -0.127006
  64 C :    0.008394
  65 C :   -0.075473
  66 C :    0.109111
  67 C :    0.110381
  68 C :   -0.103766
  69 C :    0.240366
  70 C :    0.238503
  71 C :   -0.100252
  72 F :   -0.169738
  73 F :   -0.169568
  74 C :   -0.077981
  75 C :    0.037624
  76 C :    0.248561
  77 C :   -0.319506
  78 C :   -0.197504
  79 N :    0.178571
  80 C :   -0.173465
  81 N :    0.159967
  82 H :    0.009876
  83 H :    0.002621
  84 H :   -0.002760
  85 H :   -0.006544
  86 H :    0.052467
  87 H :    0.169061
  88 H :    0.018080
  89 H :    0.002112
  90 H :    0.005244
  91 H :    0.003350
  92 H :   -0.000961
  93 H :   -0.009333
  94 H :   -0.008703
  95 H :   -0.003154
  96 H :    0.014648
  97 H :    0.053753
  98 H :   -0.004748
  99 H :    0.006794
 100 H :    0.002654
 101 H :   -0.002440
Sum of atomic charges:    0.0000000

LOEWDIN ATOMIC CHARGES
----------------------
   0 C :   -0.028421
   1 C :    0.068508
   2 F :   -0.046611
   3 C :    0.068964
   4 F :   -0.047154
   5 C :   -0.031805
   6 C :   -0.009214
   7 C :   -0.006213
   8 C :    0.020628
   9 C :   -0.021389
  10 C :   -0.052106
  11 C :    0.032893
  12 C :    0.093421
  13 O :   -0.171605
  14 C :   -0.150867
  15 C :    0.083451
  16 C :   -0.156957
  17 C :   -0.021112
  18 N :   -0.055188
  19 C :   -0.007404
  20 N :   -0.064850
  21 C :    0.119189
  22 N :    0.080445
  23 C :   -0.120251
  24 S :    0.472484
  25 C :   -0.197802
  26 N :    0.273150
  27 O :   -0.203784
  28 O :   -0.221213
  29 C :    0.003687
  30 C :   -0.081878
  31 C :   -0.034467
  32 C :   -0.014822
  33 C :   -0.037147
  34 C :   -0.141700
  35 C :   -0.019009
  36 C :   -0.031690
  37 C :   -0.163934
  38 S :    0.376355
  39 C :   -0.187522
  40 C :   -0.010210
  41 C :   -0.058319
  42 C :   -0.131715
  43 S :    0.389207
  44 C :   -0.088108
  45 C :   -0.118278
  46 C :   -0.107866
  47 C :   -0.043135
  48 N :   -0.038343
  49 C :   -0.057036
  50 C :   -0.337679
  51 S :    0.444069
  52 S :    0.435409
  53 C :   -0.314530
  54 C :   -0.058340
  55 C :   -0.054208
  56 C :   -0.038600
  57 N :   -0.009572
  58 C :   -0.151327
  59 S :    0.477949
  60 C :    0.054050
  61 C :   -0.084675
  62 C :    0.083900
  63 O :   -0.128705
  64 C :   -0.054715
  65 C :    0.033481
  66 C :   -0.008556
  67 C :   -0.004990
  68 C :   -0.030015
  69 C :    0.068125
  70 C :    0.068014
  71 C :   -0.031726
  72 F :   -0.047517
  73 F :   -0.047206
  74 C :    0.015014
  75 C :   -0.021005
  76 C :    0.058078
  77 C :   -0.133753
  78 C :   -0.035233
  79 N :   -0.038845
  80 C :   -0.019035
  81 N :   -0.044917
  82 H :    0.048479
  83 H :    0.045742
  84 H :    0.041219
  85 H :    0.041739
  86 H :    0.044160
  87 H :    0.084927
  88 H :    0.047798
  89 H :    0.030557
  90 H :    0.023140
  91 H :    0.037386
  92 H :    0.039065
  93 H :    0.033452
  94 H :    0.034542
  95 H :    0.018718
  96 H :    0.046068
  97 H :    0.061066
  98 H :    0.042275
  99 H :    0.047591
 100 H :    0.045922
 101 H :    0.039952

  Mayer bond orders larger than 0.100000
B(  0-C ,  1-C ) :   1.4364 B(  0-C ,  5-C ) :   0.1079 B(  0-C ,  7-C ) :   1.1938
B(  0-C , 82-H ) :   1.0065 B(  1-C ,  2-F ) :   1.1382 B(  1-C ,  3-C ) :   1.1941
B(  3-C ,  4-F ) :   1.1369 B(  3-C ,  5-C ) :   1.4393 B(  5-C ,  6-C ) :   1.1946
B(  5-C , 83-H ) :   1.0068 B(  6-C ,  7-C ) :   1.2585 B(  6-C , 11-C ) :   1.1829
B(  7-C ,  8-C ) :   1.2061 B(  8-C ,  9-C ) :   1.4664 B(  8-C , 84-H ) :   0.9905
B(  9-C , 10-C ) :   1.2196 B(  9-C , 15-C ) :   0.9897 B( 10-C , 11-C ) :   1.4744
B( 10-C , 12-C ) :   0.9743 B( 11-C , 85-H ) :   1.0181 B( 12-C , 13-O ) :   2.0563
B( 12-C , 14-C ) :   0.9996 B( 13-O , 87-H ) :   0.1475 B( 14-C , 15-C ) :   1.1156
B( 14-C , 21-C ) :   1.4243 B( 15-C , 16-C ) :   1.6092 B( 16-C , 17-C ) :   1.1473
B( 16-C , 19-C ) :   1.1524 B( 17-C , 18-N ) :   2.9668 B( 19-C , 20-N ) :   2.9639
B( 21-C , 22-N ) :   1.3689 B( 21-C , 86-H ) :   0.9335 B( 22-N , 23-C ) :   1.1513
B( 22-N , 87-H ) :   0.8283 B( 23-C , 24-S ) :   1.1392 B( 23-C , 30-C ) :   1.3840
B( 24-S , 25-C ) :   1.0951 B( 25-C , 26-N ) :   0.9546 B( 25-C , 29-C ) :   1.5065
B( 26-N , 27-O ) :   1.5457 B( 26-N , 28-O ) :   1.5176 B( 27-O , 28-O ) :   0.2664
B( 29-C , 30-C ) :   1.2152 B( 29-C , 88-H ) :   1.0012 B( 30-C , 31-C ) :   1.0522
B( 31-C , 32-C ) :   1.6720 B( 31-C , 89-H ) :   0.9719 B( 32-C , 33-C ) :   1.1488
B( 32-C , 90-H ) :   0.9725 B( 33-C , 34-C ) :   1.5683 B( 33-C , 91-H ) :   0.9761
B( 34-C , 35-C ) :   1.1411 B( 34-C , 38-S ) :   1.0251 B( 35-C , 36-C ) :   1.5906
B( 35-C , 92-H ) :   0.9998 B( 36-C , 37-C ) :   1.1878 B( 36-C , 93-H ) :   0.9931
B( 37-C , 38-S ) :   1.0601 B( 37-C , 39-C ) :   1.4917 B( 39-C , 40-C ) :   1.2019
B( 39-C , 43-S ) :   1.0463 B( 40-C , 41-C ) :   1.6072 B( 40-C , 94-H ) :   0.9917
B( 41-C , 42-C ) :   1.1513 B( 41-C , 95-H ) :   0.9772 B( 42-C , 43-S ) :   1.0607
B( 42-C , 44-C ) :   1.5368 B( 44-C , 45-C ) :   1.2697 B( 44-C , 96-H ) :   0.9392
B( 45-C , 46-C ) :   1.4533 B( 45-C , 51-S ) :   1.0975 B( 46-C , 47-C ) :   1.1906
B( 46-C , 49-C ) :   1.2561 B( 47-C , 48-N ) :   2.9758 B( 49-C , 50-C ) :   1.4178
B( 49-C , 54-C ) :   1.0529 B( 50-C , 51-S ) :   1.0835 B( 50-C , 52-S ) :   1.0716
B( 52-S , 53-C ) :   1.1055 B( 53-C , 54-C ) :   1.3754 B( 53-C , 59-S ) :   1.1130
B( 54-C , 55-C ) :   1.2815 B( 55-C , 56-C ) :   1.1841 B( 55-C , 58-C ) :   1.4562
B( 56-C , 57-N ) :   2.9971 B( 58-C , 59-S ) :   1.1251 B( 58-C , 60-C ) :   1.1230
B( 60-C , 61-C ) :   1.6806 B( 60-C , 97-H ) :   0.9408 B( 61-C , 62-C ) :   0.9284
B( 61-C , 76-C ) :   1.0252 B( 62-C , 63-O ) :   2.2870 B( 62-C , 64-C ) :   0.9167
B( 64-C , 65-C ) :   1.4756 B( 64-C , 75-C ) :   1.2208 B( 65-C , 66-C ) :   1.2000
B( 65-C , 98-H ) :   1.0144 B( 66-C , 67-C ) :   1.2527 B( 66-C , 71-C ) :   1.1934
B( 67-C , 68-C ) :   1.1906 B( 67-C , 74-C ) :   1.2189 B( 68-C , 69-C ) :   1.4446
B( 68-C , 71-C ) :   0.1081 B( 68-C , 99-H ) :   1.0054 B( 69-C , 70-C ) :   1.1896
B( 69-C , 73-F ) :   1.1362 B( 70-C , 71-C ) :   1.4462 B( 70-C , 72-F ) :   1.1357
B( 71-C ,100-H ) :   1.0057 B( 74-C , 75-C ) :   1.4556 B( 74-C ,101-H ) :   0.9930
B( 75-C , 76-C ) :   1.0015 B( 76-C , 77-C ) :   1.6697 B( 77-C , 78-C ) :   1.1548
B( 77-C , 80-C ) :   1.1335 B( 78-C , 79-N ) :   3.0093 B( 80-C , 81-N ) :   2.9887

-----------------------------------------------------------------------------
         ABSORPTION SPECTRUM VIA TRANSITION ELECTRIC DIPOLE MOMENTS
-----------------------------------------------------------------------------
State   Energy  Wavelength   fosc         T2         TX        TY        TZ
        (cm-1)    (nm)                  (au**2)     (au)      (au)      (au)
-----------------------------------------------------------------------------
   0   12812.8    780.5   1.586382007  40.76039   4.75428   4.24422   0.37921
   1   14436.6    692.7   0.015479220   0.35299  -0.46413  -0.35155   0.11826
   2   16025.9    624.0   0.707908491  14.54217   2.91219   2.38167  -0.62367
   3   20340.6    491.6   0.005942257   0.09618  -0.07302  -0.28028  -0.11085
   4   21860.1    457.5   0.325631235   4.90399   1.65089   0.97994   1.10375
   5   22783.9    438.9   0.188013360   2.71666  -1.00709  -0.49010  -1.20922
   6   23408.7    427.2   0.084731778   1.19164   0.26482   0.59552   0.87571
   7   25135.6    397.8   0.208392172   2.72941  -1.03455   0.13530  -1.28094
   8   25401.7    393.7   0.000743334   0.00963   0.05672  -0.05056   0.06213
   9   26033.3    384.1   0.083795268   1.05966  -0.77649  -0.67538   0.02417
  10   26600.9    375.9   0.063427164   0.78497  -0.79797  -0.33557   0.18872
  11   27586.9    362.5   0.284424291   3.39422   0.71090  -1.29541   1.10034
  12   27721.5    360.7   0.011100963   0.13183   0.23025  -0.27114  -0.07282
  13   28177.4    354.9   0.247603552   2.89288  -1.24143   0.17797  -1.14894
  14   28878.1    346.3   0.082308413   0.93832  -0.55559  -0.78710  -0.10057
  15   29022.1    344.6   0.036213039   0.41078  -0.43712  -0.44187   0.15640
  16   29589.5    338.0   0.048542217   0.54008   0.53152  -0.44874   0.23706
  17   29903.6    334.4   0.218849921   2.40935   1.08115   0.76729   0.80729
  18   30289.9    330.1   0.031639847   0.34388   0.27290  -0.51905   0.00170
  19   30870.5    323.9   0.106967506   1.14073  -0.46134  -0.96324  -0.00789
  20   31175.2    320.8   0.048996597   0.51741   0.66775  -0.12853   0.23451
  21   31367.3    318.8   0.286626577   3.00826  -1.05526  -0.50263  -1.28143
  22   31887.1    313.6   0.564195792   5.82492  -2.22647  -0.92896   0.06912
  23   32335.3    309.3   0.010700822   0.10895  -0.03295  -0.29568   0.14296
  24   33130.6    301.8   0.034477987   0.34260   0.45042   0.34280  -0.14903
  25   33352.3    299.8   0.291513889   2.87746   1.59646   0.30237  -0.48717
  26   33683.7    296.9   0.005760031   0.05630   0.20422  -0.06075   0.10441
  27   33849.0    295.4   0.002281809   0.02219  -0.00390   0.11935  -0.08907
  28   34046.0    293.7   0.010725609   0.10371   0.11528   0.14519   0.26333
  29   34092.3    293.3   0.016246672   0.15689  -0.19538  -0.32465   0.11539
  30   34415.0    290.6   0.495148082   4.73656  -1.86077  -1.11778   0.15697
  31   34534.1    289.6   0.069503132   0.66257   0.41625   0.51646   0.47178
  32   34616.0    288.9   0.611867183   5.81911   1.18784   2.09525   0.13451
  33   34849.2    287.0   0.026426931   0.24965  -0.01431   0.43233  -0.25007
  34   35092.3    285.0   0.026280138   0.24654   0.48196   0.11934  -0.00379
  35   35660.1    280.4   0.204857075   1.89123  -0.24796  -1.20656   0.61151
  36   36190.3    276.3   0.020854475   0.18971   0.35648  -0.11011   0.22474
  37   36295.4    275.5   0.027522964   0.24964   0.27926  -0.22313   0.34910
  38   36609.6    273.2   0.146585388   1.31817  -0.73363   0.64678  -0.60135
  39   36958.4    270.6   0.058259424   0.51895   0.13352   0.68163  -0.19108
  40   37235.0    268.6   0.044297429   0.39165   0.57021   0.23245   0.11169
  41   37424.4    267.2   0.006284885   0.05529   0.15239   0.17777  -0.02147
  42   37914.6    263.8   0.034850185   0.30260  -0.18214   0.24946  -0.45519
  43   38103.6    262.4   0.042311362   0.36557   0.54091  -0.26713   0.04030
  44   38269.3    261.3   0.022685426   0.19515   0.07361   0.28810  -0.32669
  45   38712.9    258.3   0.069909199   0.59450  -0.51073   0.00618  -0.57760
  46   38899.9    257.1   0.073233189   0.61978  -0.35098   0.26463  -0.65311
  47   39038.7    256.2   0.168450021   1.42053   0.46003  -0.16344   1.08729
  48   39588.8    252.6   0.074689461   0.62110  -0.04643   0.76414  -0.18718
  49   39679.0    252.0   0.103499791   0.85873   0.14760   0.77882   0.47998
  50   39844.1    251.0   0.065236410   0.53902   0.12311  -0.56720   0.44960
  51   40210.8    248.7   0.047674099   0.39032   0.36603   0.28702  -0.41708
  52   40300.2    248.1   0.121286826   0.99079   0.11154   0.96227   0.22889

FINAL SINGLE POINT ENERGY     -5820.650427194554

DIPOLE MOMENT
-------------
                                X             Y             Z
Electronic contribution:     33.91474      20.62478      -2.27076
Nuclear contribution   :    -37.07677     -20.13329      -0.69759
                        -----------------------------------------
Total Dipole Moment    :     -3.16203       0.49148      -2.96835
                        -----------------------------------------
Magnitude (a.u.)       :      4.36476
Magnitude (Debye)      :     11.09434

Rotational constants in cm-1:     0.002045     0.000106     0.000103
Rotational constants in MHz :    61.296659     3.172647     3.094091

                             ****ORCA TERMINATED NORMALLY****
TOTAL RUN TIME: 0 days 0 hours 11 minutes 5 seconds 81 msec
