                         Program Version 4.2.0 -  RELEASE  -
|  1> # ORCA input file
|  2> # SCF done       -175.244922478314          0.000467223302
|  3> ! CAM-B3LYP def2-SVP def2/J RIJCOSX Grid4 TightSCF
|  4> %maxcore 5000
|  5> %tddft
|  6>     Mode sTDDFT
|  7>     Ethresh 5.0
|  8>     maxcore 5000
|  9> end
| 10>
| 11> %pal
| 12>   nprocs 6
| 13>   end
| 14> * xyz 0 1
| 15>    C       -1.25583         0.10791        -5.98656
| 16>    O       -0.99245        -1.07798        -6.03229
| 17>    C       -0.44374         1.21458        -6.55213
| 18>    C       -1.07919         2.44154        -6.29211
| 19>    C       -0.49822         3.61895        -6.73615
| 20>    C        0.70408         3.55406        -7.42710
| 21>    C        1.31257         2.33200        -7.66844
| 22>    C        0.75009         1.13822        -7.23636
| 23>   Br        2.96116         2.29191        -8.61722
| 24>    C       -2.31530         2.18252        -5.54819
| 25>    C       -3.18649         3.14945        -5.09466
| 26>    C       -2.99354         4.53100        -5.29013
| 27>    N       -2.88252         5.66836        -5.40913
| 28>    C       -4.36790         2.92647        -4.35909
| 29>    N       -5.33877         2.84027        -3.74767
| 30>    C       -2.42096         0.75973        -5.37559
| 31>    C       -3.45399         0.10236        -4.73478
| 32>    C       -3.58908        -1.26066        -4.52306
| 33>    C       -4.69249        -1.75292        -3.83889
| 34>    C       -5.01711        -3.07970        -3.49717
| 35>    C       -6.18879        -3.21044        -2.79509
| 36>    C       -6.83795        -1.98912        -2.55832
| 37>    S       -5.92678        -0.66764        -3.24915
| 38>    C       -8.02281        -1.69171        -1.89638
| 39>    C       -8.95963        -2.50990        -1.24411
| 40>    C      -10.01363        -1.81953        -0.70757
| 41>    C       -9.97123        -0.42407        -0.91726
| 42>    S       -8.51526        -0.02222        -1.80345
| 43>    C      -10.89819         0.49234        -0.46545
| 44>    C      -10.97983         1.87156        -0.65825
| 45>    S      -12.20756         2.71264         0.28931
| 46>    C      -11.84695         4.28530        -0.35717
| 47>    C      -10.82352         4.16336        -1.30317
| 48>    C      -10.33881         2.82581        -1.46021
| 49>    N       -9.39533         2.83521        -2.43206
| 50>    C       -9.25237         4.12130        -2.89762
| 51>    C       -8.37982         4.45839        -3.94470
| 52>    N       -7.70992         4.77401        -4.82004
| 53>    C      -10.11299         4.96444        -2.23076
| 54>    C      -12.55872         5.43740         0.10432
| 55>    C      -12.18598         6.73091        -0.30536
| 56>    C      -12.88293         7.81791         0.15549
| 57>    C      -13.99216         7.64924         1.00714
| 58>    C      -14.36333         6.37776         1.42945
| 59>    C      -13.64451         5.29138         0.98510
| 60>    C      -14.58624         8.94105         1.25371
| 61>    C      -13.84993         9.91159         0.55203
| 62>    C      -12.66625         9.28205        -0.15094
| 63>    C      -11.38895         9.83388         0.52535
| 64>    C      -10.07563         9.19202         0.09771
| 65>    C      -12.67559         9.56358        -1.66105
| 66>    C      -13.98000         9.13439        -2.32322
| 67>    C      -14.22230        11.23112         0.59073
| 68>    C      -15.35051        11.62181         1.33155
| 69>    C      -16.06962        10.64033         2.03010
| 70>    C      -15.69925         9.31273         1.99742
| 71>    C      -15.71016        13.01637         1.33257
| 72>    C      -16.74342        13.59599         1.97659
| 73>    C      -17.03386        14.98655         1.92586
| 74>    S      -16.07585        16.12881         1.00197
| 75>    C      -17.03611        17.47693         1.45125
| 76>    C      -18.06176        17.09634         2.27947
| 77>    C      -18.05228        15.68555         2.54195
| 78>    N      -19.09753        15.40398         3.36797
| 79>    C      -19.76728        16.58682         3.63491
| 80>    C      -20.89721        16.61482         4.46329
| 81>    N      -21.82335        16.63502         5.14113
| 82>    C      -19.16544        17.64041         2.98944
| 83>    H       -0.95440         4.57888        -6.55987
| 84>    H        1.16935         4.46207        -7.77908
| 85>    H        1.21997         0.18513        -7.42349
| 86>    H       -4.25263         0.72259        -4.34652
| 87>    H       -2.83553        -1.94627        -4.87957
| 88>    H       -4.38158        -3.90229        -3.77340
| 89>    H       -6.58784        -4.14852        -2.45150
| 90>    H       -8.83888        -3.57646        -1.18352
| 91>    H      -10.82554        -2.27976        -0.17232
| 92>    H      -11.68179         0.07870         0.15872
| 93>    H       -8.84037         2.05970        -2.75479
| 94>    H      -10.20773         6.01243        -2.42702
| 95>    H      -11.35758         6.85684        -0.97777
| 96>    H      -15.20716         6.24150         2.08872
| 97>    H      -13.92482         4.29683         1.30210
| 98>    H      -11.50270         9.71138         1.60584
| 99>    H      -11.34491        10.90558         0.31925
|100>    H      -10.03901         8.14601         0.38985
|101>    H       -9.25047         9.70546         0.58650
|102>    H       -9.92598         9.26759        -0.97607
|103>    H      -11.84699         9.03275        -2.13129
|104>    H      -12.52174        10.63269        -1.82038
|105>    H      -14.14819         8.06824        -2.18514
|106>    H      -13.94443         9.34159        -3.39020
|107>    H      -14.82385         9.67170        -1.89593
|108>    H      -13.66213        11.98100         0.05066
|109>    H      -16.93627        10.92603         2.60608
|110>    H      -16.26874         8.57334         2.54083
|111>    H      -15.06748        13.66048         0.74389
|112>    H      -17.42124        13.00943         2.58250
|113>    H      -16.78773        18.45072         1.08209
|114>    H      -19.35975        14.50323         3.72846
|115>    H      -19.47654        18.66479         3.02311
|116> *
|117>
|118>                          ****END OF INPUT****

CARTESIAN COORDINATES (ANGSTROEM)
---------------------------------
  C     -1.255830    0.107910   -5.986560
  O     -0.992450   -1.077980   -6.032290
  C     -0.443740    1.214580   -6.552130
  C     -1.079190    2.441540   -6.292110
  C     -0.498220    3.618950   -6.736150
  C      0.704080    3.554060   -7.427100
  C      1.312570    2.332000   -7.668440
  C      0.750090    1.138220   -7.236360
  Br     2.961160    2.291910   -8.617220
  C     -2.315300    2.182520   -5.548190
  C     -3.186490    3.149450   -5.094660
  C     -2.993540    4.531000   -5.290130
  N     -2.882520    5.668360   -5.409130
  C     -4.367900    2.926470   -4.359090
  N     -5.338770    2.840270   -3.747670
  C     -2.420960    0.759730   -5.375590
  C     -3.453990    0.102360   -4.734780
  C     -3.589080   -1.260660   -4.523060
  C     -4.692490   -1.752920   -3.838890
  C     -5.017110   -3.079700   -3.497170
  C     -6.188790   -3.210440   -2.795090
  C     -6.837950   -1.989120   -2.558320
  S     -5.926780   -0.667640   -3.249150
  C     -8.022810   -1.691710   -1.896380
  C     -8.959630   -2.509900   -1.244110
  C    -10.013630   -1.819530   -0.707570
  C     -9.971230   -0.424070   -0.917260
  S     -8.515260   -0.022220   -1.803450
  C    -10.898190    0.492340   -0.465450
  C    -10.979830    1.871560   -0.658250
  S    -12.207560    2.712640    0.289310
  C    -11.846950    4.285300   -0.357170
  C    -10.823520    4.163360   -1.303170
  C    -10.338810    2.825810   -1.460210
  N     -9.395330    2.835210   -2.432060
  C     -9.252370    4.121300   -2.897620
  C     -8.379820    4.458390   -3.944700
  N     -7.709920    4.774010   -4.820040
  C    -10.112990    4.964440   -2.230760
  C    -12.558720    5.437400    0.104320
  C    -12.185980    6.730910   -0.305360
  C    -12.882930    7.817910    0.155490
  C    -13.992160    7.649240    1.007140
  C    -14.363330    6.377760    1.429450
  C    -13.644510    5.291380    0.985100
  C    -14.586240    8.941050    1.253710
  C    -13.849930    9.911590    0.552030
  C    -12.666250    9.282050   -0.150940
  C    -11.388950    9.833880    0.525350
  C    -10.075630    9.192020    0.097710
  C    -12.675590    9.563580   -1.661050
  C    -13.980000    9.134390   -2.323220
  C    -14.222300   11.231120    0.590730
  C    -15.350510   11.621810    1.331550
  C    -16.069620   10.640330    2.030100
  C    -15.699250    9.312730    1.997420
  C    -15.710160   13.016370    1.332570
  C    -16.743420   13.595990    1.976590
  C    -17.033860   14.986550    1.925860
  S    -16.075850   16.128810    1.001970
  C    -17.036110   17.476930    1.451250
  C    -18.061760   17.096340    2.279470
  C    -18.052280   15.685550    2.541950
  N    -19.097530   15.403980    3.367970
  C    -19.767280   16.586820    3.634910
  C    -20.897210   16.614820    4.463290
  N    -21.823350   16.635020    5.141130
  C    -19.165440   17.640410    2.989440
  H     -0.954400    4.578880   -6.559870
  H      1.169350    4.462070   -7.779080
  H      1.219970    0.185130   -7.423490
  H     -4.252630    0.722590   -4.346520
  H     -2.835530   -1.946270   -4.879570
  H     -4.381580   -3.902290   -3.773400
  H     -6.587840   -4.148520   -2.451500
  H     -8.838880   -3.576460   -1.183520
  H    -10.825540   -2.279760   -0.172320
  H    -11.681790    0.078700    0.158720
  H     -8.840370    2.059700   -2.754790
  H    -10.207730    6.012430   -2.427020
  H    -11.357580    6.856840   -0.977770
  H    -15.207160    6.241500    2.088720
  H    -13.924820    4.296830    1.302100
  H    -11.502700    9.711380    1.605840
  H    -11.344910   10.905580    0.319250
  H    -10.039010    8.146010    0.389850
  H     -9.250470    9.705460    0.586500
  H     -9.925980    9.267590   -0.976070
  H    -11.846990    9.032750   -2.131290
  H    -12.521740   10.632690   -1.820380
  H    -14.148190    8.068240   -2.185140
  H    -13.944430    9.341590   -3.390200
  H    -14.823850    9.671700   -1.895930
  H    -13.662130   11.981000    0.050660
  H    -16.936270   10.926030    2.606080
  H    -16.268740    8.573340    2.540830
  H    -15.067480   13.660480    0.743890
  H    -17.421240   13.009430    2.582500
  H    -16.787730   18.450720    1.082090
  H    -19.359750   14.503230    3.728460
  H    -19.476540   18.664790    3.023110

 Total Charge           Charge          ....    0
 Multiplicity           Mult            ....    1
 Number of Electrons    NEL             ....  518
 Basis Dimension        Dim             .... 1151

ORBITAL ENERGIES
----------------

  NO   OCC          E(Eh)            E(eV)
   0   2.0000    -482.854835    -13139.1480
   1   2.0000     -88.977357     -2421.1970
   2   2.0000     -88.969349     -2420.9791
   3   2.0000     -88.965704     -2420.8799
   4   2.0000     -88.951505     -2420.4935
   5   2.0000     -62.532562     -1701.5975
   6   2.0000     -56.366369     -1533.8069
   7   2.0000     -56.363890     -1533.7394
   8   2.0000     -56.363886     -1533.7393
   9   2.0000     -19.193226      -522.2742
  10   2.0000     -14.483428      -394.1141
  11   2.0000     -14.475318      -393.8934
  12   2.0000     -14.417313      -392.3150
  13   2.0000     -14.409320      -392.0975
  14   2.0000     -14.396309      -391.7435
  15   2.0000     -14.388717      -391.5369
  16   2.0000     -10.350327      -281.6467
  17   2.0000     -10.348244      -281.5900
  18   2.0000     -10.342936      -281.4456
  19   2.0000     -10.341084      -281.3952
  20   2.0000     -10.336858      -281.2802
  21   2.0000     -10.335417      -281.2410
  22   2.0000     -10.325319      -280.9662
  23   2.0000     -10.324011      -280.9306
  24   2.0000     -10.322947      -280.9017
  25   2.0000     -10.322093      -280.8784
  26   2.0000     -10.320862      -280.8449
  27   2.0000     -10.319308      -280.8026
  28   2.0000     -10.316689      -280.7314
  29   2.0000     -10.315638      -280.7028
  30   2.0000     -10.313744      -280.6512
  31   2.0000     -10.313116      -280.6341
  32   2.0000     -10.308563      -280.5103
  33   2.0000     -10.307444      -280.4798
  34   2.0000     -10.304779      -280.4073
  35   2.0000     -10.304603      -280.4025
  36   2.0000     -10.301178      -280.3093
  37   2.0000     -10.300708      -280.2965
  38   2.0000     -10.300448      -280.2895
  39   2.0000     -10.299418      -280.2614
  40   2.0000     -10.298900      -280.2473
  41   2.0000     -10.294838      -280.1368
  42   2.0000     -10.293503      -280.1004
  43   2.0000     -10.291231      -280.0386
  44   2.0000     -10.289859      -280.0013
  45   2.0000     -10.288957      -279.9768
  46   2.0000     -10.287331      -279.9325
  47   2.0000     -10.287127      -279.9269
  48   2.0000     -10.286749      -279.9167
  49   2.0000     -10.286454      -279.9086
  50   2.0000     -10.286242      -279.9029
  51   2.0000     -10.286153      -279.9005
  52   2.0000     -10.285696      -279.8880
  53   2.0000     -10.285195      -279.8744
  54   2.0000     -10.284493      -279.8553
  55   2.0000     -10.282694      -279.8063
  56   2.0000     -10.282356      -279.7971
  57   2.0000     -10.281348      -279.7697
  58   2.0000     -10.280379      -279.7433
  59   2.0000     -10.279842      -279.7287
  60   2.0000     -10.277447      -279.6635
  61   2.0000     -10.277130      -279.6549
  62   2.0000     -10.276437      -279.6361
  63   2.0000     -10.275832      -279.6196
  64   2.0000     -10.275405      -279.6080
  65   2.0000     -10.274474      -279.5826
  66   2.0000     -10.270336      -279.4700
  67   2.0000     -10.270300      -279.4691
  68   2.0000     -10.265251      -279.3317
  69   2.0000     -10.264567      -279.3131
  70   2.0000     -10.257231      -279.1135
  71   2.0000     -10.252950      -278.9969
  72   2.0000      -8.761841      -238.4218
  73   2.0000      -8.072220      -219.6563
  74   2.0000      -8.065862      -219.4833
  75   2.0000      -8.060602      -219.3401
  76   2.0000      -8.047664      -218.9881
  77   2.0000      -6.597579      -179.5292
  78   2.0000      -6.583968      -179.1589
  79   2.0000      -6.583628      -179.1496
  80   2.0000      -6.041624      -164.4010
  81   2.0000      -6.037480      -164.2882
  82   2.0000      -6.035486      -164.2339
  83   2.0000      -6.034214      -164.1993
  84   2.0000      -6.031448      -164.1241
  85   2.0000      -6.029860      -164.0808
  86   2.0000      -6.026961      -164.0019
  87   2.0000      -6.025574      -163.9642
  88   2.0000      -6.023107      -163.8971
  89   2.0000      -6.017233      -163.7372
  90   2.0000      -6.013184      -163.6271
  91   2.0000      -6.008881      -163.5100
  92   2.0000      -2.713492       -73.8379
  93   2.0000      -2.709818       -73.7379
  94   2.0000      -2.709535       -73.7302
  95   2.0000      -2.698732       -73.4362
  96   2.0000      -2.698714       -73.4357
  97   2.0000      -1.108957       -30.1763
  98   2.0000      -1.105900       -30.0931
  99   2.0000      -1.097378       -29.8612
 100   2.0000      -1.013361       -27.5750
 101   2.0000      -1.002860       -27.2892
 102   2.0000      -0.998703       -27.1761
 103   2.0000      -0.995852       -27.0985
 104   2.0000      -0.994497       -27.0616
 105   2.0000      -0.987290       -26.8655
 106   2.0000      -0.984970       -26.8024
 107   2.0000      -0.979293       -26.6479
 108   2.0000      -0.978520       -26.6269
 109   2.0000      -0.970250       -26.4018
 110   2.0000      -0.955161       -25.9913
 111   2.0000      -0.941537       -25.6205
 112   2.0000      -0.931595       -25.3500
 113   2.0000      -0.918556       -24.9952
 114   2.0000      -0.907233       -24.6871
 115   2.0000      -0.902734       -24.5646
 116   2.0000      -0.892506       -24.2863
 117   2.0000      -0.888975       -24.1902
 118   2.0000      -0.884614       -24.0716
 119   2.0000      -0.875438       -23.8219
 120   2.0000      -0.867490       -23.6056
 121   2.0000      -0.863097       -23.4861
 122   2.0000      -0.857166       -23.3247
 123   2.0000      -0.849495       -23.1159
 124   2.0000      -0.847013       -23.0484
 125   2.0000      -0.845005       -22.9938
 126   2.0000      -0.843329       -22.9482
 127   2.0000      -0.840221       -22.8636
 128   2.0000      -0.838802       -22.8249
 129   2.0000      -0.830010       -22.5857
 130   2.0000      -0.826668       -22.4948
 131   2.0000      -0.810236       -22.0476
 132   2.0000      -0.792117       -21.5546
 133   2.0000      -0.778510       -21.1843
 134   2.0000      -0.773223       -21.0405
 135   2.0000      -0.758672       -20.6445
 136   2.0000      -0.749414       -20.3926
 137   2.0000      -0.744335       -20.2544
 138   2.0000      -0.742955       -20.2168
 139   2.0000      -0.738320       -20.0907
 140   2.0000      -0.729836       -19.8598
 141   2.0000      -0.718585       -19.5537
 142   2.0000      -0.710092       -19.3226
 143   2.0000      -0.702043       -19.1035
 144   2.0000      -0.697929       -18.9916
 145   2.0000      -0.693705       -18.8767
 146   2.0000      -0.689665       -18.7667
 147   2.0000      -0.682491       -18.5715
 148   2.0000      -0.675097       -18.3703
 149   2.0000      -0.670755       -18.2522
 150   2.0000      -0.668961       -18.2033
 151   2.0000      -0.663947       -18.0669
 152   2.0000      -0.659573       -17.9479
 153   2.0000      -0.654697       -17.8152
 154   2.0000      -0.650441       -17.6994
 155   2.0000      -0.639303       -17.3963
 156   2.0000      -0.632686       -17.2163
 157   2.0000      -0.622559       -16.9407
 158   2.0000      -0.616474       -16.7751
 159   2.0000      -0.611851       -16.6493
 160   2.0000      -0.610584       -16.6148
 161   2.0000      -0.602171       -16.3859
 162   2.0000      -0.599693       -16.3185
 163   2.0000      -0.591773       -16.1030
 164   2.0000      -0.590248       -16.0615
 165   2.0000      -0.584943       -15.9171
 166   2.0000      -0.576788       -15.6952
 167   2.0000      -0.567036       -15.4298
 168   2.0000      -0.559534       -15.2257
 169   2.0000      -0.557397       -15.1675
 170   2.0000      -0.554244       -15.0817
 171   2.0000      -0.553605       -15.0644
 172   2.0000      -0.549339       -14.9483
 173   2.0000      -0.545041       -14.8313
 174   2.0000      -0.544072       -14.8050
 175   2.0000      -0.543572       -14.7913
 176   2.0000      -0.541339       -14.7306
 177   2.0000      -0.540141       -14.6980
 178   2.0000      -0.532773       -14.4975
 179   2.0000      -0.531654       -14.4670
 180   2.0000      -0.528892       -14.3919
 181   2.0000      -0.526298       -14.3213
 182   2.0000      -0.525654       -14.3038
 183   2.0000      -0.523341       -14.2408
 184   2.0000      -0.519079       -14.1249
 185   2.0000      -0.516235       -14.0475
 186   2.0000      -0.515723       -14.0335
 187   2.0000      -0.511919       -13.9300
 188   2.0000      -0.507920       -13.8212
 189   2.0000      -0.505389       -13.7523
 190   2.0000      -0.501263       -13.6401
 191   2.0000      -0.498684       -13.5699
 192   2.0000      -0.497811       -13.5461
 193   2.0000      -0.490104       -13.3364
 194   2.0000      -0.489623       -13.3233
 195   2.0000      -0.486478       -13.2377
 196   2.0000      -0.484853       -13.1935
 197   2.0000      -0.481235       -13.0951
 198   2.0000      -0.479330       -13.0432
 199   2.0000      -0.474481       -12.9113
 200   2.0000      -0.473333       -12.8801
 201   2.0000      -0.469884       -12.7862
 202   2.0000      -0.468694       -12.7538
 203   2.0000      -0.465728       -12.6731
 204   2.0000      -0.463679       -12.6174
 205   2.0000      -0.461738       -12.5645
 206   2.0000      -0.460865       -12.5408
 207   2.0000      -0.455516       -12.3952
 208   2.0000      -0.454398       -12.3648
 209   2.0000      -0.453108       -12.3297
 210   2.0000      -0.447372       -12.1736
 211   2.0000      -0.446383       -12.1467
 212   2.0000      -0.446017       -12.1368
 213   2.0000      -0.444307       -12.0902
 214   2.0000      -0.441421       -12.0117
 215   2.0000      -0.440343       -11.9823
 216   2.0000      -0.438499       -11.9322
 217   2.0000      -0.435821       -11.8593
 218   2.0000      -0.433233       -11.7889
 219   2.0000      -0.432553       -11.7704
 220   2.0000      -0.430637       -11.7182
 221   2.0000      -0.428483       -11.6596
 222   2.0000      -0.426272       -11.5995
 223   2.0000      -0.424017       -11.5381
 224   2.0000      -0.423303       -11.5187
 225   2.0000      -0.421905       -11.4806
 226   2.0000      -0.421006       -11.4562
 227   2.0000      -0.418976       -11.4009
 228   2.0000      -0.414743       -11.2857
 229   2.0000      -0.413811       -11.2604
 230   2.0000      -0.406759       -11.0685
 231   2.0000      -0.404784       -11.0147
 232   2.0000      -0.403347       -10.9756
 233   2.0000      -0.401396       -10.9225
 234   2.0000      -0.400557       -10.8997
 235   2.0000      -0.399280       -10.8650
 236   2.0000      -0.394141       -10.7251
 237   2.0000      -0.391360       -10.6495
 238   2.0000      -0.387069       -10.5327
 239   2.0000      -0.384120       -10.4524
 240   2.0000      -0.372496       -10.1361
 241   2.0000      -0.366540        -9.9741
 242   2.0000      -0.353504        -9.6193
 243   2.0000      -0.350033        -9.5249
 244   2.0000      -0.348201        -9.4750
 245   2.0000      -0.342533        -9.3208
 246   2.0000      -0.334254        -9.0955
 247   2.0000      -0.329991        -8.9795
 248   2.0000      -0.329153        -8.9567
 249   2.0000      -0.323907        -8.8139
 250   2.0000      -0.319405        -8.6914
 251   2.0000      -0.313512        -8.5311
 252   2.0000      -0.310598        -8.4518
 253   2.0000      -0.305985        -8.3263
 254   2.0000      -0.296827        -8.0771
 255   2.0000      -0.286841        -7.8053
 256   2.0000      -0.265301        -7.2192
 257   2.0000      -0.242437        -6.5970
 258   2.0000      -0.213996        -5.8231
 259   0.0000      -0.109246        -2.9727
 260   0.0000      -0.065056        -1.7703
 261   0.0000      -0.049129        -1.3369
 262   0.0000      -0.043561        -1.1854
 263   0.0000      -0.024264        -0.6603

MULLIKEN ATOMIC CHARGES
-----------------------
   0 C :    0.135234
   1 O :   -0.162407
   2 C :   -0.021941
   3 C :    0.030424
   4 C :   -0.032833
   5 C :    0.045895
   6 C :   -0.000883
   7 C :   -0.022188
   8 Br:   -0.039006
   9 C :    0.329189
  10 C :   -0.369668
  11 C :   -0.187792
  12 N :    0.131571
  13 C :   -0.169784
  14 N :    0.111980
  15 C :   -0.086407
  16 C :   -0.053785
  17 C :   -0.012104
  18 C :    0.009217
  19 C :    0.017076
  20 C :    0.046190
  21 C :   -0.047696
  22 S :    0.064633
  23 C :   -0.003842
  24 C :    0.014083
  25 C :    0.048052
  26 C :   -0.056348
  27 S :    0.048054
  28 C :    0.063191
  29 C :   -0.200663
  30 S :    0.123884
  31 C :   -0.109995
  32 C :    0.090070
  33 C :    0.122956
  34 N :   -0.011377
  35 C :   -0.086767
  36 C :   -0.134413
  37 N :    0.180485
  38 C :   -0.053063
  39 C :    0.162279
  40 C :   -0.099351
  41 C :    0.020317
  42 C :    0.109935
  43 C :   -0.050529
  44 C :   -0.042383
  45 C :    0.096812
  46 C :    0.027981
  47 C :   -0.133024
  48 C :    0.073161
  49 C :    0.029203
  50 C :    0.049241
  51 C :    0.022779
  52 C :   -0.115167
  53 C :    0.142153
  54 C :   -0.018669
  55 C :   -0.039421
  56 C :   -0.031446
  57 C :    0.021910
  58 C :   -0.167109
  59 S :    0.124490
  60 C :   -0.142734
  61 C :    0.128532
  62 C :    0.109515
  63 N :   -0.050539
  64 C :   -0.091818
  65 C :   -0.146801
  66 N :    0.156419
  67 C :   -0.009962
  68 H :    0.002720
  69 H :   -0.002481
  70 H :   -0.005185
  71 H :    0.017649
  72 H :    0.009263
  73 H :   -0.005350
  74 H :   -0.009623
  75 H :   -0.006220
  76 H :   -0.002894
  77 H :   -0.006373
  78 H :    0.142270
  79 H :    0.001460
  80 H :   -0.071581
  81 H :   -0.029879
  82 H :   -0.012125
  83 H :    0.007153
  84 H :    0.000738
  85 H :    0.023027
  86 H :    0.018579
  87 H :    0.006166
  88 H :    0.006824
  89 H :    0.001864
  90 H :    0.018882
  91 H :    0.014437
  92 H :    0.022436
  93 H :   -0.038690
  94 H :   -0.036707
  95 H :   -0.036922
  96 H :   -0.020734
  97 H :   -0.030345
  98 H :    0.024521
  99 H :    0.126916
 100 H :   -0.014793
Sum of atomic charges:   -0.0000000

LOEWDIN ATOMIC CHARGES
----------------------
   0 C :    0.079714
   1 O :   -0.158192
   2 C :   -0.035327
   3 C :   -0.013617
   4 C :    0.003398
   5 C :   -0.020796
   6 C :   -0.102014
   7 C :   -0.007025
   8 Br:    0.100096
   9 C :    0.072891
  10 C :   -0.159879
  11 C :   -0.018045
  12 N :   -0.071701
  13 C :   -0.011878
  14 N :   -0.082201
  15 C :   -0.119831
  16 C :    0.043603
  17 C :   -0.080076
  18 C :   -0.100163
  19 C :   -0.055084
  20 C :   -0.007528
  21 C :   -0.207635
  22 S :    0.409566
  23 C :   -0.140057
  24 C :   -0.055898
  25 C :   -0.006817
  26 C :   -0.183790
  27 S :    0.408344
  28 C :   -0.030538
  29 C :   -0.215103
  30 S :    0.458956
  31 C :   -0.127051
  32 C :   -0.072511
  33 C :    0.008350
  34 N :    0.088780
  35 C :   -0.017250
  36 C :   -0.043238
  37 N :   -0.019250
  38 C :   -0.037366
  39 C :   -0.048598
  40 C :   -0.009836
  41 C :    0.006243
  42 C :   -0.002189
  43 C :   -0.018232
  44 C :   -0.016432
  45 C :   -0.027103
  46 C :    0.009670
  47 C :   -0.034735
  48 C :   -0.009171
  49 C :   -0.059525
  50 C :   -0.014717
  51 C :   -0.056835
  52 C :   -0.023118
  53 C :   -0.015828
  54 C :   -0.019761
  55 C :   -0.013340
  56 C :   -0.037317
  57 C :   -0.033585
  58 C :   -0.216975
  59 S :    0.460644
  60 C :   -0.185762
  61 C :   -0.075160
  62 C :   -0.005611
  63 N :    0.059871
  64 C :   -0.029174
  65 C :   -0.044404
  66 N :   -0.042644
  67 C :   -0.029380
  68 H :    0.041204
  69 H :    0.036965
  70 H :    0.040715
  71 H :    0.026267
  72 H :    0.037647
  73 H :    0.036445
  74 H :    0.034253
  75 H :    0.035548
  76 H :    0.037176
  77 H :    0.040327
  78 H :    0.065204
  79 H :    0.034863
  80 H :    0.025045
  81 H :    0.029545
  82 H :    0.020101
  83 H :    0.027245
  84 H :    0.021676
  85 H :    0.024036
  86 H :    0.030701
  87 H :    0.020920
  88 H :    0.019286
  89 H :    0.022043
  90 H :    0.024503
  91 H :    0.025913
  92 H :    0.025726
  93 H :    0.024279
  94 H :    0.022772
  95 H :    0.026741
  96 H :    0.020195
  97 H :    0.025403
  98 H :    0.026560
  99 H :    0.093201
 100 H :    0.036663

  Mayer bond orders larger than 0.100000
B(  0-C ,  1-O ) :   2.2045 B(  0-C ,  2-C ) :   0.9245 B(  0-C , 15-C ) :   0.9770
B(  2-C ,  3-C ) :   1.3407 B(  2-C ,  7-C ) :   1.3887 B(  3-C ,  4-C ) :   1.3770
B(  3-C ,  9-C ) :   0.9733 B(  4-C ,  5-C ) :   1.3679 B(  4-C , 68-H ) :   0.9829
B(  5-C ,  6-C ) :   1.4040 B(  5-C , 69-H ) :   0.9848 B(  6-C ,  7-C ) :   1.3259
B(  6-C ,  8-Br) :   0.9802 B(  7-C , 70-H ) :   1.0071 B(  9-C , 10-C ) :   1.5633
B(  9-C , 15-C ) :   1.1415 B( 10-C , 11-C ) :   1.1515 B( 10-C , 13-C ) :   1.1617
B( 11-C , 12-N ) :   2.9643 B( 13-C , 14-N ) :   2.9359 B( 15-C , 16-C ) :   1.4433
B( 16-C , 17-C ) :   1.3078 B( 16-C , 71-H ) :   0.9295 B( 17-C , 18-C ) :   1.3671
B( 17-C , 72-H ) :   0.9876 B( 18-C , 19-C ) :   1.2141 B( 18-C , 22-S ) :   1.1000
B( 19-C , 20-C ) :   1.4945 B( 19-C , 73-H ) :   1.0005 B( 20-C , 21-C ) :   1.2620
B( 20-C , 74-H ) :   0.9966 B( 21-C , 22-S ) :   1.0469 B( 21-C , 23-C ) :   1.4003
B( 23-C , 24-C ) :   1.2441 B( 23-C , 27-S ) :   1.0948 B( 24-C , 25-C ) :   1.5211
B( 24-C , 75-H ) :   0.9949 B( 25-C , 26-C ) :   1.2035 B( 25-C , 76-H ) :   0.9980
B( 26-C , 27-S ) :   1.0106 B( 26-C , 28-C ) :   1.5235 B( 28-C , 29-C ) :   1.2679
B( 28-C , 77-H ) :   0.9339 B( 29-C , 30-S ) :   1.0681 B( 29-C , 33-C ) :   1.2868
B( 30-S , 31-C ) :   1.1648 B( 31-C , 32-C ) :   1.3191 B( 31-C , 39-C ) :   1.1156
B( 32-C , 33-C ) :   1.2458 B( 32-C , 38-C ) :   1.1666 B( 33-C , 34-N ) :   1.2279
B( 34-N , 35-C ) :   1.2104 B( 34-N , 78-H ) :   0.9074 B( 35-C , 36-C ) :   1.0531
B( 35-C , 38-C ) :   1.6019 B( 36-C , 37-N ) :   3.0330 B( 38-C , 79-H ) :   1.0067
B( 39-C , 40-C ) :   1.2791 B( 39-C , 44-C ) :   1.3000 B( 40-C , 41-C ) :   1.4197
B( 40-C , 80-H ) :   0.9975 B( 41-C , 42-C ) :   1.3669 B( 41-C , 47-C ) :   0.9168
B( 42-C , 43-C ) :   1.3196 B( 42-C , 45-C ) :   1.0075 B( 43-C , 44-C ) :   1.4122
B( 43-C , 81-H ) :   0.9916 B( 44-C , 82-H ) :   0.9817 B( 45-C , 46-C ) :   1.3748
B( 45-C , 55-C ) :   1.3181 B( 46-C , 47-C ) :   0.9237 B( 46-C , 52-C ) :   1.3772
B( 47-C , 48-C ) :   1.0128 B( 47-C , 50-C ) :   1.0314 B( 48-C , 49-C ) :   1.1162
B( 48-C , 83-H ) :   0.9391 B( 48-C , 84-H ) :   0.9372 B( 49-C , 85-H ) :   0.9588
B( 49-C , 86-H ) :   0.9587 B( 49-C , 87-H ) :   0.9630 B( 50-C , 51-C ) :   1.1034
B( 50-C , 88-H ) :   0.9387 B( 50-C , 89-H ) :   0.9393 B( 51-C , 90-H ) :   0.9648
B( 51-C , 91-H ) :   0.9649 B( 51-C , 92-H ) :   0.9630 B( 52-C , 53-C ) :   1.2852
B( 52-C , 93-H ) :   1.0129 B( 53-C , 54-C ) :   1.3352 B( 53-C , 56-C ) :   1.0761
B( 54-C , 55-C ) :   1.4113 B( 54-C , 94-H ) :   0.9833 B( 55-C , 95-H ) :   0.9892
B( 56-C , 57-C ) :   1.6710 B( 56-C , 96-H ) :   0.9854 B( 57-C , 58-C ) :   1.1593
B( 57-C , 97-H ) :   0.9695 B( 58-C , 59-S ) :   1.1021 B( 58-C , 60-C ) :   0.1140
B( 58-C , 62-C ) :   1.4042 B( 59-S , 60-C ) :   1.1911 B( 60-C , 61-C ) :   1.4102
B( 60-C , 98-H ) :   0.9723 B( 61-C , 62-C ) :   1.2203 B( 61-C , 67-C ) :   1.1258
B( 62-C , 63-N ) :   1.1660 B( 63-N , 64-C ) :   1.1780 B( 63-N , 99-H ) :   0.9388
B( 64-C , 65-C ) :   1.0569 B( 64-C , 67-C ) :   1.6069 B( 65-C , 66-N ) :   3.0549
B( 67-C ,100-H ) :   1.0175

-----------------------------------------------------------------------------
         ABSORPTION SPECTRUM VIA TRANSITION ELECTRIC DIPOLE MOMENTS
-----------------------------------------------------------------------------
State   Energy  Wavelength   fosc         T2         TX        TY        TZ
        (cm-1)    (nm)                  (au**2)     (au)      (au)      (au)
-----------------------------------------------------------------------------
   0    9241.4   1082.1   1.051391283  37.45436   5.09377  -2.12388  -2.64518
   1   18136.8    551.4   0.004430268   0.08042   0.07177  -0.27432  -0.00347
   2   19123.9    522.9   1.674114730  28.81942  -0.86525   5.29574   0.16101
   3   21493.2    465.3   0.012603006   0.19304   0.31347   0.26894  -0.14983
   4   22415.0    446.1   0.197223604   2.89665  -0.34210  -1.62672   0.36522
   5   25386.6    393.9   0.138666132   1.79822   1.12255   0.17064  -0.71342
   6   26127.0    382.7   0.094967810   1.19664  -0.13376   1.08560   0.01501
   7   26644.7    375.3   0.503269147   6.21820  -1.30087   2.04553   0.58458
   8   27671.8    361.4   0.002524741   0.03004  -0.06405  -0.14929   0.06041
   9   28165.1    355.0   0.056696555   0.66271   0.31377   0.68221  -0.31441
  10   28733.0    348.0   0.135894288   1.55703   0.46650   0.92773  -0.69189
  11   29419.6    339.9   0.015200593   0.17010   0.06987  -0.39436   0.09849
  12   29808.4    335.5   0.067345074   0.74378   0.29974  -0.80716   0.04927
  13   30705.6    325.7   0.159950795   1.71492   0.72141   0.88620  -0.63964
  14   31576.6    316.7   0.023969861   0.24991   0.44107   0.09680  -0.21447
  15   31731.9    315.1   0.005580937   0.05790  -0.17011  -0.14353   0.09145
  16   31857.1    313.9   0.091542690   0.94600   0.54272  -0.74107  -0.31982
  17   32609.7    306.7   0.081345027   0.82122   0.73333   0.00627  -0.53236
  18   33150.1    301.7   0.028398526   0.28202  -0.43230   0.01040   0.30827
  19   33389.5    299.5   0.183287837   1.80717  -1.07137   0.02863   0.81149
  20   34053.7    293.7   0.176746365   1.70869   0.59527  -1.12426  -0.30064
  21   34705.8    288.1   0.108171621   1.02609  -0.85625   0.16240   0.51629
  22   34804.4    287.3   0.029651595   0.28047   0.46675  -0.04239  -0.24662
  23   34907.9    286.5   0.056305648   0.53101  -0.59481   0.02759   0.42006
  24   35359.3    282.8   0.334334726   3.11282  -1.40982   0.47677   0.94759
  25   35516.5    281.6   0.146517350   1.35811  -0.94501   0.32734   0.59825
  26   36208.1    276.2   0.036754025   0.33418   0.46585  -0.29622  -0.17152
  27   36266.3    275.7   0.009696153   0.08802   0.26594  -0.13103  -0.01106
  28   36482.6    274.1   0.022281546   0.20106  -0.39369  -0.05695   0.20694
  29   36998.6    270.3   0.057997326   0.51606  -0.60308   0.11917   0.37168
  30   37180.3    269.0   0.007259658   0.06428   0.20310   0.10201  -0.11236
  31   37309.9    268.0   0.036886768   0.32548  -0.11880   0.55797   0.00631
  32   37752.2    264.9   0.012180856   0.10622   0.23754   0.01347  -0.22274
  33   38100.0    262.5   0.059596960   0.51496  -0.14058   0.69851  -0.08536
  34   38756.1    258.0   0.020316280   0.17258  -0.12440  -0.29272   0.26724
  35   38865.8    257.3   0.000456483   0.00387   0.02450   0.04296   0.03769
  36   39028.5    256.2   0.028200603   0.23788   0.20411   0.13407  -0.42218
  37   39559.7    252.8   0.059373090   0.49410   0.50283  -0.37253  -0.32012
  38   40131.4    249.2   0.065714275   0.53908  -0.25716   0.68080  -0.09723
  39   40195.7    248.8   0.043963709   0.36007  -0.32414   0.47904   0.15979

FINAL SINGLE POINT ENERGY     -6720.438803400958

DIPOLE MOMENT
-------------
                                X             Y             Z
Electronic contribution:    167.59011     -70.52641     -89.12374
Nuclear contribution   :   -171.31411      69.39351      91.51966
                        -----------------------------------------
Total Dipole Moment    :     -3.72400      -1.13290       2.39593
                        -----------------------------------------
Magnitude (a.u.)       :      4.57079
Magnitude (Debye)      :     11.61801

Rotational constants in cm-1:     0.001420     0.000207     0.000182
Rotational constants in MHz :    42.571686     6.207221     5.453759

                             ****ORCA TERMINATED NORMALLY****
TOTAL RUN TIME: 0 days 0 hours 14 minutes 21 seconds 972 msec
