                         Program Version 4.2.0 -  RELEASE  -
|  1> # ORCA input file
|  2> # SCF done       -182.529920929137          0.000554162189
|  3> ! CAM-B3LYP def2-SVP def2/J RIJCOSX Grid4 TightSCF
|  4> %maxcore 5000
|  5> %tddft
|  6>     Mode sTDDFT
|  7>     Ethresh 5.0
|  8>     maxcore 5000
|  9> end
| 10>
| 11> %pal
| 12>   nprocs 6
| 13>   end
| 14> * xyz 0 1
| 15>    C       -5.54469        -1.21017        -8.40387
| 16>    C       -4.94723        -0.60221        -7.37057
| 17>    C       -5.28660         0.65679        -6.76953
| 18>    C       -4.49098         1.01798        -5.73966
| 19>    C       -3.45804         0.08458        -5.43915
| 20>    S       -3.55147        -1.28923        -6.52548
| 21>    C       -2.49765         0.17995        -4.46382
| 22>    C       -2.31474         1.22116        -3.51661
| 23>    C       -1.27545         1.02621        -2.66797
| 24>    C       -0.56529        -0.18734        -2.88562
| 25>    S       -1.28109        -1.06638        -4.23550
| 26>    C        0.49972        -0.64119        -2.16997
| 27>    N        1.12591        -1.82161        -2.42149
| 28>    C        2.11748        -2.36137        -1.68654
| 29>    S        2.70169        -1.63010        -0.22510
| 30>    C        3.73210        -3.01155         0.03626
| 31>    N        4.54288        -2.99347         1.16383
| 32>    O        5.27030        -3.95393         1.36326
| 33>    O        4.46507        -2.00487         1.88195
| 34>    C        3.61920        -3.97078        -0.93915
| 35>    C        2.71614        -3.60970        -1.94648
| 36>    C        2.36685        -4.33893        -3.13102
| 37>    C        2.32118        -5.67647        -3.26376
| 38>    C        1.84483        -6.37069        -4.41780
| 39>    S        2.24143        -8.06076        -4.47462
| 40>    C        1.43353        -8.28806        -5.99656
| 41>    C        0.91740        -7.08347        -6.45572
| 42>    C        1.10066        -5.99882        -5.53963
| 43>    C        0.41022        -4.72175        -5.75675
| 44>    O        0.31621        -3.83635        -4.91268
| 45>    C       -0.23401        -4.55528        -7.07107
| 46>    C       -0.84404        -3.33677        -7.36314
| 47>    C       -1.45049        -3.12459        -8.58440
| 48>    C       -1.47586        -4.12525        -9.55132
| 49>    C       -2.10286        -3.88872       -10.89216
| 50>    C       -1.03953        -3.44982       -11.90191
| 51>    C       -0.86243        -5.33694        -9.26566
| 52>    C       -0.24106        -5.56123        -8.04279
| 53>    C        0.39155        -6.87353        -7.81056
| 54>    O        0.51063        -7.68620        -8.71062
| 55>    C        1.35555        -9.63332        -6.46172
| 56>    C        0.44818       -10.14068        -7.32379
| 57>    C        0.36624       -11.51412        -7.66915
| 58>    C       -0.60186       -12.08494        -8.48769
| 59>    C       -1.61648       -11.30537        -9.06739
| 60>    N       -2.43723       -10.63596        -9.50695
| 61>    C       -0.44660       -13.48882        -8.62455
| 62>    C        0.65066       -13.94398        -7.89958
| 63>    S        1.49612       -12.70518        -7.05772
| 64>    S        0.92675       -15.65344        -7.97482
| 65>    C       -0.46709       -15.77659        -9.00061
| 66>    C       -1.10543       -14.57216        -9.27834
| 67>    C       -2.22910       -14.76988       -10.11843
| 68>    C       -3.09114       -13.77734       -10.60126
| 69>    N       -3.82924       -13.00976       -11.03007
| 70>    C       -2.42491       -16.11568       -10.44879
| 71>    S       -1.20784       -17.15131        -9.72794
| 72>    C       -3.46949       -16.60301       -11.25358
| 73>    C       -3.74231       -17.90593       -11.56897
| 74>    C       -4.82867       -18.34482       -12.37643
| 75>    C       -4.90807       -19.69043       -12.52640
| 76>    C       -3.88824       -20.40679       -11.84890
| 77>    S       -2.81623       -19.28888       -11.01864
| 78>    C       -3.70176       -21.76541       -11.79284
| 79>    C       -4.49874       -22.77254       -12.41173
| 80>    C       -4.08144       -24.03422       -12.17574
| 81>    C       -2.91267       -24.12783       -11.34636
| 82>    S       -2.38889       -22.49661       -10.89497
| 83>    C       -2.27927       -25.23743       -10.94561
| 84>    H       -6.39095        -0.76017        -8.89194
| 85>    H       -5.20713        -2.16226        -8.77113
| 86>    H       -6.11557         1.23387        -7.13913
| 87>    H       -4.60290         1.92786        -5.17706
| 88>    H       -2.96151         2.07952        -3.49249
| 89>    H       -0.98850         1.70462        -1.88458
| 90>    H        0.88445        -0.05973        -1.34436
| 91>    H        0.77489        -2.37271        -3.20476
| 92>    H        4.19780        -4.87617        -0.92681
| 93>    H        2.05811        -3.73164        -3.96569
| 94>    H        2.65335        -6.31223        -2.45312
| 95>    H       -0.83377        -2.56347        -6.61013
| 96>    H       -1.91752        -2.17234        -8.78859
| 97>    H       -2.86733        -3.11339       -10.81342
| 98>    H       -2.57464        -4.80717       -11.24534
| 99>    H       -0.56311        -2.52829       -11.57443
|100>    H       -1.49069        -3.28087       -12.87645
|101>    H       -0.27402        -4.21554       -12.00131
|102>    H       -0.86039        -6.13930        -9.98948
|103>    H        2.05545       -10.31468        -5.98944
|104>    H       -0.28774        -9.50631        -7.79447
|105>    H       -4.13550       -15.84860       -11.65387
|106>    H       -5.51283       -17.63821       -12.81176
|107>    H       -5.66763       -20.19138       -13.09903
|108>    H       -5.35555       -22.51773       -13.00970
|109>    H       -4.55525       -24.92160       -12.55624
|110>    H       -2.63236       -26.20916       -11.24260
|111>    H       -1.40642       -25.19578       -10.32028
|112> *
|113>
|114>                          ****END OF INPUT****

CARTESIAN COORDINATES (ANGSTROEM)
---------------------------------
  C     -5.544690   -1.210170   -8.403870
  C     -4.947230   -0.602210   -7.370570
  C     -5.286600    0.656790   -6.769530
  C     -4.490980    1.017980   -5.739660
  C     -3.458040    0.084580   -5.439150
  S     -3.551470   -1.289230   -6.525480
  C     -2.497650    0.179950   -4.463820
  C     -2.314740    1.221160   -3.516610
  C     -1.275450    1.026210   -2.667970
  C     -0.565290   -0.187340   -2.885620
  S     -1.281090   -1.066380   -4.235500
  C      0.499720   -0.641190   -2.169970
  N      1.125910   -1.821610   -2.421490
  C      2.117480   -2.361370   -1.686540
  S      2.701690   -1.630100   -0.225100
  C      3.732100   -3.011550    0.036260
  N      4.542880   -2.993470    1.163830
  O      5.270300   -3.953930    1.363260
  O      4.465070   -2.004870    1.881950
  C      3.619200   -3.970780   -0.939150
  C      2.716140   -3.609700   -1.946480
  C      2.366850   -4.338930   -3.131020
  C      2.321180   -5.676470   -3.263760
  C      1.844830   -6.370690   -4.417800
  S      2.241430   -8.060760   -4.474620
  C      1.433530   -8.288060   -5.996560
  C      0.917400   -7.083470   -6.455720
  C      1.100660   -5.998820   -5.539630
  C      0.410220   -4.721750   -5.756750
  O      0.316210   -3.836350   -4.912680
  C     -0.234010   -4.555280   -7.071070
  C     -0.844040   -3.336770   -7.363140
  C     -1.450490   -3.124590   -8.584400
  C     -1.475860   -4.125250   -9.551320
  C     -2.102860   -3.888720  -10.892160
  C     -1.039530   -3.449820  -11.901910
  C     -0.862430   -5.336940   -9.265660
  C     -0.241060   -5.561230   -8.042790
  C      0.391550   -6.873530   -7.810560
  O      0.510630   -7.686200   -8.710620
  C      1.355550   -9.633320   -6.461720
  C      0.448180  -10.140680   -7.323790
  C      0.366240  -11.514120   -7.669150
  C     -0.601860  -12.084940   -8.487690
  C     -1.616480  -11.305370   -9.067390
  N     -2.437230  -10.635960   -9.506950
  C     -0.446600  -13.488820   -8.624550
  C      0.650660  -13.943980   -7.899580
  S      1.496120  -12.705180   -7.057720
  S      0.926750  -15.653440   -7.974820
  C     -0.467090  -15.776590   -9.000610
  C     -1.105430  -14.572160   -9.278340
  C     -2.229100  -14.769880  -10.118430
  C     -3.091140  -13.777340  -10.601260
  N     -3.829240  -13.009760  -11.030070
  C     -2.424910  -16.115680  -10.448790
  S     -1.207840  -17.151310   -9.727940
  C     -3.469490  -16.603010  -11.253580
  C     -3.742310  -17.905930  -11.568970
  C     -4.828670  -18.344820  -12.376430
  C     -4.908070  -19.690430  -12.526400
  C     -3.888240  -20.406790  -11.848900
  S     -2.816230  -19.288880  -11.018640
  C     -3.701760  -21.765410  -11.792840
  C     -4.498740  -22.772540  -12.411730
  C     -4.081440  -24.034220  -12.175740
  C     -2.912670  -24.127830  -11.346360
  S     -2.388890  -22.496610  -10.894970
  C     -2.279270  -25.237430  -10.945610
  H     -6.390950   -0.760170   -8.891940
  H     -5.207130   -2.162260   -8.771130
  H     -6.115570    1.233870   -7.139130
  H     -4.602900    1.927860   -5.177060
  H     -2.961510    2.079520   -3.492490
  H     -0.988500    1.704620   -1.884580
  H      0.884450   -0.059730   -1.344360
  H      0.774890   -2.372710   -3.204760
  H      4.197800   -4.876170   -0.926810
  H      2.058110   -3.731640   -3.965690
  H      2.653350   -6.312230   -2.453120
  H     -0.833770   -2.563470   -6.610130
  H     -1.917520   -2.172340   -8.788590
  H     -2.867330   -3.113390  -10.813420
  H     -2.574640   -4.807170  -11.245340
  H     -0.563110   -2.528290  -11.574430
  H     -1.490690   -3.280870  -12.876450
  H     -0.274020   -4.215540  -12.001310
  H     -0.860390   -6.139300   -9.989480
  H      2.055450  -10.314680   -5.989440
  H     -0.287740   -9.506310   -7.794470
  H     -4.135500  -15.848600  -11.653870
  H     -5.512830  -17.638210  -12.811760
  H     -5.667630  -20.191380  -13.099030
  H     -5.355550  -22.517730  -13.009700
  H     -4.555250  -24.921600  -12.556240
  H     -2.632360  -26.209160  -11.242600
  H     -1.406420  -25.195780  -10.320280

 Total Charge           Charge          ....    0
 Multiplicity           Mult            ....    1
 Number of Electrons    NEL             ....  544
 Basis Dimension        Dim             .... 1142

ORBITAL ENERGIES
----------------

  NO   OCC          E(Eh)            E(eV)
   0   2.0000     -88.982039     -2421.3244
   1   2.0000     -88.980269     -2421.2762
   2   2.0000     -88.978250     -2421.2213
   3   2.0000     -88.976929     -2421.1853
   4   2.0000     -88.970871     -2421.0205
   5   2.0000     -88.953408     -2420.5453
   6   2.0000     -88.947448     -2420.3831
   7   2.0000     -88.944889     -2420.3135
   8   2.0000     -88.937120     -2420.1021
   9   2.0000     -19.222798      -523.0789
  10   2.0000     -19.222043      -523.0584
  11   2.0000     -19.211611      -522.7745
  12   2.0000     -19.203389      -522.5508
  13   2.0000     -14.634623      -398.2283
  14   2.0000     -14.480933      -394.0462
  15   2.0000     -14.397317      -391.7709
  16   2.0000     -14.393450      -391.6657
  17   2.0000     -10.368937      -282.1531
  18   2.0000     -10.363946      -282.0173
  19   2.0000     -10.360072      -281.9119
  20   2.0000     -10.334532      -281.2169
  21   2.0000     -10.330085      -281.0959
  22   2.0000     -10.329951      -281.0923
  23   2.0000     -10.329070      -281.0683
  24   2.0000     -10.327078      -281.0141
  25   2.0000     -10.326935      -281.0102
  26   2.0000     -10.326888      -281.0089
  27   2.0000     -10.322931      -280.9012
  28   2.0000     -10.321290      -280.8566
  29   2.0000     -10.318704      -280.7862
  30   2.0000     -10.318166      -280.7716
  31   2.0000     -10.315433      -280.6972
  32   2.0000     -10.314869      -280.6819
  33   2.0000     -10.309624      -280.5391
  34   2.0000     -10.309022      -280.5228
  35   2.0000     -10.307967      -280.4941
  36   2.0000     -10.305499      -280.4269
  37   2.0000     -10.304672      -280.4044
  38   2.0000     -10.304511      -280.4000
  39   2.0000     -10.303003      -280.3590
  40   2.0000     -10.302281      -280.3393
  41   2.0000     -10.297602      -280.2120
  42   2.0000     -10.296497      -280.1819
  43   2.0000     -10.294859      -280.1374
  44   2.0000     -10.294784      -280.1353
  45   2.0000     -10.294448      -280.1262
  46   2.0000     -10.293622      -280.1037
  47   2.0000     -10.292133      -280.0632
  48   2.0000     -10.292120      -280.0628
  49   2.0000     -10.290075      -280.0072
  50   2.0000     -10.289429      -279.9896
  51   2.0000     -10.289115      -279.9811
  52   2.0000     -10.288221      -279.9567
  53   2.0000     -10.288074      -279.9527
  54   2.0000     -10.287971      -279.9499
  55   2.0000     -10.287580      -279.9393
  56   2.0000     -10.286817      -279.9185
  57   2.0000     -10.285857      -279.8924
  58   2.0000     -10.281643      -279.7777
  59   2.0000     -10.281142      -279.7641
  60   2.0000     -10.280836      -279.7558
  61   2.0000     -10.279921      -279.7309
  62   2.0000     -10.279688      -279.7245
  63   2.0000     -10.273532      -279.5570
  64   2.0000     -10.271978      -279.5147
  65   2.0000     -10.270912      -279.4857
  66   2.0000     -10.266977      -279.3786
  67   2.0000     -10.266080      -279.3542
  68   2.0000     -10.255272      -279.0601
  69   2.0000      -8.077156      -219.7906
  70   2.0000      -8.075494      -219.7454
  71   2.0000      -8.073065      -219.6793
  72   2.0000      -8.072292      -219.6582
  73   2.0000      -8.067331      -219.5232
  74   2.0000      -8.049557      -219.0396
  75   2.0000      -8.044147      -218.8924
  76   2.0000      -8.040618      -218.7963
  77   2.0000      -8.033421      -218.6005
  78   2.0000      -6.047143      -164.5511
  79   2.0000      -6.044987      -164.4924
  80   2.0000      -6.042895      -164.4355
  81   2.0000      -6.042682      -164.4297
  82   2.0000      -6.042006      -164.4113
  83   2.0000      -6.040910      -164.3815
  84   2.0000      -6.038403      -164.3133
  85   2.0000      -6.037971      -164.3015
  86   2.0000      -6.037657      -164.2930
  87   2.0000      -6.037129      -164.2786
  88   2.0000      -6.036348      -164.2574
  89   2.0000      -6.034658      -164.2114
  90   2.0000      -6.033612      -164.1829
  91   2.0000      -6.032286      -164.1469
  92   2.0000      -6.029683      -164.0760
  93   2.0000      -6.019369      -163.7954
  94   2.0000      -6.015275      -163.6840
  95   2.0000      -6.013975      -163.6486
  96   2.0000      -6.010508      -163.5542
  97   2.0000      -6.010354      -163.5500
  98   2.0000      -6.010038      -163.5414
  99   2.0000      -6.006491      -163.4449
 100   2.0000      -6.004676      -163.3955
 101   2.0000      -6.003258      -163.3570
 102   2.0000      -6.001230      -163.3018
 103   2.0000      -5.999341      -163.2504
 104   2.0000      -5.993979      -163.1045
 105   2.0000      -1.301588       -35.4180
 106   2.0000      -1.127005       -30.6674
 107   2.0000      -1.121076       -30.5060
 108   2.0000      -1.120373       -30.4869
 109   2.0000      -1.088668       -29.6242
 110   2.0000      -1.034891       -28.1608
 111   2.0000      -1.004983       -27.3470
 112   2.0000      -1.001570       -27.2541
 113   2.0000      -0.998399       -27.1678
 114   2.0000      -0.997550       -27.1447
 115   2.0000      -0.988118       -26.8880
 116   2.0000      -0.982228       -26.7278
 117   2.0000      -0.977574       -26.6011
 118   2.0000      -0.971662       -26.4403
 119   2.0000      -0.966287       -26.2940
 120   2.0000      -0.962527       -26.1917
 121   2.0000      -0.945552       -25.7298
 122   2.0000      -0.919860       -25.0307
 123   2.0000      -0.907305       -24.6890
 124   2.0000      -0.900115       -24.4934
 125   2.0000      -0.897409       -24.4197
 126   2.0000      -0.889344       -24.2003
 127   2.0000      -0.883444       -24.0397
 128   2.0000      -0.874029       -23.7836
 129   2.0000      -0.868738       -23.6396
 130   2.0000      -0.865723       -23.5575
 131   2.0000      -0.860158       -23.4061
 132   2.0000      -0.854747       -23.2588
 133   2.0000      -0.852205       -23.1897
 134   2.0000      -0.846879       -23.0448
 135   2.0000      -0.844492       -22.9798
 136   2.0000      -0.841886       -22.9089
 137   2.0000      -0.830813       -22.6076
 138   2.0000      -0.823438       -22.4069
 139   2.0000      -0.819633       -22.3033
 140   2.0000      -0.817770       -22.2527
 141   2.0000      -0.815906       -22.2019
 142   2.0000      -0.798951       -21.7406
 143   2.0000      -0.793297       -21.5867
 144   2.0000      -0.776976       -21.1426
 145   2.0000      -0.764813       -20.8116
 146   2.0000      -0.752932       -20.4883
 147   2.0000      -0.738540       -20.0967
 148   2.0000      -0.735417       -20.0117
 149   2.0000      -0.726757       -19.7761
 150   2.0000      -0.722998       -19.6738
 151   2.0000      -0.717543       -19.5254
 152   2.0000      -0.700262       -19.0551
 153   2.0000      -0.698054       -18.9950
 154   2.0000      -0.689970       -18.7751
 155   2.0000      -0.685253       -18.6467
 156   2.0000      -0.682603       -18.5746
 157   2.0000      -0.680162       -18.5081
 158   2.0000      -0.667556       -18.1651
 159   2.0000      -0.662894       -18.0383
 160   2.0000      -0.655785       -17.8448
 161   2.0000      -0.649923       -17.6853
 162   2.0000      -0.646842       -17.6015
 163   2.0000      -0.635991       -17.3062
 164   2.0000      -0.634142       -17.2559
 165   2.0000      -0.628416       -17.1001
 166   2.0000      -0.625925       -17.0323
 167   2.0000      -0.620327       -16.8800
 168   2.0000      -0.619826       -16.8663
 169   2.0000      -0.615897       -16.7594
 170   2.0000      -0.615064       -16.7368
 171   2.0000      -0.613044       -16.6818
 172   2.0000      -0.610818       -16.6212
 173   2.0000      -0.606857       -16.5134
 174   2.0000      -0.598191       -16.2776
 175   2.0000      -0.597133       -16.2488
 176   2.0000      -0.585761       -15.9394
 177   2.0000      -0.581373       -15.8200
 178   2.0000      -0.579002       -15.7555
 179   2.0000      -0.574689       -15.6381
 180   2.0000      -0.568694       -15.4750
 181   2.0000      -0.559251       -15.2180
 182   2.0000      -0.557323       -15.1655
 183   2.0000      -0.551256       -15.0004
 184   2.0000      -0.546800       -14.8792
 185   2.0000      -0.543754       -14.7963
 186   2.0000      -0.539347       -14.6764
 187   2.0000      -0.535889       -14.5823
 188   2.0000      -0.534804       -14.5528
 189   2.0000      -0.532339       -14.4857
 190   2.0000      -0.528704       -14.3868
 191   2.0000      -0.527589       -14.3564
 192   2.0000      -0.524233       -14.2651
 193   2.0000      -0.521504       -14.1908
 194   2.0000      -0.518242       -14.1021
 195   2.0000      -0.514729       -14.0065
 196   2.0000      -0.512802       -13.9540
 197   2.0000      -0.510189       -13.8830
 198   2.0000      -0.507889       -13.8204
 199   2.0000      -0.506327       -13.7779
 200   2.0000      -0.505592       -13.7578
 201   2.0000      -0.500137       -13.6094
 202   2.0000      -0.496987       -13.5237
 203   2.0000      -0.495843       -13.4926
 204   2.0000      -0.494577       -13.4581
 205   2.0000      -0.492686       -13.4067
 206   2.0000      -0.489727       -13.3261
 207   2.0000      -0.489234       -13.3127
 208   2.0000      -0.488721       -13.2988
 209   2.0000      -0.485422       -13.2090
 210   2.0000      -0.483760       -13.1638
 211   2.0000      -0.482294       -13.1239
 212   2.0000      -0.478777       -13.0282
 213   2.0000      -0.478287       -13.0148
 214   2.0000      -0.475441       -12.9374
 215   2.0000      -0.468618       -12.7518
 216   2.0000      -0.467938       -12.7332
 217   2.0000      -0.466388       -12.6911
 218   2.0000      -0.465483       -12.6664
 219   2.0000      -0.460645       -12.5348
 220   2.0000      -0.459212       -12.4958
 221   2.0000      -0.452587       -12.3155
 222   2.0000      -0.451072       -12.2743
 223   2.0000      -0.450609       -12.2617
 224   2.0000      -0.444268       -12.0891
 225   2.0000      -0.442529       -12.0418
 226   2.0000      -0.439963       -11.9720
 227   2.0000      -0.438892       -11.9429
 228   2.0000      -0.435028       -11.8377
 229   2.0000      -0.433238       -11.7890
 230   2.0000      -0.430818       -11.7232
 231   2.0000      -0.428865       -11.6700
 232   2.0000      -0.427001       -11.6193
 233   2.0000      -0.424884       -11.5617
 234   2.0000      -0.423924       -11.5355
 235   2.0000      -0.420917       -11.4537
 236   2.0000      -0.420605       -11.4453
 237   2.0000      -0.419224       -11.4077
 238   2.0000      -0.418723       -11.3940
 239   2.0000      -0.414244       -11.2721
 240   2.0000      -0.413376       -11.2485
 241   2.0000      -0.407309       -11.0834
 242   2.0000      -0.406595       -11.0640
 243   2.0000      -0.401065       -10.9135
 244   2.0000      -0.396886       -10.7998
 245   2.0000      -0.392121       -10.6702
 246   2.0000      -0.381258       -10.3746
 247   2.0000      -0.381069       -10.3694
 248   2.0000      -0.374792       -10.1986
 249   2.0000      -0.371906       -10.1201
 250   2.0000      -0.367969       -10.0130
 251   2.0000      -0.363596        -9.8939
 252   2.0000      -0.351665        -9.5693
 253   2.0000      -0.349741        -9.5169
 254   2.0000      -0.345576        -9.4036
 255   2.0000      -0.340388        -9.2624
 256   2.0000      -0.339264        -9.2318
 257   2.0000      -0.337981        -9.1969
 258   2.0000      -0.336795        -9.1647
 259   2.0000      -0.334169        -9.0932
 260   2.0000      -0.332719        -9.0538
 261   2.0000      -0.327290        -8.9060
 262   2.0000      -0.322593        -8.7782
 263   2.0000      -0.318971        -8.6797
 264   2.0000      -0.314771        -8.5654
 265   2.0000      -0.312398        -8.5008
 266   2.0000      -0.299737        -8.1563
 267   2.0000      -0.288134        -7.8405
 268   2.0000      -0.276175        -7.5151
 269   2.0000      -0.252281        -6.8649
 270   2.0000      -0.226676        -6.1682
 271   2.0000      -0.215043        -5.8516
 272   0.0000      -0.078347        -2.1319
 273   0.0000      -0.072382        -1.9696
 274   0.0000      -0.067728        -1.8430
 275   0.0000      -0.059534        -1.6200
 276   0.0000      -0.031562        -0.8588

MULLIKEN ATOMIC CHARGES
-----------------------
   0 C :   -0.034824
   1 C :   -0.058780
   2 C :    0.049437
   3 C :    0.034285
   4 C :   -0.072400
   5 S :    0.061660
   6 C :   -0.042417
   7 C :    0.023943
   8 C :    0.036565
   9 C :   -0.036065
  10 S :    0.063857
  11 C :    0.020242
  12 N :   -0.035388
  13 C :   -0.095007
  14 S :    0.146496
  15 C :   -0.019720
  16 N :    0.281134
  17 O :   -0.264621
  18 O :   -0.278462
  19 C :    0.020853
  20 C :    0.082197
  21 C :   -0.018134
  22 C :    0.040434
  23 C :   -0.136629
  24 S :    0.150868
  25 C :   -0.135681
  26 C :    0.018061
  27 C :    0.021436
  28 C :    0.134156
  29 O :   -0.221441
  30 C :    0.014944
  31 C :   -0.007630
  32 C :    0.011716
  33 C :    0.006384
  34 C :    0.066154
  35 C :    0.018575
  36 C :   -0.069971
  37 C :    0.011473
  38 C :    0.107658
  39 O :   -0.169337
  40 C :    0.030308
  41 C :    0.037508
  42 C :   -0.096823
  43 C :   -0.026087
  44 C :   -0.314117
  45 N :    0.210039
  46 C :    0.157832
  47 C :   -0.231209
  48 S :    0.152838
  49 S :    0.184790
  50 C :   -0.232691
  51 C :    0.169461
  52 C :   -0.033512
  53 C :   -0.322841
  54 N :    0.196323
  55 C :   -0.069229
  56 S :    0.144698
  57 C :   -0.054182
  58 C :   -0.023459
  59 C :    0.030121
  60 C :    0.040901
  61 C :   -0.043366
  62 S :    0.060704
  63 C :   -0.061215
  64 C :    0.029049
  65 C :    0.059727
  66 C :   -0.066806
  67 S :    0.088295
  68 C :   -0.022778
  69 H :    0.018936
  70 H :    0.022080
  71 H :   -0.012853
  72 H :   -0.013645
  73 H :   -0.013790
  74 H :   -0.010818
  75 H :    0.021161
  76 H :    0.170184
  77 H :    0.007665
  78 H :    0.017862
  79 H :   -0.015181
  80 H :   -0.015916
  81 H :   -0.021466
  82 H :    0.004009
  83 H :    0.018244
  84 H :    0.009607
  85 H :    0.020036
  86 H :    0.018035
  87 H :   -0.003838
  88 H :   -0.012281
  89 H :    0.033985
  90 H :    0.014109
  91 H :   -0.002694
  92 H :   -0.010536
  93 H :   -0.007269
  94 H :   -0.006931
  95 H :    0.024390
  96 H :    0.026610
Sum of atomic charges:   -0.0000000

LOEWDIN ATOMIC CHARGES
----------------------
   0 C :   -0.083556
   1 C :   -0.138588
   2 C :   -0.035453
   3 C :   -0.024782
   4 C :   -0.186572
   5 S :    0.364218
   6 C :   -0.175720
   7 C :   -0.039398
   8 C :   -0.029460
   9 C :   -0.181526
  10 S :    0.369661
  11 C :   -0.015884
  12 N :    0.056369
  13 C :   -0.089436
  14 S :    0.446913
  15 C :   -0.218626
  16 N :    0.274273
  17 O :   -0.230185
  18 O :   -0.245231
  19 C :    0.007424
  20 C :   -0.114359
  21 C :    0.010138
  22 C :   -0.065883
  23 C :   -0.118320
  24 S :    0.470795
  25 C :   -0.129867
  26 C :   -0.089354
  27 C :   -0.099013
  28 C :    0.100739
  29 O :   -0.181956
  30 C :   -0.060745
  31 C :    0.017104
  32 C :   -0.014394
  33 C :    0.001391
  34 C :   -0.027294
  35 C :   -0.046473
  36 C :    0.012176
  37 C :   -0.046563
  38 C :    0.084397
  39 O :   -0.144269
  40 C :   -0.054517
  41 C :    0.001311
  42 C :   -0.130936
  43 C :   -0.088357
  44 C :   -0.038538
  45 N :   -0.031356
  46 C :   -0.063776
  47 C :   -0.328585
  48 S :    0.444126
  49 S :    0.421498
  50 C :   -0.339988
  51 C :   -0.059321
  52 C :   -0.109312
  53 C :   -0.041182
  54 N :   -0.045613
  55 C :   -0.128071
  56 S :    0.440413
  57 C :   -0.082635
  58 C :   -0.137466
  59 C :   -0.031603
  60 C :   -0.025783
  61 C :   -0.184021
  62 S :    0.362245
  63 C :   -0.166182
  64 C :   -0.026603
  65 C :   -0.022212
  66 C :   -0.140329
  67 S :    0.357647
  68 C :   -0.064881
  69 H :    0.028467
  70 H :    0.025073
  71 H :    0.032999
  72 H :    0.031868
  73 H :    0.031609
  74 H :    0.033624
  75 H :    0.028951
  76 H :    0.093950
  77 H :    0.045249
  78 H :    0.026945
  79 H :    0.025918
  80 H :    0.018674
  81 H :    0.022304
  82 H :    0.026387
  83 H :    0.033078
  84 H :    0.023806
  85 H :    0.025331
  86 H :    0.026087
  87 H :    0.035914
  88 H :    0.019546
  89 H :    0.046120
  90 H :    0.049473
  91 H :    0.037582
  92 H :    0.033456
  93 H :    0.033977
  94 H :    0.035569
  95 H :    0.030841
  96 H :    0.028544

  Mayer bond orders larger than 0.100000
B(  0-C ,  1-C ) :   1.8651 B(  0-C , 69-H ) :   0.9503 B(  0-C , 70-H ) :   0.9411
B(  1-C ,  2-C ) :   1.0772 B(  1-C ,  5-S ) :   1.0091 B(  2-C ,  3-C ) :   1.6647
B(  2-C , 71-H ) :   0.9929 B(  3-C ,  4-C ) :   1.1506 B(  3-C , 72-H ) :   0.9909
B(  4-C ,  5-S ) :   1.0329 B(  4-C ,  6-C ) :   1.5710 B(  6-C ,  7-C ) :   1.1618
B(  6-C , 10-S ) :   1.0291 B(  7-C ,  8-C ) :   1.6378 B(  7-C , 73-H ) :   0.9919
B(  8-C ,  9-C ) :   1.1313 B(  8-C , 74-H ) :   0.9947 B(  9-C , 10-S ) :   1.0228
B(  9-C , 11-C ) :   1.6267 B( 11-C , 12-N ) :   1.1334 B( 11-C , 75-H ) :   0.9581
B( 12-N , 13-C ) :   1.2739 B( 12-N , 76-H ) :   0.8810 B( 13-C , 14-S ) :   1.1354
B( 13-C , 20-C ) :   1.3223 B( 14-S , 15-C ) :   1.0551 B( 15-C , 16-N ) :   0.9960
B( 15-C , 19-C ) :   1.4672 B( 16-N , 17-O ) :   1.5197 B( 16-N , 18-O ) :   1.4965
B( 17-O , 18-O ) :   0.2478 B( 19-C , 20-C ) :   1.2552 B( 19-C , 77-H ) :   1.0042
B( 20-C , 21-C ) :   1.0852 B( 21-C , 22-C ) :   1.7430 B( 21-C , 78-H ) :   0.9367
B( 22-C , 23-C ) :   1.1284 B( 22-C , 79-H ) :   0.9491 B( 23-C , 24-S ) :   1.1479
B( 23-C , 27-C ) :   1.4477 B( 24-S , 25-C ) :   1.1340 B( 25-C , 26-C ) :   1.4828
B( 25-C , 40-C ) :   1.1207 B( 26-C , 27-C ) :   1.2096 B( 26-C , 38-C ) :   0.9672
B( 27-C , 28-C ) :   0.9896 B( 28-C , 29-O ) :   2.0583 B( 28-C , 30-C ) :   0.9724
B( 30-C , 31-C ) :   1.3862 B( 30-C , 37-C ) :   1.3258 B( 31-C , 32-C ) :   1.3568
B( 31-C , 80-H ) :   0.9895 B( 32-C , 33-C ) :   1.3618 B( 32-C , 81-H ) :   0.9924
B( 33-C , 34-C ) :   1.0349 B( 33-C , 36-C ) :   1.3239 B( 34-C , 35-C ) :   1.0982
B( 34-C , 82-H ) :   0.9349 B( 34-C , 83-H ) :   0.9347 B( 35-C , 84-H ) :   0.9688
B( 35-C , 85-H ) :   0.9693 B( 35-C , 86-H ) :   0.9719 B( 36-C , 37-C ) :   1.3888
B( 36-C , 87-H ) :   1.0020 B( 37-C , 38-C ) :   0.9350 B( 38-C , 39-O ) :   2.1831
B( 40-C , 41-C ) :   1.6741 B( 40-C , 88-H ) :   0.9453 B( 41-C , 42-C ) :   1.2149
B( 41-C , 89-H ) :   0.9454 B( 42-C , 43-C ) :   1.4806 B( 42-C , 48-S ) :   1.1026
B( 43-C , 44-C ) :   1.1822 B( 43-C , 46-C ) :   1.2508 B( 44-C , 45-N ) :   2.9779
B( 46-C , 47-C ) :   1.4055 B( 46-C , 51-C ) :   1.0529 B( 47-C , 48-S ) :   1.0957
B( 47-C , 49-S ) :   1.0891 B( 49-S , 50-C ) :   1.0754 B( 50-C , 51-C ) :   1.4066
B( 50-C , 56-S ) :   1.0891 B( 51-C , 52-C ) :   1.2675 B( 52-C , 53-C ) :   1.1892
B( 52-C , 55-C ) :   1.4503 B( 53-C , 54-N ) :   2.9736 B( 55-C , 56-S ) :   1.1013
B( 55-C , 57-C ) :   1.2184 B( 57-C , 58-C ) :   1.5695 B( 57-C , 90-H ) :   0.9602
B( 58-C , 59-C ) :   1.1310 B( 58-C , 62-S ) :   1.0410 B( 59-C , 60-C ) :   1.6131
B( 59-C , 91-H ) :   1.0007 B( 60-C , 61-C ) :   1.1646 B( 60-C , 92-H ) :   0.9914
B( 61-C , 62-S ) :   1.0262 B( 61-C , 63-C ) :   1.5678 B( 63-C , 64-C ) :   1.1444
B( 63-C , 67-S ) :   1.0523 B( 64-C , 65-C ) :   1.6682 B( 64-C , 93-H ) :   0.9922
B( 65-C , 66-C ) :   1.0760 B( 65-C , 94-H ) :   0.9934 B( 66-C , 67-S ) :   1.0056
B( 66-C , 68-C ) :   1.8673 B( 68-C , 95-H ) :   0.9514 B( 68-C , 96-H ) :   0.9423

-----------------------------------------------------------------------------
         ABSORPTION SPECTRUM VIA TRANSITION ELECTRIC DIPOLE MOMENTS
-----------------------------------------------------------------------------
State   Energy  Wavelength   fosc         T2         TX        TY        TZ
        (cm-1)    (nm)                  (au**2)     (au)      (au)      (au)
-----------------------------------------------------------------------------
   0   15788.8    633.4   0.194490736   4.05532  -1.23870   1.58650  -0.06277
   1   18409.1    543.2   1.499756400  26.82026   0.57254  -5.14534  -0.13378
   2   18827.0    531.2   0.914865798  15.99750  -2.34285  -2.53356  -2.02229
   3   20225.0    494.4   0.725318205  11.80635  -2.37333   0.07008  -2.48370
   4   22105.1    452.4   0.127495369   1.89879   0.49457  -1.11573   0.63980
   5   22791.6    438.8   0.071168337   1.02799  -0.45540   0.76619  -0.48327
   6   24153.8    414.0   0.007885219   0.10747  -0.14795  -0.16246  -0.24330
   7   24567.4    407.0   0.785772134  10.52964   1.23825   2.04197   2.19699
   8   26115.1    382.9   0.314939861   3.97019   1.21400   0.85170   1.33080
   9   27334.8    365.8   0.007662166   0.09228  -0.07953   0.27810  -0.09283
  10   27422.7    364.7   0.002728235   0.03275   0.10542   0.12677   0.07462
  11   27665.0    361.5   0.012399869   0.14756   0.09794   0.31508   0.19669
  12   28072.9    356.2   0.013577378   0.15922  -0.01427   0.38846   0.09009
  13   28504.0    350.8   0.020122898   0.23241  -0.39910  -0.01803  -0.26983
  14   29622.6    337.6   0.094410880   1.04924  -0.10725  -0.91055  -0.45678
  15   30323.0    329.8   0.003815547   0.04142  -0.15554   0.00933  -0.13094
  16   30410.0    328.8   0.027673766   0.29959   0.12485   0.13877   0.51453
  17   30425.5    328.7   0.005537860   0.05992  -0.02922  -0.17170  -0.17200
  18   30853.2    324.1   0.018316961   0.19545  -0.22447  -0.38084   0.00442
  19   31346.7    319.0   0.005372781   0.05643  -0.04151   0.22317   0.06999
  20   32240.0    310.2   0.027452334   0.28032  -0.45095   0.16557  -0.22261
  21   32366.8    309.0   0.298197446   3.03305   1.35741  -0.37675   1.02398
  22   32807.0    304.8   0.003111996   0.03123   0.01502  -0.16535   0.06053
  23   32997.0    303.1   0.121822156   1.21542   0.57255  -0.63711   0.69404
  24   33300.6    300.3   0.039457441   0.39008   0.32013  -0.53466   0.04167
  25   33562.6    298.0   0.031298670   0.30701  -0.40093   0.16235  -0.34627
  26   33741.1    296.4   0.000345591   0.00337   0.00935   0.02815  -0.04992
  27   34185.7    292.5   0.021713813   0.20911   0.16691  -0.21952   0.36477
  28   34427.6    290.5   0.058352491   0.55799  -0.50977   0.15317  -0.52408
  29   34722.3    288.0   0.013636711   0.12929   0.07788   0.25676   0.23938
  30   34952.4    286.1   0.030560989   0.28785  -0.18312   0.49603   0.09094
  31   35152.0    284.5   0.059699010   0.55910   0.04758  -0.69703  -0.26643
  32   35419.6    282.3   0.033027018   0.30697   0.29370   0.24469   0.40105
  33   35605.8    280.9   0.064533092   0.59667  -0.39863  -0.41772  -0.51311
  34   35953.0    278.1   0.006096917   0.05583   0.14776  -0.02754   0.18231
  35   36585.8    273.3   0.041979403   0.37775   0.06334  -0.49700  -0.35598
  36   36770.9    272.0   0.107294954   0.96062   0.65257  -0.36941   0.63112
  37   37315.5    268.0   0.020365528   0.17967  -0.11661  -0.31423  -0.25948
  38   37508.2    266.6   0.009233348   0.08104   0.20897   0.04295   0.18849
  39   37630.1    265.7   0.204940654   1.79295   0.75006  -0.63680   0.90821
  40   38113.7    262.4   0.045597956   0.39386   0.11365   0.61668  -0.02548
  41   38381.3    260.5   0.034126343   0.29272  -0.22135   0.48771  -0.07651
  42   38826.8    257.6   0.009991948   0.08472   0.05228   0.28273   0.04530
  43   38902.1    257.1   0.006130013   0.05188   0.10296  -0.20193   0.02238
  44   39007.9    256.4   0.081207570   0.68536  -0.48939   0.20524  -0.63540
  45   39321.2    254.3   0.024889617   0.20839  -0.13270  -0.38532  -0.20567
  46   39417.3    253.7   0.097731390   0.81625  -0.08766   0.89743  -0.05647
  47   39444.4    253.5   0.064947393   0.54207  -0.22401  -0.56798  -0.41144
  48   39605.7    252.5   0.019854912   0.16504  -0.21376  -0.20635  -0.27707
  49   39721.2    251.8   0.015551095   0.12889   0.11075  -0.26469  -0.21578
  50   39876.1    250.8   0.041131390   0.33958  -0.39712   0.16373  -0.39378
  51   40021.5    249.9   0.026156189   0.21516  -0.19664  -0.21953  -0.35818
  52   40269.7    248.3   0.052509015   0.42927  -0.08722   0.51028   0.40160

FINAL SINGLE POINT ENERGY     -6097.533579997620

DIPOLE MOMENT
-------------
                                X             Y             Z
Electronic contribution:     30.43388     -39.83504      29.97531
Nuclear contribution   :    -31.98423      37.95397     -31.85814
                        -----------------------------------------
Total Dipole Moment    :     -1.55035      -1.88107      -1.88283
                        -----------------------------------------
Magnitude (a.u.)       :      3.08011
Magnitude (Debye)      :      7.82901

Rotational constants in cm-1:     0.001405     0.000233     0.000207
Rotational constants in MHz :    42.134711     6.983393     6.197422

                             ****ORCA TERMINATED NORMALLY****
TOTAL RUN TIME: 0 days 0 hours 8 minutes 22 seconds 812 msec
