                         Program Version 4.2.0 -  RELEASE  -
|  1> # ORCA input file
|  2> # SCF done       -156.514599532214          0.000540722450
|  3> ! CAM-B3LYP def2-SVP def2/J RIJCOSX Grid4 TightSCF
|  4> %maxcore 5000
|  5> %tddft
|  6>     Mode sTDDFT
|  7>     Ethresh 5.0
|  8>     maxcore 5000
|  9> end
| 10>
| 11> %pal
| 12>   nprocs 6
| 13>   end
| 14> * xyz 0 1
| 15>    C       -4.18402        -1.47983        -7.05223
| 16>    C       -3.06234        -2.14739        -7.35376
| 17>    C       -2.22820        -1.98714        -8.51064
| 18>    C       -1.15279        -2.80388        -8.54036
| 19>    C       -1.04526        -3.67294        -7.41748
| 20>    S       -2.37985        -3.40971        -6.31558
| 21>    C       -0.05598        -4.59547        -7.17201
| 22>    C        1.07657        -4.89091        -7.96942
| 23>    C        1.88915        -5.84214        -7.44052
| 24>    C        1.45582        -6.36217        -6.19177
| 25>    S       -0.04952        -5.59171        -5.72733
| 26>    C        2.13894        -7.30142        -5.46182
| 27>    C        1.79715        -7.86642        -4.22362
| 28>    S        2.96467        -8.95900        -3.47693
| 29>    C        0.65957        -7.72113        -3.42869
| 30>    C        0.73523        -8.46428        -2.26193
| 31>    C       -0.11505        -8.71769        -1.06076
| 32>    O       -1.20868        -8.27739        -0.81379
| 33>    C        1.93101        -9.18462        -2.13628
| 34>    C        1.91628        -9.88436        -0.90575
| 35>    S        2.95688       -10.90615        -0.00672
| 36>    C        0.71662        -9.63795        -0.23875
| 37>    C        0.62486       -10.27174         1.00697
| 38>    C        1.76325       -10.99103         1.28540
| 39>    N        2.12607       -11.72328         2.38702
| 40>    C        1.39193       -12.12406         3.45235
| 41>    S       -0.32814       -11.95750         3.52513
| 42>    C       -0.32608       -12.75999         5.06894
| 43>    N       -1.55288       -12.93962         5.70257
| 44>    O       -1.55854       -13.49678         6.78790
| 45>    O       -2.54139       -12.52459         5.11553
| 46>    C        0.92527       -13.11940         5.49316
| 47>    C        1.93736       -12.75995         4.58571
| 48>    C        3.34519       -12.95488         4.77488
| 49>    C        3.92428       -13.55541         5.83880
| 50>    C        5.32981       -13.68261         6.00901
| 51>    S        5.94795       -14.45750         7.46366
| 52>    C        6.36128       -13.25652         5.18681
| 53>    C        7.61443       -13.54053         5.71516
| 54>    C        9.03225       -13.32900         5.33221
| 55>    O        9.46888       -12.80771         4.33543
| 56>    C        7.55727       -14.19243         6.95489
| 57>    C        8.87641       -14.42138         7.41746
| 58>    S        9.67099       -15.10725         8.76692
| 59>    C        9.78577       -13.91493         6.47637
| 60>    C       11.11123       -14.07483         6.84232
| 61>    C       11.24687       -14.71026         8.07663
| 62>    C       12.39281       -15.05381         8.81020
| 63>    C       13.70752       -14.82193         8.49232
| 64>    C       14.81308       -15.19935         9.30033
| 65>    C       16.02719       -14.86035         8.79371
| 66>    C       15.96284       -14.19147         7.54700
| 67>    S       14.29025       -14.01426         7.04821
| 68>    C       17.00358       -13.72088         6.78191
| 69>    C       18.39462       -13.80196         7.07406
| 70>    C       19.19375       -13.25093         6.13453
| 71>    C       18.49262       -12.68520         5.01727
| 72>    S       16.75124       -12.90759         5.25160
| 73>    C       19.01480       -12.07719         3.94365
| 74>    H       -4.56368        -0.71843        -7.71056
| 75>    H       -4.73571        -1.67903        -6.15198
| 76>    H       -2.47391        -1.26394        -9.26783
| 77>    H       -0.42302        -2.81742        -9.33032
| 78>    H        1.25899        -4.39181        -8.90394
| 79>    H        2.79562        -6.19268        -7.90206
| 80>    H        3.07442        -7.64014        -5.88953
| 81>    H       -0.17790        -7.10685        -3.70098
| 82>    H       -0.21917       -10.18119         1.66327
| 83>    H        3.09309       -12.02407         2.39364
| 84>    H        1.08469       -13.61684         6.43150
| 85>    H        3.99675       -12.55841         4.00846
| 86>    H        3.31393       -13.96394         6.63047
| 87>    H        6.21291       -12.75750         4.24746
| 88>    H       11.94285       -13.74846         6.24715
| 89>    H       12.21687       -15.56101         9.75054
| 90>    H       14.66652       -15.71092        10.23540
| 91>    H       16.96399       -15.06985         9.27780
| 92>    H       18.75047       -14.26836         7.97556
| 93>    H       20.26772       -13.21711         6.18172
| 94>    H       20.07964       -11.96484         3.84023
| 95>    H       18.39523       -11.68818         3.15664
| 96> *
| 97>
| 98>                          ****END OF INPUT****

CARTESIAN COORDINATES (ANGSTROEM)
---------------------------------
  C     -4.184020   -1.479830   -7.052230
  C     -3.062340   -2.147390   -7.353760
  C     -2.228200   -1.987140   -8.510640
  C     -1.152790   -2.803880   -8.540360
  C     -1.045260   -3.672940   -7.417480
  S     -2.379850   -3.409710   -6.315580
  C     -0.055980   -4.595470   -7.172010
  C      1.076570   -4.890910   -7.969420
  C      1.889150   -5.842140   -7.440520
  C      1.455820   -6.362170   -6.191770
  S     -0.049520   -5.591710   -5.727330
  C      2.138940   -7.301420   -5.461820
  C      1.797150   -7.866420   -4.223620
  S      2.964670   -8.959000   -3.476930
  C      0.659570   -7.721130   -3.428690
  C      0.735230   -8.464280   -2.261930
  C     -0.115050   -8.717690   -1.060760
  O     -1.208680   -8.277390   -0.813790
  C      1.931010   -9.184620   -2.136280
  C      1.916280   -9.884360   -0.905750
  S      2.956880  -10.906150   -0.006720
  C      0.716620   -9.637950   -0.238750
  C      0.624860  -10.271740    1.006970
  C      1.763250  -10.991030    1.285400
  N      2.126070  -11.723280    2.387020
  C      1.391930  -12.124060    3.452350
  S     -0.328140  -11.957500    3.525130
  C     -0.326080  -12.759990    5.068940
  N     -1.552880  -12.939620    5.702570
  O     -1.558540  -13.496780    6.787900
  O     -2.541390  -12.524590    5.115530
  C      0.925270  -13.119400    5.493160
  C      1.937360  -12.759950    4.585710
  C      3.345190  -12.954880    4.774880
  C      3.924280  -13.555410    5.838800
  C      5.329810  -13.682610    6.009010
  S      5.947950  -14.457500    7.463660
  C      6.361280  -13.256520    5.186810
  C      7.614430  -13.540530    5.715160
  C      9.032250  -13.329000    5.332210
  O      9.468880  -12.807710    4.335430
  C      7.557270  -14.192430    6.954890
  C      8.876410  -14.421380    7.417460
  S      9.670990  -15.107250    8.766920
  C      9.785770  -13.914930    6.476370
  C     11.111230  -14.074830    6.842320
  C     11.246870  -14.710260    8.076630
  C     12.392810  -15.053810    8.810200
  C     13.707520  -14.821930    8.492320
  C     14.813080  -15.199350    9.300330
  C     16.027190  -14.860350    8.793710
  C     15.962840  -14.191470    7.547000
  S     14.290250  -14.014260    7.048210
  C     17.003580  -13.720880    6.781910
  C     18.394620  -13.801960    7.074060
  C     19.193750  -13.250930    6.134530
  C     18.492620  -12.685200    5.017270
  S     16.751240  -12.907590    5.251600
  C     19.014800  -12.077190    3.943650
  H     -4.563680   -0.718430   -7.710560
  H     -4.735710   -1.679030   -6.151980
  H     -2.473910   -1.263940   -9.267830
  H     -0.423020   -2.817420   -9.330320
  H      1.258990   -4.391810   -8.903940
  H      2.795620   -6.192680   -7.902060
  H      3.074420   -7.640140   -5.889530
  H     -0.177900   -7.106850   -3.700980
  H     -0.219170  -10.181190    1.663270
  H      3.093090  -12.024070    2.393640
  H      1.084690  -13.616840    6.431500
  H      3.996750  -12.558410    4.008460
  H      3.313930  -13.963940    6.630470
  H      6.212910  -12.757500    4.247460
  H     11.942850  -13.748460    6.247150
  H     12.216870  -15.561010    9.750540
  H     14.666520  -15.710920   10.235400
  H     16.963990  -15.069850    9.277800
  H     18.750470  -14.268360    7.975560
  H     20.267720  -13.217110    6.181720
  H     20.079640  -11.964840    3.840230
  H     18.395230  -11.688180    3.156640

 Total Charge           Charge          ....    0
 Multiplicity           Mult            ....    1
 Number of Electrons    NEL             ....  476
 Basis Dimension        Dim             ....  972

ORBITAL ENERGIES
----------------

  NO   OCC          E(Eh)            E(eV)
   0   2.0000     -88.985715     -2421.4244
   1   2.0000     -88.981475     -2421.3090
   2   2.0000     -88.976872     -2421.1838
   3   2.0000     -88.972517     -2421.0653
   4   2.0000     -88.971897     -2421.0484
   5   2.0000     -88.945509     -2420.3304
   6   2.0000     -88.943104     -2420.2649
   7   2.0000     -88.938680     -2420.1445
   8   2.0000     -88.936187     -2420.0767
   9   2.0000     -19.226602      -523.1824
  10   2.0000     -19.225831      -523.1615
  11   2.0000     -19.217980      -522.9478
  12   2.0000     -19.217667      -522.9393
  13   2.0000     -14.638417      -398.3316
  14   2.0000     -14.490667      -394.3111
  15   2.0000     -10.369222      -282.1609
  16   2.0000     -10.367707      -282.1197
  17   2.0000     -10.367136      -282.1041
  18   2.0000     -10.360322      -281.9187
  19   2.0000     -10.333258      -281.1822
  20   2.0000     -10.320136      -280.8252
  21   2.0000     -10.319062      -280.7960
  22   2.0000     -10.315558      -280.7006
  23   2.0000     -10.315021      -280.6860
  24   2.0000     -10.311397      -280.5874
  25   2.0000     -10.311199      -280.5820
  26   2.0000     -10.309992      -280.5491
  27   2.0000     -10.308624      -280.5119
  28   2.0000     -10.308537      -280.5096
  29   2.0000     -10.308134      -280.4986
  30   2.0000     -10.307663      -280.4858
  31   2.0000     -10.306975      -280.4670
  32   2.0000     -10.305986      -280.4401
  33   2.0000     -10.305833      -280.4360
  34   2.0000     -10.304304      -280.3944
  35   2.0000     -10.303653      -280.3766
  36   2.0000     -10.295917      -280.1661
  37   2.0000     -10.294170      -280.1186
  38   2.0000     -10.292751      -280.0800
  39   2.0000     -10.290265      -280.0124
  40   2.0000     -10.290228      -280.0113
  41   2.0000     -10.288312      -279.9592
  42   2.0000     -10.287797      -279.9452
  43   2.0000     -10.286473      -279.9092
  44   2.0000     -10.285985      -279.8959
  45   2.0000     -10.285873      -279.8928
  46   2.0000     -10.284196      -279.8472
  47   2.0000     -10.284069      -279.8437
  48   2.0000     -10.284028      -279.8426
  49   2.0000     -10.283204      -279.8202
  50   2.0000     -10.282498      -279.8010
  51   2.0000     -10.281924      -279.7854
  52   2.0000     -10.281917      -279.7852
  53   2.0000     -10.281684      -279.7788
  54   2.0000     -10.277623      -279.6683
  55   2.0000     -10.276446      -279.6363
  56   2.0000     -10.274866      -279.5933
  57   2.0000     -10.270968      -279.4872
  58   2.0000     -10.268321      -279.4152
  59   2.0000      -8.080936      -219.8934
  60   2.0000      -8.076560      -219.7744
  61   2.0000      -8.071621      -219.6400
  62   2.0000      -8.067344      -219.5236
  63   2.0000      -8.066727      -219.5068
  64   2.0000      -8.041349      -218.8162
  65   2.0000      -8.038984      -218.7519
  66   2.0000      -8.035468      -218.6562
  67   2.0000      -8.032946      -218.5876
  68   2.0000      -6.050473      -164.6417
  69   2.0000      -6.046363      -164.5299
  70   2.0000      -6.046315      -164.5286
  71   2.0000      -6.042633      -164.4284
  72   2.0000      -6.041779      -164.4052
  73   2.0000      -6.040784      -164.3781
  74   2.0000      -6.037972      -164.3016
  75   2.0000      -6.036747      -164.2682
  76   2.0000      -6.036568      -164.2634
  77   2.0000      -6.035942      -164.2463
  78   2.0000      -6.034067      -164.1953
  79   2.0000      -6.032543      -164.1538
  80   2.0000      -6.031937      -164.1373
  81   2.0000      -6.029626      -164.0745
  82   2.0000      -6.029026      -164.0581
  83   2.0000      -6.011139      -163.5714
  84   2.0000      -6.008778      -163.5072
  85   2.0000      -6.007082      -163.4610
  86   2.0000      -6.005287      -163.4122
  87   2.0000      -6.004718      -163.3967
  88   2.0000      -6.002770      -163.3437
  89   2.0000      -6.002230      -163.3290
  90   2.0000      -6.001362      -163.3054
  91   2.0000      -5.999862      -163.2645
  92   2.0000      -5.998840      -163.2367
  93   2.0000      -5.995981      -163.1589
  94   2.0000      -5.993464      -163.0904
  95   2.0000      -1.306167       -35.5426
  96   2.0000      -1.130238       -30.7553
  97   2.0000      -1.129228       -30.7279
  98   2.0000      -1.125020       -30.6134
  99   2.0000      -1.097521       -29.8651
 100   2.0000      -1.017749       -27.6944
 101   2.0000      -1.015984       -27.6463
 102   2.0000      -1.000714       -27.2308
 103   2.0000      -0.993285       -27.0286
 104   2.0000      -0.990568       -26.9547
 105   2.0000      -0.982366       -26.7315
 106   2.0000      -0.977069       -26.5874
 107   2.0000      -0.968859       -26.3640
 108   2.0000      -0.966183       -26.2912
 109   2.0000      -0.927018       -25.2254
 110   2.0000      -0.915644       -24.9159
 111   2.0000      -0.904788       -24.6205
 112   2.0000      -0.886629       -24.1264
 113   2.0000      -0.883011       -24.0279
 114   2.0000      -0.876133       -23.8408
 115   2.0000      -0.862195       -23.4615
 116   2.0000      -0.859702       -23.3937
 117   2.0000      -0.855356       -23.2754
 118   2.0000      -0.848785       -23.0966
 119   2.0000      -0.845351       -23.0032
 120   2.0000      -0.843131       -22.9428
 121   2.0000      -0.838273       -22.8106
 122   2.0000      -0.837815       -22.7981
 123   2.0000      -0.833761       -22.6878
 124   2.0000      -0.820570       -22.3288
 125   2.0000      -0.819116       -22.2893
 126   2.0000      -0.808399       -21.9977
 127   2.0000      -0.798555       -21.7298
 128   2.0000      -0.790224       -21.5031
 129   2.0000      -0.769966       -20.9519
 130   2.0000      -0.752937       -20.4885
 131   2.0000      -0.745366       -20.2824
 132   2.0000      -0.731772       -19.9125
 133   2.0000      -0.725635       -19.7455
 134   2.0000      -0.720468       -19.6049
 135   2.0000      -0.711014       -19.3477
 136   2.0000      -0.693680       -18.8760
 137   2.0000      -0.689134       -18.7523
 138   2.0000      -0.677431       -18.4338
 139   2.0000      -0.674696       -18.3594
 140   2.0000      -0.659898       -17.9567
 141   2.0000      -0.653668       -17.7872
 142   2.0000      -0.642962       -17.4959
 143   2.0000      -0.637684       -17.3523
 144   2.0000      -0.633947       -17.2506
 145   2.0000      -0.633250       -17.2316
 146   2.0000      -0.629732       -17.1359
 147   2.0000      -0.628625       -17.1058
 148   2.0000      -0.626088       -17.0367
 149   2.0000      -0.622991       -16.9525
 150   2.0000      -0.619593       -16.8600
 151   2.0000      -0.618059       -16.8182
 152   2.0000      -0.615228       -16.7412
 153   2.0000      -0.614340       -16.7170
 154   2.0000      -0.600232       -16.3331
 155   2.0000      -0.599357       -16.3093
 156   2.0000      -0.594465       -16.1762
 157   2.0000      -0.588538       -16.0149
 158   2.0000      -0.587478       -15.9861
 159   2.0000      -0.578955       -15.7542
 160   2.0000      -0.571508       -15.5515
 161   2.0000      -0.561035       -15.2665
 162   2.0000      -0.557824       -15.1792
 163   2.0000      -0.552639       -15.0381
 164   2.0000      -0.548605       -14.9283
 165   2.0000      -0.545778       -14.8514
 166   2.0000      -0.543739       -14.7959
 167   2.0000      -0.539876       -14.6908
 168   2.0000      -0.536215       -14.5912
 169   2.0000      -0.530129       -14.4255
 170   2.0000      -0.526320       -14.3219
 171   2.0000      -0.524357       -14.2685
 172   2.0000      -0.518401       -14.1064
 173   2.0000      -0.517322       -14.0770
 174   2.0000      -0.514574       -14.0023
 175   2.0000      -0.510932       -13.9032
 176   2.0000      -0.502369       -13.6702
 177   2.0000      -0.500458       -13.6182
 178   2.0000      -0.496062       -13.4985
 179   2.0000      -0.495109       -13.4726
 180   2.0000      -0.494003       -13.4425
 181   2.0000      -0.493151       -13.4193
 182   2.0000      -0.490266       -13.3408
 183   2.0000      -0.487662       -13.2700
 184   2.0000      -0.482805       -13.1378
 185   2.0000      -0.481886       -13.1128
 186   2.0000      -0.481115       -13.0918
 187   2.0000      -0.480008       -13.0617
 188   2.0000      -0.478033       -13.0079
 189   2.0000      -0.476276       -12.9601
 190   2.0000      -0.475010       -12.9257
 191   2.0000      -0.469866       -12.7857
 192   2.0000      -0.468114       -12.7380
 193   2.0000      -0.467249       -12.7145
 194   2.0000      -0.460661       -12.5352
 195   2.0000      -0.456763       -12.4291
 196   2.0000      -0.455374       -12.3913
 197   2.0000      -0.454291       -12.3619
 198   2.0000      -0.451814       -12.2945
 199   2.0000      -0.451295       -12.2804
 200   2.0000      -0.448131       -12.1943
 201   2.0000      -0.441072       -12.0022
 202   2.0000      -0.435350       -11.8465
 203   2.0000      -0.433729       -11.8024
 204   2.0000      -0.431063       -11.7298
 205   2.0000      -0.430756       -11.7215
 206   2.0000      -0.428466       -11.6591
 207   2.0000      -0.426806       -11.6140
 208   2.0000      -0.419551       -11.4166
 209   2.0000      -0.417518       -11.3612
 210   2.0000      -0.414329       -11.2745
 211   2.0000      -0.396657       -10.7936
 212   2.0000      -0.395069       -10.7504
 213   2.0000      -0.394818       -10.7435
 214   2.0000      -0.394199       -10.7267
 215   2.0000      -0.375171       -10.2089
 216   2.0000      -0.369101       -10.0437
 217   2.0000      -0.364296        -9.9130
 218   2.0000      -0.360993        -9.8231
 219   2.0000      -0.355354        -9.6697
 220   2.0000      -0.345078        -9.3901
 221   2.0000      -0.340230        -9.2581
 222   2.0000      -0.339565        -9.2400
 223   2.0000      -0.337592        -9.1863
 224   2.0000      -0.336786        -9.1644
 225   2.0000      -0.333889        -9.0856
 226   2.0000      -0.333740        -9.0815
 227   2.0000      -0.333582        -9.0772
 228   2.0000      -0.332657        -9.0521
 229   2.0000      -0.329708        -8.9718
 230   2.0000      -0.323668        -8.8074
 231   2.0000      -0.318803        -8.6751
 232   2.0000      -0.307157        -8.3582
 233   2.0000      -0.289621        -7.8810
 234   2.0000      -0.264571        -7.1993
 235   2.0000      -0.245255        -6.6737
 236   2.0000      -0.212526        -5.7831
 237   2.0000      -0.207282        -5.6404
 238   0.0000      -0.081598        -2.2204
 239   0.0000      -0.076860        -2.0915
 240   0.0000      -0.052547        -1.4299
 241   0.0000      -0.051729        -1.4076
 242   0.0000      -0.044786        -1.2187

MULLIKEN ATOMIC CHARGES
-----------------------
   0 C :   -0.029545
   1 C :   -0.063840
   2 C :    0.052006
   3 C :    0.029089
   4 C :   -0.065657
   5 S :    0.084887
   6 C :   -0.041392
   7 C :    0.029846
   8 C :    0.033707
   9 C :   -0.033313
  10 S :    0.060951
  11 C :    0.027243
  12 C :   -0.104967
  13 S :    0.161283
  14 C :   -0.018401
  15 C :   -0.050862
  16 C :    0.197378
  17 O :   -0.097950
  18 C :   -0.088651
  19 C :   -0.084981
  20 S :    0.149008
  21 C :   -0.064011
  22 C :   -0.017540
  23 C :   -0.064825
  24 N :   -0.001430
  25 C :   -0.104520
  26 S :    0.161299
  27 C :   -0.011449
  28 N :    0.278856
  29 O :   -0.260482
  30 O :   -0.271143
  31 C :    0.009393
  32 C :    0.133746
  33 C :   -0.044211
  34 C :    0.060392
  35 C :   -0.090652
  36 S :    0.175865
  37 C :   -0.020683
  38 C :   -0.049734
  39 C :    0.198760
  40 O :   -0.109185
  41 C :   -0.085174
  42 C :   -0.087171
  43 S :    0.165065
  44 C :   -0.055002
  45 C :   -0.016453
  46 C :   -0.103689
  47 C :    0.027606
  48 C :   -0.031643
  49 C :    0.034080
  50 C :    0.027195
  51 C :   -0.037941
  52 S :    0.058006
  53 C :   -0.062615
  54 C :    0.028308
  55 C :    0.053790
  56 C :   -0.067703
  57 S :    0.084461
  58 C :   -0.026607
  59 H :    0.020648
  60 H :    0.023926
  61 H :   -0.010668
  62 H :   -0.010951
  63 H :   -0.016026
  64 H :   -0.015372
  65 H :   -0.019756
  66 H :    0.008168
  67 H :    0.009804
  68 H :    0.141565
  69 H :    0.007726
  70 H :   -0.043829
  71 H :   -0.020627
  72 H :   -0.015593
  73 H :    0.007353
  74 H :   -0.019623
  75 H :   -0.014760
  76 H :   -0.014586
  77 H :   -0.011910
  78 H :   -0.009485
  79 H :    0.021321
  80 H :    0.023883
Sum of atomic charges:   -0.0000000

LOEWDIN ATOMIC CHARGES
----------------------
   0 C :   -0.073753
   1 C :   -0.139753
   2 C :   -0.029778
   3 C :   -0.027135
   4 C :   -0.174996
   5 S :    0.354865
   6 C :   -0.182311
   7 C :   -0.035956
   8 C :   -0.033971
   9 C :   -0.146133
  10 S :    0.379073
  11 C :   -0.086814
  12 C :   -0.165922
  13 S :    0.455188
  14 C :   -0.034662
  15 C :   -0.095493
  16 C :    0.093926
  17 O :   -0.104360
  18 C :   -0.191354
  19 C :   -0.187449
  20 S :    0.431446
  21 C :   -0.089132
  22 C :   -0.079377
  23 C :   -0.127298
  24 N :    0.022882
  25 C :   -0.099044
  26 S :    0.474120
  27 C :   -0.215982
  28 N :    0.274355
  29 O :   -0.226252
  30 O :   -0.237678
  31 C :    0.004983
  32 C :   -0.107011
  33 C :   -0.033333
  34 C :   -0.041044
  35 C :   -0.172028
  36 S :    0.463369
  37 C :   -0.028031
  38 C :   -0.097945
  39 C :    0.092277
  40 O :   -0.114072
  41 C :   -0.182565
  42 C :   -0.190557
  43 S :    0.456294
  44 C :   -0.093228
  45 C :   -0.036880
  46 C :   -0.163530
  47 C :   -0.086236
  48 C :   -0.144383
  49 C :   -0.033809
  50 C :   -0.035488
  51 C :   -0.182491
  52 S :    0.380868
  53 C :   -0.173905
  54 C :   -0.026936
  55 C :   -0.029071
  56 C :   -0.139856
  57 S :    0.354457
  58 C :   -0.073371
  59 H :    0.028933
  60 H :    0.027235
  61 H :    0.033661
  62 H :    0.032273
  63 H :    0.030894
  64 H :    0.032333
  65 H :    0.031488
  66 H :    0.027746
  67 H :    0.030489
  68 H :    0.090311
  69 H :    0.043148
  70 H :    0.018145
  71 H :    0.027765
  72 H :    0.032743
  73 H :    0.026271
  74 H :    0.032027
  75 H :    0.032677
  76 H :    0.031286
  77 H :    0.032359
  78 H :    0.034031
  79 H :    0.029198
  80 H :    0.027253

  Mayer bond orders larger than 0.100000
B(  0-C ,  1-C ) :   1.8637 B(  0-C , 59-H ) :   0.9512 B(  0-C , 60-H ) :   0.9419
B(  1-C ,  2-C ) :   1.0785 B(  1-C ,  5-S ) :   1.0074 B(  2-C ,  3-C ) :   1.6627
B(  2-C , 61-H ) :   0.9932 B(  3-C ,  4-C ) :   1.1514 B(  3-C , 62-H ) :   0.9915
B(  4-C ,  5-S ) :   1.0481 B(  4-C ,  6-C ) :   1.5554 B(  6-C ,  7-C ) :   1.1717
B(  6-C , 10-S ) :   1.0299 B(  7-C ,  8-C ) :   1.6059 B(  7-C , 63-H ) :   0.9916
B(  8-C ,  9-C ) :   1.1376 B(  8-C , 64-H ) :   0.9990 B(  9-C , 10-S ) :   1.0404
B(  9-C , 11-C ) :   1.6143 B( 11-C , 12-C ) :   1.1678 B( 11-C , 65-H ) :   0.9481
B( 12-C , 13-S ) :   1.0896 B( 12-C , 14-C ) :   1.4200 B( 13-S , 18-C ) :   1.1254
B( 14-C , 15-C ) :   1.3449 B( 14-C , 66-H ) :   0.9836 B( 15-C , 16-C ) :   0.9048
B( 15-C , 18-C ) :   1.4697 B( 16-C , 17-O ) :   2.3321 B( 16-C , 21-C ) :   0.9131
B( 18-C , 19-C ) :   1.1449 B( 19-C , 20-S ) :   1.0865 B( 19-C , 21-C ) :   1.5244
B( 20-S , 23-C ) :   1.1063 B( 21-C , 22-C ) :   1.2753 B( 22-C , 23-C ) :   1.4876
B( 22-C , 67-H ) :   0.9879 B( 23-C , 24-N ) :   1.1026 B( 24-N , 25-C ) :   1.2312
B( 24-N , 68-H ) :   0.8984 B( 25-C , 26-S ) :   1.1393 B( 25-C , 32-C ) :   1.3310
B( 26-S , 27-C ) :   1.0656 B( 27-C , 28-N ) :   0.9864 B( 27-C , 31-C ) :   1.4794
B( 28-N , 29-O ) :   1.5205 B( 28-N , 30-O ) :   1.5032 B( 29-O , 30-O ) :   0.2521
B( 31-C , 32-C ) :   1.2494 B( 31-C , 69-H ) :   0.9978 B( 32-C , 33-C ) :   1.0793
B( 33-C , 34-C ) :   1.7419 B( 33-C , 70-H ) :   0.9604 B( 34-C , 35-C ) :   1.1154
B( 34-C , 71-H ) :   0.9594 B( 35-C , 36-S ) :   1.0983 B( 35-C , 37-C ) :   1.4602
B( 36-S , 41-C ) :   1.1298 B( 37-C , 38-C ) :   1.3207 B( 37-C , 72-H ) :   0.9953
B( 38-C , 39-C ) :   0.9110 B( 38-C , 41-C ) :   1.4647 B( 39-C , 40-O ) :   2.3261
B( 39-C , 44-C ) :   0.9069 B( 41-C , 42-C ) :   1.1420 B( 42-C , 43-S ) :   1.1218
B( 42-C , 44-C ) :   1.4626 B( 43-S , 46-C ) :   1.0920 B( 44-C , 45-C ) :   1.3478
B( 45-C , 46-C ) :   1.4158 B( 45-C , 73-H ) :   0.9815 B( 46-C , 47-C ) :   1.1745
B( 47-C , 48-C ) :   1.6075 B( 47-C , 74-H ) :   0.9489 B( 48-C , 49-C ) :   1.1413
B( 48-C , 52-S ) :   1.0410 B( 49-C , 50-C ) :   1.6035 B( 49-C , 75-H ) :   0.9986
B( 50-C , 51-C ) :   1.1719 B( 50-C , 76-H ) :   0.9924 B( 51-C , 52-S ) :   1.0295
B( 51-C , 53-C ) :   1.5550 B( 53-C , 54-C ) :   1.1512 B( 53-C , 57-S ) :   1.0474
B( 54-C , 55-C ) :   1.6626 B( 54-C , 77-H ) :   0.9916 B( 55-C , 56-C ) :   1.0786
B( 55-C , 78-H ) :   0.9933 B( 56-C , 57-S ) :   1.0076 B( 56-C , 58-C ) :   1.8667
B( 58-C , 79-H ) :   0.9504 B( 58-C , 80-H ) :   0.9410

-----------------------------------------------------------------------------
         ABSORPTION SPECTRUM VIA TRANSITION ELECTRIC DIPOLE MOMENTS
-----------------------------------------------------------------------------
State   Energy  Wavelength   fosc         T2         TX        TY        TZ
        (cm-1)    (nm)                  (au**2)     (au)      (au)      (au)
-----------------------------------------------------------------------------
   0   13148.3    760.6   1.160769113  29.06367   4.13189  -2.18010   2.69041
   1   13888.1    720.0   0.541487564  12.83572   2.66642   1.65604  -1.72727
   2   19400.8    515.4   1.039014543  17.63098   3.74784  -1.45021   1.21720
   3   19696.6    507.7   0.810066310  13.53956   1.22321   2.59636  -2.30266
   4   20033.3    499.2   0.040522372   0.66591   0.61014   0.32620  -0.43271
   5   20739.9    482.2   0.235058067   3.73116   1.71483  -0.41497  -0.78633
   6   22690.6    440.7   0.024438966   0.35458  -0.06487   0.23451  -0.54348
   7   23198.4    431.1   0.087178621   1.23716  -0.82114  -0.24678   0.70851
   8   23769.6    420.7   0.237351831   3.28736  -1.55679   0.11870   0.92178
   9   25543.0    391.5   0.422627568   5.44706   1.10159  -0.87945   1.86014
  10   27112.8    368.8   0.087387638   1.06109   0.88557  -0.32292   0.41542
  11   27198.3    367.7   0.116232846   1.40690   0.51996  -0.59517   0.88448
  12   27599.0    362.3   0.034920604   0.41655  -0.49338   0.17544   0.37728
  13   28325.4    353.0   0.000008987   0.00010   0.00309  -0.00078   0.00971
  14   28669.4    348.8   0.025599184   0.29396   0.08183  -0.14159   0.51692
  15   28743.7    347.9   0.002696717   0.03089   0.11386  -0.04607   0.12570
  16   28911.2    345.9   0.028176038   0.32084   0.54618  -0.13779   0.05947
  17   29294.5    341.4   0.019019617   0.21374  -0.31211  -0.13742   0.31216
  18   29814.2    335.4   0.025990780   0.28699   0.21002   0.08061  -0.48620
  19   29930.9    334.1   0.052742769   0.58012   0.64004  -0.38722   0.14326
  20   31298.4    319.5   0.088993931   0.93608  -0.76327  -0.31580   0.50375
  21   31773.7    314.7   0.043697570   0.45276   0.25577  -0.36603   0.50335
  22   31802.2    314.4   0.223360384   2.31220  -1.00117  -0.04770   1.14349
  23   33084.1    302.3   0.006447412   0.06416   0.10603  -0.12845   0.19083
  24   33189.7    301.3   0.002408602   0.02389   0.12269   0.04038  -0.08489
  25   33670.4    297.0   0.015157973   0.14821  -0.10529  -0.06275   0.36494
  26   33850.8    295.4   0.004076031   0.03964   0.17625  -0.09163  -0.01346
  27   34369.9    291.0   0.151444559   1.45061   0.87299  -0.43915   0.70402
  28   34585.8    289.1   0.004831568   0.04599  -0.09414   0.06014  -0.18306
  29   34867.8    286.8   0.057585063   0.54370  -0.71897   0.05169   0.15529
  30   35901.2    278.5   0.048984825   0.44919   0.65231  -0.04915   0.14584
  31   36164.2    276.5   0.075879932   0.69075   0.26974  -0.29588   0.72832
  32   36296.8    275.5   0.056683226   0.51412   0.49821   0.10407  -0.50505
  33   37450.9    267.0   0.122596860   1.07769  -0.86845   0.24374  -0.51388
  34   37812.6    264.5   0.186734173   1.62578   0.54457   0.45135  -1.06090
  35   38430.4    260.2   0.016398952   0.14048  -0.30921  -0.10770   0.18240
  36   38586.4    259.2   0.131909474   1.12543   0.94548  -0.26206   0.40352
  37   38923.5    256.9   0.039958758   0.33797  -0.57899   0.03772   0.03622
  38   39122.9    255.6   0.032191964   0.27089   0.41195   0.05499  -0.31331
  39   39558.4    252.8   0.028520863   0.23736  -0.45518   0.00743   0.17353
  40   39630.8    252.3   0.071333061   0.59256  -0.01076   0.57821  -0.50806
  41   40006.6    250.0   0.061096523   0.50276   0.67870  -0.13842   0.15155
  42   40174.4    248.9   0.156606550   1.28332  -0.62248  -0.05688   0.94478

FINAL SINGLE POINT ENERGY     -5680.063212221439

DIPOLE MOMENT
-------------
                                X             Y             Z
Electronic contribution:    -23.17096     -17.63872      16.95599
Nuclear contribution   :     27.16345      17.68856     -18.04514
                        -----------------------------------------
Total Dipole Moment    :      3.99248       0.04984      -1.08914
                        -----------------------------------------
Magnitude (a.u.)       :      4.13868
Magnitude (Debye)      :     10.51968

Rotational constants in cm-1:     0.001149     0.000239     0.000200
Rotational constants in MHz :    34.450256     7.152357     5.995017

                             ****ORCA TERMINATED NORMALLY****
TOTAL RUN TIME: 0 days 0 hours 5 minutes 53 seconds 403 msec
