                         Program Version 4.2.0 -  RELEASE  -
|  1> # ORCA input file
|  2> # SCF done       -199.464095987876          0.000498869861
|  3> ! CAM-B3LYP def2-SVP def2/J RIJCOSX Grid4 TightSCF
|  4> %maxcore 5000
|  5> %tddft
|  6>     Mode sTDDFT
|  7>     Ethresh 5.0
|  8>     maxcore 5000
|  9> end
| 10>
| 11> %pal
| 12>   nprocs 6
| 13>   end
| 14> * xyz 0 1
| 15>    C       -2.35354         0.52174        -2.57961
| 16>    C       -1.86645         1.76376        -2.95381
| 17>    C       -1.72164         2.74511        -1.97140
| 18>    C       -1.22377         4.02164        -2.33411
| 19>    N       -0.81990         5.04976        -2.63432
| 20>    C       -2.05942         2.49243        -0.62764
| 21>    C       -1.90250         3.51092         0.34338
| 22>    N       -1.78067         4.32284         1.14146
| 23>    C       -2.54535         1.23905        -0.25409
| 24>    C       -2.68252         0.27910        -1.23425
| 25>    C       -3.16628        -1.11065        -1.07871
| 26>    O       -3.50505        -1.61978        -0.03346
| 27>    C       -3.09606        -1.71051        -2.43023
| 28>    C       -2.62557        -0.68981        -3.35425
| 29>    C       -2.50117        -0.78762        -4.71463
| 30>    C       -2.04523         0.26009        -5.54598
| 31>    N       -1.68317         1.06635        -6.27726
| 32>    C       -2.82057        -1.91480        -5.50370
| 33>    N       -3.06392        -2.77699        -6.22192
| 34>    C       -3.33638        -3.01104        -2.79025
| 35>    C       -3.85863        -4.09744        -2.06503
| 36>    C       -4.41651        -4.20896        -0.79513
| 37>    C       -4.84683        -5.49851        -0.52480
| 38>    C       -4.61632        -6.39870        -1.59188
| 39>    S       -3.88388        -5.64834        -2.92494
| 40>    C       -5.08722        -7.67824        -1.20796
| 41>    C       -5.61522        -7.59126         0.09166
| 42>    C       -5.48508        -6.22108         0.56425
| 43>    C       -5.88832        -5.73061         1.76973
| 44>    C       -6.48916        -6.56077         2.74160
| 45>    N       -6.97005        -7.24059         3.52927
| 46>    C       -5.75209        -4.37345         2.13817
| 47>    N       -5.66644        -3.27798         2.46214
| 48>    C       -6.11571        -8.80760         0.55240
| 49>    C       -5.96362        -9.81741        -0.38039
| 50>    S       -5.19877        -9.25544        -1.85716
| 51>    C       -6.40864       -11.16474        -0.21916
| 52>    C       -6.20208       -12.26907        -1.01834
| 53>    C       -5.42090       -12.24433        -2.29143
| 54>    O       -5.92002       -12.38898        -3.36797
| 55>    O       -4.09717       -12.04874        -2.14974
| 56>    C       -6.89085       -13.42757        -0.55289
| 57>    C       -7.58890       -13.16977         0.60295
| 58>    S       -7.44700       -11.55583         1.12899
| 59>    C       -6.84889       -14.73267        -1.16369
| 60>    C       -7.78148       -15.73441        -0.99766
| 61>    C       -7.41961       -16.90109        -1.67493
| 62>    C       -6.19589       -16.77855        -2.35341
| 63>    S       -5.50490       -15.23087        -2.16730
| 64>    C       -5.89740       -18.01689        -2.98057
| 65>    C       -6.94280       -18.91860        -2.69281
| 66>    C       -7.92724       -18.24943        -1.85881
| 67>    C       -9.05213       -18.80218        -1.32108
| 68>    C       -9.38505       -20.15329        -1.55517
| 69>    N       -9.63049       -21.25478        -1.75788
| 70>    C       -9.92724       -18.06470        -0.49630
| 71>    N      -10.63055       -17.45503         0.17277
| 72>    C       -6.72207       -20.18573        -3.21017
| 73>    C       -5.51345       -20.27262        -3.88964
| 74>    S       -4.66839       -18.72685        -3.91390
| 75>    C       -4.94617       -21.38638        -4.53970
| 76>    C       -5.24692       -22.70821        -4.38075
| 77>    C       -4.84103       -23.66494        -5.44543
| 78>    O       -4.08696       -23.45277        -6.36422
| 79>    C       -5.60000       -24.90493        -5.16104
| 80>    C       -5.67766       -26.05887        -5.91154
| 81>    C       -6.49916       -27.08918        -5.45020
| 82>    C       -7.22961       -26.93274        -4.25640
| 83>    C       -7.13595       -25.76366        -3.49866
| 84>    C       -6.30788       -24.75206        -3.95275
| 85>    C       -5.97737       -23.44778        -3.37366
| 86>    C       -6.10495       -23.14018        -2.04497
| 87>    C       -5.56171       -21.98681        -1.44469
| 88>    N       -5.11469       -21.07795        -0.90458
| 89>    C       -6.70860       -23.99075        -1.09289
| 90>    N       -7.18201       -24.64660        -0.28002
| 91>    C       -8.07604       -27.98151        -3.81750
| 92>    N       -8.76326       -28.82402        -3.45956
| 93>    C       -6.60412       -28.29276        -6.18875
| 94>    N       -6.67544       -29.25875        -6.79929
| 95>    H       -1.59384         1.99797        -3.97017
| 96>    H       -2.80857         1.02387         0.77045
| 97>    H       -3.08617        -3.27181        -3.81183
| 98>    H       -4.48630        -3.37603        -0.11872
| 99>    H       -6.56792        -8.96764         1.51451
|100>    H       -3.81610       -11.97947        -1.22746
|101>    H       -8.16789       -13.86333         1.17882
|102>    H       -8.68476       -15.61297        -0.42914
|103>    H       -7.41566       -21.00378        -3.14158
|104>    H       -4.21459       -21.17559        -5.31382
|105>    H       -5.11971       -26.16222        -6.82974
|106>    H       -7.71545       -25.67186        -2.59359
|107> *
|108>
|109>                          ****END OF INPUT****

CARTESIAN COORDINATES (ANGSTROEM)
---------------------------------
  C     -2.353540    0.521740   -2.579610
  C     -1.866450    1.763760   -2.953810
  C     -1.721640    2.745110   -1.971400
  C     -1.223770    4.021640   -2.334110
  N     -0.819900    5.049760   -2.634320
  C     -2.059420    2.492430   -0.627640
  C     -1.902500    3.510920    0.343380
  N     -1.780670    4.322840    1.141460
  C     -2.545350    1.239050   -0.254090
  C     -2.682520    0.279100   -1.234250
  C     -3.166280   -1.110650   -1.078710
  O     -3.505050   -1.619780   -0.033460
  C     -3.096060   -1.710510   -2.430230
  C     -2.625570   -0.689810   -3.354250
  C     -2.501170   -0.787620   -4.714630
  C     -2.045230    0.260090   -5.545980
  N     -1.683170    1.066350   -6.277260
  C     -2.820570   -1.914800   -5.503700
  N     -3.063920   -2.776990   -6.221920
  C     -3.336380   -3.011040   -2.790250
  C     -3.858630   -4.097440   -2.065030
  C     -4.416510   -4.208960   -0.795130
  C     -4.846830   -5.498510   -0.524800
  C     -4.616320   -6.398700   -1.591880
  S     -3.883880   -5.648340   -2.924940
  C     -5.087220   -7.678240   -1.207960
  C     -5.615220   -7.591260    0.091660
  C     -5.485080   -6.221080    0.564250
  C     -5.888320   -5.730610    1.769730
  C     -6.489160   -6.560770    2.741600
  N     -6.970050   -7.240590    3.529270
  C     -5.752090   -4.373450    2.138170
  N     -5.666440   -3.277980    2.462140
  C     -6.115710   -8.807600    0.552400
  C     -5.963620   -9.817410   -0.380390
  S     -5.198770   -9.255440   -1.857160
  C     -6.408640  -11.164740   -0.219160
  C     -6.202080  -12.269070   -1.018340
  C     -5.420900  -12.244330   -2.291430
  O     -5.920020  -12.388980   -3.367970
  O     -4.097170  -12.048740   -2.149740
  C     -6.890850  -13.427570   -0.552890
  C     -7.588900  -13.169770    0.602950
  S     -7.447000  -11.555830    1.128990
  C     -6.848890  -14.732670   -1.163690
  C     -7.781480  -15.734410   -0.997660
  C     -7.419610  -16.901090   -1.674930
  C     -6.195890  -16.778550   -2.353410
  S     -5.504900  -15.230870   -2.167300
  C     -5.897400  -18.016890   -2.980570
  C     -6.942800  -18.918600   -2.692810
  C     -7.927240  -18.249430   -1.858810
  C     -9.052130  -18.802180   -1.321080
  C     -9.385050  -20.153290   -1.555170
  N     -9.630490  -21.254780   -1.757880
  C     -9.927240  -18.064700   -0.496300
  N    -10.630550  -17.455030    0.172770
  C     -6.722070  -20.185730   -3.210170
  C     -5.513450  -20.272620   -3.889640
  S     -4.668390  -18.726850   -3.913900
  C     -4.946170  -21.386380   -4.539700
  C     -5.246920  -22.708210   -4.380750
  C     -4.841030  -23.664940   -5.445430
  O     -4.086960  -23.452770   -6.364220
  C     -5.600000  -24.904930   -5.161040
  C     -5.677660  -26.058870   -5.911540
  C     -6.499160  -27.089180   -5.450200
  C     -7.229610  -26.932740   -4.256400
  C     -7.135950  -25.763660   -3.498660
  C     -6.307880  -24.752060   -3.952750
  C     -5.977370  -23.447780   -3.373660
  C     -6.104950  -23.140180   -2.044970
  C     -5.561710  -21.986810   -1.444690
  N     -5.114690  -21.077950   -0.904580
  C     -6.708600  -23.990750   -1.092890
  N     -7.182010  -24.646600   -0.280020
  C     -8.076040  -27.981510   -3.817500
  N     -8.763260  -28.824020   -3.459560
  C     -6.604120  -28.292760   -6.188750
  N     -6.675440  -29.258750   -6.799290
  H     -1.593840    1.997970   -3.970170
  H     -2.808570    1.023870    0.770450
  H     -3.086170   -3.271810   -3.811830
  H     -4.486300   -3.376030   -0.118720
  H     -6.567920   -8.967640    1.514510
  H     -3.816100  -11.979470   -1.227460
  H     -8.167890  -13.863330    1.178820
  H     -8.684760  -15.612970   -0.429140
  H     -7.415660  -21.003780   -3.141580
  H     -4.214590  -21.175590   -5.313820
  H     -5.119710  -26.162220   -6.829740
  H     -7.715450  -25.671860   -2.593590

 Total Charge           Charge          ....    0
 Multiplicity           Mult            ....    1
 Number of Electrons    NEL             ....  562
 Basis Dimension        Dim             .... 1200

ORBITAL ENERGIES
----------------

  NO   OCC          E(Eh)            E(eV)
   0   2.0000     -89.022203     -2422.4173
   1   2.0000     -89.018906     -2422.3276
   2   2.0000     -89.014432     -2422.2058
   3   2.0000     -89.012605     -2422.1561
   4   2.0000     -89.005856     -2421.9725
   5   2.0000     -19.299016      -525.1529
   6   2.0000     -19.248571      -523.7802
   7   2.0000     -19.241547      -523.5891
   8   2.0000     -19.240804      -523.5689
   9   2.0000     -14.453053      -393.2876
  10   2.0000     -14.448826      -393.1725
  11   2.0000     -14.448798      -393.1718
  12   2.0000     -14.447615      -393.1396
  13   2.0000     -14.443028      -393.0148
  14   2.0000     -14.440418      -392.9437
  15   2.0000     -14.437959      -392.8768
  16   2.0000     -14.434543      -392.7839
  17   2.0000     -14.432811      -392.7367
  18   2.0000     -14.431746      -392.7078
  19   2.0000     -14.430899      -392.6847
  20   2.0000     -14.429888      -392.6572
  21   2.0000     -10.444387      -284.2062
  22   2.0000     -10.399526      -282.9855
  23   2.0000     -10.392887      -282.8048
  24   2.0000     -10.390570      -282.7418
  25   2.0000     -10.383935      -282.5612
  26   2.0000     -10.376254      -282.3522
  27   2.0000     -10.372051      -282.2379
  28   2.0000     -10.371098      -282.2119
  29   2.0000     -10.370809      -282.2041
  30   2.0000     -10.370024      -282.1827
  31   2.0000     -10.369509      -282.1687
  32   2.0000     -10.367594      -282.1166
  33   2.0000     -10.365252      -282.0529
  34   2.0000     -10.364921      -282.0438
  35   2.0000     -10.364771      -282.0398
  36   2.0000     -10.363539      -282.0062
  37   2.0000     -10.362957      -281.9904
  38   2.0000     -10.362550      -281.9793
  39   2.0000     -10.362474      -281.9772
  40   2.0000     -10.361002      -281.9372
  41   2.0000     -10.353636      -281.7368
  42   2.0000     -10.352571      -281.7078
  43   2.0000     -10.352384      -281.7027
  44   2.0000     -10.352177      -281.6971
  45   2.0000     -10.350638      -281.6552
  46   2.0000     -10.348895      -281.6077
  47   2.0000     -10.347624      -281.5732
  48   2.0000     -10.347574      -281.5718
  49   2.0000     -10.347283      -281.5639
  50   2.0000     -10.345952      -281.5277
  51   2.0000     -10.345750      -281.5222
  52   2.0000     -10.344695      -281.4935
  53   2.0000     -10.344278      -281.4821
  54   2.0000     -10.340839      -281.3885
  55   2.0000     -10.340747      -281.3860
  56   2.0000     -10.339662      -281.3565
  57   2.0000     -10.339466      -281.3512
  58   2.0000     -10.339196      -281.3438
  59   2.0000     -10.337911      -281.3089
  60   2.0000     -10.337622      -281.3010
  61   2.0000     -10.337542      -281.2988
  62   2.0000     -10.337305      -281.2924
  63   2.0000     -10.335754      -281.2502
  64   2.0000     -10.334924      -281.2276
  65   2.0000     -10.332728      -281.1678
  66   2.0000     -10.332140      -281.1518
  67   2.0000     -10.331788      -281.1422
  68   2.0000     -10.330700      -281.1126
  69   2.0000     -10.330073      -281.0956
  70   2.0000     -10.329383      -281.0768
  71   2.0000     -10.329168      -281.0709
  72   2.0000     -10.327924      -281.0371
  73   2.0000     -10.327549      -281.0269
  74   2.0000     -10.327417      -281.0233
  75   2.0000     -10.327036      -281.0129
  76   2.0000     -10.326055      -280.9862
  77   2.0000     -10.324951      -280.9562
  78   2.0000     -10.321845      -280.8717
  79   2.0000     -10.321520      -280.8629
  80   2.0000      -8.116230      -220.8539
  81   2.0000      -8.113630      -220.7831
  82   2.0000      -8.109117      -220.6603
  83   2.0000      -8.106889      -220.5997
  84   2.0000      -8.101515      -220.4534
  85   2.0000      -6.085533      -165.5958
  86   2.0000      -6.082694      -165.5185
  87   2.0000      -6.081232      -165.4787
  88   2.0000      -6.078579      -165.4065
  89   2.0000      -6.078572      -165.4063
  90   2.0000      -6.078282      -165.3985
  91   2.0000      -6.076195      -165.3417
  92   2.0000      -6.076089      -165.3388
  93   2.0000      -6.074085      -165.2842
  94   2.0000      -6.071871      -165.2240
  95   2.0000      -6.071608      -165.2168
  96   2.0000      -6.070856      -165.1964
  97   2.0000      -6.069392      -165.1565
  98   2.0000      -6.066376      -165.0745
  99   2.0000      -6.063764      -165.0034
 100   2.0000      -1.222962       -33.2785
 101   2.0000      -1.164531       -31.6885
 102   2.0000      -1.157490       -31.4969
 103   2.0000      -1.138930       -30.9919
 104   2.0000      -1.074788       -29.2465
 105   2.0000      -1.068002       -29.0618
 106   2.0000      -1.050236       -28.5784
 107   2.0000      -1.047997       -28.5174
 108   2.0000      -1.045537       -28.4505
 109   2.0000      -1.042615       -28.3710
 110   2.0000      -1.039994       -28.2997
 111   2.0000      -1.036203       -28.1965
 112   2.0000      -1.033530       -28.1238
 113   2.0000      -1.028013       -27.9737
 114   2.0000      -1.026494       -27.9323
 115   2.0000      -1.025295       -27.8997
 116   2.0000      -1.019284       -27.7361
 117   2.0000      -1.018351       -27.7107
 118   2.0000      -1.016585       -27.6627
 119   2.0000      -1.016358       -27.6565
 120   2.0000      -1.012874       -27.5617
 121   2.0000      -1.011486       -27.5239
 122   2.0000      -1.009597       -27.4725
 123   2.0000      -0.989165       -26.9165
 124   2.0000      -0.985254       -26.8101
 125   2.0000      -0.982816       -26.7438
 126   2.0000      -0.978355       -26.6224
 127   2.0000      -0.948024       -25.7970
 128   2.0000      -0.941709       -25.6252
 129   2.0000      -0.934063       -25.4171
 130   2.0000      -0.931573       -25.3494
 131   2.0000      -0.921066       -25.0635
 132   2.0000      -0.915738       -24.9185
 133   2.0000      -0.909703       -24.7543
 134   2.0000      -0.907926       -24.7059
 135   2.0000      -0.904092       -24.6016
 136   2.0000      -0.897769       -24.4295
 137   2.0000      -0.893264       -24.3069
 138   2.0000      -0.884123       -24.0582
 139   2.0000      -0.881487       -23.9865
 140   2.0000      -0.877884       -23.8884
 141   2.0000      -0.859037       -23.3756
 142   2.0000      -0.849479       -23.1155
 143   2.0000      -0.819793       -22.3077
 144   2.0000      -0.816492       -22.2179
 145   2.0000      -0.813451       -22.1351
 146   2.0000      -0.805602       -21.9215
 147   2.0000      -0.799136       -21.7456
 148   2.0000      -0.794565       -21.6212
 149   2.0000      -0.773893       -21.0587
 150   2.0000      -0.760108       -20.6836
 151   2.0000      -0.758238       -20.6327
 152   2.0000      -0.752486       -20.4762
 153   2.0000      -0.751699       -20.4548
 154   2.0000      -0.738481       -20.0951
 155   2.0000      -0.730954       -19.8903
 156   2.0000      -0.723298       -19.6820
 157   2.0000      -0.718318       -19.5464
 158   2.0000      -0.716613       -19.5000
 159   2.0000      -0.715311       -19.4646
 160   2.0000      -0.709395       -19.3036
 161   2.0000      -0.707708       -19.2577
 162   2.0000      -0.701980       -19.1019
 163   2.0000      -0.694610       -18.9013
 164   2.0000      -0.692458       -18.8427
 165   2.0000      -0.681431       -18.5427
 166   2.0000      -0.672161       -18.2904
 167   2.0000      -0.665653       -18.1133
 168   2.0000      -0.662279       -18.0215
 169   2.0000      -0.661215       -17.9926
 170   2.0000      -0.655746       -17.8437
 171   2.0000      -0.649912       -17.6850
 172   2.0000      -0.644711       -17.5435
 173   2.0000      -0.639852       -17.4113
 174   2.0000      -0.633354       -17.2344
 175   2.0000      -0.626163       -17.0388
 176   2.0000      -0.622255       -16.9324
 177   2.0000      -0.616622       -16.7791
 178   2.0000      -0.612181       -16.6583
 179   2.0000      -0.605474       -16.4758
 180   2.0000      -0.602661       -16.3992
 181   2.0000      -0.589120       -16.0308
 182   2.0000      -0.586644       -15.9634
 183   2.0000      -0.580592       -15.7987
 184   2.0000      -0.577499       -15.7145
 185   2.0000      -0.575842       -15.6695
 186   2.0000      -0.572819       -15.5872
 187   2.0000      -0.571830       -15.5603
 188   2.0000      -0.570823       -15.5329
 189   2.0000      -0.570047       -15.5118
 190   2.0000      -0.568227       -15.4622
 191   2.0000      -0.566190       -15.4068
 192   2.0000      -0.564576       -15.3629
 193   2.0000      -0.560035       -15.2393
 194   2.0000      -0.552670       -15.0389
 195   2.0000      -0.548148       -14.9159
 196   2.0000      -0.543001       -14.7758
 197   2.0000      -0.540622       -14.7111
 198   2.0000      -0.538468       -14.6525
 199   2.0000      -0.537595       -14.6287
 200   2.0000      -0.533301       -14.5119
 201   2.0000      -0.532814       -14.4986
 202   2.0000      -0.531861       -14.4727
 203   2.0000      -0.528810       -14.3896
 204   2.0000      -0.526115       -14.3163
 205   2.0000      -0.525194       -14.2913
 206   2.0000      -0.523186       -14.2366
 207   2.0000      -0.522180       -14.2092
 208   2.0000      -0.518288       -14.1033
 209   2.0000      -0.517623       -14.0852
 210   2.0000      -0.516731       -14.0610
 211   2.0000      -0.512353       -13.9418
 212   2.0000      -0.511196       -13.9104
 213   2.0000      -0.504962       -13.7407
 214   2.0000      -0.500121       -13.6090
 215   2.0000      -0.499040       -13.5796
 216   2.0000      -0.497587       -13.5400
 217   2.0000      -0.494205       -13.4480
 218   2.0000      -0.492853       -13.4112
 219   2.0000      -0.490676       -13.3520
 220   2.0000      -0.481821       -13.1110
 221   2.0000      -0.478745       -13.0273
 222   2.0000      -0.478065       -13.0088
 223   2.0000      -0.476267       -12.9599
 224   2.0000      -0.475343       -12.9347
 225   2.0000      -0.473781       -12.8922
 226   2.0000      -0.472592       -12.8599
 227   2.0000      -0.471768       -12.8374
 228   2.0000      -0.469084       -12.7644
 229   2.0000      -0.466423       -12.6920
 230   2.0000      -0.465696       -12.6722
 231   2.0000      -0.465018       -12.6538
 232   2.0000      -0.463656       -12.6167
 233   2.0000      -0.462801       -12.5934
 234   2.0000      -0.460774       -12.5383
 235   2.0000      -0.460083       -12.5195
 236   2.0000      -0.459368       -12.5000
 237   2.0000      -0.459243       -12.4966
 238   2.0000      -0.458276       -12.4703
 239   2.0000      -0.457971       -12.4620
 240   2.0000      -0.457003       -12.4357
 241   2.0000      -0.456381       -12.4188
 242   2.0000      -0.456090       -12.4108
 243   2.0000      -0.455770       -12.4021
 244   2.0000      -0.455755       -12.4017
 245   2.0000      -0.453846       -12.3498
 246   2.0000      -0.452291       -12.3075
 247   2.0000      -0.450844       -12.2681
 248   2.0000      -0.449496       -12.2314
 249   2.0000      -0.447307       -12.1718
 250   2.0000      -0.445879       -12.1330
 251   2.0000      -0.444558       -12.0970
 252   2.0000      -0.443760       -12.0753
 253   2.0000      -0.439451       -11.9581
 254   2.0000      -0.437521       -11.9055
 255   2.0000      -0.435032       -11.8378
 256   2.0000      -0.432096       -11.7579
 257   2.0000      -0.431353       -11.7377
 258   2.0000      -0.430134       -11.7045
 259   2.0000      -0.429881       -11.6977
 260   2.0000      -0.428291       -11.6544
 261   2.0000      -0.423512       -11.5243
 262   2.0000      -0.416109       -11.3229
 263   2.0000      -0.403618       -10.9830
 264   2.0000      -0.395895       -10.7729
 265   2.0000      -0.390318       -10.6211
 266   2.0000      -0.378831       -10.3085
 267   2.0000      -0.377858       -10.2821
 268   2.0000      -0.373358       -10.1596
 269   2.0000      -0.371856       -10.1187
 270   2.0000      -0.369560       -10.0563
 271   2.0000      -0.368071       -10.0157
 272   2.0000      -0.364191        -9.9101
 273   2.0000      -0.355582        -9.6759
 274   2.0000      -0.348854        -9.4928
 275   2.0000      -0.347452        -9.4547
 276   2.0000      -0.342762        -9.3270
 277   2.0000      -0.337517        -9.1843
 278   2.0000      -0.330075        -8.9818
 279   2.0000      -0.293594        -7.9891
 280   2.0000      -0.279861        -7.6154
 281   0.0000      -0.137207        -3.7336
 282   0.0000      -0.128662        -3.5011
 283   0.0000      -0.116072        -3.1585
 284   0.0000      -0.111685        -3.0391
 285   0.0000      -0.101469        -2.7611

MULLIKEN ATOMIC CHARGES
-----------------------
   0 C :    0.048762
   1 C :   -0.041736
   2 C :   -0.061923
   3 C :   -0.176445
   4 N :    0.208941
   5 C :   -0.063074
   6 C :   -0.174816
   7 N :    0.201224
   8 C :   -0.032804
   9 C :   -0.003801
  10 C :    0.159133
  11 O :   -0.134496
  12 C :   -0.091283
  13 C :    0.314217
  14 C :   -0.342483
  15 C :   -0.185236
  16 N :    0.170137
  17 C :   -0.187695
  18 N :    0.162554
  19 C :    0.046863
  20 C :   -0.114430
  21 C :   -0.008510
  22 C :   -0.004713
  23 C :   -0.071661
  24 S :    0.220593
  25 C :   -0.092780
  26 C :    0.035578
  27 C :    0.308775
  28 C :   -0.290339
  29 C :   -0.190126
  30 N :    0.178818
  31 C :   -0.189625
  32 N :    0.202327
  33 C :   -0.059748
  34 C :   -0.075194
  35 S :    0.198981
  36 C :   -0.105341
  37 C :   -0.072274
  38 C :    0.109776
  39 O :   -0.141038
  40 O :   -0.158507
  41 C :    0.135184
  42 C :   -0.110893
  43 S :    0.179844
  44 C :   -0.086599
  45 C :   -0.036614
  46 C :    0.025304
  47 C :   -0.093999
  48 S :    0.193373
  49 C :   -0.062428
  50 C :   -0.003352
  51 C :    0.301236
  52 C :   -0.279844
  53 C :   -0.182444
  54 N :    0.171353
  55 C :   -0.184847
  56 N :    0.176364
  57 C :   -0.004829
  58 C :   -0.117590
  59 S :    0.227608
  60 C :    0.088528
  61 C :   -0.141052
  62 C :    0.139633
  63 O :   -0.127358
  64 C :    0.014040
  65 C :   -0.032684
  66 C :   -0.065922
  67 C :   -0.063842
  68 C :   -0.032068
  69 C :    0.025838
  70 C :    0.269059
  71 C :   -0.320159
  72 C :   -0.196546
  73 N :    0.176091
  74 C :   -0.175063
  75 N :    0.179035
  76 C :   -0.171396
  77 N :    0.202472
  78 C :   -0.175639
  79 N :    0.197891
  80 H :    0.021452
  81 H :    0.020490
  82 H :    0.008826
  83 H :    0.042252
  84 H :    0.022063
  85 H :    0.192863
  86 H :    0.047316
  87 H :    0.007543
  88 H :    0.027944
  89 H :    0.028438
  90 H :    0.017886
  91 H :    0.028644
Sum of atomic charges:   -0.0000000

LOEWDIN ATOMIC CHARGES
----------------------
   0 C :    0.001168
   1 C :    0.034606
   2 C :   -0.022959
   3 C :   -0.032060
   4 N :   -0.008765
   5 C :   -0.026945
   6 C :   -0.032096
   7 N :   -0.010821
   8 C :    0.050487
   9 C :   -0.029290
  10 C :    0.086711
  11 O :   -0.123288
  12 C :   -0.102535
  13 C :    0.070173
  14 C :   -0.125607
  15 C :   -0.022033
  16 N :   -0.032886
  17 C :   -0.023456
  18 N :   -0.037410
  19 C :    0.049709
  20 C :   -0.177124
  21 C :    0.022111
  22 C :   -0.072713
  23 C :   -0.154448
  24 S :    0.507496
  25 C :   -0.189741
  26 C :   -0.049657
  27 C :    0.071963
  28 C :   -0.086356
  29 C :   -0.015607
  30 N :   -0.023807
  31 C :   -0.023703
  32 N :   -0.006811
  33 C :   -0.032765
  34 C :   -0.180031
  35 S :    0.510299
  36 C :   -0.178849
  37 C :   -0.114831
  38 C :    0.036625
  39 O :   -0.125079
  40 O :   -0.028920
  41 C :   -0.066513
  42 C :   -0.162359
  43 S :    0.493491
  44 C :   -0.152413
  45 C :   -0.025748
  46 C :   -0.053948
  47 C :   -0.187296
  48 S :    0.510613
  49 C :   -0.150483
  50 C :   -0.066699
  51 C :    0.081398
  52 C :   -0.094573
  53 C :   -0.012147
  54 N :   -0.029856
  55 C :   -0.015911
  56 N :   -0.026911
  57 C :    0.013553
  58 C :   -0.186385
  59 S :    0.508326
  60 C :    0.053368
  61 C :   -0.100653
  62 C :    0.083106
  63 O :   -0.128846
  64 C :   -0.031882
  65 C :    0.049499
  66 C :   -0.028713
  67 C :   -0.021703
  68 C :    0.034600
  69 C :    0.005346
  70 C :    0.059490
  71 C :   -0.123097
  72 C :   -0.014283
  73 N :   -0.035961
  74 C :   -0.023530
  75 N :   -0.028803
  76 C :   -0.031286
  77 N :   -0.008853
  78 C :   -0.032267
  79 N :   -0.012738
  80 H :    0.052556
  81 H :    0.055750
  82 H :    0.043836
  83 H :    0.044138
  84 H :    0.038029
  85 H :    0.098643
  86 H :    0.034811
  87 H :    0.041301
  88 H :    0.043020
  89 H :    0.049043
  90 H :    0.054770
  91 H :    0.054419

  Mayer bond orders larger than 0.100000
B(  0-C ,  1-C ) :   1.3563 B(  0-C ,  9-C ) :   1.3353 B(  0-C , 13-C ) :   0.9532
B(  1-C ,  2-C ) :   1.3937 B(  1-C , 80-H ) :   0.9857 B(  2-C ,  3-C ) :   1.0890
B(  2-C ,  5-C ) :   1.4018 B(  3-C ,  4-N ) :   3.0462 B(  5-C ,  6-C ) :   1.0866
B(  5-C ,  8-C ) :   1.3598 B(  6-C ,  7-N ) :   3.0453 B(  8-C ,  9-C ) :   1.3634
B(  8-C , 81-H ) :   1.0162 B(  9-C , 10-C ) :   0.9344 B( 10-C , 11-O ) :   2.1816
B( 10-C , 12-C ) :   0.9466 B( 12-C , 13-C ) :   1.0907 B( 12-C , 19-C ) :   1.5730
B( 13-C , 14-C ) :   1.6399 B( 14-C , 15-C ) :   1.1496 B( 14-C , 17-C ) :   1.1377
B( 15-C , 16-N ) :   2.9587 B( 17-C , 18-N ) :   2.9656 B( 19-C , 20-C ) :   1.2379
B( 19-C , 82-H ) :   0.9070 B( 20-C , 21-C ) :   1.3825 B( 20-C , 24-S ) :   1.0738
B( 21-C , 22-C ) :   1.3238 B( 21-C , 83-H ) :   0.9706 B( 22-C , 23-C ) :   1.3699
B( 22-C , 27-C ) :   0.9955 B( 23-C , 24-S ) :   1.1753 B( 23-C , 25-C ) :   1.1947
B( 25-C , 26-C ) :   1.4296 B( 25-C , 35-S ) :   1.1174 B( 26-C , 27-C ) :   0.9928
B( 26-C , 33-C ) :   1.3061 B( 27-C , 28-C ) :   1.7211 B( 28-C , 29-C ) :   1.1358
B( 28-C , 31-C ) :   1.1358 B( 29-C , 30-N ) :   2.9856 B( 31-C , 32-N ) :   2.9957
B( 33-C , 34-C ) :   1.4462 B( 33-C , 84-H ) :   0.9873 B( 34-C , 35-S ) :   1.1314
B( 34-C , 36-C ) :   1.1269 B( 36-C , 37-C ) :   1.5366 B( 36-C , 43-S ) :   1.1678
B( 37-C , 38-C ) :   0.8750 B( 37-C , 41-C ) :   1.2635 B( 38-C , 39-O ) :   2.2123
B( 38-C , 40-O ) :   1.2067 B( 40-O , 85-H ) :   0.9457 B( 41-C , 42-C ) :   1.5464
B( 41-C , 44-C ) :   1.0329 B( 42-C , 43-S ) :   1.1660 B( 42-C , 86-H ) :   0.9625
B( 44-C , 45-C ) :   1.4929 B( 44-C , 48-S ) :   1.1330 B( 45-C , 46-C ) :   1.2846
B( 45-C , 87-H ) :   0.9950 B( 46-C , 47-C ) :   1.4365 B( 46-C , 51-C ) :   0.9930
B( 47-C , 48-S ) :   1.1379 B( 47-C , 49-C ) :   1.1839 B( 49-C , 50-C ) :   1.4013
B( 49-C , 59-S ) :   1.1660 B( 50-C , 51-C ) :   0.9987 B( 50-C , 57-C ) :   1.3698
B( 51-C , 52-C ) :   1.7201 B( 52-C , 53-C ) :   1.1347 B( 52-C , 55-C ) :   1.1313
B( 53-C , 54-N ) :   2.9798 B( 55-C , 56-N ) :   2.9906 B( 57-C , 58-C ) :   1.3812
B( 57-C , 88-H ) :   0.9791 B( 58-C , 59-S ) :   1.0831 B( 58-C , 60-C ) :   1.1553
B( 60-C , 61-C ) :   1.6400 B( 60-C , 89-H ) :   0.9318 B( 61-C , 62-C ) :   0.9536
B( 61-C , 70-C ) :   1.0460 B( 62-C , 63-O ) :   2.2783 B( 62-C , 64-C ) :   0.8991
B( 64-C , 65-C ) :   1.3686 B( 64-C , 69-C ) :   1.3364 B( 65-C , 66-C ) :   1.3657
B( 65-C , 90-H ) :   1.0145 B( 66-C , 67-C ) :   1.4030 B( 66-C , 78-C ) :   1.0871
B( 67-C , 68-C ) :   1.3868 B( 67-C , 76-C ) :   1.0859 B( 68-C , 69-C ) :   1.3643
B( 68-C , 91-H ) :   0.9899 B( 69-C , 70-C ) :   0.9731 B( 70-C , 71-C ) :   1.6656
B( 71-C , 72-C ) :   1.1725 B( 71-C , 74-C ) :   1.1262 B( 72-C , 73-N ) :   2.9956
B( 74-C , 75-N ) :   2.9900 B( 76-C , 77-N ) :   3.0430 B( 78-C , 79-N ) :   3.0452

-----------------------------------------------------------------------------
         ABSORPTION SPECTRUM VIA TRANSITION ELECTRIC DIPOLE MOMENTS
-----------------------------------------------------------------------------
State   Energy  Wavelength   fosc         T2         TX        TY        TZ
        (cm-1)    (nm)                  (au**2)     (au)      (au)      (au)
-----------------------------------------------------------------------------
   0   14540.2    687.7   0.553129096  12.52366  -0.35017  -3.52003  -0.10231
   1   15116.7    661.5   0.099427339   2.16533  -0.84738  -0.89234   0.80685
   2   19621.5    509.6   0.649432406  10.89625  -0.19187   3.29458   0.07216
   3   21142.8    473.0   0.839282455  13.06836  -1.37371  -3.09943   1.25491
   4   22089.4    452.7   0.161857512   2.41227  -0.51108  -1.27300   0.72838
   5   24020.4    416.3   0.046801094   0.64143   0.08221  -0.46269  -0.64853
   6   24901.0    401.6   0.423762166   5.60249  -0.25824  -2.26026  -0.65347
   7   25052.0    399.2   0.166537145   2.18849  -0.74562   0.97178   0.82957
   8   27376.0    365.3   0.039386022   0.47364  -0.01958  -0.38917  -0.56728
   9   28172.1    355.0   0.026341034   0.30781   0.00110  -0.24961  -0.49549
  10   28573.6    350.0   0.012946479   0.14916  -0.01717  -0.10432  -0.37146
  11   29206.2    342.4   0.033979569   0.38302   0.18579   0.52754  -0.26496
  12   29421.3    339.9   0.048551675   0.54327   0.57359   0.04477  -0.46073
  13   30022.8    333.1   0.052917626   0.58026  -0.31870  -0.51024   0.46727
  14   30167.5    331.5   0.276486352   3.01724   0.02074  -1.13885  -1.31142
  15   30279.2    330.3   0.239347659   2.60232  -1.32389  -0.07242   0.91891
  16   30834.7    324.3   0.293223025   3.13065  -0.46466  -1.64102  -0.47095
  17   31351.1    319.0   0.229418716   2.40908   0.37722   1.30945   0.74305
  18   31390.6    318.6   0.005244141   0.05500  -0.00450  -0.17899  -0.15146
  19   31600.2    316.5   0.077966801   0.81226  -0.38813  -0.59978   0.54944
  20   31686.1    315.6   0.164952512   1.71382   0.30325   1.22852   0.33555
  21   32567.8    307.1   0.194223102   1.96331  -0.62835  -1.00972  -0.74090
  22   32686.8    305.9   0.430399671   4.33485   0.25237   1.88448   0.84847
  23   32799.8    304.9   0.037306612   0.37445   0.25758   0.11835  -0.54231
  24   32944.7    303.5   0.130531179   1.30438  -0.85606  -0.70770   0.26592
  25   33424.4    299.2   0.167818228   1.65292  -0.48074  -1.01190   0.63077
  26   33745.8    296.3   0.243919509   2.37959  -0.06758   1.00202   1.17089
  27   34111.2    293.2   0.359628464   3.47083   1.34716   0.11272  -1.28190
  28   34412.5    290.6   0.025107772   0.24020  -0.30455   0.36097   0.13094
  29   34598.0    289.0   0.244050429   2.32222   0.37719   0.87980   1.18571
  30   34896.9    286.6   0.231220117   2.18129   0.00533   1.42652   0.38252
  31   34974.7    285.9   0.018994026   0.17879   0.25462  -0.25302   0.22347
  32   35183.4    284.2   0.456677527   4.27314   0.52533  -1.20263  -1.59714
  33   35309.8    283.2   0.022686722   0.21152   0.07086  -0.35116  -0.28842
  34   35371.6    282.7   0.107814345   1.00345   0.10242  -0.40795  -0.90914
  35   35502.2    281.7   0.029264269   0.27137  -0.12696  -0.21639  -0.45654
  36   36185.5    276.4   0.216537712   1.97004   0.21592  -1.08488  -0.86397
  37   36313.9    275.4   0.015690359   0.14224   0.37165   0.04285   0.04781
  38   36768.9    272.0   0.262048605   2.34627   0.34227  -0.09349  -1.49009
  39   37060.3    269.8   0.098181544   0.87216   0.37791  -0.10737  -0.84724
  40   37321.8    267.9   0.190994380   1.68474   0.02067  -0.79417  -1.02646
  41   37640.6    265.7   0.120419504   1.05321  -0.37737   0.23321   0.92543
  42   38097.4    262.5   0.045489228   0.39309  -0.37621  -0.50066  -0.02988
  43   38333.4    260.9   0.010393952   0.08926   0.08580   0.08175  -0.27426
  44   38612.4    259.0   0.015008933   0.12797  -0.30911   0.11420   0.13919
  45   38790.3    257.8   0.034120254   0.28958  -0.16709  -0.49492   0.12927
  46   39046.0    256.1   0.036339645   0.30639  -0.10772   0.36717   0.39997
  47   39204.9    255.1   0.037416160   0.31419  -0.23459  -0.19294   0.47110
  48   39218.8    255.0   0.003821971   0.03208  -0.15483   0.07117  -0.05520
  49   39321.2    254.3   0.055406825   0.46389  -0.21484  -0.31105   0.56655
  50   39609.2    252.5   0.113248297   0.94126  -0.41004  -0.64291   0.59983
  51   39895.7    250.7   0.132969050   1.09724  -0.21959  -0.99914   0.22525
  52   40099.5    249.4   0.001953494   0.01604   0.01537   0.12474  -0.01553
  53   40168.2    249.0   0.011665394   0.09561   0.08029   0.29736   0.02719

FINAL SINGLE POINT ENERGY     -5199.447248732741

DIPOLE MOMENT
-------------
                                X             Y             Z
Electronic contribution:      0.73934       1.92262      -0.65326
Nuclear contribution   :      0.31392      -1.69157       0.82664
                        -----------------------------------------
Total Dipole Moment    :      1.05326       0.23105       0.17338
                        -----------------------------------------
Magnitude (a.u.)       :      1.09216
Magnitude (Debye)      :      2.77604

Rotational constants in cm-1:     0.002274     0.000156     0.000148
Rotational constants in MHz :    68.158158     4.666388     4.433726

                             ****ORCA TERMINATED NORMALLY****
TOTAL RUN TIME: 0 days 0 hours 9 minutes 10 seconds 266 msec
