                         Program Version 4.2.0 -  RELEASE  -
|  1> # ORCA input file
|  2> # SCF done       -206.358381531611          0.000854496584
|  3> ! CAM-B3LYP def2-SVP def2/J RIJCOSX Grid4 TightSCF
|  4> %maxcore 5000
|  5> %tddft
|  6>     Mode sTDDFT
|  7>     Ethresh 5.0
|  8>     maxcore 5000
|  9> end
| 10>
| 11> %pal
| 12>   nprocs 6
| 13>   end
| 14> * xyz 0 1
| 15>    C      -14.60368        -9.86194        10.99107
| 16>    C      -15.23431        -9.60168        12.19651
| 17>    C      -16.61513        -9.79316        12.28089
| 18>    C      -17.27871        -9.53396        13.50566
| 19>    N      -17.80856        -9.31893        14.49741
| 20>    C      -17.36124       -10.23955        11.17359
| 21>    C      -18.75978       -10.42354        11.28883
| 22>    N      -19.89203       -10.57974        11.36009
| 23>    C      -16.72138       -10.50017         9.96103
| 24>    C      -15.35853       -10.30713         9.89219
| 25>    C      -14.46951       -10.51335         8.72561
| 26>    O      -14.83828       -10.90780         7.63780
| 27>    C      -13.11907       -10.13825         9.18217
| 28>    C      -13.20032        -9.76617        10.58313
| 29>    C      -12.17575        -9.40915        11.42216
| 30>    C      -12.34875        -9.06256        12.78010
| 31>    N      -12.41419        -8.76651        13.88706
| 32>    C      -10.80348        -9.34075        11.09730
| 33>    N       -9.66799        -9.26499        10.94052
| 34>    C      -11.95266       -10.07831         8.45228
| 35>    C      -11.66380       -10.39412         7.12023
| 36>    C      -12.42774       -10.92995         6.07862
| 37>    C      -11.71140       -11.06072         4.91175
| 38>    C      -10.37511       -10.62846         5.03053
| 39>    S      -10.00279       -10.06738         6.59708
| 40>    C       -9.74048       -10.76889         3.78451
| 41>    C      -10.65717       -11.28888         2.85654
| 42>    C      -11.99453       -11.54076         3.50835
| 43>    C      -13.10385       -10.72049         2.84476
| 44>    C      -12.34538       -13.03208         3.49131
| 45>    C      -10.12795       -11.42278         1.58922
| 46>    C       -8.79773       -11.00439         1.53365
| 47>    S       -8.20314       -10.45272         3.09025
| 48>    C       -7.99694       -10.96307         0.38135
| 49>    C       -8.39488       -11.28400        -0.92652
| 50>    C       -7.35616       -11.06404        -1.89248
| 51>    N       -7.54121       -11.29978        -3.18916
| 52>    C       -8.72607       -11.74314        -3.55298
| 53>    C       -8.93847       -12.01542        -4.99566
| 54>    O       -8.06551       -11.86931        -5.82499
| 55>    C      -10.29129       -12.48275        -5.34610
| 56>    C      -11.26555       -12.67965        -4.45116
| 57>    C      -11.10414       -12.45025        -3.00633
| 58>    O      -11.99817       -12.64686        -2.20900
| 59>    C       -9.76593       -11.95773        -2.59453
| 60>    N       -9.59221       -11.73107        -1.30950
| 61>    C       -6.16267       -10.58650        -1.33413
| 62>    S       -6.34052       -10.42421         0.38479
| 63>    C       -5.01195       -10.25018        -2.06006
| 64>    C       -3.77691        -9.82122        -1.57149
| 65>    C       -2.89210        -9.53992        -2.59166
| 66>    C       -3.45571        -9.74179        -3.86299
| 67>    S       -5.07271       -10.31288        -3.80977
| 68>    C       -2.50789        -9.37682        -4.83575
| 69>    C       -1.32270        -8.97018        -4.20449
| 70>    C       -1.47138        -9.03863        -2.70316
| 71>    C       -0.48067       -10.02510        -2.07853
| 72>    C       -1.32299        -7.64711        -2.08052
| 73>    C       -0.34515        -8.58849        -5.10063
| 74>    C       -0.78591        -8.63416        -6.42266
| 75>    S       -2.43095        -9.24959        -6.53759
| 76>    C       -0.03176        -8.29421        -7.56153
| 77>    C       -0.48225        -7.94381        -8.80347
| 78>    C        0.40143        -8.09011        -9.98467
| 79>    O        1.58976        -8.31067        -9.98980
| 80>    C       -0.50120        -7.96426       -11.15597
| 81>    C       -0.20938        -8.13909       -12.49165
| 82>    C       -1.24548        -7.99308       -13.41660
| 83>    C       -2.54713        -7.68085       -12.97982
| 84>    C       -2.83011        -7.49590       -11.62486
| 85>    C       -1.79810        -7.63510       -10.71416
| 86>    C       -1.76855        -7.47069        -9.26028
| 87>    C       -2.66494        -6.72527        -8.53886
| 88>    C       -2.44596        -6.33019        -7.20247
| 89>    N       -2.27614        -5.94891        -6.13309
| 90>    C       -3.84846        -6.18086        -9.07753
| 91>    N       -4.82735        -5.72776        -9.46898
| 92>    C       -3.58869        -7.55285       -13.93193
| 93>    N       -4.43658        -7.44873       -14.69394
| 94>    C       -0.98753        -8.16576       -14.79778
| 95>    N       -0.75758        -8.30727       -15.91065
| 96>    H      -14.70148        -9.25661        13.06770
| 97>    H      -17.27587       -10.84286         9.10058
| 98>    H      -11.08884        -9.70640         8.99015
| 99>    H      -13.46152       -11.19111         6.20931
|100>    H      -12.85262        -9.66226         2.85404
|101>    H      -14.03878       -10.86176         3.38031
|102>    H      -13.23396       -11.04016         1.81432
|103>    H      -11.55486       -13.61495         3.95891
|104>    H      -12.47038       -13.37021         2.46617
|105>    H      -13.27131       -13.19992         4.03480
|106>    H      -10.63914       -11.78645         0.71643
|107>    H      -10.45157       -12.66578        -6.40005
|108>    H      -12.24422       -13.02758        -4.75310
|109>    H       -3.57886        -9.73050        -0.51841
|110>    H       -0.59171       -11.00988        -2.52656
|111>    H       -0.65973       -10.10571        -1.00955
|112>    H        0.53796        -9.68161        -2.23832
|113>    H       -2.01040        -6.94856        -2.55108
|114>    H       -0.30879        -7.28313        -2.22113
|115>    H       -1.53719        -7.69008        -1.01580
|116>    H        0.63756        -8.23841        -4.84130
|117>    H        1.04618        -8.38577        -7.46627
|118>    H        0.79174        -8.38199       -12.81393
|119>    H       -3.83850        -7.26296       -11.32068
|120> *
|121>
|122>                          ****END OF INPUT****

CARTESIAN COORDINATES (ANGSTROEM)
---------------------------------
  C    -14.603680   -9.861940   10.991070
  C    -15.234310   -9.601680   12.196510
  C    -16.615130   -9.793160   12.280890
  C    -17.278710   -9.533960   13.505660
  N    -17.808560   -9.318930   14.497410
  C    -17.361240  -10.239550   11.173590
  C    -18.759780  -10.423540   11.288830
  N    -19.892030  -10.579740   11.360090
  C    -16.721380  -10.500170    9.961030
  C    -15.358530  -10.307130    9.892190
  C    -14.469510  -10.513350    8.725610
  O    -14.838280  -10.907800    7.637800
  C    -13.119070  -10.138250    9.182170
  C    -13.200320   -9.766170   10.583130
  C    -12.175750   -9.409150   11.422160
  C    -12.348750   -9.062560   12.780100
  N    -12.414190   -8.766510   13.887060
  C    -10.803480   -9.340750   11.097300
  N     -9.667990   -9.264990   10.940520
  C    -11.952660  -10.078310    8.452280
  C    -11.663800  -10.394120    7.120230
  C    -12.427740  -10.929950    6.078620
  C    -11.711400  -11.060720    4.911750
  C    -10.375110  -10.628460    5.030530
  S    -10.002790  -10.067380    6.597080
  C     -9.740480  -10.768890    3.784510
  C    -10.657170  -11.288880    2.856540
  C    -11.994530  -11.540760    3.508350
  C    -13.103850  -10.720490    2.844760
  C    -12.345380  -13.032080    3.491310
  C    -10.127950  -11.422780    1.589220
  C     -8.797730  -11.004390    1.533650
  S     -8.203140  -10.452720    3.090250
  C     -7.996940  -10.963070    0.381350
  C     -8.394880  -11.284000   -0.926520
  C     -7.356160  -11.064040   -1.892480
  N     -7.541210  -11.299780   -3.189160
  C     -8.726070  -11.743140   -3.552980
  C     -8.938470  -12.015420   -4.995660
  O     -8.065510  -11.869310   -5.824990
  C    -10.291290  -12.482750   -5.346100
  C    -11.265550  -12.679650   -4.451160
  C    -11.104140  -12.450250   -3.006330
  O    -11.998170  -12.646860   -2.209000
  C     -9.765930  -11.957730   -2.594530
  N     -9.592210  -11.731070   -1.309500
  C     -6.162670  -10.586500   -1.334130
  S     -6.340520  -10.424210    0.384790
  C     -5.011950  -10.250180   -2.060060
  C     -3.776910   -9.821220   -1.571490
  C     -2.892100   -9.539920   -2.591660
  C     -3.455710   -9.741790   -3.862990
  S     -5.072710  -10.312880   -3.809770
  C     -2.507890   -9.376820   -4.835750
  C     -1.322700   -8.970180   -4.204490
  C     -1.471380   -9.038630   -2.703160
  C     -0.480670  -10.025100   -2.078530
  C     -1.322990   -7.647110   -2.080520
  C     -0.345150   -8.588490   -5.100630
  C     -0.785910   -8.634160   -6.422660
  S     -2.430950   -9.249590   -6.537590
  C     -0.031760   -8.294210   -7.561530
  C     -0.482250   -7.943810   -8.803470
  C      0.401430   -8.090110   -9.984670
  O      1.589760   -8.310670   -9.989800
  C     -0.501200   -7.964260  -11.155970
  C     -0.209380   -8.139090  -12.491650
  C     -1.245480   -7.993080  -13.416600
  C     -2.547130   -7.680850  -12.979820
  C     -2.830110   -7.495900  -11.624860
  C     -1.798100   -7.635100  -10.714160
  C     -1.768550   -7.470690   -9.260280
  C     -2.664940   -6.725270   -8.538860
  C     -2.445960   -6.330190   -7.202470
  N     -2.276140   -5.948910   -6.133090
  C     -3.848460   -6.180860   -9.077530
  N     -4.827350   -5.727760   -9.468980
  C     -3.588690   -7.552850  -13.931930
  N     -4.436580   -7.448730  -14.693940
  C     -0.987530   -8.165760  -14.797780
  N     -0.757580   -8.307270  -15.910650
  H    -14.701480   -9.256610   13.067700
  H    -17.275870  -10.842860    9.100580
  H    -11.088840   -9.706400    8.990150
  H    -13.461520  -11.191110    6.209310
  H    -12.852620   -9.662260    2.854040
  H    -14.038780  -10.861760    3.380310
  H    -13.233960  -11.040160    1.814320
  H    -11.554860  -13.614950    3.958910
  H    -12.470380  -13.370210    2.466170
  H    -13.271310  -13.199920    4.034800
  H    -10.639140  -11.786450    0.716430
  H    -10.451570  -12.665780   -6.400050
  H    -12.244220  -13.027580   -4.753100
  H     -3.578860   -9.730500   -0.518410
  H     -0.591710  -11.009880   -2.526560
  H     -0.659730  -10.105710   -1.009550
  H      0.537960   -9.681610   -2.238320
  H     -2.010400   -6.948560   -2.551080
  H     -0.308790   -7.283130   -2.221130
  H     -1.537190   -7.690080   -1.015800
  H      0.637560   -8.238410   -4.841300
  H      1.046180   -8.385770   -7.466270
  H      0.791740   -8.381990  -12.813930
  H     -3.838500   -7.262960  -11.320680

 Total Charge           Charge          ....    0
 Multiplicity           Mult            ....    1
 Number of Electrons    NEL             ....  578
 Basis Dimension        Dim             .... 1274

ORBITAL ENERGIES
----------------

  NO   OCC          E(Eh)            E(eV)
   0   2.0000     -89.014954     -2422.2200
   1   2.0000     -88.993991     -2421.6496
   2   2.0000     -88.990172     -2421.5457
   3   2.0000     -88.989674     -2421.5321
   4   2.0000     -88.985742     -2421.4251
   5   2.0000     -19.242854      -523.6247
   6   2.0000     -19.241144      -523.5781
   7   2.0000     -19.235067      -523.4128
   8   2.0000     -19.231779      -523.3233
   9   2.0000     -14.467778      -393.6883
  10   2.0000     -14.465756      -393.6332
  11   2.0000     -14.429314      -392.6416
  12   2.0000     -14.428567      -392.6213
  13   2.0000     -14.427990      -392.6056
  14   2.0000     -14.426709      -392.5707
  15   2.0000     -14.426213      -392.5572
  16   2.0000     -14.425807      -392.5462
  17   2.0000     -14.424885      -392.5211
  18   2.0000     -14.423856      -392.4931
  19   2.0000     -10.391567      -282.7689
  20   2.0000     -10.390707      -282.7455
  21   2.0000     -10.386246      -282.6241
  22   2.0000     -10.383859      -282.5592
  23   2.0000     -10.359436      -281.8946
  24   2.0000     -10.358164      -281.8600
  25   2.0000     -10.358104      -281.8583
  26   2.0000     -10.357795      -281.8499
  27   2.0000     -10.357728      -281.8481
  28   2.0000     -10.356997      -281.8282
  29   2.0000     -10.356348      -281.8105
  30   2.0000     -10.355641      -281.7913
  31   2.0000     -10.355556      -281.7890
  32   2.0000     -10.355270      -281.7812
  33   2.0000     -10.351532      -281.6795
  34   2.0000     -10.351314      -281.6736
  35   2.0000     -10.351100      -281.6678
  36   2.0000     -10.349245      -281.6173
  37   2.0000     -10.343706      -281.4665
  38   2.0000     -10.343039      -281.4484
  39   2.0000     -10.340386      -281.3762
  40   2.0000     -10.337890      -281.3083
  41   2.0000     -10.337613      -281.3008
  42   2.0000     -10.335869      -281.2533
  43   2.0000     -10.335781      -281.2509
  44   2.0000     -10.334760      -281.2231
  45   2.0000     -10.332486      -281.1612
  46   2.0000     -10.331940      -281.1464
  47   2.0000     -10.331787      -281.1422
  48   2.0000     -10.331687      -281.1395
  49   2.0000     -10.330649      -281.1112
  50   2.0000     -10.330527      -281.1079
  51   2.0000     -10.330389      -281.1042
  52   2.0000     -10.329806      -281.0883
  53   2.0000     -10.329644      -281.0839
  54   2.0000     -10.329035      -281.0673
  55   2.0000     -10.327464      -281.0246
  56   2.0000     -10.324646      -280.9479
  57   2.0000     -10.323465      -280.9158
  58   2.0000     -10.323121      -280.9064
  59   2.0000     -10.322782      -280.8972
  60   2.0000     -10.322706      -280.8951
  61   2.0000     -10.322575      -280.8915
  62   2.0000     -10.322397      -280.8867
  63   2.0000     -10.320362      -280.8313
  64   2.0000     -10.319756      -280.8148
  65   2.0000     -10.317380      -280.7502
  66   2.0000     -10.315523      -280.6996
  67   2.0000     -10.314365      -280.6681
  68   2.0000     -10.309403      -280.5331
  69   2.0000     -10.308922      -280.5200
  70   2.0000     -10.308621      -280.5118
  71   2.0000     -10.306142      -280.4444
  72   2.0000     -10.304061      -280.3878
  73   2.0000     -10.303890      -280.3831
  74   2.0000     -10.301210      -280.3102
  75   2.0000     -10.300875      -280.3011
  76   2.0000     -10.299948      -280.2758
  77   2.0000     -10.285474      -279.8820
  78   2.0000     -10.281697      -279.7792
  79   2.0000     -10.280821      -279.7554
  80   2.0000     -10.279896      -279.7302
  81   2.0000      -8.109389      -220.6677
  82   2.0000      -8.088959      -220.1118
  83   2.0000      -8.085210      -220.0097
  84   2.0000      -8.084325      -219.9857
  85   2.0000      -8.079479      -219.8538
  86   2.0000      -6.078479      -165.4038
  87   2.0000      -6.074377      -165.2922
  88   2.0000      -6.072022      -165.2281
  89   2.0000      -6.058374      -164.8567
  90   2.0000      -6.054394      -164.7484
  91   2.0000      -6.054308      -164.7461
  92   2.0000      -6.053662      -164.7285
  93   2.0000      -6.050859      -164.6522
  94   2.0000      -6.050420      -164.6403
  95   2.0000      -6.049587      -164.6176
  96   2.0000      -6.048990      -164.6014
  97   2.0000      -6.047391      -164.5579
  98   2.0000      -6.046350      -164.5296
  99   2.0000      -6.044580      -164.4814
 100   2.0000      -6.041409      -164.3951
 101   2.0000      -1.159120       -31.5413
 102   2.0000      -1.154233       -31.4083
 103   2.0000      -1.149868       -31.2895
 104   2.0000      -1.147317       -31.2201
 105   2.0000      -1.118163       -30.4268
 106   2.0000      -1.047270       -28.4977
 107   2.0000      -1.043057       -28.3830
 108   2.0000      -1.041498       -28.3406
 109   2.0000      -1.038640       -28.2628
 110   2.0000      -1.038124       -28.2488
 111   2.0000      -1.026454       -27.9312
 112   2.0000      -1.024998       -27.8916
 113   2.0000      -1.023960       -27.8634
 114   2.0000      -1.009101       -27.4590
 115   2.0000      -1.008356       -27.4388
 116   2.0000      -1.007370       -27.4119
 117   2.0000      -1.005853       -27.3706
 118   2.0000      -1.005116       -27.3506
 119   2.0000      -1.004130       -27.3238
 120   2.0000      -1.002480       -27.2789
 121   2.0000      -0.995437       -27.0872
 122   2.0000      -0.976916       -26.5832
 123   2.0000      -0.975020       -26.5317
 124   2.0000      -0.955523       -26.0011
 125   2.0000      -0.954287       -25.9675
 126   2.0000      -0.947693       -25.7880
 127   2.0000      -0.923448       -25.1283
 128   2.0000      -0.921538       -25.0763
 129   2.0000      -0.913685       -24.8626
 130   2.0000      -0.912810       -24.8388
 131   2.0000      -0.905436       -24.6382
 132   2.0000      -0.901784       -24.5388
 133   2.0000      -0.899473       -24.4759
 134   2.0000      -0.891301       -24.2535
 135   2.0000      -0.884588       -24.0709
 136   2.0000      -0.869793       -23.6683
 137   2.0000      -0.858849       -23.3705
 138   2.0000      -0.857271       -23.3275
 139   2.0000      -0.849330       -23.1115
 140   2.0000      -0.848203       -23.0808
 141   2.0000      -0.844224       -22.9725
 142   2.0000      -0.836334       -22.7578
 143   2.0000      -0.813826       -22.1453
 144   2.0000      -0.808079       -21.9889
 145   2.0000      -0.806591       -21.9485
 146   2.0000      -0.805866       -21.9287
 147   2.0000      -0.803865       -21.8743
 148   2.0000      -0.795713       -21.6525
 149   2.0000      -0.792420       -21.5628
 150   2.0000      -0.779714       -21.2171
 151   2.0000      -0.763199       -20.7677
 152   2.0000      -0.759693       -20.6723
 153   2.0000      -0.750543       -20.4233
 154   2.0000      -0.745715       -20.2919
 155   2.0000      -0.728775       -19.8310
 156   2.0000      -0.726628       -19.7725
 157   2.0000      -0.723068       -19.6757
 158   2.0000      -0.714201       -19.4344
 159   2.0000      -0.708793       -19.2872
 160   2.0000      -0.704591       -19.1729
 161   2.0000      -0.697493       -18.9798
 162   2.0000      -0.690051       -18.7772
 163   2.0000      -0.685017       -18.6403
 164   2.0000      -0.681961       -18.5571
 165   2.0000      -0.675456       -18.3801
 166   2.0000      -0.664098       -18.0710
 167   2.0000      -0.660544       -17.9743
 168   2.0000      -0.656255       -17.8576
 169   2.0000      -0.655344       -17.8328
 170   2.0000      -0.652663       -17.7599
 171   2.0000      -0.651010       -17.7149
 172   2.0000      -0.649795       -17.6818
 173   2.0000      -0.645683       -17.5699
 174   2.0000      -0.635264       -17.2864
 175   2.0000      -0.628877       -17.1126
 176   2.0000      -0.618122       -16.8199
 177   2.0000      -0.613756       -16.7012
 178   2.0000      -0.611073       -16.6281
 179   2.0000      -0.608269       -16.5518
 180   2.0000      -0.597882       -16.2692
 181   2.0000      -0.596958       -16.2441
 182   2.0000      -0.593486       -16.1496
 183   2.0000      -0.585214       -15.9245
 184   2.0000      -0.581399       -15.8207
 185   2.0000      -0.577905       -15.7256
 186   2.0000      -0.576132       -15.6773
 187   2.0000      -0.573940       -15.6177
 188   2.0000      -0.572374       -15.5751
 189   2.0000      -0.567006       -15.4290
 190   2.0000      -0.564418       -15.3586
 191   2.0000      -0.562575       -15.3084
 192   2.0000      -0.559505       -15.2249
 193   2.0000      -0.559074       -15.2132
 194   2.0000      -0.556680       -15.1480
 195   2.0000      -0.552236       -15.0271
 196   2.0000      -0.551179       -14.9983
 197   2.0000      -0.548293       -14.9198
 198   2.0000      -0.543889       -14.8000
 199   2.0000      -0.542288       -14.7564
 200   2.0000      -0.539516       -14.6810
 201   2.0000      -0.536603       -14.6017
 202   2.0000      -0.534847       -14.5539
 203   2.0000      -0.532623       -14.4934
 204   2.0000      -0.530226       -14.4282
 205   2.0000      -0.526554       -14.3283
 206   2.0000      -0.523217       -14.2375
 207   2.0000      -0.522055       -14.2058
 208   2.0000      -0.521192       -14.1824
 209   2.0000      -0.520137       -14.1536
 210   2.0000      -0.519346       -14.1321
 211   2.0000      -0.516615       -14.0578
 212   2.0000      -0.514856       -14.0099
 213   2.0000      -0.512389       -13.9428
 214   2.0000      -0.512018       -13.9327
 215   2.0000      -0.508473       -13.8362
 216   2.0000      -0.505890       -13.7660
 217   2.0000      -0.502353       -13.6697
 218   2.0000      -0.500056       -13.6072
 219   2.0000      -0.499231       -13.5848
 220   2.0000      -0.496482       -13.5100
 221   2.0000      -0.494647       -13.4600
 222   2.0000      -0.492734       -13.4080
 223   2.0000      -0.489492       -13.3198
 224   2.0000      -0.486245       -13.2314
 225   2.0000      -0.486035       -13.2257
 226   2.0000      -0.483676       -13.1615
 227   2.0000      -0.481530       -13.1031
 228   2.0000      -0.477993       -13.0069
 229   2.0000      -0.474149       -12.9022
 230   2.0000      -0.464805       -12.6480
 231   2.0000      -0.461917       -12.5694
 232   2.0000      -0.461345       -12.5538
 233   2.0000      -0.460350       -12.5268
 234   2.0000      -0.459061       -12.4917
 235   2.0000      -0.458531       -12.4773
 236   2.0000      -0.458123       -12.4662
 237   2.0000      -0.457387       -12.4461
 238   2.0000      -0.457076       -12.4377
 239   2.0000      -0.453539       -12.3414
 240   2.0000      -0.452965       -12.3258
 241   2.0000      -0.452363       -12.3094
 242   2.0000      -0.452015       -12.3000
 243   2.0000      -0.450930       -12.2704
 244   2.0000      -0.450636       -12.2624
 245   2.0000      -0.449513       -12.2319
 246   2.0000      -0.449493       -12.2313
 247   2.0000      -0.448567       -12.2061
 248   2.0000      -0.443686       -12.0733
 249   2.0000      -0.442402       -12.0384
 250   2.0000      -0.442200       -12.0329
 251   2.0000      -0.438568       -11.9340
 252   2.0000      -0.438341       -11.9279
 253   2.0000      -0.437570       -11.9069
 254   2.0000      -0.437339       -11.9006
 255   2.0000      -0.432493       -11.7687
 256   2.0000      -0.430476       -11.7138
 257   2.0000      -0.427984       -11.6460
 258   2.0000      -0.427608       -11.6358
 259   2.0000      -0.427423       -11.6308
 260   2.0000      -0.426601       -11.6084
 261   2.0000      -0.425923       -11.5900
 262   2.0000      -0.425585       -11.5808
 263   2.0000      -0.424694       -11.5565
 264   2.0000      -0.417672       -11.3654
 265   2.0000      -0.417022       -11.3478
 266   2.0000      -0.409409       -11.1406
 267   2.0000      -0.402393       -10.9497
 268   2.0000      -0.392043       -10.6680
 269   2.0000      -0.387116       -10.5340
 270   2.0000      -0.379060       -10.3148
 271   2.0000      -0.373435       -10.1617
 272   2.0000      -0.367002        -9.9866
 273   2.0000      -0.366793        -9.9809
 274   2.0000      -0.364396        -9.9157
 275   2.0000      -0.362284        -9.8583
 276   2.0000      -0.357082        -9.7167
 277   2.0000      -0.356350        -9.6968
 278   2.0000      -0.353732        -9.6255
 279   2.0000      -0.351513        -9.5651
 280   2.0000      -0.350635        -9.5413
 281   2.0000      -0.349936        -9.5222
 282   2.0000      -0.346410        -9.4263
 283   2.0000      -0.344043        -9.3619
 284   2.0000      -0.336685        -9.1617
 285   2.0000      -0.329254        -8.9595
 286   2.0000      -0.308551        -8.3961
 287   2.0000      -0.278740        -7.5849
 288   2.0000      -0.243536        -6.6270
 289   0.0000      -0.131707        -3.5839
 290   0.0000      -0.112092        -3.0502
 291   0.0000      -0.101733        -2.7683
 292   0.0000      -0.100798        -2.7429
 293   0.0000      -0.089740        -2.4420

MULLIKEN ATOMIC CHARGES
-----------------------
   0 C :    0.043587
   1 C :   -0.040812
   2 C :   -0.061084
   3 C :   -0.176346
   4 N :    0.200747
   5 C :   -0.066223
   6 C :   -0.173640
   7 N :    0.192926
   8 C :   -0.039780
   9 C :    0.002805
  10 C :    0.157437
  11 O :   -0.153326
  12 C :   -0.106771
  13 C :    0.321536
  14 C :   -0.358313
  15 C :   -0.187385
  16 N :    0.163106
  17 C :   -0.183532
  18 N :    0.153704
  19 C :    0.047684
  20 C :   -0.115390
  21 C :   -0.008157
  22 C :   -0.000379
  23 C :   -0.056969
  24 S :    0.176681
  25 C :   -0.086600
  26 C :    0.043907
  27 C :   -0.111031
  28 C :    0.098264
  29 C :    0.103964
  30 C :   -0.066697
  31 C :   -0.091946
  32 S :    0.160031
  33 C :   -0.117979
  34 C :    0.037956
  35 C :    0.009952
  36 N :    0.043123
  37 C :   -0.113704
  38 C :    0.139267
  39 O :   -0.101640
  40 C :   -0.018686
  41 C :   -0.012877
  42 C :    0.145943
  43 O :   -0.110398
  44 C :   -0.117922
  45 N :    0.063167
  46 C :   -0.110078
  47 S :    0.214012
  48 C :   -0.075054
  49 C :   -0.088374
  50 C :    0.040743
  51 C :   -0.070658
  52 S :    0.219657
  53 C :   -0.066883
  54 C :    0.026512
  55 C :   -0.113568
  56 C :    0.105518
  57 C :    0.103601
  58 C :    0.011781
  59 C :   -0.112474
  60 S :    0.182819
  61 C :    0.053809
  62 C :   -0.154767
  63 C :    0.147367
  64 O :   -0.132223
  65 C :    0.006197
  66 C :   -0.033478
  67 C :   -0.069243
  68 C :   -0.061969
  69 C :   -0.034459
  70 C :    0.031818
  71 C :    0.251298
  72 C :   -0.316041
  73 C :   -0.199193
  74 N :    0.174268
  75 C :   -0.180059
  76 N :    0.167846
  77 C :   -0.175005
  78 N :    0.199411
  79 C :   -0.174901
  80 N :    0.193794
  81 H :    0.019852
  82 H :    0.011847
  83 H :    0.002113
  84 H :    0.011266
  85 H :    0.021613
  86 H :    0.023479
  87 H :    0.027156
  88 H :    0.020348
  89 H :    0.025427
  90 H :    0.022180
  91 H :    0.008763
  92 H :    0.023240
  93 H :    0.020422
  94 H :   -0.014495
  95 H :    0.023251
  96 H :    0.014657
  97 H :    0.016279
  98 H :    0.038741
  99 H :    0.016171
 100 H :    0.012096
 101 H :   -0.006441
 102 H :    0.032456
 103 H :    0.016715
 104 H :    0.022638
Sum of atomic charges:   -0.0000000

LOEWDIN ATOMIC CHARGES
----------------------
   0 C :    0.002901
   1 C :    0.032958
   2 C :   -0.026030
   3 C :   -0.031447
   4 N :   -0.014023
   5 C :   -0.030508
   6 C :   -0.031446
   7 N :   -0.017429
   8 C :    0.045019
   9 C :   -0.027636
  10 C :    0.085465
  11 O :   -0.142969
  12 C :   -0.118281
  13 C :    0.070684
  14 C :   -0.135830
  15 C :   -0.021974
  16 N :   -0.043469
  17 C :   -0.023776
  18 N :   -0.044870
  19 C :    0.048040
  20 C :   -0.176415
  21 C :    0.001131
  22 C :   -0.038359
  23 C :   -0.159871
  24 S :    0.464787
  25 C :   -0.199802
  26 C :   -0.011657
  27 C :   -0.035836
  28 C :   -0.022065
  29 C :   -0.021038
  30 C :   -0.033391
  31 C :   -0.170294
  32 S :    0.435686
  33 C :   -0.191653
  34 C :   -0.040150
  35 C :   -0.052677
  36 N :   -0.006073
  37 C :   -0.038763
  38 C :    0.055431
  39 O :   -0.098911
  40 C :   -0.008682
  41 C :   -0.011958
  42 C :    0.057320
  43 O :   -0.105370
  44 C :   -0.038966
  45 N :    0.008873
  46 C :   -0.187076
  47 S :    0.501867
  48 C :   -0.172402
  49 C :   -0.052217
  50 C :   -0.018462
  51 C :   -0.198431
  52 S :    0.505636
  53 C :   -0.157010
  54 C :   -0.035058
  55 C :   -0.035951
  56 C :   -0.023397
  57 C :   -0.021656
  58 C :    0.000472
  59 C :   -0.182777
  60 S :    0.477541
  61 C :    0.058063
  62 C :   -0.117414
  63 C :    0.080910
  64 O :   -0.135201
  65 C :   -0.030065
  66 C :    0.047409
  67 C :   -0.030991
  68 C :   -0.024510
  69 C :    0.030891
  70 C :    0.005803
  71 C :    0.054021
  72 C :   -0.134514
  73 C :   -0.030204
  74 N :   -0.045720
  75 C :   -0.024550
  76 N :   -0.040418
  77 C :   -0.031088
  78 N :   -0.013568
  79 C :   -0.031912
  80 N :   -0.016500
  81 H :    0.051958
  82 H :    0.052108
  83 H :    0.042829
  84 H :    0.036120
  85 H :    0.030097
  86 H :    0.029456
  87 H :    0.030430
  88 H :    0.029766
  89 H :    0.029798
  90 H :    0.028945
  91 H :    0.037773
  92 H :    0.048002
  93 H :    0.047257
  94 H :    0.029129
  95 H :    0.030661
  96 H :    0.025634
  97 H :    0.026214
  98 H :    0.036654
  99 H :    0.026621
 100 H :    0.024185
 101 H :    0.038760
 102 H :    0.053247
 103 H :    0.053943
 104 H :    0.052210

  Mayer bond orders larger than 0.100000
B(  0-C ,  1-C ) :   1.3617 B(  0-C ,  9-C ) :   1.3384 B(  0-C , 13-C ) :   0.9468
B(  1-C ,  2-C ) :   1.3905 B(  1-C , 81-H ) :   0.9837 B(  2-C ,  3-C ) :   1.0867
B(  2-C ,  5-C ) :   1.4075 B(  3-C ,  4-N ) :   3.0440 B(  5-C ,  6-C ) :   1.0840
B(  5-C ,  8-C ) :   1.3563 B(  6-C ,  7-N ) :   3.0444 B(  8-C ,  9-C ) :   1.3670
B(  8-C , 82-H ) :   1.0147 B(  9-C , 10-C ) :   0.9345 B( 10-C , 11-O ) :   2.1604
B( 10-C , 12-C ) :   0.9629 B( 12-C , 13-C ) :   1.1151 B( 12-C , 19-C ) :   1.5046
B( 13-C , 14-C ) :   1.6159 B( 14-C , 15-C ) :   1.1529 B( 14-C , 17-C ) :   1.1417
B( 15-C , 16-N ) :   2.9562 B( 17-C , 18-N ) :   2.9574 B( 19-C , 20-C ) :   1.2998
B( 19-C , 83-H ) :   0.9032 B( 20-C , 21-C ) :   1.3389 B( 20-C , 24-S ) :   1.0629
B( 21-C , 22-C ) :   1.3778 B( 21-C , 84-H ) :   0.9813 B( 22-C , 23-C ) :   1.4217
B( 22-C , 27-C ) :   0.9306 B( 23-C , 24-S ) :   1.1354 B( 23-C , 25-C ) :   1.2143
B( 25-C , 26-C ) :   1.4762 B( 25-C , 32-S ) :   1.0751 B( 26-C , 27-C ) :   0.9389
B( 26-C , 30-C ) :   1.3066 B( 27-C , 28-C ) :   1.0401 B( 27-C , 29-C ) :   1.0322
B( 28-C , 85-H ) :   0.9640 B( 28-C , 86-H ) :   0.9642 B( 28-C , 87-H ) :   0.9646
B( 29-C , 88-H ) :   0.9632 B( 29-C , 89-H ) :   0.9654 B( 29-C , 90-H ) :   0.9653
B( 30-C , 31-C ) :   1.4329 B( 30-C , 91-H ) :   0.9951 B( 31-C , 32-S ) :   1.0950
B( 31-C , 33-C ) :   1.2131 B( 33-C , 34-C ) :   1.3555 B( 33-C , 46-C ) :   0.1284
B( 33-C , 47-S ) :   1.1454 B( 34-C , 35-C ) :   1.1896 B( 34-C , 45-N ) :   1.4398
B( 35-C , 36-N ) :   1.4298 B( 35-C , 46-C ) :   1.3043 B( 36-N , 37-C ) :   1.6952
B( 37-C , 38-C ) :   0.8950 B( 37-C , 44-C ) :   1.0994 B( 38-C , 39-O ) :   2.2502
B( 38-C , 40-C ) :   1.0225 B( 40-C , 41-C ) :   1.6788 B( 40-C , 92-H ) :   0.9986
B( 41-C , 42-C ) :   1.0294 B( 41-C , 93-H ) :   0.9994 B( 42-C , 43-O ) :   2.2242
B( 42-C , 44-C ) :   0.8955 B( 44-C , 45-N ) :   1.7116 B( 46-C , 47-S ) :   1.1539
B( 46-C , 48-C ) :   1.2536 B( 48-C , 49-C ) :   1.3649 B( 48-C , 52-S ) :   1.1313
B( 49-C , 50-C ) :   1.3610 B( 49-C , 94-H ) :   1.0055 B( 50-C , 51-C ) :   1.4641
B( 50-C , 55-C ) :   0.9378 B( 51-C , 52-S ) :   1.0569 B( 51-C , 53-C ) :   1.2193
B( 53-C , 54-C ) :   1.4554 B( 53-C , 60-S ) :   1.1191 B( 54-C , 55-C ) :   0.9333
B( 54-C , 58-C ) :   1.3661 B( 55-C , 56-C ) :   1.0331 B( 55-C , 57-C ) :   1.0359
B( 56-C , 95-H ) :   0.9641 B( 56-C , 96-H ) :   0.9651 B( 56-C , 97-H ) :   0.9650
B( 57-C , 98-H ) :   0.9632 B( 57-C , 99-H ) :   0.9642 B( 57-C ,100-H ) :   0.9641
B( 58-C , 59-C ) :   1.3492 B( 58-C ,101-H ) :   1.0071 B( 59-C , 60-S ) :   1.0864
B( 59-C , 61-C ) :   1.1872 B( 61-C , 62-C ) :   1.5647 B( 61-C ,102-H ) :   0.9516
B( 62-C , 63-C ) :   0.9609 B( 62-C , 71-C ) :   1.0660 B( 63-C , 64-O ) :   2.2794
B( 63-C , 65-C ) :   0.8978 B( 65-C , 66-C ) :   1.3731 B( 65-C , 70-C ) :   1.3362
B( 66-C , 67-C ) :   1.3631 B( 66-C ,103-H ) :   1.0141 B( 67-C , 68-C ) :   1.4042
B( 67-C , 79-C ) :   1.0882 B( 68-C , 69-C ) :   1.3849 B( 68-C , 77-C ) :   1.0863
B( 69-C , 70-C ) :   1.3661 B( 69-C ,104-H ) :   0.9904 B( 70-C , 71-C ) :   0.9752
B( 71-C , 72-C ) :   1.6527 B( 72-C , 73-C ) :   1.1579 B( 72-C , 75-C ) :   1.1384
B( 73-C , 74-N ) :   3.0156 B( 75-C , 76-N ) :   2.9853 B( 77-C , 78-N ) :   3.0450
B( 79-C , 80-N ) :   3.0448

-----------------------------------------------------------------------------
         ABSORPTION SPECTRUM VIA TRANSITION ELECTRIC DIPOLE MOMENTS
-----------------------------------------------------------------------------
State   Energy  Wavelength   fosc         T2         TX        TY        TZ
        (cm-1)    (nm)                  (au**2)     (au)      (au)      (au)
-----------------------------------------------------------------------------
   0    9900.0   1010.1   1.499053943  49.84919   3.95451   0.86573  -5.78460
   1   14866.0    672.7   0.160715329   3.55910   0.41348   1.36281   1.23729
   2   16779.4    596.0   0.405141178   7.94889  -0.17780  -0.52302   2.76473
   3   18231.0    548.5   0.511875499   9.24335   1.48079  -0.71509  -2.55720
   4   19025.0    525.6   0.024423347   0.42263   0.38669   0.51363   0.09633
   5   20781.7    481.2   0.360451702   5.71006   1.73600   0.26622  -1.62034
   6   21296.0    469.6   0.021546055   0.33308  -0.27533   0.30231  -0.40728
   7   23669.7    422.5   0.130212197   1.81107   0.22658  -0.13465   1.31970
   8   24600.2    406.5   0.002645406   0.03540  -0.08575   0.15228  -0.06971
   9   25750.5    388.3   0.022261711   0.28461   0.48927  -0.18987   0.09575
  10   25988.9    384.8   0.000436758   0.00553   0.04484  -0.05410  -0.02441
  11   26210.0    381.5   0.093710318   1.17705   1.00273  -0.14095  -0.38950
  12   26525.2    377.0   0.001006979   0.01250   0.01853   0.08004  -0.07582
  13   27062.0    369.5   0.023056479   0.28048   0.46782   0.22248   0.11016
  14   28131.1    355.5   0.072450677   0.84787  -0.69611  -0.09349   0.59546
  15   28708.3    348.3   0.011393298   0.13065   0.35627  -0.02972  -0.05329
  16   29524.0    338.7   0.007850077   0.08753   0.16238   0.02962  -0.24553
  17   29683.7    336.9   0.097871432   1.08546   0.85084   0.28408   0.52994
  18   30049.3    332.8   0.003086941   0.03382  -0.08859  -0.04130  -0.15577
  19   30250.5    330.6   0.129425050   1.40851   0.83486  -0.08758  -0.83896
  20   30634.4    326.4   0.005453705   0.05861   0.16472   0.12772  -0.12313
  21   30842.3    324.2   0.013779873   0.14709  -0.34271   0.04855   0.16517
  22   30920.7    323.4   0.031505632   0.33544  -0.51604   0.01106   0.26272
  23   30994.4    322.6   0.030088727   0.31959   0.03619  -0.35209  -0.44081
  24   31167.3    320.8   0.071792224   0.75832  -0.79258   0.03960   0.35858
  25   31469.2    317.8   0.038778752   0.40568  -0.36686  -0.00315   0.52066
  26   31625.7    316.2   0.127016990   1.32220   0.57950   0.02214  -0.99292
  27   31876.6    313.7   0.039267075   0.40554   0.57646  -0.10144   0.25089
  28   31952.4    313.0   0.098605568   1.01595   0.56703  -0.05486  -0.83152
  29   33171.8    301.5   0.155486855   1.54312   0.76189   0.32102   0.92714
  30   33445.6    299.0   0.003417404   0.03364   0.17405   0.02343   0.05289
  31   33539.3    298.2   0.047134736   0.46266   0.61978  -0.25566   0.11479
  32   33781.5    296.0   0.000060067   0.00059   0.01910  -0.01292  -0.00734
  33   34038.7    293.8   0.188202607   1.82024  -1.22622  -0.26556  -0.49609
  34   34751.9    287.8   0.030552351   0.28943  -0.25843  -0.18001  -0.43616
  35   34868.5    286.8   0.289208613   2.73057   0.82506   0.56868   1.31394
  36   34991.4    285.8   0.092173078   0.86720  -0.15438  -0.26493  -0.87930
  37   35152.0    284.5   0.291809119   2.73290   1.57076   0.11631  -0.50209
  38   35502.2    281.7   0.183450463   1.70114   0.86857   0.28879   0.92915
  39   35678.2    280.3   0.045608999   0.42085  -0.59161   0.01750   0.26558
  40   35808.8    279.3   0.018281676   0.16807   0.39361  -0.00639  -0.11446
  41   36220.1    276.1   0.051825627   0.47105  -0.60969   0.23365   0.21153
  42   36456.4    274.3   0.119474210   1.07889  -0.89818  -0.21651  -0.47463
  43   36575.0    273.4   0.005949283   0.05355   0.00608   0.06858   0.22093
  44   36799.9    271.7   0.015368129   0.13748  -0.33717   0.09536   0.12127
  45   37025.1    270.1   0.100779516   0.89609  -0.94323  -0.01787   0.07803
  46   37247.6    268.5   0.032217818   0.28476   0.20316   0.17739   0.46045
  47   37336.8    267.8   0.071143835   0.62730  -0.70717   0.07141   0.34945
  48   37558.1    266.3   0.102992369   0.90277  -0.83393   0.09538   0.44524
  49   37680.2    265.4   0.003342374   0.02920   0.06557  -0.15768  -0.00628
  50   37842.2    264.3   0.008104196   0.07050   0.14109   0.13125  -0.18268
  51   38095.4    262.5   0.025721885   0.22228  -0.08481  -0.27267  -0.37516
  52   38396.2    260.4   0.267539353   2.29390   0.08453   0.30074   1.48200
  53   38424.6    260.2   0.108124603   0.92638  -0.06379  -0.31724  -0.90646
  54   38630.7    258.9   0.021657991   0.18457  -0.10380   0.20876   0.36085
  55   39006.6    256.4   0.056706002   0.47859  -0.66297  -0.19245  -0.04496
  56   39158.0    255.4   0.185493221   1.55949   0.39737  -0.54298  -1.05203
  57   39373.2    254.0   0.064998158   0.54347  -0.26762   0.29812   0.61885
  58   39655.8    252.2   0.007633323   0.06337  -0.18416   0.09753   0.14122
  59   39870.8    250.8   0.026818477   0.22144  -0.09135  -0.06156  -0.45750
  60   40004.1    250.0   0.000378876   0.00312  -0.03960   0.03255   0.02215
  61   40281.7    248.3   0.310089893   2.53429  -1.38345  -0.28543  -0.73409

FINAL SINGLE POINT ENERGY     -5211.557755668970

DIPOLE MOMENT
-------------
                                X             Y             Z
Electronic contribution:     -5.09713       7.83788      -6.16981
Nuclear contribution   :      7.97396     -10.07541       5.38409
                        -----------------------------------------
Total Dipole Moment    :      2.87683      -2.23753      -0.78571
                        -----------------------------------------
Magnitude (a.u.)       :      3.72827
Magnitude (Debye)      :      9.47651

Rotational constants in cm-1:     0.001895     0.000163     0.000155
Rotational constants in MHz :    56.798796     4.884483     4.648976

                             ****ORCA TERMINATED NORMALLY****
TOTAL RUN TIME: 0 days 0 hours 11 minutes 55 seconds 888 msec
