                         Program Version 4.2.0 -  RELEASE  -
|  1> # ORCA input file
|  2> # SCF done       -186.220053294780          0.000847099951
|  3> ! CAM-B3LYP def2-SVP def2/J RIJCOSX Grid4 TightSCF
|  4> %maxcore 5000
|  5> %tddft
|  6>     Mode sTDDFT
|  7>     Ethresh 5.0
|  8>     maxcore 5000
|  9> end
| 10>
| 11> %pal
| 12>   nprocs 6
| 13>   end
| 14> * xyz 0 1
| 15>    C        0.85168        -0.16055        -1.79416
| 16>    C        0.95432        -0.06412        -3.18302
| 17>    N        1.92723         0.85979        -3.68938
| 18>    O        2.32765         1.72212        -2.93695
| 19>    O        2.30758         0.73382        -4.84015
| 20>    C        0.12622        -0.83289        -4.01467
| 21>    C        0.17357        -0.79086        -5.52828
| 22>    O        1.27680        -1.48424        -6.04517
| 23>    C       -0.77442        -1.68748        -3.40263
| 24>    C       -0.87693        -1.81359        -2.01395
| 25>    C       -0.04188        -1.02361        -1.21039
| 26>    C       -1.81586        -2.73764        -1.43114
| 27>    C       -1.93874        -3.10213        -0.10456
| 28>    C       -2.95268        -4.03921         0.09543
| 29>    C       -3.61526        -4.38855        -1.09632
| 30>    S       -2.98362        -3.56974        -2.44942
| 31>    C       -4.61540        -5.34684        -0.80221
| 32>    C       -4.57946        -5.60644         0.58415
| 33>    C       -3.53983        -4.78964         1.19216
| 34>    C       -3.19528        -4.73779         2.51085
| 35>    C       -3.84508        -5.51923         3.48995
| 36>    N       -4.36887        -6.15138         4.29016
| 37>    C       -2.16641        -3.89312         2.97842
| 38>    N       -1.33133        -3.20212         3.35233
| 39>    C       -5.51629        -6.54976         0.97889
| 40>    C       -6.27283        -7.01024        -0.09350
| 41>    S       -5.81592        -6.25473        -1.61235
| 42>    C       -7.30397        -7.98231        -0.05137
| 43>    C       -8.02281        -8.33387        -1.21621
| 44>    C       -9.06986        -9.32233        -1.20775
| 45>    N       -9.71575        -9.60813        -2.34304
| 46>    C       -9.39548        -8.99131        -3.45486
| 47>    C       -8.35325        -8.00841        -3.46345
| 48>    N       -7.70922        -7.71564        -2.35949
| 49>    C       -8.00554        -7.33841        -4.66250
| 50>    N       -7.74168        -6.81098        -5.64413
| 51>    C      -10.09209        -9.31134        -4.64642
| 52>    N      -10.64090        -9.55106        -5.62252
| 53>    C       -9.44468       -10.01791        -0.03609
| 54>    C       -8.72945        -9.66703         1.13351
| 55>    C       -7.68434        -8.66757         1.12689
| 56>    N       -7.15784        -8.50677         2.34162
| 57>    S       -7.88453        -9.48943         3.37698
| 58>    N       -8.90628       -10.17719         2.35299
| 59>    C      -10.46880       -10.99795        -0.06294
| 60>    C      -10.90071       -11.78173         1.00171
| 61>    C      -11.92221       -12.64270         0.62958
| 62>    C      -12.27979       -12.51248        -0.72904
| 63>    S      -11.34475       -11.33843        -1.54728
| 64>    C      -13.32797       -13.42609        -0.99739
| 65>    C      -13.62955       -14.13421         0.18116
| 66>    C      -12.75373       -13.66774         1.24224
| 67>    C      -12.71217       -14.10187         2.53459
| 68>    C      -13.57081       -15.11706         3.00660
| 69>    N      -14.26929       -15.94487         3.38282
| 70>    C      -11.80784       -13.57024         3.47857
| 71>    N      -11.07598       -13.14351         4.25098
| 72>    C      -14.65930       -15.05919         0.00764
| 73>    C      -15.14956       -15.06198        -1.28362
| 74>    S      -14.31535       -13.89655        -2.30290
| 75>    C      -16.21004       -15.87090        -1.82788
| 76>    C      -16.78180       -16.91359        -1.08423
| 77>    C      -17.79547       -17.66386        -1.62606
| 78>    C      -18.28037       -17.39704        -2.90763
| 79>    C      -17.72456       -16.36631        -3.68041
| 80>    C      -16.69595       -15.63116        -3.11677
| 81>    C      -18.19268       -16.00844        -5.07605
| 82>    O      -19.40460       -15.30406        -5.06630
| 83>    N      -19.34616       -18.23520        -3.37478
| 84>    O      -19.51161       -19.29767        -2.81446
| 85>    O      -20.03177       -17.84431        -4.30317
| 86>    H        1.50010         0.45566        -1.18959
| 87>    H        0.16739         0.25224        -5.87381
| 88>    H       -0.71221        -1.29374        -5.92457
| 89>    H        2.06028        -0.92964        -5.90835
| 90>    H       -1.41547        -2.28919        -4.03039
| 91>    H       -0.09848        -1.08365        -0.13627
| 92>    H       -1.31366        -2.71768         0.67980
| 93>    H       -5.66977        -6.91006         1.97938
| 94>    H      -10.46753       -11.69878         1.98140
| 95>    H      -15.03842       -15.68892         0.79085
| 96>    H      -16.42843       -17.13618        -0.09120
| 97>    H      -18.24409       -18.47163        -1.06758
| 98>    H      -16.26072       -14.83167        -3.69857
| 99>    H      -18.27083       -16.91736        -5.68867
|100>    H      -17.45905       -15.34131        -5.53567
|101>    H      -20.11202       -15.94283        -4.88827
|102> *
|103>
|104>                          ****END OF INPUT****

CARTESIAN COORDINATES (ANGSTROEM)
---------------------------------
  C      0.851680   -0.160550   -1.794160
  C      0.954320   -0.064120   -3.183020
  N      1.927230    0.859790   -3.689380
  O      2.327650    1.722120   -2.936950
  O      2.307580    0.733820   -4.840150
  C      0.126220   -0.832890   -4.014670
  C      0.173570   -0.790860   -5.528280
  O      1.276800   -1.484240   -6.045170
  C     -0.774420   -1.687480   -3.402630
  C     -0.876930   -1.813590   -2.013950
  C     -0.041880   -1.023610   -1.210390
  C     -1.815860   -2.737640   -1.431140
  C     -1.938740   -3.102130   -0.104560
  C     -2.952680   -4.039210    0.095430
  C     -3.615260   -4.388550   -1.096320
  S     -2.983620   -3.569740   -2.449420
  C     -4.615400   -5.346840   -0.802210
  C     -4.579460   -5.606440    0.584150
  C     -3.539830   -4.789640    1.192160
  C     -3.195280   -4.737790    2.510850
  C     -3.845080   -5.519230    3.489950
  N     -4.368870   -6.151380    4.290160
  C     -2.166410   -3.893120    2.978420
  N     -1.331330   -3.202120    3.352330
  C     -5.516290   -6.549760    0.978890
  C     -6.272830   -7.010240   -0.093500
  S     -5.815920   -6.254730   -1.612350
  C     -7.303970   -7.982310   -0.051370
  C     -8.022810   -8.333870   -1.216210
  C     -9.069860   -9.322330   -1.207750
  N     -9.715750   -9.608130   -2.343040
  C     -9.395480   -8.991310   -3.454860
  C     -8.353250   -8.008410   -3.463450
  N     -7.709220   -7.715640   -2.359490
  C     -8.005540   -7.338410   -4.662500
  N     -7.741680   -6.810980   -5.644130
  C    -10.092090   -9.311340   -4.646420
  N    -10.640900   -9.551060   -5.622520
  C     -9.444680  -10.017910   -0.036090
  C     -8.729450   -9.667030    1.133510
  C     -7.684340   -8.667570    1.126890
  N     -7.157840   -8.506770    2.341620
  S     -7.884530   -9.489430    3.376980
  N     -8.906280  -10.177190    2.352990
  C    -10.468800  -10.997950   -0.062940
  C    -10.900710  -11.781730    1.001710
  C    -11.922210  -12.642700    0.629580
  C    -12.279790  -12.512480   -0.729040
  S    -11.344750  -11.338430   -1.547280
  C    -13.327970  -13.426090   -0.997390
  C    -13.629550  -14.134210    0.181160
  C    -12.753730  -13.667740    1.242240
  C    -12.712170  -14.101870    2.534590
  C    -13.570810  -15.117060    3.006600
  N    -14.269290  -15.944870    3.382820
  C    -11.807840  -13.570240    3.478570
  N    -11.075980  -13.143510    4.250980
  C    -14.659300  -15.059190    0.007640
  C    -15.149560  -15.061980   -1.283620
  S    -14.315350  -13.896550   -2.302900
  C    -16.210040  -15.870900   -1.827880
  C    -16.781800  -16.913590   -1.084230
  C    -17.795470  -17.663860   -1.626060
  C    -18.280370  -17.397040   -2.907630
  C    -17.724560  -16.366310   -3.680410
  C    -16.695950  -15.631160   -3.116770
  C    -18.192680  -16.008440   -5.076050
  O    -19.404600  -15.304060   -5.066300
  N    -19.346160  -18.235200   -3.374780
  O    -19.511610  -19.297670   -2.814460
  O    -20.031770  -17.844310   -4.303170
  H      1.500100    0.455660   -1.189590
  H      0.167390    0.252240   -5.873810
  H     -0.712210   -1.293740   -5.924570
  H      2.060280   -0.929640   -5.908350
  H     -1.415470   -2.289190   -4.030390
  H     -0.098480   -1.083650   -0.136270
  H     -1.313660   -2.717680    0.679800
  H     -5.669770   -6.910060    1.979380
  H    -10.467530  -11.698780    1.981400
  H    -15.038420  -15.688920    0.790850
  H    -16.428430  -17.136180   -0.091200
  H    -18.244090  -18.471630   -1.067580
  H    -16.260720  -14.831670   -3.698570
  H    -18.270830  -16.917360   -5.688670
  H    -17.459050  -15.341310   -5.535670
  H    -20.112020  -15.942830   -4.888270

 Total Charge           Charge          ....    0
 Multiplicity           Mult            ....    1
 Number of Electrons    NEL             ....  516
 Basis Dimension        Dim             .... 1094

ORBITAL ENERGIES
----------------

  NO   OCC          E(Eh)            E(eV)
   0   2.0000     -89.063022     -2423.5280
   1   2.0000     -89.001142     -2421.8442
   2   2.0000     -89.000945     -2421.8388
   3   2.0000     -88.996114     -2421.7074
   4   2.0000     -88.996033     -2421.7052
   5   2.0000     -19.256157      -523.9867
   6   2.0000     -19.256098      -523.9851
   7   2.0000     -19.254089      -523.9304
   8   2.0000     -19.254059      -523.9296
   9   2.0000     -19.198279      -522.4117
  10   2.0000     -19.198185      -522.4092
  11   2.0000     -14.660317      -398.9275
  12   2.0000     -14.660269      -398.9262
  13   2.0000     -14.487877      -394.2352
  14   2.0000     -14.487730      -394.2312
  15   2.0000     -14.471014      -393.7763
  16   2.0000     -14.470950      -393.7746
  17   2.0000     -14.448654      -393.1679
  18   2.0000     -14.448586      -393.1660
  19   2.0000     -14.439014      -392.9056
  20   2.0000     -14.438988      -392.9048
  21   2.0000     -14.437880      -392.8747
  22   2.0000     -14.437822      -392.8731
  23   2.0000     -10.405206      -283.1400
  24   2.0000     -10.404982      -283.1340
  25   2.0000     -10.373242      -282.2703
  26   2.0000     -10.373162      -282.2681
  27   2.0000     -10.368084      -282.1299
  28   2.0000     -10.367837      -282.1232
  29   2.0000     -10.363382      -282.0020
  30   2.0000     -10.363140      -281.9954
  31   2.0000     -10.360594      -281.9261
  32   2.0000     -10.360590      -281.9260
  33   2.0000     -10.343642      -281.4648
  34   2.0000     -10.343570      -281.4628
  35   2.0000     -10.341863      -281.4164
  36   2.0000     -10.341800      -281.4147
  37   2.0000     -10.340396      -281.3765
  38   2.0000     -10.340240      -281.3722
  39   2.0000     -10.339377      -281.3487
  40   2.0000     -10.339343      -281.3478
  41   2.0000     -10.338198      -281.3167
  42   2.0000     -10.338164      -281.3157
  43   2.0000     -10.338097      -281.3139
  44   2.0000     -10.338019      -281.3118
  45   2.0000     -10.336875      -281.2807
  46   2.0000     -10.336873      -281.2806
  47   2.0000     -10.336079      -281.2590
  48   2.0000     -10.336052      -281.2583
  49   2.0000     -10.335844      -281.2526
  50   2.0000     -10.335712      -281.2490
  51   2.0000     -10.323538      -280.9178
  52   2.0000     -10.323494      -280.9166
  53   2.0000     -10.322319      -280.8846
  54   2.0000     -10.322315      -280.8845
  55   2.0000     -10.315325      -280.6943
  56   2.0000     -10.315313      -280.6939
  57   2.0000     -10.313723      -280.6507
  58   2.0000     -10.313712      -280.6504
  59   2.0000     -10.312998      -280.6309
  60   2.0000     -10.312850      -280.6269
  61   2.0000     -10.310244      -280.5560
  62   2.0000     -10.310182      -280.5543
  63   2.0000     -10.308899      -280.5194
  64   2.0000     -10.308840      -280.5178
  65   2.0000     -10.306834      -280.4632
  66   2.0000     -10.306742      -280.4607
  67   2.0000     -10.302167      -280.3362
  68   2.0000     -10.302085      -280.3340
  69   2.0000     -10.301476      -280.3174
  70   2.0000     -10.301462      -280.3170
  71   2.0000      -8.153990      -221.8814
  72   2.0000      -8.095518      -220.2902
  73   2.0000      -8.095398      -220.2870
  74   2.0000      -8.088688      -220.1044
  75   2.0000      -8.088641      -220.1031
  76   2.0000      -6.125081      -166.6719
  77   2.0000      -6.117070      -166.4539
  78   2.0000      -6.116967      -166.4511
  79   2.0000      -6.064645      -165.0274
  80   2.0000      -6.064541      -165.0245
  81   2.0000      -6.060506      -164.9148
  82   2.0000      -6.060378      -164.9113
  83   2.0000      -6.058223      -164.8526
  84   2.0000      -6.058177      -164.8514
  85   2.0000      -6.058107      -164.8495
  86   2.0000      -6.057957      -164.8454
  87   2.0000      -6.053436      -164.7224
  88   2.0000      -6.053394      -164.7212
  89   2.0000      -6.051156      -164.6603
  90   2.0000      -6.051090      -164.6585
  91   2.0000      -1.334806       -36.3219
  92   2.0000      -1.334743       -36.3202
  93   2.0000      -1.161001       -31.5924
  94   2.0000      -1.153375       -31.3849
  95   2.0000      -1.153320       -31.3834
  96   2.0000      -1.146691       -31.2030
  97   2.0000      -1.091268       -29.6949
  98   2.0000      -1.091227       -29.6938
  99   2.0000      -1.075526       -29.2665
 100   2.0000      -1.053948       -28.6794
 101   2.0000      -1.053432       -28.6654
 102   2.0000      -1.034169       -28.1412
 103   2.0000      -1.030394       -28.0385
 104   2.0000      -1.030181       -28.0326
 105   2.0000      -1.024113       -27.8675
 106   2.0000      -1.017828       -27.6965
 107   2.0000      -1.016408       -27.6579
 108   2.0000      -1.015721       -27.6392
 109   2.0000      -1.014026       -27.5931
 110   2.0000      -1.007123       -27.4052
 111   2.0000      -0.999618       -27.2010
 112   2.0000      -0.992442       -27.0057
 113   2.0000      -0.987892       -26.8819
 114   2.0000      -0.968181       -26.3455
 115   2.0000      -0.964344       -26.2411
 116   2.0000      -0.935239       -25.4491
 117   2.0000      -0.932119       -25.3643
 118   2.0000      -0.929009       -25.2796
 119   2.0000      -0.919851       -25.0304
 120   2.0000      -0.907227       -24.6869
 121   2.0000      -0.895361       -24.3640
 122   2.0000      -0.884090       -24.0573
 123   2.0000      -0.883465       -24.0403
 124   2.0000      -0.875114       -23.8131
 125   2.0000      -0.873802       -23.7773
 126   2.0000      -0.864101       -23.5134
 127   2.0000      -0.863837       -23.5062
 128   2.0000      -0.856464       -23.3056
 129   2.0000      -0.838872       -22.8269
 130   2.0000      -0.836924       -22.7739
 131   2.0000      -0.820672       -22.3316
 132   2.0000      -0.811163       -22.0729
 133   2.0000      -0.789374       -21.4800
 134   2.0000      -0.785128       -21.3644
 135   2.0000      -0.779088       -21.2001
 136   2.0000      -0.773017       -21.0349
 137   2.0000      -0.761391       -20.7185
 138   2.0000      -0.758130       -20.6298
 139   2.0000      -0.742479       -20.2039
 140   2.0000      -0.727620       -19.7995
 141   2.0000      -0.721114       -19.6225
 142   2.0000      -0.720424       -19.6037
 143   2.0000      -0.718957       -19.5638
 144   2.0000      -0.715567       -19.4716
 145   2.0000      -0.708643       -19.2832
 146   2.0000      -0.708503       -19.2793
 147   2.0000      -0.695599       -18.9282
 148   2.0000      -0.687015       -18.6946
 149   2.0000      -0.686308       -18.6754
 150   2.0000      -0.677769       -18.4430
 151   2.0000      -0.673541       -18.3280
 152   2.0000      -0.657016       -17.8783
 153   2.0000      -0.654827       -17.8187
 154   2.0000      -0.654723       -17.8159
 155   2.0000      -0.652361       -17.7516
 156   2.0000      -0.645403       -17.5623
 157   2.0000      -0.643545       -17.5117
 158   2.0000      -0.643497       -17.5104
 159   2.0000      -0.641466       -17.4552
 160   2.0000      -0.636861       -17.3299
 161   2.0000      -0.633247       -17.2315
 162   2.0000      -0.625863       -17.0306
 163   2.0000      -0.623900       -16.9772
 164   2.0000      -0.615701       -16.7541
 165   2.0000      -0.607766       -16.5381
 166   2.0000      -0.604066       -16.4375
 167   2.0000      -0.603218       -16.4144
 168   2.0000      -0.597124       -16.2486
 169   2.0000      -0.592740       -16.1293
 170   2.0000      -0.590042       -16.0559
 171   2.0000      -0.585686       -15.9373
 172   2.0000      -0.576887       -15.6979
 173   2.0000      -0.570549       -15.5254
 174   2.0000      -0.566070       -15.4035
 175   2.0000      -0.561521       -15.2798
 176   2.0000      -0.560438       -15.2503
 177   2.0000      -0.556918       -15.1545
 178   2.0000      -0.556205       -15.1351
 179   2.0000      -0.555188       -15.1074
 180   2.0000      -0.549238       -14.9455
 181   2.0000      -0.547856       -14.9079
 182   2.0000      -0.536302       -14.5935
 183   2.0000      -0.535232       -14.5644
 184   2.0000      -0.529607       -14.4113
 185   2.0000      -0.529269       -14.4021
 186   2.0000      -0.520546       -14.1648
 187   2.0000      -0.519324       -14.1315
 188   2.0000      -0.517191       -14.0735
 189   2.0000      -0.515193       -14.0191
 190   2.0000      -0.513766       -13.9803
 191   2.0000      -0.511082       -13.9072
 192   2.0000      -0.506155       -13.7732
 193   2.0000      -0.505356       -13.7514
 194   2.0000      -0.504628       -13.7316
 195   2.0000      -0.503493       -13.7007
 196   2.0000      -0.500869       -13.6293
 197   2.0000      -0.497152       -13.5282
 198   2.0000      -0.493807       -13.4372
 199   2.0000      -0.491597       -13.3770
 200   2.0000      -0.489105       -13.3092
 201   2.0000      -0.482641       -13.1333
 202   2.0000      -0.481500       -13.1023
 203   2.0000      -0.479448       -13.0464
 204   2.0000      -0.479142       -13.0381
 205   2.0000      -0.475955       -12.9514
 206   2.0000      -0.473436       -12.8829
 207   2.0000      -0.471849       -12.8397
 208   2.0000      -0.471529       -12.8309
 209   2.0000      -0.469705       -12.7813
 210   2.0000      -0.469627       -12.7792
 211   2.0000      -0.469424       -12.7737
 212   2.0000      -0.468014       -12.7353
 213   2.0000      -0.464111       -12.6291
 214   2.0000      -0.462754       -12.5922
 215   2.0000      -0.460533       -12.5317
 216   2.0000      -0.457693       -12.4544
 217   2.0000      -0.448635       -12.2080
 218   2.0000      -0.448458       -12.2032
 219   2.0000      -0.447473       -12.1764
 220   2.0000      -0.447247       -12.1702
 221   2.0000      -0.446076       -12.1383
 222   2.0000      -0.444166       -12.0864
 223   2.0000      -0.444147       -12.0859
 224   2.0000      -0.440668       -11.9912
 225   2.0000      -0.436615       -11.8809
 226   2.0000      -0.435212       -11.8427
 227   2.0000      -0.434828       -11.8323
 228   2.0000      -0.426563       -11.6074
 229   2.0000      -0.421523       -11.4702
 230   2.0000      -0.419892       -11.4258
 231   2.0000      -0.413675       -11.2567
 232   2.0000      -0.413671       -11.2566
 233   2.0000      -0.405358       -11.0303
 234   2.0000      -0.399770       -10.8783
 235   2.0000      -0.399283       -10.8650
 236   2.0000      -0.398635       -10.8474
 237   2.0000      -0.397629       -10.8200
 238   2.0000      -0.396142       -10.7796
 239   2.0000      -0.389185       -10.5903
 240   2.0000      -0.387726       -10.5506
 241   2.0000      -0.380078       -10.3425
 242   2.0000      -0.378810       -10.3080
 243   2.0000      -0.370599       -10.0845
 244   2.0000      -0.369022       -10.0416
 245   2.0000      -0.367032        -9.9874
 246   2.0000      -0.358734        -9.7617
 247   2.0000      -0.358417        -9.7530
 248   2.0000      -0.352901        -9.6029
 249   2.0000      -0.352464        -9.5910
 250   2.0000      -0.350586        -9.5399
 251   2.0000      -0.340555        -9.2670
 252   2.0000      -0.340133        -9.2555
 253   2.0000      -0.331608        -9.0235
 254   2.0000      -0.330352        -8.9893
 255   2.0000      -0.317558        -8.6412
 256   2.0000      -0.286856        -7.8057
 257   2.0000      -0.251095        -6.8326
 258   0.0000      -0.147753        -4.0206
 259   0.0000      -0.113362        -3.0847
 260   0.0000      -0.109096        -2.9687
 261   0.0000      -0.075123        -2.0442
 262   0.0000      -0.073321        -1.9952

MULLIKEN ATOMIC CHARGES
-----------------------
   0 C :    0.005016
   1 C :    0.104351
   2 N :    0.261229
   3 O :   -0.222882
   4 O :   -0.264001
   5 C :   -0.077236
   6 C :    0.325823
   7 O :   -0.322137
   8 C :   -0.129903
   9 C :    0.189673
  10 C :   -0.037697
  11 C :   -0.069645
  12 C :   -0.039176
  13 C :    0.014012
  14 C :   -0.096252
  15 S :    0.188027
  16 C :   -0.062203
  17 C :    0.034943
  18 C :    0.307389
  19 C :   -0.296650
  20 C :   -0.184843
  21 N :    0.176505
  22 C :   -0.187940
  23 N :    0.168041
  24 C :   -0.061074
  25 C :   -0.177448
  26 S :    0.207766
  27 C :    0.188345
  28 C :   -0.059002
  29 C :   -0.057069
  30 N :   -0.004368
  31 C :   -0.097006
  32 C :   -0.096859
  33 N :   -0.004570
  34 C :   -0.243987
  35 N :    0.254466
  36 C :   -0.243933
  37 N :    0.254251
  38 C :    0.187144
  39 C :   -0.010396
  40 C :   -0.010564
  41 N :   -0.281941
  42 S :    0.591110
  43 N :   -0.282284
  44 C :   -0.177024
  45 C :   -0.062078
  46 C :    0.035501
  47 C :   -0.061081
  48 S :    0.208285
  49 C :   -0.097117
  50 C :    0.012998
  51 C :    0.307307
  52 C :   -0.295427
  53 C :   -0.188525
  54 N :    0.169042
  55 C :   -0.184736
  56 N :    0.174215
  57 C :   -0.039428
  58 C :   -0.068437
  59 S :    0.188394
  60 C :    0.189032
  61 C :   -0.032541
  62 C :    0.001936
  63 C :    0.111105
  64 C :   -0.082572
  65 C :   -0.131527
  66 C :    0.324113
  67 O :   -0.322554
  68 N :    0.262214
  69 O :   -0.222790
  70 O :   -0.264633
  71 H :    0.013704
  72 H :    0.008291
  73 H :   -0.007035
  74 H :    0.172625
  75 H :   -0.008600
  76 H :   -0.004347
  77 H :    0.008862
  78 H :    0.021108
  79 H :    0.021422
  80 H :    0.008656
  81 H :   -0.005792
  82 H :    0.013655
  83 H :   -0.009115
  84 H :    0.009307
  85 H :   -0.006239
  86 H :    0.172797
Sum of atomic charges:   -0.0000000

LOEWDIN ATOMIC CHARGES
----------------------
   0 C :    0.013469
   1 C :   -0.039926
   2 N :    0.291439
   3 O :   -0.189050
   4 O :   -0.205761
   5 C :   -0.008334
   6 C :    0.074699
   7 O :   -0.138260
   8 C :   -0.024013
   9 C :   -0.011358
  10 C :   -0.012946
  11 C :   -0.157012
  12 C :   -0.020947
  13 C :   -0.063873
  14 C :   -0.176398
  15 S :    0.493450
  16 C :   -0.175754
  17 C :   -0.073212
  18 C :    0.080678
  19 C :   -0.100953
  20 C :   -0.016738
  21 N :   -0.030353
  22 C :   -0.016121
  23 N :   -0.033032
  24 C :   -0.005298
  25 C :   -0.168112
  26 S :    0.512085
  27 C :   -0.037001
  28 C :   -0.015427
  29 C :   -0.015382
  30 N :   -0.016206
  31 C :   -0.021202
  32 C :   -0.021173
  33 N :   -0.016220
  34 C :   -0.040029
  35 N :    0.003575
  36 C :   -0.040011
  37 N :    0.003595
  38 C :   -0.037055
  39 C :   -0.036676
  40 C :   -0.036721
  41 N :   -0.270502
  42 S :    0.709406
  43 N :   -0.270601
  44 C :   -0.168116
  45 C :   -0.005350
  46 C :   -0.073287
  47 C :   -0.175758
  48 S :    0.511979
  49 C :   -0.176466
  50 C :   -0.063779
  51 C :    0.080657
  52 C :   -0.100840
  53 C :   -0.016133
  54 N :   -0.032989
  55 C :   -0.016660
  56 N :   -0.030408
  57 C :   -0.021010
  58 C :   -0.156993
  59 S :    0.493309
  60 C :   -0.011368
  61 C :   -0.012616
  62 C :    0.013297
  63 C :   -0.039769
  64 C :   -0.008500
  65 C :   -0.024093
  66 C :    0.074516
  67 O :   -0.138352
  68 N :    0.291491
  69 O :   -0.189022
  70 O :   -0.205807
  71 H :    0.044146
  72 H :    0.014905
  73 H :    0.022449
  74 H :    0.060419
  75 H :    0.022917
  76 H :    0.036618
  77 H :    0.040600
  78 H :    0.038480
  79 H :    0.038521
  80 H :    0.040570
  81 H :    0.036348
  82 H :    0.044264
  83 H :    0.023044
  84 H :    0.015098
  85 H :    0.022587
  86 H :    0.060362

  Mayer bond orders larger than 0.100000
B(  0-C ,  1-C ) :   1.3626 B(  0-C , 10-C ) :   1.3874 B(  0-C , 71-H ) :   0.9848
B(  1-C ,  2-N ) :   0.9022 B(  1-C ,  5-C ) :   1.3808 B(  2-N ,  3-O ) :   1.5800
B(  2-N ,  4-O ) :   1.4827 B(  3-O ,  4-O ) :   0.2545 B(  5-C ,  6-C ) :   1.0006
B(  5-C ,  8-C ) :   1.4368 B(  6-C ,  7-O ) :   1.0925 B(  6-C , 72-H ) :   0.9303
B(  6-C , 73-H ) :   0.9241 B(  7-O , 74-H ) :   0.9640 B(  8-C ,  9-C ) :   1.3010
B(  8-C , 75-H ) :   0.9822 B(  9-C , 10-C ) :   1.3257 B(  9-C , 11-C ) :   1.0768
B( 10-C , 76-H ) :   0.9960 B( 11-C , 12-C ) :   1.4798 B( 11-C , 15-S ) :   1.1075
B( 12-C , 13-C ) :   1.2882 B( 12-C , 77-H ) :   0.9882 B( 13-C , 14-C ) :   1.4276
B( 13-C , 18-C ) :   0.9983 B( 14-C , 15-S ) :   1.1315 B( 14-C , 16-C ) :   1.1954
B( 16-C , 17-C ) :   1.4028 B( 16-C , 26-S ) :   1.0909 B( 17-C , 18-C ) :   0.9890
B( 17-C , 24-C ) :   1.2841 B( 18-C , 19-C ) :   1.7110 B( 19-C , 20-C ) :   1.1376
B( 19-C , 22-C ) :   1.1316 B( 20-C , 21-N ) :   2.9865 B( 22-C , 23-N ) :   2.9867
B( 24-C , 25-C ) :   1.4058 B( 24-C , 78-H ) :   0.9824 B( 25-C , 26-S ) :   1.0847
B( 25-C , 27-C ) :   1.2148 B( 27-C , 28-C ) :   1.2507 B( 27-C , 38-C ) :   0.1219
B( 27-C , 40-C ) :   1.1943 B( 28-C , 29-C ) :   1.1089 B( 28-C , 33-N ) :   1.4041
B( 29-C , 30-N ) :   1.4035 B( 29-C , 38-C ) :   1.2513 B( 30-N , 31-C ) :   1.6932
B( 31-C , 32-C ) :   1.2195 B( 31-C , 36-C ) :   1.1672 B( 32-C , 33-N ) :   1.6925
B( 32-C , 34-C ) :   1.1673 B( 34-C , 35-N ) :   3.0394 B( 36-C , 37-N ) :   3.0394
B( 38-C , 39-C ) :   1.1941 B( 38-C , 44-C ) :   1.2152 B( 39-C , 40-C ) :   1.1014
B( 39-C , 43-N ) :   1.5161 B( 40-C , 41-N ) :   1.5162 B( 41-N , 42-S ) :   1.2868
B( 41-N , 43-N ) :   0.1460 B( 42-S , 43-N ) :   1.2865 B( 44-C , 45-C ) :   1.4067
B( 44-C , 48-S ) :   1.0843 B( 45-C , 46-C ) :   1.2834 B( 45-C , 79-H ) :   0.9822
B( 46-C , 47-C ) :   1.4021 B( 46-C , 51-C ) :   0.9891 B( 47-C , 48-S ) :   1.0911
B( 47-C , 49-C ) :   1.1944 B( 49-C , 50-C ) :   1.4288 B( 49-C , 59-S ) :   1.1309
B( 50-C , 51-C ) :   0.9985 B( 50-C , 57-C ) :   1.2858 B( 51-C , 52-C ) :   1.7099
B( 52-C , 53-C ) :   1.1312 B( 52-C , 55-C ) :   1.1381 B( 53-C , 54-N ) :   2.9871
B( 55-C , 56-N ) :   2.9849 B( 57-C , 58-C ) :   1.4796 B( 57-C , 80-H ) :   0.9888
B( 58-C , 59-S ) :   1.1082 B( 58-C , 60-C ) :   1.0772 B( 60-C , 61-C ) :   1.3280
B( 60-C , 65-C ) :   1.2968 B( 61-C , 62-C ) :   1.3855 B( 61-C , 81-H ) :   0.9959
B( 62-C , 63-C ) :   1.3580 B( 62-C , 82-H ) :   0.9860 B( 63-C , 64-C ) :   1.3818
B( 63-C , 68-N ) :   0.9031 B( 64-C , 65-C ) :   1.4363 B( 64-C , 66-C ) :   1.0011
B( 65-C , 83-H ) :   0.9835 B( 66-C , 67-O ) :   1.0916 B( 66-C , 84-H ) :   0.9304
B( 66-C , 85-H ) :   0.9241 B( 67-O , 86-H ) :   0.9639 B( 68-N , 69-O ) :   1.5803
B( 68-N , 70-O ) :   1.4819 B( 69-O , 70-O ) :   0.2544

-----------------------------------------------------------------------------
         ABSORPTION SPECTRUM VIA TRANSITION ELECTRIC DIPOLE MOMENTS
-----------------------------------------------------------------------------
State   Energy  Wavelength   fosc         T2         TX        TY        TZ
        (cm-1)    (nm)                  (au**2)     (au)      (au)      (au)
-----------------------------------------------------------------------------
   0    7240.4   1381.1   0.549859516  25.00146   3.65745   3.40929  -0.03488
   1   13247.1    754.9   0.001133486   0.02817  -0.00035   0.00229   0.16782
   2   13746.3    727.5   0.030212000   0.72355   0.63688   0.56379  -0.00944
   3   16386.5    610.3   0.000349406   0.00702  -0.02199   0.02700   0.07620
   4   22340.1    447.6   0.181165871   2.66972   1.20865   1.09936  -0.01674
   5   22408.9    446.3   0.021105868   0.31007   0.10911  -0.09619   0.53751
   6   23257.7    430.0   0.765310062  10.83293   2.41301   2.23821  -0.02625
   7   23850.3    419.3   0.104515441   1.44265   0.91899   0.77298  -0.02476
   8   23941.2    417.7   0.013403868   0.18431  -0.06986   0.06314  -0.41887
   9   24711.9    404.7   0.024619374   0.32798   0.07823  -0.07601   0.56221
  10   25121.7    398.1   0.073254384   0.95997  -0.76818  -0.60745   0.02954
  11   25393.4    393.8   0.014571948   0.18892   0.26101   0.34661   0.02555
  12   26523.8    377.0   1.083850310  13.45267  -2.74663  -2.43039   0.04341
  13   27112.4    368.8   0.184030947   2.23460  -0.15714   0.15440  -1.47853
  14   29722.9    336.4   0.017269741   0.19128   0.04218  -0.07317   0.42912
  15   30022.0    333.1   0.102764885   1.12689  -0.81705  -0.67756   0.01491
  16   30381.5    329.1   0.337183547   3.65370   0.25146  -0.24875   1.87845
  17   30838.7    324.3   0.001939682   0.02071   0.02971  -0.01332   0.14017
  18   31246.0    320.0   0.409912882   4.31889   0.29364  -0.29443   2.03617
  19   31352.7    319.0   0.180751570   1.89794   0.92520   1.02073   0.00765
  20   31649.6    316.0   0.281583353   2.92896   1.15774   1.26026   0.01854
  21   31775.2    314.7   0.008554308   0.08863  -0.06469   0.02475  -0.28953
  22   31846.6    314.0   0.007877272   0.08143   0.24536   0.14538  -0.00954
  23   32055.9    312.0   0.149645693   1.53685  -0.17648   0.17675  -1.21427
  24   32356.4    309.1   0.004747027   0.04830   0.21612  -0.00275  -0.03982
  25   32752.1    305.3   1.122426611  11.28223   0.49711  -0.49820   3.28434
  26   33181.5    301.4   0.001237018   0.01227  -0.04392  -0.10078  -0.01366
  27   33678.1    296.9   0.074353145   0.72682  -0.66992  -0.52703   0.01666
  28   33788.1    296.0   0.000160528   0.00156  -0.01887  -0.00241  -0.03467
  29   34059.1    293.6   0.161213315   1.55827  -0.15890   0.14921  -1.22913
  30   34116.6    293.1   0.011194750   0.10802   0.09086   0.19105  -0.25154
  31   34159.2    292.7   0.016841555   0.16231  -0.28337  -0.25564  -0.12910
  32   34785.1    287.5   0.183392737   1.73566   0.16383  -0.15209   1.29834
  33   34900.5    286.5   0.428087958   4.03810   1.50328   1.33326  -0.02563
  34   35901.8    278.5   0.000746825   0.00685  -0.00526   0.00193   0.08256
  35   36121.7    276.8   0.190389904   1.73521   1.01487   0.83945  -0.02384
  36   36575.3    273.4   0.027122262   0.24413   0.07242  -0.22391   0.43445
  37   36616.4    273.1   0.019284656   0.17339   0.04799   0.14317   0.38805
  38   37319.2    268.0   0.044628082   0.39369   0.09808  -0.09305   0.61271
  39   37524.4    266.5   0.034062915   0.29884  -0.40214  -0.37022   0.00833
  40   37998.9    263.2   0.002744163   0.02377   0.02149  -0.01597   0.15185
  41   38147.5    262.1   0.003554285   0.03067   0.04930   0.15891   0.05469
  42   38195.0    261.8   0.005460695   0.04707  -0.02356   0.04679  -0.21053
  43   38370.3    260.6   0.030643203   0.26291   0.40276   0.31690  -0.01657
  44   38696.5    258.4   0.000443938   0.00378   0.01273  -0.00513   0.05990
  45   39289.3    254.5   0.009921476   0.08313  -0.05055  -0.25548   0.12373
  46   39470.5    253.4   0.215159002   1.79458   0.18754  -0.15285   1.31759
  47   39583.5    252.6   0.019490710   0.16210   0.28136   0.26913  -0.10251
  48   39755.5    251.5   0.005890492   0.04878   0.11602  -0.15689  -0.10346
  49   39848.1    251.0   0.266612632   2.20267   0.25296  -0.15986   1.45366
  50   39944.2    250.3   0.148293218   1.22220   0.14011  -0.17832   1.08202
  51   40123.7    249.2   0.002770714   0.02273  -0.02441   0.00979  -0.14846

FINAL SINGLE POINT ENERGY     -4933.457122653953

DIPOLE MOMENT
-------------
                                X             Y             Z
Electronic contribution:      2.27957      -2.07918      20.71486
Nuclear contribution   :     -2.19225       2.02643     -19.95387
                        -----------------------------------------
Total Dipole Moment    :      0.08732      -0.05276       0.76100
                        -----------------------------------------
Magnitude (a.u.)       :      0.76780
Magnitude (Debye)      :      1.95160

Rotational constants in cm-1:     0.002102     0.000240     0.000216
Rotational constants in MHz :    63.014550     7.188198     6.480850

                             ****ORCA TERMINATED NORMALLY****
TOTAL RUN TIME: 0 days 0 hours 9 minutes 53 seconds 536 msec
