                         Program Version 4.2.0 -  RELEASE  -
|  1> # ORCA input file
|  2> # SCF done       -151.919325029873          0.000497866879
|  3> ! CAM-B3LYP def2-SVP def2/J RIJCOSX Grid4 TightSCF
|  4> %maxcore 5000
|  5> %tddft
|  6>     Mode sTDDFT
|  7>     Ethresh 5.0
|  8>     maxcore 5000
|  9> end
| 10>
| 11> %pal
| 12>   nprocs 6
| 13>   end
| 14> * xyz 0 1
| 15>    C       -2.05555         1.06404        -3.93161
| 16>    C       -1.33861         0.73642        -2.78538
| 17>    N       -1.55190        -0.38763        -2.13030
| 18>    C       -2.49309        -1.21205        -2.60590
| 19>    C       -3.21513        -0.86734        -3.75851
| 20>    N       -2.99272         0.25636        -4.40858
| 21>    C       -2.71383        -2.43572        -1.88007
| 22>    C       -2.06465        -2.82609        -0.72695
| 23>    C       -2.51554        -4.06579        -0.27181
| 24>    C       -3.51596        -4.61609        -1.09642
| 25>    S       -3.89698        -3.60954        -2.41950
| 26>    C       -3.91671        -5.86528        -0.56459
| 27>    C       -3.16760        -6.10430         0.60637
| 28>    C       -2.26166        -4.98569         0.82436
| 29>    C       -1.36335        -4.84055         1.83998
| 30>    C       -1.20713        -5.81448         2.84951
| 31>    N       -1.07135        -6.60095         3.67274
| 32>    C       -0.52557        -3.71033         1.95243
| 33>    N        0.16187        -2.79861         2.05396
| 34>    C       -3.48944        -7.30982         1.21286
| 35>    C       -4.47374        -7.99800         0.51158
| 36>    S       -5.00556        -7.13315        -0.92282
| 37>    C       -5.03363        -9.25775         0.84229
| 38>    C       -5.99626        -9.86837         0.00738
| 39>    C       -6.56722       -11.15752         0.30221
| 40>    N       -7.46439       -11.68764        -0.53510
| 41>    C       -7.82358       -11.03491        -1.61447
| 42>    C       -7.26034        -9.75037        -1.90450
| 43>    N       -6.37642        -9.21640        -1.09602
| 44>    C       -7.64965        -9.04168        -3.06753
| 45>    N       -7.98454        -8.49025        -4.01374
| 46>    C       -8.77449       -11.61648        -2.48853
| 47>    N       -9.54146       -12.06367        -3.21209
| 48>    C       -6.21550       -11.89599         1.45442
| 49>    C       -5.26294       -11.28124         2.30188
| 50>    C       -4.68141        -9.99177         2.00015
| 51>    N       -3.80901        -9.62020         2.93744
| 52>    S       -3.72186       -10.75158         4.06899
| 53>    N       -4.78065       -11.77766         3.44148
| 54>    C       -6.79083       -13.16581         1.71190
| 55>    C       -6.55924       -13.98134         2.81437
| 56>    C       -7.27787       -15.16588         2.74313
| 57>    C       -8.06172       -15.25944         1.57426
| 58>    S       -7.92261       -13.88091         0.57335
| 59>    C       -8.73693       -16.50349         1.59526
| 60>    C       -8.38741       -17.19559         2.77106
| 61>    C       -7.46272       -16.37407         3.53408
| 62>    C       -6.89120       -16.66482         4.73753
| 63>    C       -7.14509       -17.87202         5.42317
| 64>    N       -7.34381       -18.84756         5.99148
| 65>    C       -6.00614       -15.77498         5.38326
| 66>    N       -5.28724       -15.05812         5.91617
| 67>    C       -9.00518       -18.44329         2.86498
| 68>    C       -9.81218       -18.69963         1.77569
| 69>    S       -9.81840       -17.38676         0.61593
| 70>    C      -10.58203       -19.89567         1.55264
| 71>    C      -11.36634       -20.09639         0.40678
| 72>    N      -12.05847       -21.20178         0.22237
| 73>    C      -11.98991       -22.13116         1.16552
| 74>    C      -11.21558       -21.94330         2.30586
| 75>    N      -10.51985       -20.84030         2.49902
| 76>    H       -1.88498         1.97962        -4.47901
| 77>    H       -0.57431         1.38484        -2.37988
| 78>    H       -3.98586        -1.51350        -4.15854
| 79>    H       -1.30853        -2.21652        -0.26740
| 80>    H       -3.05491        -7.70156         2.11404
| 81>    H       -5.89272       -13.69121         3.60555
| 82>    H       -8.89298       -19.14978         3.66670
| 83>    H      -11.43208       -19.34850        -0.37289
| 84>    H      -12.56353       -23.03101         0.99741
| 85>    H      -11.14796       -22.69014         3.08473
| 86> *
| 87>
| 88>                          ****END OF INPUT****

CARTESIAN COORDINATES (ANGSTROEM)
---------------------------------
  C     -2.055550    1.064040   -3.931610
  C     -1.338610    0.736420   -2.785380
  N     -1.551900   -0.387630   -2.130300
  C     -2.493090   -1.212050   -2.605900
  C     -3.215130   -0.867340   -3.758510
  N     -2.992720    0.256360   -4.408580
  C     -2.713830   -2.435720   -1.880070
  C     -2.064650   -2.826090   -0.726950
  C     -2.515540   -4.065790   -0.271810
  C     -3.515960   -4.616090   -1.096420
  S     -3.896980   -3.609540   -2.419500
  C     -3.916710   -5.865280   -0.564590
  C     -3.167600   -6.104300    0.606370
  C     -2.261660   -4.985690    0.824360
  C     -1.363350   -4.840550    1.839980
  C     -1.207130   -5.814480    2.849510
  N     -1.071350   -6.600950    3.672740
  C     -0.525570   -3.710330    1.952430
  N      0.161870   -2.798610    2.053960
  C     -3.489440   -7.309820    1.212860
  C     -4.473740   -7.998000    0.511580
  S     -5.005560   -7.133150   -0.922820
  C     -5.033630   -9.257750    0.842290
  C     -5.996260   -9.868370    0.007380
  C     -6.567220  -11.157520    0.302210
  N     -7.464390  -11.687640   -0.535100
  C     -7.823580  -11.034910   -1.614470
  C     -7.260340   -9.750370   -1.904500
  N     -6.376420   -9.216400   -1.096020
  C     -7.649650   -9.041680   -3.067530
  N     -7.984540   -8.490250   -4.013740
  C     -8.774490  -11.616480   -2.488530
  N     -9.541460  -12.063670   -3.212090
  C     -6.215500  -11.895990    1.454420
  C     -5.262940  -11.281240    2.301880
  C     -4.681410   -9.991770    2.000150
  N     -3.809010   -9.620200    2.937440
  S     -3.721860  -10.751580    4.068990
  N     -4.780650  -11.777660    3.441480
  C     -6.790830  -13.165810    1.711900
  C     -6.559240  -13.981340    2.814370
  C     -7.277870  -15.165880    2.743130
  C     -8.061720  -15.259440    1.574260
  S     -7.922610  -13.880910    0.573350
  C     -8.736930  -16.503490    1.595260
  C     -8.387410  -17.195590    2.771060
  C     -7.462720  -16.374070    3.534080
  C     -6.891200  -16.664820    4.737530
  C     -7.145090  -17.872020    5.423170
  N     -7.343810  -18.847560    5.991480
  C     -6.006140  -15.774980    5.383260
  N     -5.287240  -15.058120    5.916170
  C     -9.005180  -18.443290    2.864980
  C     -9.812180  -18.699630    1.775690
  S     -9.818400  -17.386760    0.615930
  C    -10.582030  -19.895670    1.552640
  C    -11.366340  -20.096390    0.406780
  N    -12.058470  -21.201780    0.222370
  C    -11.989910  -22.131160    1.165520
  C    -11.215580  -21.943300    2.305860
  N    -10.519850  -20.840300    2.499020
  H     -1.884980    1.979620   -4.479010
  H     -0.574310    1.384840   -2.379880
  H     -3.985860   -1.513500   -4.158540
  H     -1.308530   -2.216520   -0.267400
  H     -3.054910   -7.701560    2.114040
  H     -5.892720  -13.691210    3.605550
  H     -8.892980  -19.149780    3.666700
  H    -11.432080  -19.348500   -0.372890
  H    -12.563530  -23.031010    0.997410
  H    -11.147960  -22.690140    3.084730

 Total Charge           Charge          ....    0
 Multiplicity           Mult            ....    1
 Number of Electrons    NEL             ....  440
 Basis Dimension        Dim             ....  924

ORBITAL ENERGIES
----------------

  NO   OCC          E(Eh)            E(eV)
   0   2.0000     -89.056556     -2423.3521
   1   2.0000     -88.993819     -2421.6449
   2   2.0000     -88.993540     -2421.6373
   3   2.0000     -88.988752     -2421.5070
   4   2.0000     -88.988526     -2421.5009
   5   2.0000     -14.481715      -394.0675
   6   2.0000     -14.481574      -394.0637
   7   2.0000     -14.464819      -393.6077
   8   2.0000     -14.464710      -393.6048
   9   2.0000     -14.443372      -393.0241
  10   2.0000     -14.443309      -393.0224
  11   2.0000     -14.430486      -392.6735
  12   2.0000     -14.430431      -392.6720
  13   2.0000     -14.429722      -392.6527
  14   2.0000     -14.429650      -392.6507
  15   2.0000     -14.429003      -392.6331
  16   2.0000     -14.428999      -392.6330
  17   2.0000     -14.428985      -392.6326
  18   2.0000     -14.428962      -392.6320
  19   2.0000     -10.398995      -282.9710
  20   2.0000     -10.398757      -282.9646
  21   2.0000     -10.364931      -282.0441
  22   2.0000     -10.364868      -282.0424
  23   2.0000     -10.361556      -281.9523
  24   2.0000     -10.361310      -281.9456
  25   2.0000     -10.356948      -281.8269
  26   2.0000     -10.356704      -281.8202
  27   2.0000     -10.352161      -281.6966
  28   2.0000     -10.352067      -281.6941
  29   2.0000     -10.337429      -281.2958
  30   2.0000     -10.337373      -281.2942
  31   2.0000     -10.336724      -281.2766
  32   2.0000     -10.336652      -281.2746
  33   2.0000     -10.335177      -281.2345
  34   2.0000     -10.335125      -281.2331
  35   2.0000     -10.333673      -281.1935
  36   2.0000     -10.333519      -281.1893
  37   2.0000     -10.330771      -281.1146
  38   2.0000     -10.330744      -281.1138
  39   2.0000     -10.329525      -281.0807
  40   2.0000     -10.329336      -281.0755
  41   2.0000     -10.329011      -281.0667
  42   2.0000     -10.328971      -281.0656
  43   2.0000     -10.328605      -281.0556
  44   2.0000     -10.328465      -281.0518
  45   2.0000     -10.323133      -280.9067
  46   2.0000     -10.323010      -280.9034
  47   2.0000     -10.322960      -280.9020
  48   2.0000     -10.322788      -280.8974
  49   2.0000     -10.321285      -280.8564
  50   2.0000     -10.321173      -280.8534
  51   2.0000     -10.317301      -280.7480
  52   2.0000     -10.317236      -280.7463
  53   2.0000     -10.306534      -280.4550
  54   2.0000     -10.306457      -280.4529
  55   2.0000     -10.302570      -280.3472
  56   2.0000     -10.302560      -280.3469
  57   2.0000     -10.301943      -280.3301
  58   2.0000     -10.301893      -280.3287
  59   2.0000     -10.300901      -280.3018
  60   2.0000     -10.300871      -280.3010
  61   2.0000      -8.147504      -221.7049
  62   2.0000      -8.088222      -220.0917
  63   2.0000      -8.088066      -220.0875
  64   2.0000      -8.081319      -219.9039
  65   2.0000      -8.081194      -219.9005
  66   2.0000      -6.118573      -166.4948
  67   2.0000      -6.110633      -166.2788
  68   2.0000      -6.110471      -166.2744
  69   2.0000      -6.057379      -164.8297
  70   2.0000      -6.057231      -164.8256
  71   2.0000      -6.053229      -164.7167
  72   2.0000      -6.053068      -164.7124
  73   2.0000      -6.050875      -164.6527
  74   2.0000      -6.050819      -164.6512
  75   2.0000      -6.050757      -164.6495
  76   2.0000      -6.050601      -164.6452
  77   2.0000      -6.046072      -164.5220
  78   2.0000      -6.045934      -164.5182
  79   2.0000      -6.043774      -164.4595
  80   2.0000      -6.043620      -164.4553
  81   2.0000      -1.154426       -31.4135
  82   2.0000      -1.140386       -31.0315
  83   2.0000      -1.086325       -29.5604
  84   2.0000      -1.086172       -29.5563
  85   2.0000      -1.069350       -29.0985
  86   2.0000      -1.045283       -28.4436
  87   2.0000      -1.044742       -28.4289
  88   2.0000      -1.028576       -27.9890
  89   2.0000      -1.021879       -27.8067
  90   2.0000      -1.021671       -27.8011
  91   2.0000      -1.018511       -27.7151
  92   2.0000      -1.011356       -27.5204
  93   2.0000      -1.009529       -27.4707
  94   2.0000      -1.006967       -27.4010
  95   2.0000      -1.006899       -27.3991
  96   2.0000      -1.006601       -27.3910
  97   2.0000      -1.001912       -27.2634
  98   2.0000      -0.992739       -27.0138
  99   2.0000      -0.983892       -26.7731
 100   2.0000      -0.960114       -26.1260
 101   2.0000      -0.956155       -26.0183
 102   2.0000      -0.924649       -25.1610
 103   2.0000      -0.924046       -25.1446
 104   2.0000      -0.915058       -24.9000
 105   2.0000      -0.899998       -24.4902
 106   2.0000      -0.883363       -24.0375
 107   2.0000      -0.879632       -23.9360
 108   2.0000      -0.867713       -23.6117
 109   2.0000      -0.863404       -23.4944
 110   2.0000      -0.856064       -23.2947
 111   2.0000      -0.855672       -23.2840
 112   2.0000      -0.849185       -23.1075
 113   2.0000      -0.822453       -22.3801
 114   2.0000      -0.819116       -22.2893
 115   2.0000      -0.794789       -21.6273
 116   2.0000      -0.786792       -21.4097
 117   2.0000      -0.780901       -21.2494
 118   2.0000      -0.772949       -21.0330
 119   2.0000      -0.751280       -20.4434
 120   2.0000      -0.751072       -20.4377
 121   2.0000      -0.750500       -20.4222
 122   2.0000      -0.749310       -20.3898
 123   2.0000      -0.729272       -19.8445
 124   2.0000      -0.720350       -19.6017
 125   2.0000      -0.708304       -19.2739
 126   2.0000      -0.700677       -19.0664
 127   2.0000      -0.698196       -18.9989
 128   2.0000      -0.692799       -18.8520
 129   2.0000      -0.684433       -18.6244
 130   2.0000      -0.678822       -18.4717
 131   2.0000      -0.667914       -18.1749
 132   2.0000      -0.661587       -18.0027
 133   2.0000      -0.650977       -17.7140
 134   2.0000      -0.639028       -17.3888
 135   2.0000      -0.635959       -17.3053
 136   2.0000      -0.631804       -17.1923
 137   2.0000      -0.629568       -17.1314
 138   2.0000      -0.619772       -16.8649
 139   2.0000      -0.619539       -16.8585
 140   2.0000      -0.616606       -16.7787
 141   2.0000      -0.612803       -16.6752
 142   2.0000      -0.605138       -16.4667
 143   2.0000      -0.604439       -16.4476
 144   2.0000      -0.597051       -16.2466
 145   2.0000      -0.592985       -16.1360
 146   2.0000      -0.581846       -15.8328
 147   2.0000      -0.575153       -15.6507
 148   2.0000      -0.570615       -15.5272
 149   2.0000      -0.558947       -15.2097
 150   2.0000      -0.554651       -15.0928
 151   2.0000      -0.552273       -15.0281
 152   2.0000      -0.549576       -14.9547
 153   2.0000      -0.548570       -14.9274
 154   2.0000      -0.534802       -14.5527
 155   2.0000      -0.531515       -14.4633
 156   2.0000      -0.530077       -14.4241
 157   2.0000      -0.529673       -14.4131
 158   2.0000      -0.524992       -14.2858
 159   2.0000      -0.522987       -14.2312
 160   2.0000      -0.513336       -13.9686
 161   2.0000      -0.506765       -13.7898
 162   2.0000      -0.500359       -13.6155
 163   2.0000      -0.500271       -13.6131
 164   2.0000      -0.500114       -13.6088
 165   2.0000      -0.497943       -13.5497
 166   2.0000      -0.496618       -13.5137
 167   2.0000      -0.495135       -13.4733
 168   2.0000      -0.493931       -13.4405
 169   2.0000      -0.488387       -13.2897
 170   2.0000      -0.484290       -13.1782
 171   2.0000      -0.483344       -13.1525
 172   2.0000      -0.478444       -13.0191
 173   2.0000      -0.478112       -13.0101
 174   2.0000      -0.474693       -12.9171
 175   2.0000      -0.471758       -12.8372
 176   2.0000      -0.469741       -12.7823
 177   2.0000      -0.466559       -12.6957
 178   2.0000      -0.461974       -12.5710
 179   2.0000      -0.461236       -12.5509
 180   2.0000      -0.461166       -12.5490
 181   2.0000      -0.456881       -12.4324
 182   2.0000      -0.456270       -12.4157
 183   2.0000      -0.455935       -12.4066
 184   2.0000      -0.454529       -12.3684
 185   2.0000      -0.446817       -12.1585
 186   2.0000      -0.445364       -12.1190
 187   2.0000      -0.440739       -11.9931
 188   2.0000      -0.439882       -11.9698
 189   2.0000      -0.439826       -11.9683
 190   2.0000      -0.438665       -11.9367
 191   2.0000      -0.438543       -11.9334
 192   2.0000      -0.436330       -11.8731
 193   2.0000      -0.430987       -11.7278
 194   2.0000      -0.427453       -11.6316
 195   2.0000      -0.426779       -11.6133
 196   2.0000      -0.419926       -11.4268
 197   2.0000      -0.419699       -11.4206
 198   2.0000      -0.418118       -11.3776
 199   2.0000      -0.408557       -11.1174
 200   2.0000      -0.408194       -11.1075
 201   2.0000      -0.398274       -10.8376
 202   2.0000      -0.390326       -10.6213
 203   2.0000      -0.390255       -10.6194
 204   2.0000      -0.389887       -10.6094
 205   2.0000      -0.386976       -10.5302
 206   2.0000      -0.383354       -10.4316
 207   2.0000      -0.363771        -9.8987
 208   2.0000      -0.362993        -9.8775
 209   2.0000      -0.361933        -9.8487
 210   2.0000      -0.349322        -9.5055
 211   2.0000      -0.348734        -9.4895
 212   2.0000      -0.345357        -9.3977
 213   2.0000      -0.328698        -8.9443
 214   2.0000      -0.328642        -8.9428
 215   2.0000      -0.323795        -8.8109
 216   2.0000      -0.322429        -8.7737
 217   2.0000      -0.312059        -8.4915
 218   2.0000      -0.280408        -7.6303
 219   2.0000      -0.243882        -6.6364
 220   0.0000      -0.140945        -3.8353
 221   0.0000      -0.104966        -2.8563
 222   0.0000      -0.100984        -2.7479
 223   0.0000      -0.066967        -1.8223
 224   0.0000      -0.054362        -1.4793

MULLIKEN ATOMIC CHARGES
-----------------------
   0 C :    0.020788
   1 C :    0.041514
   2 N :   -0.050575
   3 C :   -0.013301
   4 C :   -0.021423
   5 N :   -0.042577
   6 C :   -0.039395
   7 C :   -0.046540
   8 C :    0.028924
   9 C :   -0.101647
  10 S :    0.190057
  11 C :   -0.060268
  12 C :    0.036704
  13 C :    0.302953
  14 C :   -0.301632
  15 C :   -0.186565
  16 N :    0.172037
  17 C :   -0.194804
  18 N :    0.183250
  19 C :   -0.062476
  20 C :   -0.176161
  21 S :    0.202235
  22 C :    0.190882
  23 C :   -0.061923
  24 C :   -0.063182
  25 N :   -0.003648
  26 C :   -0.096958
  27 C :   -0.101356
  28 N :   -0.000511
  29 C :   -0.244235
  30 N :    0.253101
  31 C :   -0.244566
  32 N :    0.251140
  33 C :    0.191900
  34 C :   -0.012529
  35 C :   -0.014126
  36 N :   -0.281247
  37 S :    0.586992
  38 N :   -0.282202
  39 C :   -0.178909
  40 C :   -0.066413
  41 C :    0.040703
  42 C :   -0.057880
  43 S :    0.203955
  44 C :   -0.103534
  45 C :    0.024252
  46 C :    0.304664
  47 C :   -0.300665
  48 C :   -0.194866
  49 N :    0.182609
  50 C :   -0.185322
  51 N :    0.169500
  52 C :   -0.045386
  53 C :   -0.038969
  54 S :    0.190566
  55 C :   -0.015157
  56 C :   -0.022155
  57 N :   -0.041763
  58 C :    0.020076
  59 C :    0.039726
  60 N :   -0.047728
  61 H :    0.016134
  62 H :    0.017549
  63 H :    0.009775
  64 H :    0.021096
  65 H :    0.021932
  66 H :    0.021501
  67 H :    0.021308
  68 H :    0.009902
  69 H :    0.016777
  70 H :    0.018089
Sum of atomic charges:   -0.0000000

LOEWDIN ATOMIC CHARGES
----------------------
   0 C :   -0.002773
   1 C :    0.010166
   2 N :   -0.047459
   3 C :   -0.025029
   4 C :   -0.005927
   5 N :   -0.036254
   6 C :   -0.174299
   7 C :   -0.004948
   8 C :   -0.063404
   9 C :   -0.178189
  10 S :    0.486040
  11 C :   -0.174908
  12 C :   -0.074243
  13 C :    0.079680
  14 C :   -0.100269
  15 C :   -0.015778
  16 N :   -0.033530
  17 C :   -0.019206
  18 N :   -0.027709
  19 C :   -0.005656
  20 C :   -0.169100
  21 S :    0.508153
  22 C :   -0.037627
  23 C :   -0.016245
  24 C :   -0.016205
  25 N :   -0.016255
  26 C :   -0.022803
  27 C :   -0.022808
  28 N :   -0.016058
  29 C :   -0.039701
  30 N :    0.000988
  31 C :   -0.039461
  32 N :    0.000806
  33 C :   -0.037555
  34 C :   -0.037102
  35 C :   -0.037093
  36 N :   -0.270189
  37 S :    0.705995
  38 N :   -0.270532
  39 C :   -0.169353
  40 C :   -0.005849
  41 C :   -0.074199
  42 C :   -0.174597
  43 S :    0.508369
  44 C :   -0.178644
  45 C :   -0.063434
  46 C :    0.079687
  47 C :   -0.100256
  48 C :   -0.019290
  49 N :   -0.027731
  50 C :   -0.015706
  51 N :   -0.033614
  52 C :   -0.004895
  53 C :   -0.174123
  54 S :    0.486252
  55 C :   -0.025201
  56 C :   -0.005796
  57 N :   -0.036130
  58 C :   -0.003073
  59 C :    0.010112
  60 N :   -0.047265
  61 H :    0.027317
  62 H :    0.029500
  63 H :    0.018765
  64 H :    0.046476
  65 H :    0.038474
  66 H :    0.038445
  67 H :    0.046447
  68 H :    0.018751
  69 H :    0.027456
  70 H :    0.029591

  Mayer bond orders larger than 0.100000
B(  0-C ,  1-C ) :   1.3464 B(  0-C ,  5-N ) :   1.5366 B(  0-C , 61-H ) :   0.9789
B(  1-C ,  2-N ) :   1.5510 B(  1-C , 62-H ) :   0.9769 B(  2-N ,  3-C ) :   1.5734
B(  3-C ,  4-C ) :   1.3170 B(  3-C ,  6-C ) :   1.0512 B(  4-C ,  5-N ) :   1.5979
B(  4-C , 63-H ) :   0.9759 B(  6-C ,  7-C ) :   1.4773 B(  6-C , 10-S ) :   1.1138
B(  7-C ,  8-C ) :   1.2485 B(  7-C , 64-H ) :   1.0105 B(  8-C ,  9-C ) :   1.4216
B(  8-C , 13-C ) :   0.9935 B(  9-C , 10-S ) :   1.1307 B(  9-C , 11-C ) :   1.2033
B( 11-C , 12-C ) :   1.4026 B( 11-C , 21-S ) :   1.0895 B( 12-C , 13-C ) :   0.9888
B( 12-C , 19-C ) :   1.2810 B( 13-C , 14-C ) :   1.7154 B( 14-C , 15-C ) :   1.1387
B( 14-C , 17-C ) :   1.1334 B( 15-C , 16-N ) :   2.9858 B( 17-C , 18-N ) :   3.0013
B( 19-C , 20-C ) :   1.4065 B( 19-C , 65-H ) :   0.9830 B( 20-C , 21-S ) :   1.0826
B( 20-C , 22-C ) :   1.2144 B( 22-C , 23-C ) :   1.2535 B( 22-C , 33-C ) :   0.1204
B( 22-C , 35-C ) :   1.1929 B( 23-C , 24-C ) :   1.1042 B( 23-C , 28-N ) :   1.4050
B( 24-C , 25-N ) :   1.4060 B( 24-C , 33-C ) :   1.2516 B( 25-N , 26-C ) :   1.6912
B( 26-C , 27-C ) :   1.2203 B( 26-C , 31-C ) :   1.1666 B( 27-C , 28-N ) :   1.6929
B( 27-C , 29-C ) :   1.1673 B( 29-C , 30-N ) :   3.0395 B( 31-C , 32-N ) :   3.0392
B( 33-C , 34-C ) :   1.1936 B( 33-C , 39-C ) :   1.2158 B( 34-C , 35-C ) :   1.0989
B( 34-C , 38-N ) :   1.5191 B( 35-C , 36-N ) :   1.5191 B( 36-N , 37-S ) :   1.2857
B( 36-N , 38-N ) :   0.1461 B( 37-S , 38-N ) :   1.2847 B( 39-C , 40-C ) :   1.4066
B( 39-C , 43-S ) :   1.0820 B( 40-C , 41-C ) :   1.2804 B( 40-C , 66-H ) :   0.9828
B( 41-C , 42-C ) :   1.4020 B( 41-C , 46-C ) :   0.9889 B( 42-C , 43-S ) :   1.0909
B( 42-C , 44-C ) :   1.2024 B( 44-C , 45-C ) :   1.4227 B( 44-C , 54-S ) :   1.1302
B( 45-C , 46-C ) :   0.9913 B( 45-C , 52-C ) :   1.2501 B( 46-C , 47-C ) :   1.7165
B( 47-C , 48-C ) :   1.1314 B( 47-C , 50-C ) :   1.1381 B( 48-C , 49-N ) :   3.0017
B( 50-C , 51-N ) :   2.9848 B( 52-C , 53-C ) :   1.4768 B( 52-C , 67-H ) :   1.0097
B( 53-C , 54-S ) :   1.1147 B( 53-C , 55-C ) :   1.0512 B( 55-C , 56-C ) :   1.3178
B( 55-C , 60-N ) :   1.5737 B( 56-C , 57-N ) :   1.5983 B( 56-C , 68-H ) :   0.9757
B( 57-N , 58-C ) :   1.5370 B( 58-C , 59-C ) :   1.3471 B( 58-C , 69-H ) :   0.9786
B( 59-C , 60-N ) :   1.5517 B( 59-C , 70-H ) :   0.9765

-----------------------------------------------------------------------------
         ABSORPTION SPECTRUM VIA TRANSITION ELECTRIC DIPOLE MOMENTS
-----------------------------------------------------------------------------
State   Energy  Wavelength   fosc         T2         TX        TY        TZ
        (cm-1)    (nm)                  (au**2)     (au)      (au)      (au)
-----------------------------------------------------------------------------
   0    7100.2   1408.4   0.497885742  23.08518  -1.90211  -4.30137   0.98253
   1   13397.9    746.4   0.000500632   0.01230  -0.03003  -0.01582  -0.10559
   2   13878.3    720.5   0.031311833   0.74276   0.32802   0.77948  -0.16604
   3   16349.4    611.6   0.000149523   0.00301   0.03696  -0.02488  -0.03203
   4   22211.5    450.2   0.042579601   0.63110  -0.44840   0.06791  -0.65225
   5   22425.5    445.9   0.249448972   3.66197  -0.75365  -1.71698   0.38204
   6   23467.0    426.1   0.275562868   3.86580   0.79845   1.74709  -0.41945
   7   23674.9    422.4   0.111940983   1.55660  -0.46989  -1.13342   0.22621
   8   23780.0    420.5   0.023626184   0.32708  -0.31707   0.04626  -0.47372
   9   24799.1    403.2   0.004997727   0.06635   0.13980  -0.01349   0.21591
  10   25111.9    398.2   0.072725839   0.95342  -0.34368  -0.89926   0.16322
  11   25299.4    395.3   0.005647950   0.07349   0.15952   0.18303  -0.12061
  12   28418.1    351.9   1.367804210  15.84542   1.55914   3.57216  -0.80880
  13   29128.8    343.3   0.000268564   0.00304   0.04107  -0.03571  -0.00858
  14   29145.4    343.1   0.000516249   0.00583  -0.04335   0.04830   0.04024
  15   29445.3    339.6   0.035919338   0.40159   0.36210  -0.02311   0.51956
  16   29819.2    335.4   0.385328390   4.25413   0.77553   1.87177  -0.38621
  17   30069.1    332.6   0.013861038   0.15176  -0.22775   0.06915  -0.30840
  18   30824.2    324.4   0.103605366   1.10654  -0.53554   0.03499  -0.90472
  19   31122.3    321.3   0.012628482   0.13358  -0.19179   0.02466  -0.31015
  20   31444.7    318.0   0.863360391   9.03899  -1.61887   0.14087  -2.52950
  21   31549.1    317.0   0.006909465   0.07210  -0.11243  -0.24086   0.03798
  22   32061.4    311.9   0.143685971   1.47539   0.60603   0.99051  -0.35638
  23   32377.1    308.9   0.014150856   0.14389   0.12762   0.35215  -0.05988
  24   32410.5    308.5   0.000259390   0.00263  -0.00201  -0.01306  -0.04960
  25   32734.6    305.5   0.940736658   9.46098   1.72203  -0.17357   2.54273
  26   33604.0    297.6   0.020336835   0.19924   0.14473   0.41732  -0.06430
  27   33653.4    297.1   0.000586871   0.00574  -0.03701  -0.06400  -0.01660
  28   34079.9    293.4   0.022104670   0.21353  -0.25214   0.02777  -0.38625
  29   34383.6    290.8   0.257539018   2.46585   0.83858  -0.02821   1.32734
  30   34611.0    288.9   0.011282956   0.10732  -0.13832  -0.29541   0.03034
  31   34617.4    288.9   0.023867058   0.22698   0.15673   0.43471  -0.11594
  32   34641.1    288.7   0.240124615   2.28203   0.53732   1.37595  -0.31637
  33   35061.5    285.2   0.087982884   0.82612   0.32620   0.83175  -0.16704
  34   37353.7    267.7   0.072189303   0.63623  -0.42533   0.03481  -0.67388
  35   37757.5    264.8   0.010705026   0.09334  -0.06140  -0.27636   0.11485
  36   37780.5    264.7   0.060833279   0.53009  -0.41530   0.00982  -0.59793
  37   38246.3    261.5   0.013077956   0.11257  -0.17293  -0.00082  -0.28752
  38   38260.5    261.4   0.011289341   0.09714   0.08083   0.29619  -0.05366
  39   38565.8    259.3   0.008266081   0.07056   0.10500   0.23672  -0.05915
  40   38747.4    258.1   0.002354523   0.02000   0.12666  -0.06097   0.01559
  41   38778.5    257.9   0.005625778   0.04776  -0.18856   0.09206   0.06108
  42   38784.3    257.8   0.130798025   1.11025  -0.55072   0.03386  -0.89767
  43   38829.3    257.5   0.143512641   1.21676   0.57982  -0.04824   0.93715
  44   39700.9    251.9   0.050496205   0.41873  -0.36725   0.03040  -0.53191
  45   39900.7    250.6   0.025244506   0.20829   0.01777  -0.44896  -0.08001
  46   39955.7    250.3   0.208519291   1.71808  -0.73741   0.04554  -1.08269
  47   39987.1    250.1   0.152775606   1.25780  -0.42201  -1.00522   0.26311
  48   40185.8    248.8   0.069592143   0.57012   0.29704   0.67166  -0.17538

FINAL SINGLE POINT ENERGY     -4360.192868720323

DIPOLE MOMENT
-------------
                                X             Y             Z
Electronic contribution:      1.70204       0.15639       4.03148
Nuclear contribution   :     -2.20850      -0.11408      -4.82692
                        -----------------------------------------
Total Dipole Moment    :     -0.50645       0.04230      -0.79544
                        -----------------------------------------
Magnitude (a.u.)       :      0.94393
Magnitude (Debye)      :      2.39929

Rotational constants in cm-1:     0.002958     0.000400     0.000352
Rotational constants in MHz :    88.679829    11.977033    10.558712

                             ****ORCA TERMINATED NORMALLY****
TOTAL RUN TIME: 0 days 0 hours 6 minutes 30 seconds 242 msec
