                         Program Version 4.2.0 -  RELEASE  -
|  1> # ORCA input file
|  2> # SCF done       -181.294945568028          0.000903995705
|  3> ! CAM-B3LYP def2-SVP def2/J RIJCOSX Grid4 TightSCF
|  4> %maxcore 5000
|  5> %tddft
|  6>     Mode sTDDFT
|  7>     Ethresh 5.0
|  8>     maxcore 5000
|  9> end
| 10>
| 11> %pal
| 12>   nprocs 6
| 13>   end
| 14> * xyz 0 1
| 15>    C       -0.96757        -1.22867        -0.82378
| 16>    C       -1.15728        -0.27343        -1.78691
| 17>    C       -0.66093         1.01908        -1.61502
| 18>    C        0.04112         1.39914        -0.48230
| 19>    C        0.25204         0.41512         0.53189
| 20>    C       -0.26287        -0.89568         0.34694
| 21>    N       -0.08440        -1.83977         1.29645
| 22>    C        0.56952        -1.53021         2.38333
| 23>    C        1.09534        -0.21594         2.57128
| 24>    N        0.92642         0.70697         1.66084
| 25>    C        1.84953         0.15829         3.80103
| 26>    C        0.74350        -2.59354         3.41477
| 27>    C        0.52951         2.74619        -0.34255
| 28>    C        1.27287         3.28746         0.68412
| 29>    C        1.55372         4.63988         0.48683
| 30>    C        1.01957         5.14022        -0.71325
| 31>    S        0.17691         3.94344        -1.59082
| 32>    C        1.34780         6.51222        -0.81511
| 33>    C        2.09320         6.88452         0.32319
| 34>    C        2.27287         5.70578         1.16105
| 35>    C        3.00527         5.60281         2.30676
| 36>    C        3.78926         6.66118         2.81640
| 37>    N        4.47526         7.48381         3.22353
| 38>    C        3.07447         4.39947         3.03977
| 39>    N        3.12980         3.42975         3.64996
| 40>    C        2.41652         8.23480         0.34885
| 41>    C        1.93919         8.89832        -0.77608
| 42>    S        1.08042         7.82256        -1.87529
| 43>    C        2.06920        10.26945        -1.05777
| 44>    C        2.55515        11.26512        -0.19845
| 45>    C        2.55529        12.57537        -0.79502
| 46>    N        3.06489        13.62423        -0.14629
| 47>    C        3.49800        13.42065         1.07829
| 48>    C        4.15390        14.56195         1.76411
| 49>    O        4.40550        15.60660         1.20249
| 50>    C        4.51372        14.31416         3.17169
| 51>    C        4.31792        13.14716         3.79419
| 52>    C        3.70324        11.97114         3.15323
| 53>    O        3.45548        10.95265         3.76243
| 54>    C        3.37290        12.14609         1.71679
| 55>    N        2.93494        11.08933         1.06868
| 56>    C        2.02987        12.58811        -2.09475
| 57>    S        1.59385        10.97559        -2.57244
| 58>    C        1.83957        13.71069        -2.91947
| 59>    C        1.95482        15.04349        -2.54054
| 60>    C        1.66464        15.90238        -3.59255
| 61>    C        1.35406        15.22796        -4.79167
| 62>    S        1.37993        13.53127        -4.61010
| 63>    C        1.10394        16.18789        -5.79992
| 64>    C        1.24639        17.47058        -5.24318
| 65>    C        1.57149        17.33656        -3.83442
| 66>    C        1.68071        18.34146        -2.91906
| 67>    C        1.54681        19.69786        -3.28314
| 68>    N        1.44053        20.80328        -3.57118
| 69>    C        1.86620        18.10797        -1.53863
| 70>    N        1.96590        17.94887        -0.40805
| 71>    C        1.00588        18.49168        -6.16373
| 72>    C        0.68581        18.01062        -7.41490
| 73>    S        0.68196        16.24625        -7.45225
| 74>    C        0.36512        18.75174        -8.60690
| 75>    C        0.18153        18.09720        -9.81429
| 76>    C       -0.14020        18.77639       -10.98980
| 77>    C       -0.29389        20.13741       -10.99061
| 78>    C       -0.12223        20.85066        -9.79064
| 79>    C        0.21338        20.17208        -8.58883
| 80>    N        0.37468        20.87829        -7.45313
| 81>    C        0.21916        22.17635        -7.47107
| 82>    C       -0.12487        22.85300        -8.68061
| 83>    N       -0.28424        22.19165        -9.79508
| 84>    C       -0.31799        24.33160        -8.71855
| 85>    C        0.41225        22.91208        -6.18943
| 86>    H       -1.34145        -2.23448        -0.92855
| 87>    H       -1.69590        -0.51185        -2.69177
| 88>    H       -0.83019         1.74909        -2.39439
| 89>    H        2.71162        -0.49451         3.92908
| 90>    H        1.21447         0.04795         4.67918
| 91>    H        2.18807         1.18856         3.73240
| 92>    H        0.26641        -3.50754         3.07330
| 93>    H        0.29665        -2.28219         4.35775
| 94>    H        1.80156        -2.78164         3.59060
| 95>    H        1.57420         2.69524         1.52778
| 96>    H        2.95154         8.74950         1.12671
| 97>    H        4.96471        15.15499         3.68140
| 98>    H        4.59842        13.00744         4.82956
| 99>    H        2.24323        15.32721        -1.54437
|100>    H        1.05030        19.54592        -5.96426
|101>    H        0.29384        17.02236        -9.84857
|102>    H       -0.26896        18.21307       -11.90192
|103>    H       -0.54472        20.68821       -11.88287
|104>    H        0.59507        24.84110        -8.41451
|105>    H       -1.11141        24.62720        -8.03380
|106>    H       -0.58083        24.63401        -9.72803
|107>    H        0.68703        22.21884        -5.39907
|108>    H       -0.50521        23.42845        -5.91003
|109>    H        1.19584        23.66048        -6.29848
|110> *
|111>
|112>                          ****END OF INPUT****

CARTESIAN COORDINATES (ANGSTROEM)
---------------------------------
  C     -0.967570   -1.228670   -0.823780
  C     -1.157280   -0.273430   -1.786910
  C     -0.660930    1.019080   -1.615020
  C      0.041120    1.399140   -0.482300
  C      0.252040    0.415120    0.531890
  C     -0.262870   -0.895680    0.346940
  N     -0.084400   -1.839770    1.296450
  C      0.569520   -1.530210    2.383330
  C      1.095340   -0.215940    2.571280
  N      0.926420    0.706970    1.660840
  C      1.849530    0.158290    3.801030
  C      0.743500   -2.593540    3.414770
  C      0.529510    2.746190   -0.342550
  C      1.272870    3.287460    0.684120
  C      1.553720    4.639880    0.486830
  C      1.019570    5.140220   -0.713250
  S      0.176910    3.943440   -1.590820
  C      1.347800    6.512220   -0.815110
  C      2.093200    6.884520    0.323190
  C      2.272870    5.705780    1.161050
  C      3.005270    5.602810    2.306760
  C      3.789260    6.661180    2.816400
  N      4.475260    7.483810    3.223530
  C      3.074470    4.399470    3.039770
  N      3.129800    3.429750    3.649960
  C      2.416520    8.234800    0.348850
  C      1.939190    8.898320   -0.776080
  S      1.080420    7.822560   -1.875290
  C      2.069200   10.269450   -1.057770
  C      2.555150   11.265120   -0.198450
  C      2.555290   12.575370   -0.795020
  N      3.064890   13.624230   -0.146290
  C      3.498000   13.420650    1.078290
  C      4.153900   14.561950    1.764110
  O      4.405500   15.606600    1.202490
  C      4.513720   14.314160    3.171690
  C      4.317920   13.147160    3.794190
  C      3.703240   11.971140    3.153230
  O      3.455480   10.952650    3.762430
  C      3.372900   12.146090    1.716790
  N      2.934940   11.089330    1.068680
  C      2.029870   12.588110   -2.094750
  S      1.593850   10.975590   -2.572440
  C      1.839570   13.710690   -2.919470
  C      1.954820   15.043490   -2.540540
  C      1.664640   15.902380   -3.592550
  C      1.354060   15.227960   -4.791670
  S      1.379930   13.531270   -4.610100
  C      1.103940   16.187890   -5.799920
  C      1.246390   17.470580   -5.243180
  C      1.571490   17.336560   -3.834420
  C      1.680710   18.341460   -2.919060
  C      1.546810   19.697860   -3.283140
  N      1.440530   20.803280   -3.571180
  C      1.866200   18.107970   -1.538630
  N      1.965900   17.948870   -0.408050
  C      1.005880   18.491680   -6.163730
  C      0.685810   18.010620   -7.414900
  S      0.681960   16.246250   -7.452250
  C      0.365120   18.751740   -8.606900
  C      0.181530   18.097200   -9.814290
  C     -0.140200   18.776390  -10.989800
  C     -0.293890   20.137410  -10.990610
  C     -0.122230   20.850660   -9.790640
  C      0.213380   20.172080   -8.588830
  N      0.374680   20.878290   -7.453130
  C      0.219160   22.176350   -7.471070
  C     -0.124870   22.853000   -8.680610
  N     -0.284240   22.191650   -9.795080
  C     -0.317990   24.331600   -8.718550
  C      0.412250   22.912080   -6.189430
  H     -1.341450   -2.234480   -0.928550
  H     -1.695900   -0.511850   -2.691770
  H     -0.830190    1.749090   -2.394390
  H      2.711620   -0.494510    3.929080
  H      1.214470    0.047950    4.679180
  H      2.188070    1.188560    3.732400
  H      0.266410   -3.507540    3.073300
  H      0.296650   -2.282190    4.357750
  H      1.801560   -2.781640    3.590600
  H      1.574200    2.695240    1.527780
  H      2.951540    8.749500    1.126710
  H      4.964710   15.154990    3.681400
  H      4.598420   13.007440    4.829560
  H      2.243230   15.327210   -1.544370
  H      1.050300   19.545920   -5.964260
  H      0.293840   17.022360   -9.848570
  H     -0.268960   18.213070  -11.901920
  H     -0.544720   20.688210  -11.882870
  H      0.595070   24.841100   -8.414510
  H     -1.111410   24.627200   -8.033800
  H     -0.580830   24.634010   -9.728030
  H      0.687030   22.218840   -5.399070
  H     -0.505210   23.428450   -5.910030
  H      1.195840   23.660480   -6.298480

 Total Charge           Charge          ....    0
 Multiplicity           Mult            ....    1
 Number of Electrons    NEL             ....  514
 Basis Dimension        Dim             .... 1134

ORBITAL ENERGIES
----------------

  NO   OCC          E(Eh)            E(eV)
   0   2.0000     -88.995232     -2421.6834
   1   2.0000     -88.986867     -2421.4558
   2   2.0000     -88.986635     -2421.4494
   3   2.0000     -88.978143     -2421.2184
   4   2.0000     -88.978023     -2421.2151
   5   2.0000     -19.218547      -522.9633
   6   2.0000     -19.218442      -522.9604
   7   2.0000     -14.443153      -393.0182
   8   2.0000     -14.443026      -393.0147
   9   2.0000     -14.425461      -392.5368
  10   2.0000     -14.425115      -392.5273
  11   2.0000     -14.418806      -392.3557
  12   2.0000     -14.418129      -392.3372
  13   2.0000     -14.411781      -392.1645
  14   2.0000     -14.411764      -392.1640
  15   2.0000     -14.410896      -392.1404
  16   2.0000     -14.410810      -392.1381
  17   2.0000     -10.367572      -282.1160
  18   2.0000     -10.367475      -282.1133
  19   2.0000     -10.356344      -281.8104
  20   2.0000     -10.356059      -281.8027
  21   2.0000     -10.343024      -281.4480
  22   2.0000     -10.342586      -281.4361
  23   2.0000     -10.334413      -281.2137
  24   2.0000     -10.334129      -281.2059
  25   2.0000     -10.331982      -281.1475
  26   2.0000     -10.331893      -281.1451
  27   2.0000     -10.328932      -281.0645
  28   2.0000     -10.328659      -281.0571
  29   2.0000     -10.328082      -281.0414
  30   2.0000     -10.327999      -281.0391
  31   2.0000     -10.326520      -280.9989
  32   2.0000     -10.326171      -280.9894
  33   2.0000     -10.324358      -280.9401
  34   2.0000     -10.324177      -280.9351
  35   2.0000     -10.322063      -280.8776
  36   2.0000     -10.321933      -280.8741
  37   2.0000     -10.318372      -280.7772
  38   2.0000     -10.317581      -280.7557
  39   2.0000     -10.317347      -280.7493
  40   2.0000     -10.317292      -280.7478
  41   2.0000     -10.315792      -280.7070
  42   2.0000     -10.315772      -280.7064
  43   2.0000     -10.311194      -280.5818
  44   2.0000     -10.311179      -280.5814
  45   2.0000     -10.310945      -280.5751
  46   2.0000     -10.310897      -280.5738
  47   2.0000     -10.306278      -280.4481
  48   2.0000     -10.306215      -280.4464
  49   2.0000     -10.301241      -280.3110
  50   2.0000     -10.300536      -280.2918
  51   2.0000     -10.296309      -280.1768
  52   2.0000     -10.296109      -280.1714
  53   2.0000     -10.294989      -280.1409
  54   2.0000     -10.294944      -280.1397
  55   2.0000     -10.292647      -280.0772
  56   2.0000     -10.292272      -280.0670
  57   2.0000     -10.290426      -280.0167
  58   2.0000     -10.290129      -280.0086
  59   2.0000     -10.282294      -279.7955
  60   2.0000     -10.282272      -279.7948
  61   2.0000     -10.279132      -279.7094
  62   2.0000     -10.279046      -279.7071
  63   2.0000     -10.277895      -279.6757
  64   2.0000     -10.277300      -279.6595
  65   2.0000     -10.273133      -279.5462
  66   2.0000     -10.273074      -279.5446
  67   2.0000     -10.265413      -279.3361
  68   2.0000     -10.265402      -279.3358
  69   2.0000     -10.256779      -279.1011
  70   2.0000     -10.256761      -279.1007
  71   2.0000      -8.089946      -220.1386
  72   2.0000      -8.081637      -219.9125
  73   2.0000      -8.081394      -219.9059
  74   2.0000      -8.072569      -219.6658
  75   2.0000      -8.072399      -219.6612
  76   2.0000      -6.059026      -164.8745
  77   2.0000      -6.054960      -164.7638
  78   2.0000      -6.052581      -164.6991
  79   2.0000      -6.050899      -164.6533
  80   2.0000      -6.050688      -164.6476
  81   2.0000      -6.046806      -164.5420
  82   2.0000      -6.046544      -164.5348
  83   2.0000      -6.043905      -164.4630
  84   2.0000      -6.043653      -164.4562
  85   2.0000      -6.041821      -164.4063
  86   2.0000      -6.041633      -164.4012
  87   2.0000      -6.037639      -164.2925
  88   2.0000      -6.037498      -164.2887
  89   2.0000      -6.035009      -164.2209
  90   2.0000      -6.034844      -164.2165
  91   2.0000      -1.135758       -30.9056
  92   2.0000      -1.131007       -30.7763
  93   2.0000      -1.094454       -29.7816
  94   2.0000      -1.072648       -29.1882
  95   2.0000      -1.072541       -29.1853
  96   2.0000      -1.036401       -28.2019
  97   2.0000      -1.036002       -28.1911
  98   2.0000      -1.021474       -27.7957
  99   2.0000      -1.015268       -27.6269
 100   2.0000      -1.013913       -27.5900
 101   2.0000      -1.006773       -27.3957
 102   2.0000      -0.998785       -27.1783
 103   2.0000      -0.998312       -27.1654
 104   2.0000      -0.996929       -27.1278
 105   2.0000      -0.996039       -27.1036
 106   2.0000      -0.988149       -26.8889
 107   2.0000      -0.980805       -26.6891
 108   2.0000      -0.958388       -26.0791
 109   2.0000      -0.955107       -25.9898
 110   2.0000      -0.943596       -25.6765
 111   2.0000      -0.942878       -25.6570
 112   2.0000      -0.931774       -25.3549
 113   2.0000      -0.910606       -24.7788
 114   2.0000      -0.901701       -24.5365
 115   2.0000      -0.880572       -23.9616
 116   2.0000      -0.879339       -23.9280
 117   2.0000      -0.873570       -23.7710
 118   2.0000      -0.870876       -23.6977
 119   2.0000      -0.865333       -23.5469
 120   2.0000      -0.863042       -23.4846
 121   2.0000      -0.853932       -23.2367
 122   2.0000      -0.845114       -22.9967
 123   2.0000      -0.842980       -22.9387
 124   2.0000      -0.839155       -22.8346
 125   2.0000      -0.811044       -22.0696
 126   2.0000      -0.807730       -21.9794
 127   2.0000      -0.800546       -21.7840
 128   2.0000      -0.799346       -21.7513
 129   2.0000      -0.793658       -21.5965
 130   2.0000      -0.793513       -21.5926
 131   2.0000      -0.785817       -21.3832
 132   2.0000      -0.769169       -20.9301
 133   2.0000      -0.767301       -20.8793
 134   2.0000      -0.764628       -20.8066
 135   2.0000      -0.740279       -20.1440
 136   2.0000      -0.739364       -20.1191
 137   2.0000      -0.714188       -19.4340
 138   2.0000      -0.712846       -19.3975
 139   2.0000      -0.711673       -19.3656
 140   2.0000      -0.711649       -19.3650
 141   2.0000      -0.704466       -19.1695
 142   2.0000      -0.697090       -18.9688
 143   2.0000      -0.688733       -18.7414
 144   2.0000      -0.681772       -18.5520
 145   2.0000      -0.676676       -18.4133
 146   2.0000      -0.674445       -18.3526
 147   2.0000      -0.670549       -18.2466
 148   2.0000      -0.658891       -17.9293
 149   2.0000      -0.658473       -17.9180
 150   2.0000      -0.645701       -17.5704
 151   2.0000      -0.644861       -17.5476
 152   2.0000      -0.627402       -17.0725
 153   2.0000      -0.623782       -16.9740
 154   2.0000      -0.623148       -16.9567
 155   2.0000      -0.617089       -16.7918
 156   2.0000      -0.615050       -16.7364
 157   2.0000      -0.607141       -16.5211
 158   2.0000      -0.603616       -16.4252
 159   2.0000      -0.599535       -16.3142
 160   2.0000      -0.598021       -16.2730
 161   2.0000      -0.597521       -16.2594
 162   2.0000      -0.590666       -16.0728
 163   2.0000      -0.574839       -15.6422
 164   2.0000      -0.574514       -15.6333
 165   2.0000      -0.561469       -15.2784
 166   2.0000      -0.556938       -15.1550
 167   2.0000      -0.552980       -15.0474
 168   2.0000      -0.550336       -14.9754
 169   2.0000      -0.549809       -14.9611
 170   2.0000      -0.547105       -14.8875
 171   2.0000      -0.546128       -14.8609
 172   2.0000      -0.544023       -14.8036
 173   2.0000      -0.543866       -14.7993
 174   2.0000      -0.538109       -14.6427
 175   2.0000      -0.537929       -14.6378
 176   2.0000      -0.535766       -14.5789
 177   2.0000      -0.519864       -14.1462
 178   2.0000      -0.516130       -14.0446
 179   2.0000      -0.515432       -14.0256
 180   2.0000      -0.514788       -14.0081
 181   2.0000      -0.511254       -13.9119
 182   2.0000      -0.502789       -13.6816
 183   2.0000      -0.499948       -13.6043
 184   2.0000      -0.499019       -13.5790
 185   2.0000      -0.498569       -13.5668
 186   2.0000      -0.497165       -13.5285
 187   2.0000      -0.495617       -13.4864
 188   2.0000      -0.491975       -13.3873
 189   2.0000      -0.489649       -13.3240
 190   2.0000      -0.489477       -13.3193
 191   2.0000      -0.488901       -13.3037
 192   2.0000      -0.487656       -13.2698
 193   2.0000      -0.487173       -13.2567
 194   2.0000      -0.486022       -13.2253
 195   2.0000      -0.484840       -13.1932
 196   2.0000      -0.484698       -13.1893
 197   2.0000      -0.483640       -13.1605
 198   2.0000      -0.479750       -13.0547
 199   2.0000      -0.475939       -12.9510
 200   2.0000      -0.475412       -12.9366
 201   2.0000      -0.473752       -12.8914
 202   2.0000      -0.473512       -12.8849
 203   2.0000      -0.473364       -12.8809
 204   2.0000      -0.469747       -12.7825
 205   2.0000      -0.468886       -12.7590
 206   2.0000      -0.461790       -12.5660
 207   2.0000      -0.461252       -12.5513
 208   2.0000      -0.453780       -12.3480
 209   2.0000      -0.453295       -12.3348
 210   2.0000      -0.449111       -12.2209
 211   2.0000      -0.448700       -12.2097
 212   2.0000      -0.448503       -12.2044
 213   2.0000      -0.446333       -12.1453
 214   2.0000      -0.445870       -12.1328
 215   2.0000      -0.444922       -12.1069
 216   2.0000      -0.440404       -11.9840
 217   2.0000      -0.437812       -11.9135
 218   2.0000      -0.435983       -11.8637
 219   2.0000      -0.431955       -11.7541
 220   2.0000      -0.431533       -11.7426
 221   2.0000      -0.430812       -11.7230
 222   2.0000      -0.429285       -11.6814
 223   2.0000      -0.428917       -11.6714
 224   2.0000      -0.423284       -11.5181
 225   2.0000      -0.423031       -11.5113
 226   2.0000      -0.422639       -11.5006
 227   2.0000      -0.422479       -11.4962
 228   2.0000      -0.415673       -11.3110
 229   2.0000      -0.415097       -11.2954
 230   2.0000      -0.411462       -11.1965
 231   2.0000      -0.410545       -11.1715
 232   2.0000      -0.400970       -10.9109
 233   2.0000      -0.399901       -10.8819
 234   2.0000      -0.397703       -10.8221
 235   2.0000      -0.378636       -10.3032
 236   2.0000      -0.368469       -10.0265
 237   2.0000      -0.368118       -10.0170
 238   2.0000      -0.365091        -9.9346
 239   2.0000      -0.364674        -9.9233
 240   2.0000      -0.356696        -9.7062
 241   2.0000      -0.346124        -9.4185
 242   2.0000      -0.341204        -9.2846
 243   2.0000      -0.338737        -9.2175
 244   2.0000      -0.338141        -9.2013
 245   2.0000      -0.337785        -9.1916
 246   2.0000      -0.329416        -8.9639
 247   2.0000      -0.318603        -8.6696
 248   2.0000      -0.315638        -8.5890
 249   2.0000      -0.314158        -8.5487
 250   2.0000      -0.312276        -8.4975
 251   2.0000      -0.311598        -8.4790
 252   2.0000      -0.311197        -8.4681
 253   2.0000      -0.310950        -8.4614
 254   2.0000      -0.286468        -7.7952
 255   2.0000      -0.258938        -7.0460
 256   2.0000      -0.225250        -6.1294
 257   0.0000      -0.108310        -2.9473
 258   0.0000      -0.095676        -2.6035
 259   0.0000      -0.083295        -2.2666
 260   0.0000      -0.079030        -2.1505
 261   0.0000      -0.043249        -1.1769

MULLIKEN ATOMIC CHARGES
-----------------------
   0 C :    0.002049
   1 C :    0.044362
   2 C :   -0.077749
   3 C :    0.155267
   4 C :   -0.024358
   5 C :   -0.025689
   6 N :    0.009618
   7 C :   -0.186558
   8 C :   -0.158122
   9 N :   -0.015212
  10 C :    0.127074
  11 C :    0.133611
  12 C :   -0.115677
  13 C :   -0.052963
  14 C :    0.034420
  15 C :   -0.087195
  16 S :    0.147603
  17 C :   -0.094742
  18 C :    0.020622
  19 C :    0.312570
  20 C :   -0.303440
  21 C :   -0.198123
  22 N :    0.191781
  23 C :   -0.177394
  24 N :    0.178002
  25 C :   -0.056889
  26 C :   -0.092413
  27 S :    0.171979
  28 C :   -0.115852
  29 C :    0.023995
  30 C :    0.025741
  31 N :    0.062326
  32 C :   -0.117830
  33 C :    0.138254
  34 O :   -0.100984
  35 C :   -0.009868
  36 C :   -0.011030
  37 C :    0.138932
  38 O :   -0.101232
  39 C :   -0.117969
  40 N :    0.061418
  41 C :   -0.121117
  42 S :    0.191852
  43 C :   -0.093047
  44 C :   -0.052902
  45 C :    0.020554
  46 C :   -0.094968
  47 S :    0.172180
  48 C :   -0.088890
  49 C :    0.032604
  50 C :    0.310663
  51 C :   -0.301893
  52 C :   -0.177756
  53 N :    0.178707
  54 C :   -0.195352
  55 N :    0.188456
  56 C :   -0.050966
  57 C :   -0.115417
  58 S :    0.149055
  59 C :    0.158141
  60 C :   -0.078151
  61 C :    0.044451
  62 C :    0.001720
  63 C :   -0.026549
  64 C :   -0.029621
  65 N :   -0.013110
  66 C :   -0.159462
  67 C :   -0.183758
  68 N :    0.009818
  69 C :    0.130710
  70 C :    0.126179
  71 H :   -0.028215
  72 H :   -0.011125
  73 H :   -0.012580
  74 H :    0.020999
  75 H :    0.021782
  76 H :    0.034569
  77 H :    0.024841
  78 H :    0.024601
  79 H :    0.026081
  80 H :    0.016264
  81 H :    0.027968
  82 H :    0.018529
  83 H :    0.018808
  84 H :    0.026597
  85 H :    0.016566
  86 H :   -0.012251
  87 H :   -0.010731
  88 H :   -0.027925
  89 H :    0.025655
  90 H :    0.025441
  91 H :    0.025607
  92 H :    0.034989
  93 H :    0.020792
  94 H :    0.022270
Sum of atomic charges:   -0.0000000

LOEWDIN ATOMIC CHARGES
----------------------
   0 C :   -0.013609
   1 C :   -0.019085
   2 C :   -0.028208
   3 C :   -0.037489
   4 C :   -0.005820
   5 C :   -0.013073
   6 N :   -0.046451
   7 C :   -0.003203
   8 C :    0.007855
   9 N :   -0.041302
  10 C :   -0.055946
  11 C :   -0.052544
  12 C :   -0.151237
  13 C :   -0.024507
  14 C :   -0.071810
  15 C :   -0.183962
  16 S :    0.464095
  17 C :   -0.174673
  18 C :   -0.068837
  19 C :    0.082569
  20 C :   -0.099533
  21 C :   -0.023553
  22 N :   -0.019382
  23 C :   -0.002150
  24 N :   -0.034081
  25 C :   -0.006918
  26 C :   -0.188275
  27 S :    0.455904
  28 C :   -0.191939
  29 C :   -0.045148
  30 C :   -0.045246
  31 N :    0.008262
  32 C :   -0.040543
  33 C :    0.055002
  34 O :   -0.095303
  35 C :   -0.012713
  36 C :   -0.012542
  37 C :    0.054800
  38 O :   -0.094655
  39 C :   -0.040214
  40 N :    0.008172
  41 C :   -0.192247
  42 S :    0.480471
  43 C :   -0.187972
  44 C :   -0.006536
  45 C :   -0.068871
  46 C :   -0.174934
  47 S :    0.456477
  48 C :   -0.183991
  49 C :   -0.071899
  50 C :    0.082941
  51 C :   -0.099969
  52 C :   -0.002175
  53 N :   -0.033908
  54 C :   -0.022657
  55 N :   -0.021031
  56 C :   -0.024156
  57 C :   -0.151229
  58 S :    0.464745
  59 C :   -0.037661
  60 C :   -0.028309
  61 C :   -0.018960
  62 C :   -0.013740
  63 C :   -0.013191
  64 C :   -0.006203
  65 N :   -0.041472
  66 C :    0.007676
  67 C :   -0.003119
  68 N :   -0.046477
  69 C :   -0.052699
  70 C :   -0.056106
  71 H :    0.033739
  72 H :    0.031986
  73 H :    0.018901
  74 H :    0.037420
  75 H :    0.037969
  76 H :    0.037760
  77 H :    0.038009
  78 H :    0.038042
  79 H :    0.038305
  80 H :    0.035170
  81 H :    0.044094
  82 H :    0.045602
  83 H :    0.045663
  84 H :    0.043955
  85 H :    0.035451
  86 H :    0.019082
  87 H :    0.032026
  88 H :    0.033738
  89 H :    0.038308
  90 H :    0.038070
  91 H :    0.038106
  92 H :    0.037743
  93 H :    0.037608
  94 H :    0.037751

  Mayer bond orders larger than 0.100000
B(  0-C ,  1-C ) :   1.4262 B(  0-C ,  3-C ) :   0.1079 B(  0-C ,  5-C ) :   1.2636
B(  0-C , 71-H ) :   1.0078 B(  1-C ,  2-C ) :   1.2735 B(  1-C , 72-H ) :   0.9850
B(  2-C ,  3-C ) :   1.4335 B(  2-C , 73-H ) :   0.9866 B(  3-C ,  4-C ) :   1.2063
B(  3-C , 12-C ) :   1.0946 B(  4-C ,  5-C ) :   1.2629 B(  4-C ,  9-N ) :   1.4310
B(  5-C ,  6-N ) :   1.3888 B(  6-N ,  7-C ) :   1.7239 B(  7-C ,  8-C ) :   1.1600
B(  7-C , 11-C ) :   1.0966 B(  8-C ,  9-N ) :   1.6742 B(  8-C , 10-C ) :   1.0933
B( 10-C , 74-H ) :   0.9348 B( 10-C , 75-H ) :   0.9337 B( 10-C , 76-H ) :   0.9305
B( 11-C , 77-H ) :   0.9413 B( 11-C , 78-H ) :   0.9407 B( 11-C , 79-H ) :   0.9407
B( 12-C , 13-C ) :   1.5048 B( 12-C , 16-S ) :   1.0877 B( 13-C , 14-C ) :   1.2115
B( 13-C , 80-H ) :   0.9771 B( 14-C , 15-C ) :   1.4339 B( 14-C , 19-C ) :   1.0065
B( 15-C , 16-S ) :   1.1199 B( 15-C , 17-C ) :   1.1930 B( 17-C , 18-C ) :   1.4252
B( 17-C , 27-S ) :   1.1223 B( 18-C , 19-C ) :   0.9807 B( 18-C , 25-C ) :   1.2745
B( 19-C , 20-C ) :   1.7091 B( 20-C , 21-C ) :   1.1285 B( 20-C , 23-C ) :   1.1419
B( 21-C , 22-N ) :   3.0049 B( 23-C , 24-N ) :   2.9814 B( 25-C , 26-C ) :   1.4526
B( 25-C , 81-H ) :   0.9879 B( 26-C , 27-S ) :   1.0767 B( 26-C , 28-C ) :   1.1917
B( 28-C , 29-C ) :   1.3703 B( 28-C , 41-C ) :   0.1495 B( 28-C , 42-S ) :   1.1457
B( 29-C , 30-C ) :   1.1798 B( 29-C , 40-N ) :   1.4385 B( 30-C , 31-N ) :   1.4393
B( 30-C , 41-C ) :   1.3698 B( 31-N , 32-C ) :   1.7125 B( 32-C , 33-C ) :   0.8919
B( 32-C , 39-C ) :   1.0920 B( 33-C , 34-O ) :   2.2403 B( 33-C , 35-C ) :   1.0243
B( 35-C , 36-C ) :   1.6904 B( 35-C , 82-H ) :   0.9934 B( 36-C , 37-C ) :   1.0230
B( 36-C , 83-H ) :   0.9938 B( 37-C , 38-O ) :   2.2381 B( 37-C , 39-C ) :   0.8914
B( 39-C , 40-N ) :   1.7157 B( 41-C , 42-S ) :   1.1466 B( 41-C , 43-C ) :   1.1893
B( 43-C , 44-C ) :   1.4538 B( 43-C , 47-S ) :   1.0771 B( 44-C , 45-C ) :   1.2774
B( 44-C , 84-H ) :   0.9876 B( 45-C , 46-C ) :   1.4240 B( 45-C , 50-C ) :   0.9820
B( 46-C , 47-S ) :   1.1220 B( 46-C , 48-C ) :   1.1943 B( 48-C , 49-C ) :   1.4347
B( 48-C , 58-S ) :   1.1204 B( 49-C , 50-C ) :   1.0046 B( 49-C , 56-C ) :   1.2131
B( 50-C , 51-C ) :   1.7093 B( 51-C , 52-C ) :   1.1416 B( 51-C , 54-C ) :   1.1295
B( 52-C , 53-N ) :   2.9800 B( 54-C , 55-N ) :   3.0029 B( 56-C , 57-C ) :   1.5038
B( 56-C , 85-H ) :   0.9801 B( 57-C , 58-S ) :   1.0886 B( 57-C , 59-C ) :   1.0899
B( 59-C , 60-C ) :   1.4315 B( 59-C , 62-C ) :   0.1076 B( 59-C , 64-C ) :   1.2100
B( 60-C , 61-C ) :   1.2724 B( 60-C , 86-H ) :   0.9877 B( 61-C , 62-C ) :   1.4256
B( 61-C , 87-H ) :   0.9860 B( 62-C , 63-C ) :   1.2625 B( 62-C , 88-H ) :   1.0085
B( 63-C , 64-C ) :   1.2636 B( 63-C , 68-N ) :   1.3883 B( 64-C , 65-N ) :   1.4326
B( 65-N , 66-C ) :   1.6752 B( 66-C , 67-C ) :   1.1595 B( 66-C , 70-C ) :   1.0929
B( 67-C , 68-N ) :   1.7247 B( 67-C , 69-C ) :   1.0956 B( 69-C , 89-H ) :   0.9409
B( 69-C , 90-H ) :   0.9415 B( 69-C , 91-H ) :   0.9417 B( 70-C , 92-H ) :   0.9301
B( 70-C , 93-H ) :   0.9339 B( 70-C , 94-H ) :   0.9352

-----------------------------------------------------------------------------
         ABSORPTION SPECTRUM VIA TRANSITION ELECTRIC DIPOLE MOMENTS
-----------------------------------------------------------------------------
State   Energy  Wavelength   fosc         T2         TX        TY        TZ
        (cm-1)    (nm)                  (au**2)     (au)      (au)      (au)
-----------------------------------------------------------------------------
   0    9803.0   1020.1   0.596077067  20.01791  -0.05426   4.07544  -1.84548
   1   11465.7    872.2   0.033723171   0.96829  -0.47400  -0.38555  -0.77134
   2   13650.2    732.6   0.197988792   4.77503  -0.07489   2.00326  -0.86971
   3   16937.6    590.4   0.136209601   2.64747   0.69774   0.61147   1.33669
   4   18832.9    531.0   0.038074137   0.66556   0.42251   0.29634   0.63184
   5   20995.0    476.3   0.034395356   0.53934   0.03856  -0.67005   0.29812
   6   24111.6    414.7   0.124704315   1.70267   0.61149   0.52110   1.02820
   7   24809.1    403.1   0.005448131   0.07230  -0.17414   0.20301  -0.02754
   8   24908.9    401.5   1.425310620  18.83778   0.04495   3.92627  -1.84937
   9   25769.8    388.1   0.000551775   0.00705   0.03822   0.03941   0.06352
  10   26418.8    378.5   0.106892061   1.33201   0.05993   1.04478  -0.48667
  11   26572.9    376.3   0.002582462   0.03199  -0.15169   0.09309   0.01780
  12   26796.1    373.2   0.229338061   2.81760   0.85878   0.59343   1.31452
  13   27083.0    369.2   0.002421619   0.02944   0.05224   0.13244  -0.09574
  14   28355.2    352.7   0.035722561   0.41475   0.31674   0.23865   0.50742
  15   29223.2    342.2   0.002892158   0.03258  -0.03421   0.16369   0.06795
  16   29287.3    341.4   0.001947643   0.02189  -0.14199   0.02293   0.03474
  17   29608.3    337.7   0.059920854   0.66625  -0.41757   0.66494  -0.22302
  18   29761.3    336.0   0.058787384   0.65029  -0.14591  -0.75022   0.25723
  19   30266.5    330.4   0.272595487   2.96505  -0.59915  -0.59532  -1.50056
  20   30701.6    325.7   0.000149963   0.00161   0.00758  -0.01481   0.03649
  21   30972.8    322.9   0.016162211   0.17179   0.27490   0.04176   0.30737
  22   31034.0    322.2   0.255762451   2.71315   0.36015  -1.53125   0.48858
  23   31219.4    320.3   0.016015095   0.16888   0.07612   0.35862  -0.18569
  24   31699.8    315.5   0.091888333   0.95429  -0.27758  -0.70101  -0.62114
  25   31762.0    314.8   0.118624750   1.22954   0.45261   0.02088   1.01205
  26   32303.5    309.6   0.090923510   0.92662  -0.42127  -0.74044   0.44823
  27   32418.9    308.5   0.175885222   1.78610  -0.48833  -0.58189  -1.09956
  28   32468.2    308.0   0.021251502   0.21548   0.19015  -0.11633   0.40717
  29   32746.4    305.4   0.003202817   0.03220  -0.14138  -0.01180   0.10987
  30   33056.8    302.5   0.018454593   0.18379   0.14383   0.13731   0.37980
  31   33794.3    295.9   0.004995650   0.04867   0.02037   0.07548   0.20628
  32   33833.2    295.6   0.002471415   0.02405   0.11333   0.07688   0.07277
  33   34088.6    293.4   0.044628266   0.43100   0.39226  -0.52510   0.03741
  34   34324.8    291.3   0.259139974   2.48544  -0.63504  -0.52369  -1.34458
  35   34686.5    288.3   0.012297065   0.11671   0.10322  -0.31646   0.07686
  36   34866.7    286.8   0.134280295   1.26788  -0.22488   1.06517  -0.28761
  37   35311.2    283.2   0.018927383   0.17646  -0.04419  -0.20234  -0.36547
  38   35470.0    281.9   0.018466998   0.17140   0.24949  -0.23667   0.23052
  39   35499.0    281.7   0.123714132   1.14730   0.03674  -0.88936   0.59581
  40   35568.2    281.2   0.568529583   5.26220   0.95308   0.93325   1.86625
  41   35963.7    278.1   0.069616658   0.63727  -0.30521  -0.29597  -0.67566
  42   36511.5    273.9   0.078405674   0.70696   0.25918   0.32652   0.73018
  43   36537.7    273.7   0.017825445   0.16061  -0.13123   0.36336  -0.10658
  44   36890.8    271.1   0.002886977   0.02576   0.00465  -0.16023   0.00824
  45   36912.3    270.9   0.020165161   0.17985  -0.04258   0.34358  -0.24492
  46   37265.0    268.3   0.003158510   0.02790  -0.04159  -0.07674   0.14242
  47   37329.8    267.9   0.017803494   0.15701   0.16584   0.22390   0.28173
  48   37583.6    266.1   0.003730603   0.03268   0.10290   0.01326   0.14803
  49   37631.7    265.7   0.000589660   0.00516   0.05462   0.04598   0.00780
  50   37723.3    265.1   0.012210809   0.10656   0.12167   0.05029   0.29872
  51   37767.0    264.8   0.016665907   0.14528  -0.11912  -0.27214  -0.23880
  52   38078.5    262.6   0.091941928   0.79489  -0.09109  -0.77255   0.43562
  53   38407.8    260.4   0.002318971   0.01988  -0.09236  -0.04414  -0.09694
  54   38522.6    259.6   0.003461128   0.02958   0.09319   0.09441   0.10945
  55   38548.4    259.4   0.003137880   0.02680  -0.03017  -0.12732   0.09837
  56   38609.8    259.0   0.000803813   0.00685  -0.00878   0.08231   0.00116
  57   38901.2    257.1   0.023732569   0.20084   0.28457   0.17695   0.29757
  58   39034.0    256.2   0.026657067   0.22483   0.05060   0.43154  -0.18984
  59   39366.6    254.0   0.004125128   0.03450  -0.09736   0.05539  -0.14815
  60   39524.8    253.0   0.357625579   2.97875   0.01233   1.58806  -0.67577
  61   39624.5    252.4   0.049545036   0.41163   0.18764   0.03550   0.61251
  62   39850.9    250.9   0.016806609   0.13884   0.01490   0.36954  -0.04541
  63   40326.9    248.0   0.081370022   0.66427  -0.35569  -0.27775  -0.67868

FINAL SINGLE POINT ENERGY     -4756.936977339103

DIPOLE MOMENT
-------------
                                X             Y             Z
Electronic contribution:     11.20576       2.27816       3.98012
Nuclear contribution   :    -12.47903      -3.38455      -6.46229
                        -----------------------------------------
Total Dipole Moment    :     -1.27327      -1.10639      -2.48217
                        -----------------------------------------
Magnitude (a.u.)       :      3.00108
Magnitude (Debye)      :      7.62814

Rotational constants in cm-1:     0.001876     0.000261     0.000231
Rotational constants in MHz :    56.243981     7.835547     6.931153

                             ****ORCA TERMINATED NORMALLY****
TOTAL RUN TIME: 0 days 0 hours 9 minutes 15 seconds 555 msec
