                         Program Version 4.2.0 -  RELEASE  -
|  1> # ORCA input file
|  2> # SCF done       -235.392628585889          0.000485433886
|  3> ! CAM-B3LYP def2-SVP def2/J RIJCOSX Grid4 TightSCF
|  4> %maxcore 5000
|  5> %tddft
|  6>     Mode sTDDFT
|  7>     Ethresh 5.0
|  8>     maxcore 5000
|  9> end
| 10>
| 11> %pal
| 12>   nprocs 6
| 13>   end
| 14> * xyz 0 1
| 15>    C      -15.26429        -4.31691         5.35644
| 16>    C      -16.03571        -3.24671         5.00010
| 17>    F      -17.06575        -2.87044         5.76755
| 18>    C      -15.76200        -2.52840         3.81886
| 19>    F      -16.54809        -1.48890         3.49823
| 20>    C      -14.72035        -2.87979         3.00755
| 21>    C      -13.90611        -3.97811         3.35123
| 22>    C      -14.18449        -4.71259         4.54155
| 23>    C      -13.39435        -5.83057         4.89332
| 24>    C      -12.35478        -6.20220         4.08167
| 25>    C      -12.06795        -5.44955         2.90939
| 26>    C      -12.81861        -4.36797         2.53928
| 27>    C      -10.90759        -6.03458         2.22058
| 28>    O      -10.45082        -5.63582         1.16253
| 29>    C      -10.44014        -7.15030         3.07624
| 30>    C      -11.40367        -7.30448         4.16387
| 31>    C      -11.47110        -8.33645         5.05856
| 32>    C      -12.44736        -8.43131         6.07559
| 33>    N      -13.20936        -8.56316         6.92297
| 34>    C      -10.62907        -9.47131         5.08163
| 35>    N      -10.01025       -10.43474         5.15872
| 36>    C       -9.25969        -7.83838         3.02530
| 37>    C       -8.21225        -7.80368         2.07346
| 38>    C       -8.17576        -7.29092         0.80147
| 39>    C       -6.90260        -7.35957         0.20543
| 40>    C       -6.46777        -6.84048        -1.02902
| 41>    C       -5.13425        -7.07209        -1.36888
| 42>    C       -4.32908        -7.83039        -0.47274
| 43>    N       -4.71569        -8.29421         0.69516
| 44>    C       -5.96543        -8.04545         1.02870
| 45>    S       -6.65984        -8.51371         2.53942
| 46>    S       -2.70593        -8.04933        -1.05462
| 47>    C       -3.08342        -7.07453        -2.45198
| 48>    C       -4.36189        -6.62702        -2.48461
| 49>    F       -4.82984        -5.81138        -3.43825
| 50>    F       -2.13847        -6.82641        -3.34800
| 51>    C       -7.40792        -6.09077        -1.85283
| 52>    C       -7.66137        -6.40283        -3.19384
| 53>    C       -8.68264        -5.72305        -3.93868
| 54>    N       -8.86136        -6.02263        -5.24345
| 55>    C       -8.13297        -6.93811        -5.78644
| 56>    C       -7.17814        -7.67308        -5.01908
| 57>    N       -6.96492        -7.41054        -3.77611
| 58>    F       -6.49282        -8.66673        -5.57113
| 59>    F       -8.30319        -7.19367        -7.07576
| 60>    C       -9.54709        -4.78135        -3.34351
| 61>    C       -9.27049        -4.44924        -2.00313
| 62>    C       -8.18300        -5.07082        -1.28635
| 63>    N       -8.05265        -4.57421        -0.04742
| 64>    S       -9.21155        -3.51643         0.20527
| 65>    N       -9.90760        -3.55767        -1.22885
| 66>    C      -10.66388        -4.22278        -4.04664
| 67>    C      -11.69882        -3.54476        -3.45539
| 68>    C      -12.66621        -3.10028        -4.37388
| 69>    C      -13.88655        -2.44333        -4.12892
| 70>    C      -14.64032        -2.09838        -5.26115
| 71>    C      -14.16167        -2.50319        -6.53751
| 72>    N      -13.06024        -3.17949        -6.76494
| 73>    C      -12.32895        -3.46721        -5.70805
| 74>    S      -10.85494        -4.37505        -5.77940
| 75>    S      -15.22047        -2.02083        -7.83584
| 76>    C      -16.26418        -1.24209        -6.68342
| 77>    C      -15.84908        -1.35630        -5.39603
| 78>    F      -16.49436        -0.78124        -4.36544
| 79>    F      -17.35150        -0.60536        -7.09739
| 80>    C      -14.26954        -2.20485        -2.75785
| 81>    C      -15.46546        -2.36863        -2.15724
| 82>    C      -15.65763        -1.86946        -0.76389
| 83>    O      -14.77921        -1.61837         0.03111
| 84>    C      -17.11251        -1.75791        -0.59090
| 85>    C      -17.81588        -1.21819         0.44882
| 86>    C      -19.22622        -1.20526         0.38827
| 87>    C      -19.88455        -1.73451        -0.76064
| 88>    C      -21.29246        -1.70443        -0.81650
| 89>    C      -22.01099        -1.18223         0.22244
| 90>    C      -21.35824        -0.66699         1.36192
| 91>    C      -19.99400        -0.67640         1.44429
| 92>    F      -22.09092        -0.16709         2.36361
| 93>    F      -23.34753        -1.15728         0.16959
| 94>    C      -19.13181        -2.28846        -1.82098
| 95>    C      -17.76544        -2.31129        -1.73238
| 96>    C      -16.75317        -2.85311        -2.63083
| 97>    C      -16.95929        -3.79452        -3.59953
| 98>    C      -18.23844        -4.24348        -3.99404
| 99>    N      -19.25704        -4.62278        -4.35994
|100>    C      -15.91563        -4.49907        -4.23491
|101>    N      -15.09590        -5.13469        -4.72566
|102>    H      -15.48846        -4.86022         6.26096
|103>    H      -14.53066        -2.32067         2.10271
|104>    H      -13.63318        -6.36416         5.79867
|105>    H      -12.59210        -3.81670         1.63893
|106>    H       -9.04061        -8.47802         3.87234
|107>    H       -9.04335        -6.88813         0.31870
|108>    H      -11.74184        -3.38339        -2.39499
|109>    H      -13.46940        -1.86705        -2.10627
|110>    H      -17.30882        -0.80347         1.30546
|111>    H      -21.80892        -2.09817        -1.67792
|112>    H      -19.50575        -0.28252         2.32197
|113>    H      -19.65288        -2.67286        -2.68327
|114> *
|115>
|116>                          ****END OF INPUT****

CARTESIAN COORDINATES (ANGSTROEM)
---------------------------------
  C    -15.264290   -4.316910    5.356440
  C    -16.035710   -3.246710    5.000100
  F    -17.065750   -2.870440    5.767550
  C    -15.762000   -2.528400    3.818860
  F    -16.548090   -1.488900    3.498230
  C    -14.720350   -2.879790    3.007550
  C    -13.906110   -3.978110    3.351230
  C    -14.184490   -4.712590    4.541550
  C    -13.394350   -5.830570    4.893320
  C    -12.354780   -6.202200    4.081670
  C    -12.067950   -5.449550    2.909390
  C    -12.818610   -4.367970    2.539280
  C    -10.907590   -6.034580    2.220580
  O    -10.450820   -5.635820    1.162530
  C    -10.440140   -7.150300    3.076240
  C    -11.403670   -7.304480    4.163870
  C    -11.471100   -8.336450    5.058560
  C    -12.447360   -8.431310    6.075590
  N    -13.209360   -8.563160    6.922970
  C    -10.629070   -9.471310    5.081630
  N    -10.010250  -10.434740    5.158720
  C     -9.259690   -7.838380    3.025300
  C     -8.212250   -7.803680    2.073460
  C     -8.175760   -7.290920    0.801470
  C     -6.902600   -7.359570    0.205430
  C     -6.467770   -6.840480   -1.029020
  C     -5.134250   -7.072090   -1.368880
  C     -4.329080   -7.830390   -0.472740
  N     -4.715690   -8.294210    0.695160
  C     -5.965430   -8.045450    1.028700
  S     -6.659840   -8.513710    2.539420
  S     -2.705930   -8.049330   -1.054620
  C     -3.083420   -7.074530   -2.451980
  C     -4.361890   -6.627020   -2.484610
  F     -4.829840   -5.811380   -3.438250
  F     -2.138470   -6.826410   -3.348000
  C     -7.407920   -6.090770   -1.852830
  C     -7.661370   -6.402830   -3.193840
  C     -8.682640   -5.723050   -3.938680
  N     -8.861360   -6.022630   -5.243450
  C     -8.132970   -6.938110   -5.786440
  C     -7.178140   -7.673080   -5.019080
  N     -6.964920   -7.410540   -3.776110
  F     -6.492820   -8.666730   -5.571130
  F     -8.303190   -7.193670   -7.075760
  C     -9.547090   -4.781350   -3.343510
  C     -9.270490   -4.449240   -2.003130
  C     -8.183000   -5.070820   -1.286350
  N     -8.052650   -4.574210   -0.047420
  S     -9.211550   -3.516430    0.205270
  N     -9.907600   -3.557670   -1.228850
  C    -10.663880   -4.222780   -4.046640
  C    -11.698820   -3.544760   -3.455390
  C    -12.666210   -3.100280   -4.373880
  C    -13.886550   -2.443330   -4.128920
  C    -14.640320   -2.098380   -5.261150
  C    -14.161670   -2.503190   -6.537510
  N    -13.060240   -3.179490   -6.764940
  C    -12.328950   -3.467210   -5.708050
  S    -10.854940   -4.375050   -5.779400
  S    -15.220470   -2.020830   -7.835840
  C    -16.264180   -1.242090   -6.683420
  C    -15.849080   -1.356300   -5.396030
  F    -16.494360   -0.781240   -4.365440
  F    -17.351500   -0.605360   -7.097390
  C    -14.269540   -2.204850   -2.757850
  C    -15.465460   -2.368630   -2.157240
  C    -15.657630   -1.869460   -0.763890
  O    -14.779210   -1.618370    0.031110
  C    -17.112510   -1.757910   -0.590900
  C    -17.815880   -1.218190    0.448820
  C    -19.226220   -1.205260    0.388270
  C    -19.884550   -1.734510   -0.760640
  C    -21.292460   -1.704430   -0.816500
  C    -22.010990   -1.182230    0.222440
  C    -21.358240   -0.666990    1.361920
  C    -19.994000   -0.676400    1.444290
  F    -22.090920   -0.167090    2.363610
  F    -23.347530   -1.157280    0.169590
  C    -19.131810   -2.288460   -1.820980
  C    -17.765440   -2.311290   -1.732380
  C    -16.753170   -2.853110   -2.630830
  C    -16.959290   -3.794520   -3.599530
  C    -18.238440   -4.243480   -3.994040
  N    -19.257040   -4.622780   -4.359940
  C    -15.915630   -4.499070   -4.234910
  N    -15.095900   -5.134690   -4.725660
  H    -15.488460   -4.860220    6.260960
  H    -14.530660   -2.320670    2.102710
  H    -13.633180   -6.364160    5.798670
  H    -12.592100   -3.816700    1.638930
  H     -9.040610   -8.478020    3.872340
  H     -9.043350   -6.888130    0.318700
  H    -11.741840   -3.383390   -2.394990
  H    -13.469400   -1.867050   -2.106270
  H    -17.308820   -0.803470    1.305460
  H    -21.808920   -2.098170   -1.677920
  H    -19.505750   -0.282520    2.321970
  H    -19.652880   -2.672860   -2.683270

 Total Charge           Charge          ....    0
 Multiplicity           Mult            ....    1
 Number of Electrons    NEL             ....  628
 Basis Dimension        Dim             .... 1298

ORBITAL ENERGIES
----------------

  NO   OCC          E(Eh)            E(eV)
   0   2.0000     -89.050870     -2423.1974
   1   2.0000     -88.976716     -2421.1795
   2   2.0000     -88.976614     -2421.1767
   3   2.0000     -88.967100     -2420.9179
   4   2.0000     -88.957662     -2420.6610
   5   2.0000     -24.821599      -675.4300
   6   2.0000     -24.819892      -675.3836
   7   2.0000     -24.819769      -675.3803
   8   2.0000     -24.816251      -675.2845
   9   2.0000     -24.813163      -675.2005
  10   2.0000     -24.811422      -675.1531
  11   2.0000     -24.806993      -675.0326
  12   2.0000     -24.805318      -674.9870
  13   2.0000     -24.804826      -674.9736
  14   2.0000     -24.804572      -674.9667
  15   2.0000     -19.240891      -523.5713
  16   2.0000     -19.239139      -523.5236
  17   2.0000     -14.462255      -393.5380
  18   2.0000     -14.459121      -393.4527
  19   2.0000     -14.453360      -393.2959
  20   2.0000     -14.450730      -393.2243
  21   2.0000     -14.436049      -392.8249
  22   2.0000     -14.431951      -392.7134
  23   2.0000     -14.426869      -392.5751
  24   2.0000     -14.426165      -392.5559
  25   2.0000     -14.425505      -392.5379
  26   2.0000     -14.424555      -392.5121
  27   2.0000     -10.438698      -284.0514
  28   2.0000     -10.436775      -283.9991
  29   2.0000     -10.401559      -283.0408
  30   2.0000     -10.396384      -282.9000
  31   2.0000     -10.390938      -282.7518
  32   2.0000     -10.390225      -282.7324
  33   2.0000     -10.389376      -282.7093
  34   2.0000     -10.389127      -282.7025
  35   2.0000     -10.388531      -282.6863
  36   2.0000     -10.387665      -282.6627
  37   2.0000     -10.378283      -282.4074
  38   2.0000     -10.375230      -282.3244
  39   2.0000     -10.361750      -281.9575
  40   2.0000     -10.357034      -281.8292
  41   2.0000     -10.355620      -281.7907
  42   2.0000     -10.355403      -281.7848
  43   2.0000     -10.354515      -281.7607
  44   2.0000     -10.354368      -281.7567
  45   2.0000     -10.353820      -281.7418
  46   2.0000     -10.353421      -281.7309
  47   2.0000     -10.353012      -281.7198
  48   2.0000     -10.345334      -281.5109
  49   2.0000     -10.344474      -281.4874
  50   2.0000     -10.339339      -281.3477
  51   2.0000     -10.339101      -281.3412
  52   2.0000     -10.330782      -281.1149
  53   2.0000     -10.330370      -281.1037
  54   2.0000     -10.328649      -281.0568
  55   2.0000     -10.328458      -281.0516
  56   2.0000     -10.328203      -281.0447
  57   2.0000     -10.327946      -281.0377
  58   2.0000     -10.327448      -281.0241
  59   2.0000     -10.326377      -280.9950
  60   2.0000     -10.323856      -280.9264
  61   2.0000     -10.323689      -280.9219
  62   2.0000     -10.319918      -280.8192
  63   2.0000     -10.319908      -280.8190
  64   2.0000     -10.319856      -280.8176
  65   2.0000     -10.318934      -280.7925
  66   2.0000     -10.318876      -280.7909
  67   2.0000     -10.318780      -280.7883
  68   2.0000     -10.318282      -280.7747
  69   2.0000     -10.318232      -280.7734
  70   2.0000     -10.316687      -280.7313
  71   2.0000     -10.316372      -280.7227
  72   2.0000     -10.316207      -280.7183
  73   2.0000     -10.314486      -280.6714
  74   2.0000     -10.313156      -280.6352
  75   2.0000     -10.312227      -280.6100
  76   2.0000     -10.311733      -280.5965
  77   2.0000     -10.308419      -280.5063
  78   2.0000     -10.308390      -280.5055
  79   2.0000     -10.307699      -280.4868
  80   2.0000     -10.306589      -280.4565
  81   2.0000     -10.305914      -280.4382
  82   2.0000     -10.305546      -280.4282
  83   2.0000     -10.304365      -280.3960
  84   2.0000     -10.303566      -280.3743
  85   2.0000     -10.300113      -280.2803
  86   2.0000     -10.286515      -279.9103
  87   2.0000      -8.140958      -221.5267
  88   2.0000      -8.073896      -219.7019
  89   2.0000      -8.073892      -219.7018
  90   2.0000      -8.063656      -219.4232
  91   2.0000      -8.052762      -219.1268
  92   2.0000      -6.111721      -166.3084
  93   2.0000      -6.104639      -166.1157
  94   2.0000      -6.103865      -166.0946
  95   2.0000      -6.043462      -164.4510
  96   2.0000      -6.043445      -164.4505
  97   2.0000      -6.039627      -164.3466
  98   2.0000      -6.039547      -164.3444
  99   2.0000      -6.034664      -164.2116
 100   2.0000      -6.034592      -164.2096
 101   2.0000      -6.033036      -164.1673
 102   2.0000      -6.029189      -164.0626
 103   2.0000      -6.024958      -163.9474
 104   2.0000      -6.022314      -163.8755
 105   2.0000      -6.018017      -163.7586
 106   2.0000      -6.014195      -163.6546
 107   2.0000      -1.350592       -36.7515
 108   2.0000      -1.338480       -36.4219
 109   2.0000      -1.336177       -36.3592
 110   2.0000      -1.335057       -36.3288
 111   2.0000      -1.332802       -36.2674
 112   2.0000      -1.328240       -36.1432
 113   2.0000      -1.320289       -35.9269
 114   2.0000      -1.317187       -35.8425
 115   2.0000      -1.316069       -35.8121
 116   2.0000      -1.313247       -35.7353
 117   2.0000      -1.155460       -31.4417
 118   2.0000      -1.153218       -31.3806
 119   2.0000      -1.144448       -31.1420
 120   2.0000      -1.120435       -30.4886
 121   2.0000      -1.084244       -29.5038
 122   2.0000      -1.078081       -29.3361
 123   2.0000      -1.046722       -28.4828
 124   2.0000      -1.031339       -28.0642
 125   2.0000      -1.031264       -28.0621
 126   2.0000      -1.014450       -27.6046
 127   2.0000      -1.014020       -27.5929
 128   2.0000      -1.005473       -27.3603
 129   2.0000      -1.004739       -27.3403
 130   2.0000      -1.004159       -27.3245
 131   2.0000      -1.002764       -27.2866
 132   2.0000      -0.997740       -27.1499
 133   2.0000      -0.992371       -27.0038
 134   2.0000      -0.992034       -26.9946
 135   2.0000      -0.988920       -26.9099
 136   2.0000      -0.977750       -26.6059
 137   2.0000      -0.969840       -26.3907
 138   2.0000      -0.948530       -25.8108
 139   2.0000      -0.942996       -25.6602
 140   2.0000      -0.935962       -25.4688
 141   2.0000      -0.930689       -25.3253
 142   2.0000      -0.913872       -24.8677
 143   2.0000      -0.909068       -24.7370
 144   2.0000      -0.901322       -24.5262
 145   2.0000      -0.901185       -24.5225
 146   2.0000      -0.890670       -24.2364
 147   2.0000      -0.889436       -24.2028
 148   2.0000      -0.881148       -23.9772
 149   2.0000      -0.871346       -23.7105
 150   2.0000      -0.861751       -23.4494
 151   2.0000      -0.857897       -23.3446
 152   2.0000      -0.850232       -23.1360
 153   2.0000      -0.850020       -23.1302
 154   2.0000      -0.839848       -22.8534
 155   2.0000      -0.832359       -22.6496
 156   2.0000      -0.822989       -22.3947
 157   2.0000      -0.821332       -22.3496
 158   2.0000      -0.816811       -22.2265
 159   2.0000      -0.809081       -22.0162
 160   2.0000      -0.802839       -21.8463
 161   2.0000      -0.780218       -21.2308
 162   2.0000      -0.779483       -21.2108
 163   2.0000      -0.777036       -21.1442
 164   2.0000      -0.771522       -20.9942
 165   2.0000      -0.756154       -20.5760
 166   2.0000      -0.753602       -20.5066
 167   2.0000      -0.743442       -20.2301
 168   2.0000      -0.735615       -20.0171
 169   2.0000      -0.728894       -19.8342
 170   2.0000      -0.727669       -19.8009
 171   2.0000      -0.725309       -19.7366
 172   2.0000      -0.718733       -19.5577
 173   2.0000      -0.717133       -19.5142
 174   2.0000      -0.713328       -19.4106
 175   2.0000      -0.704624       -19.1738
 176   2.0000      -0.694915       -18.9096
 177   2.0000      -0.694158       -18.8890
 178   2.0000      -0.692594       -18.8464
 179   2.0000      -0.690127       -18.7793
 180   2.0000      -0.684525       -18.6269
 181   2.0000      -0.678973       -18.4758
 182   2.0000      -0.675844       -18.3906
 183   2.0000      -0.672090       -18.2885
 184   2.0000      -0.669680       -18.2229
 185   2.0000      -0.666861       -18.1462
 186   2.0000      -0.663898       -18.0656
 187   2.0000      -0.661673       -18.0050
 188   2.0000      -0.653124       -17.7724
 189   2.0000      -0.651958       -17.7407
 190   2.0000      -0.645610       -17.5679
 191   2.0000      -0.644966       -17.5504
 192   2.0000      -0.636960       -17.3326
 193   2.0000      -0.634603       -17.2684
 194   2.0000      -0.630260       -17.1502
 195   2.0000      -0.628036       -17.0897
 196   2.0000      -0.625396       -17.0179
 197   2.0000      -0.625131       -17.0107
 198   2.0000      -0.620039       -16.8721
 199   2.0000      -0.618313       -16.8251
 200   2.0000      -0.617577       -16.8051
 201   2.0000      -0.603726       -16.4282
 202   2.0000      -0.602137       -16.3850
 203   2.0000      -0.601098       -16.3567
 204   2.0000      -0.598460       -16.2849
 205   2.0000      -0.596559       -16.2332
 206   2.0000      -0.595882       -16.2148
 207   2.0000      -0.594626       -16.1806
 208   2.0000      -0.592481       -16.1222
 209   2.0000      -0.590459       -16.0672
 210   2.0000      -0.587138       -15.9768
 211   2.0000      -0.586386       -15.9564
 212   2.0000      -0.584291       -15.8994
 213   2.0000      -0.577740       -15.7211
 214   2.0000      -0.576953       -15.6997
 215   2.0000      -0.571691       -15.5565
 216   2.0000      -0.567371       -15.4389
 217   2.0000      -0.565458       -15.3869
 218   2.0000      -0.563523       -15.3342
 219   2.0000      -0.560235       -15.2448
 220   2.0000      -0.559572       -15.2267
 221   2.0000      -0.557762       -15.1775
 222   2.0000      -0.556722       -15.1492
 223   2.0000      -0.555463       -15.1149
 224   2.0000      -0.553949       -15.0737
 225   2.0000      -0.553886       -15.0720
 226   2.0000      -0.551929       -15.0188
 227   2.0000      -0.549020       -14.9396
 228   2.0000      -0.544746       -14.8233
 229   2.0000      -0.542341       -14.7578
 230   2.0000      -0.539931       -14.6923
 231   2.0000      -0.539574       -14.6825
 232   2.0000      -0.537423       -14.6240
 233   2.0000      -0.537109       -14.6155
 234   2.0000      -0.535420       -14.5695
 235   2.0000      -0.533073       -14.5057
 236   2.0000      -0.530463       -14.4346
 237   2.0000      -0.527815       -14.3626
 238   2.0000      -0.526386       -14.3237
 239   2.0000      -0.523520       -14.2457
 240   2.0000      -0.521831       -14.1997
 241   2.0000      -0.521139       -14.1809
 242   2.0000      -0.517548       -14.0832
 243   2.0000      -0.516299       -14.0492
 244   2.0000      -0.512347       -13.9417
 245   2.0000      -0.509332       -13.8596
 246   2.0000      -0.508763       -13.8442
 247   2.0000      -0.505561       -13.7570
 248   2.0000      -0.504618       -13.7314
 249   2.0000      -0.502330       -13.6691
 250   2.0000      -0.499156       -13.5827
 251   2.0000      -0.496646       -13.5144
 252   2.0000      -0.496144       -13.5008
 253   2.0000      -0.493839       -13.4380
 254   2.0000      -0.485549       -13.2125
 255   2.0000      -0.482027       -13.1166
 256   2.0000      -0.480249       -13.0682
 257   2.0000      -0.479048       -13.0356
 258   2.0000      -0.477441       -12.9918
 259   2.0000      -0.474592       -12.9143
 260   2.0000      -0.472859       -12.8671
 261   2.0000      -0.469891       -12.7864
 262   2.0000      -0.469622       -12.7791
 263   2.0000      -0.460439       -12.5292
 264   2.0000      -0.458576       -12.4785
 265   2.0000      -0.457254       -12.4425
 266   2.0000      -0.454879       -12.3779
 267   2.0000      -0.454355       -12.3636
 268   2.0000      -0.453601       -12.3431
 269   2.0000      -0.453132       -12.3304
 270   2.0000      -0.452011       -12.2999
 271   2.0000      -0.450128       -12.2486
 272   2.0000      -0.447880       -12.1874
 273   2.0000      -0.446799       -12.1580
 274   2.0000      -0.443757       -12.0753
 275   2.0000      -0.439940       -11.9714
 276   2.0000      -0.437638       -11.9087
 277   2.0000      -0.437300       -11.8995
 278   2.0000      -0.436562       -11.8794
 279   2.0000      -0.432450       -11.7676
 280   2.0000      -0.431455       -11.7405
 281   2.0000      -0.428659       -11.6644
 282   2.0000      -0.428082       -11.6487
 283   2.0000      -0.421573       -11.4716
 284   2.0000      -0.419551       -11.4166
 285   2.0000      -0.417704       -11.3663
 286   2.0000      -0.414142       -11.2694
 287   2.0000      -0.410546       -11.1715
 288   2.0000      -0.408024       -11.1029
 289   2.0000      -0.402083       -10.9412
 290   2.0000      -0.399083       -10.8596
 291   2.0000      -0.395437       -10.7604
 292   2.0000      -0.389728       -10.6050
 293   2.0000      -0.383013       -10.4223
 294   2.0000      -0.381988       -10.3944
 295   2.0000      -0.379074       -10.3151
 296   2.0000      -0.366639        -9.9767
 297   2.0000      -0.362281        -9.8582
 298   2.0000      -0.359962        -9.7951
 299   2.0000      -0.356315        -9.6958
 300   2.0000      -0.352466        -9.5911
 301   2.0000      -0.344551        -9.3757
 302   2.0000      -0.341696        -9.2980
 303   2.0000      -0.338708        -9.2167
 304   2.0000      -0.335634        -9.1331
 305   2.0000      -0.330656        -8.9976
 306   2.0000      -0.327493        -8.9115
 307   2.0000      -0.326787        -8.8923
 308   2.0000      -0.312478        -8.5030
 309   2.0000      -0.309045        -8.4095
 310   2.0000      -0.298356        -8.1187
 311   2.0000      -0.293528        -7.9873
 312   2.0000      -0.286517        -7.7965
 313   2.0000      -0.269911        -7.3446
 314   0.0000      -0.116084        -3.1588
 315   0.0000      -0.108751        -2.9593
 316   0.0000      -0.099353        -2.7035
 317   0.0000      -0.076240        -2.0746
 318   0.0000      -0.071106        -1.9349

MULLIKEN ATOMIC CHARGES
-----------------------
   0 C :   -0.109728
   1 C :    0.250464
   2 F :   -0.169584
   3 C :    0.231599
   4 F :   -0.176963
   5 C :   -0.100769
   6 C :    0.113741
   7 C :    0.109337
   8 C :   -0.080310
   9 C :    0.052871
  10 C :    0.010767
  11 C :   -0.086138
  12 C :    0.170866
  13 O :   -0.189903
  14 C :   -0.072191
  15 C :    0.295434
  16 C :   -0.342034
  17 C :   -0.181023
  18 N :    0.154164
  19 C :   -0.203488
  20 N :    0.173413
  21 C :    0.050716
  22 C :   -0.117807
  23 C :    0.029901
  24 C :    0.048936
  25 C :    0.063322
  26 C :    0.065052
  27 C :   -0.167001
  28 N :   -0.003441
  29 C :   -0.130983
  30 S :    0.152629
  31 S :    0.140651
  32 C :    0.058656
  33 C :    0.235111
  34 F :   -0.177380
  35 F :   -0.146743
  36 C :    0.021543
  37 C :   -0.049514
  38 C :   -0.064615
  39 N :   -0.019358
  40 C :    0.147565
  41 C :    0.136350
  42 N :    0.027614
  43 F :   -0.134412
  44 F :   -0.129727
  45 C :    0.152043
  46 C :    0.013993
  47 C :   -0.046940
  48 N :   -0.252564
  49 S :    0.582676
  50 N :   -0.301502
  51 C :   -0.149531
  52 C :   -0.048614
  53 C :    0.127304
  54 C :    0.047002
  55 C :    0.031659
  56 C :   -0.162997
  57 N :    0.007515
  58 C :   -0.115642
  59 S :    0.178653
  60 S :    0.147722
  61 C :    0.064740
  62 C :    0.223594
  63 F :   -0.180875
  64 F :   -0.144569
  65 C :   -0.016995
  66 C :   -0.089897
  67 C :    0.152101
  68 O :   -0.162829
  69 C :    0.023285
  70 C :   -0.086492
  71 C :    0.109605
  72 C :    0.114722
  73 C :   -0.106475
  74 C :    0.243406
  75 C :    0.240845
  76 C :   -0.101520
  77 F :   -0.168403
  78 F :   -0.167248
  79 C :   -0.082600
  80 C :    0.047704
  81 C :    0.275920
  82 C :   -0.330449
  83 C :   -0.186257
  84 N :    0.165262
  85 C :   -0.183412
  86 N :    0.177493
  87 H :    0.008190
  88 H :    0.002432
  89 H :   -0.004191
  90 H :   -0.014326
  91 H :    0.019692
  92 H :    0.024603
  93 H :    0.000117
  94 H :    0.034639
  95 H :   -0.012971
  96 H :    0.008026
  97 H :    0.004830
  98 H :   -0.000063
Sum of atomic charges:   -0.0000000

LOEWDIN ATOMIC CHARGES
----------------------
   0 C :   -0.030776
   1 C :    0.068577
   2 F :   -0.047629
   3 C :    0.063960
   4 F :   -0.050736
   5 C :   -0.026953
   6 C :   -0.009448
   7 C :   -0.004116
   8 C :    0.019350
   9 C :   -0.022720
  10 C :   -0.056819
  11 C :    0.033391
  12 C :    0.096752
  13 O :   -0.171717
  14 C :   -0.088574
  15 C :    0.073993
  16 C :   -0.132122
  17 C :   -0.016805
  18 N :   -0.046787
  19 C :   -0.028125
  20 N :   -0.039100
  21 C :    0.060020
  22 C :   -0.170745
  23 C :    0.014764
  24 C :   -0.059428
  25 C :    0.033157
  26 C :   -0.070409
  27 C :   -0.118890
  28 N :   -0.093716
  29 C :   -0.123609
  30 S :    0.425979
  31 S :    0.420628
  32 C :   -0.094686
  33 C :    0.003855
  34 F :   -0.049865
  35 F :   -0.037001
  36 C :   -0.034042
  37 C :   -0.001984
  38 C :   -0.012206
  39 N :   -0.050736
  40 C :    0.064098
  41 C :    0.061011
  42 N :   -0.036848
  43 F :   -0.023425
  44 F :   -0.018963
  45 C :   -0.026185
  46 C :   -0.037547
  47 C :   -0.042920
  48 N :   -0.283397
  49 S :    0.735428
  50 N :   -0.290547
  51 C :   -0.144525
  52 C :   -0.037522
  53 C :   -0.046526
  54 C :   -0.012698
  55 C :   -0.078302
  56 C :   -0.124898
  57 N :   -0.077279
  58 C :   -0.129479
  59 S :    0.460086
  60 S :    0.427119
  61 C :   -0.089763
  62 C :   -0.007094
  63 F :   -0.050305
  64 F :   -0.035168
  65 C :    0.068933
  66 C :   -0.069914
  67 C :    0.099352
  68 O :   -0.149166
  69 C :   -0.060195
  70 C :    0.036311
  71 C :   -0.009297
  72 C :   -0.002570
  73 C :   -0.029975
  74 C :    0.070339
  75 C :    0.068074
  76 C :   -0.029178
  77 F :   -0.046083
  78 F :   -0.045097
  79 C :    0.017673
  80 C :   -0.016296
  81 C :    0.066818
  82 C :   -0.127505
  83 C :   -0.018690
  84 N :   -0.042458
  85 C :   -0.018978
  86 N :   -0.038908
  87 H :    0.048242
  88 H :    0.042706
  89 H :    0.040556
  90 H :    0.038456
  91 H :    0.046437
  92 H :    0.031070
  93 H :    0.028198
  94 H :    0.049641
  95 H :    0.035621
  96 H :    0.048272
  97 H :    0.047256
  98 H :    0.041320

  Mayer bond orders larger than 0.100000
B(  0-C ,  1-C ) :   1.4418 B(  0-C ,  5-C ) :   0.1109 B(  0-C ,  7-C ) :   1.1929
B(  0-C , 87-H ) :   1.0079 B(  1-C ,  2-F ) :   1.1376 B(  1-C ,  3-C ) :   1.1946
B(  3-C ,  4-F ) :   1.0870 B(  3-C ,  5-C ) :   1.4474 B(  5-C ,  6-C ) :   1.1855
B(  5-C , 88-H ) :   0.9928 B(  6-C ,  7-C ) :   1.2473 B(  6-C , 11-C ) :   1.2047
B(  7-C ,  8-C ) :   1.2173 B(  8-C ,  9-C ) :   1.4514 B(  8-C , 89-H ) :   0.9904
B(  9-C , 10-C ) :   1.2185 B(  9-C , 15-C ) :   0.9868 B( 10-C , 11-C ) :   1.4405
B( 10-C , 12-C ) :   0.9696 B( 11-C , 90-H ) :   1.0194 B( 12-C , 13-O ) :   2.0746
B( 12-C , 14-C ) :   0.9593 B( 14-C , 15-C ) :   1.0614 B( 14-C , 21-C ) :   1.6003
B( 15-C , 16-C ) :   1.6511 B( 16-C , 17-C ) :   1.1444 B( 16-C , 19-C ) :   1.1329
B( 17-C , 18-N ) :   2.9682 B( 19-C , 20-N ) :   2.9949 B( 21-C , 22-C ) :   1.1959
B( 21-C , 91-H ) :   0.9234 B( 22-C , 23-C ) :   1.5084 B( 22-C , 30-S ) :   1.0573
B( 23-C , 24-C ) :   1.1953 B( 23-C , 92-H ) :   0.9657 B( 24-C , 25-C ) :   1.3545
B( 24-C , 29-C ) :   1.1847 B( 25-C , 26-C ) :   1.4426 B( 25-C , 36-C ) :   0.9287
B( 26-C , 27-C ) :   1.1512 B( 26-C , 33-C ) :   1.0637 B( 27-C , 28-N ) :   1.5682
B( 27-C , 31-S ) :   1.0844 B( 28-N , 29-C ) :   1.5302 B( 29-C , 30-S ) :   1.0992
B( 31-S , 32-C ) :   1.0723 B( 32-C , 33-C ) :   1.5194 B( 32-C , 35-F ) :   1.1451
B( 33-C , 34-F ) :   1.1302 B( 36-C , 37-C ) :   1.4059 B( 36-C , 45-C ) :   0.1405
B( 36-C , 47-C ) :   1.2908 B( 37-C , 38-C ) :   1.1200 B( 37-C , 42-N ) :   1.4060
B( 38-C , 39-N ) :   1.3905 B( 38-C , 45-C ) :   1.3036 B( 39-N , 40-C ) :   1.6818
B( 40-C , 41-C ) :   1.0837 B( 40-C , 44-F ) :   1.1899 B( 41-C , 42-N ) :   1.6994
B( 41-C , 43-F ) :   1.1838 B( 45-C , 46-C ) :   1.2195 B( 45-C , 51-C ) :   1.1408
B( 46-C , 47-C ) :   1.0984 B( 46-C , 50-N ) :   1.4592 B( 47-C , 48-N ) :   1.4969
B( 48-N , 49-S ) :   1.3407 B( 48-N , 50-N ) :   0.1428 B( 49-S , 50-N ) :   1.3256
B( 51-C , 52-C ) :   1.5328 B( 51-C , 59-S ) :   1.0842 B( 52-C , 53-C ) :   1.1773
B( 52-C , 93-H ) :   0.9743 B( 53-C , 54-C ) :   1.3204 B( 53-C , 58-C ) :   1.1819
B( 54-C , 55-C ) :   1.3464 B( 54-C , 65-C ) :   1.0215 B( 55-C , 56-C ) :   1.1660
B( 55-C , 62-C ) :   1.0972 B( 56-C , 57-N ) :   1.5832 B( 56-C , 60-S ) :   1.0708
B( 57-N , 58-C ) :   1.5332 B( 58-C , 59-S ) :   1.0596 B( 60-S , 61-C ) :   1.0981
B( 61-C , 62-C ) :   1.4903 B( 61-C , 64-F ) :   1.1494 B( 62-C , 63-F ) :   1.1127
B( 65-C , 66-C ) :   1.7692 B( 65-C , 94-H ) :   0.9263 B( 66-C , 67-C ) :   0.9504
B( 66-C , 81-C ) :   0.9957 B( 67-C , 68-O ) :   2.1510 B( 67-C , 69-C ) :   0.9289
B( 69-C , 70-C ) :   1.4507 B( 69-C , 80-C ) :   1.2134 B( 70-C , 71-C ) :   1.2078
B( 70-C , 95-H ) :   1.0125 B( 71-C , 72-C ) :   1.2477 B( 71-C , 76-C ) :   1.1938
B( 72-C , 73-C ) :   1.1899 B( 72-C , 79-C ) :   1.2152 B( 73-C , 74-C ) :   1.4424
B( 73-C , 76-C ) :   0.1084 B( 73-C , 96-H ) :   1.0068 B( 74-C , 75-C ) :   1.1892
B( 74-C , 78-F ) :   1.1386 B( 75-C , 76-C ) :   1.4417 B( 75-C , 77-F ) :   1.1362
B( 76-C , 97-H ) :   1.0076 B( 79-C , 80-C ) :   1.4576 B( 79-C , 98-H ) :   0.9943
B( 80-C , 81-C ) :   1.0077 B( 81-C , 82-C ) :   1.6772 B( 82-C , 83-C ) :   1.1298
B( 82-C , 85-C ) :   1.1715 B( 83-C , 84-N ) :   2.9914 B( 85-C , 86-N ) :   2.9871

-----------------------------------------------------------------------------
         ABSORPTION SPECTRUM VIA TRANSITION ELECTRIC DIPOLE MOMENTS
-----------------------------------------------------------------------------
State   Energy  Wavelength   fosc         T2         TX        TY        TZ
        (cm-1)    (nm)                  (au**2)     (au)      (au)      (au)
-----------------------------------------------------------------------------
   0   16838.4    593.9   0.485238471   9.48701  -2.52200   1.33037  -1.16476
   1   19988.0    500.3   0.008589565   0.14147  -0.22672   0.17028  -0.24713
   2   20201.7    495.0   0.377100995   6.14534   1.27328   0.37738  -2.09325
   3   21519.7    464.7   0.015364058   0.23504  -0.11064  -0.23773   0.40778
   4   22174.6    451.0   0.119738484   1.77768   0.91529  -0.60754   0.75553
   5   23730.9    421.4   0.043752672   0.60697   0.70979  -0.28706   0.14409
   6   23925.7    418.0   0.613336339   8.43938  -2.43253   0.11011   1.58432
   7   24259.4    412.2   0.040692512   0.55222   0.61733   0.05345  -0.41020
   8   24813.1    403.0   0.145777200   1.93412  -1.31964   0.11823   0.42271
   9   27142.5    368.4   0.144735927   1.75550   1.15258  -0.35030  -0.55168
  10   27272.1    366.7   0.035911570   0.43350   0.34840  -0.53312  -0.16704
  11   27844.3    359.1   0.047756648   0.56464   0.49893  -0.54973   0.11621
  12   28248.2    354.0   0.032997282   0.38456  -0.27212   0.40859   0.37890
  13   28340.3    352.9   0.005024313   0.05836   0.11749  -0.08447  -0.19346
  14   28891.4    346.1   0.003937950   0.04487   0.16677  -0.08933   0.09529
  15   29126.7    343.3   0.002818495   0.03186  -0.17699  -0.02201   0.00690
  16   29425.1    339.8   0.153713404   1.71977  -0.92688   0.35494   0.85714
  17   29614.6    337.7   0.023138396   0.25722  -0.37879  -0.20883  -0.26482
  18   29896.5    334.5   0.014919052   0.16428   0.12734  -0.31725  -0.21776
  19   30100.4    332.2   0.052428230   0.57341  -0.46859   0.10624   0.58528
  20   30539.5    327.4   0.180669354   1.94759  -0.22151  -0.04024  -1.37728
  21   30712.9    325.6   0.054561160   0.58484  -0.47981   0.59492  -0.02633
  22   30840.3    324.3   0.006701419   0.07154  -0.07435  -0.21204   0.14508
  23   30970.0    322.9   0.386880127   4.11255  -1.16607   1.18340   1.16293
  24   31131.4    321.2   0.049638424   0.52492  -0.59139   0.27519  -0.31536
  25   31457.3    317.9   0.065635034   0.68689  -0.66565   0.49371   0.00761
  26   31545.2    317.0   0.028200334   0.29430   0.39966  -0.03249  -0.36540
  27   32311.2    309.5   0.063009224   0.64199  -0.70998   0.27140   0.25350
  28   32614.6    306.6   0.140115480   1.41432   0.87999  -0.60763   0.52032
  29   32775.5    305.1   0.086775012   0.87161  -0.36568   0.81556  -0.26972
  30   32890.4    304.0   0.008501789   0.08510   0.02989  -0.20682  -0.20354
  31   33275.2    300.5   0.078158992   0.77327  -0.32879   0.68226   0.44686
  32   33357.2    299.8   0.183143667   1.80750  -0.82976   0.95463  -0.45572
  33   33520.1    298.3   0.143813633   1.41244   0.85355  -0.68521   0.46301
  34   33647.2    297.2   0.162776481   1.59264   0.63012  -0.45899  -0.99243
  35   33737.0    296.4   0.090415071   0.88229  -0.23731  -0.54271  -0.72900
  36   33760.9    296.2   0.413825910   4.03533   1.25349  -1.24013  -0.96237
  37   33906.9    294.9   0.008721239   0.08468  -0.06769   0.17057  -0.22583
  38   34023.0    293.9   0.341055451   3.30010  -1.38071   1.14916   0.27051
  39   34175.1    292.6   0.018325300   0.17653   0.11190  -0.25047  -0.31823
  40   34334.5    291.3   0.118775926   1.13887   0.75628  -0.52193   0.54267
  41   34648.2    288.6   0.029911147   0.28420   0.32336  -0.33185  -0.26365
  42   34933.2    286.3   0.087215010   0.82192  -0.12092   0.58463  -0.68228
  43   35042.4    285.4   0.011483724   0.10789  -0.21950   0.15555   0.18844
  44   35230.3    283.8   0.319861332   2.98897   1.57642  -0.20780  -0.67874
  45   35406.3    282.4   0.126029152   1.17183  -0.89722   0.35986   0.48716
  46   35491.7    281.8   0.104479945   0.96913  -0.74433   0.27233   0.58390
  47   35662.9    280.4   0.028510387   0.26319  -0.03080   0.29201  -0.42068
  48   35786.9    279.4   0.033325536   0.30657   0.06817  -0.32373   0.44398
  49   36111.0    276.9   0.173548332   1.58218   0.66959  -0.51691  -0.93093
  50   36284.1    275.6   0.065798858   0.59700  -0.30352   0.41547   0.57643
  51   36598.1    273.2   0.098552268   0.88651  -0.27673  -0.47470   0.76458
  52   36694.2    272.5   0.052602579   0.47194   0.57938   0.02742   0.36811
  53   36980.8    270.4   0.199645839   1.77729   0.99686  -0.87866   0.10733
  54   37018.1    270.1   0.007204973   0.06408  -0.03618  -0.02465  -0.24932
  55   37282.3    268.2   0.019731524   0.17423  -0.18159   0.15409   0.34280
  56   37349.4    267.7   0.040011890   0.35268  -0.35888   0.12435   0.45653
  57   37449.6    267.0   0.049571931   0.43578   0.64998   0.03286  -0.11055
  58   37736.4    265.0   0.029968510   0.26144   0.10804   0.19419  -0.46050
  59   37888.4    263.9   0.007720833   0.06709  -0.11898  -0.21383   0.08491
  60   38203.4    261.8   0.122338700   1.05423  -0.93986   0.21784   0.35134
  61   38343.1    260.8   0.074825785   0.64245  -0.64357  -0.11553  -0.46360
  62   38371.3    260.6   0.014986561   0.12858  -0.26155   0.24452  -0.01956
  63   38429.1    260.2   0.028612214   0.24511  -0.16694   0.45308  -0.10936
  64   38610.8    259.0   0.060998609   0.52010   0.69623   0.02015  -0.18697
  65   38835.4    257.5   0.066092547   0.56027   0.49895  -0.40370   0.38516
  66   38997.1    256.4   0.082077728   0.69290  -0.77369  -0.28419  -0.11638
  67   39200.5    255.1   0.275583895   2.31440   0.41572   0.59278  -1.33798
  68   39501.9    253.2   0.137957840   1.14975  -0.82258   0.63660   0.26050
  69   39560.3    252.8   0.011446267   0.09525  -0.21745  -0.07181  -0.20691
  70   39686.2    252.0   0.232271301   1.92678  -1.16047   0.51693   0.55935
  71   39741.2    251.6   0.115040697   0.95299  -0.11013  -0.68152   0.69021
  72   40187.9    248.8   0.321838443   2.63644   1.47301  -0.09561  -0.67642

FINAL SINGLE POINT ENERGY     -5975.483392666207

DIPOLE MOMENT
-------------
                                X             Y             Z
Electronic contribution:     18.54974       1.48531     -33.46352
Nuclear contribution   :    -18.15790       1.10146      33.75736
                        -----------------------------------------
Total Dipole Moment    :      0.39184       2.58677       0.29384
                        -----------------------------------------
Magnitude (a.u.)       :      2.63273
Magnitude (Debye)      :      6.69187

Rotational constants in cm-1:     0.000808     0.000411     0.000291
Rotational constants in MHz :    24.232634    12.325056     8.724193

                             ****ORCA TERMINATED NORMALLY****
TOTAL RUN TIME: 0 days 0 hours 13 minutes 14 seconds 106 msec
