                         Program Version 4.2.0 -  RELEASE  -
|  1> # ORCA input file
|  2> # SCF done       -186.864965033397          0.000543262684
|  3> ! CAM-B3LYP def2-SVP def2/J RIJCOSX Grid4 TightSCF
|  4> %maxcore 5000
|  5> %tddft
|  6>     Mode sTDDFT
|  7>     Ethresh 5.0
|  8>     maxcore 5000
|  9> end
| 10>
| 11> %pal
| 12>   nprocs 6
| 13>   end
| 14> * xyz 0 1
| 15>    O       16.23749         5.02520         9.91429
| 16>    N       15.36432         6.01288        10.11337
| 17>    C       14.64881         6.15128         9.02331
| 18>    C       13.62262         7.11410         8.89359
| 19>    N       12.78992         7.88844         8.77941
| 20>    C       15.06511         5.20286         8.03693
| 21>    C       16.08436         4.51979         8.68322
| 22>    C       16.89038         3.45995         8.22565
| 23>    N       17.53702         2.60133         7.83314
| 24>    C       14.52367         5.02402         6.69120
| 25>    O       13.63290         5.68123         6.20871
| 26>    O       15.14719         4.02254         6.04992
| 27>    C       14.76541         3.70334         4.78880
| 28>    C       15.33236         2.68476         4.06450
| 29>    C       14.72932         2.58691         2.80466
| 30>    C       13.71785         3.54144         2.60804
| 31>    S       13.49142         4.56682         3.95886
| 32>    C       13.16383         3.35535         1.31582
| 33>    C       13.82852         2.27775         0.69685
| 34>    C       14.83738         1.76263         1.61205
| 35>    C       15.69876         0.72825         1.39845
| 36>    C       16.63665         0.31840         2.37061
| 37>    N       17.40094        -0.02024         3.15506
| 38>    C       15.71941        -0.00801         0.19364
| 39>    N       15.75407        -0.61752        -0.77629
| 40>    C       13.34540         2.00515        -0.57637
| 41>    C       12.31623         2.86609        -0.93987
| 42>    S       11.95401         4.03469         0.32544
| 43>    C       11.56145         2.89319        -2.14549
| 44>    C       11.72111         1.98362        -3.21894
| 45>    C       10.89887         2.05929        -4.39452
| 46>    N       11.07997         1.16737        -5.39027
| 47>    C       11.98899         0.25522        -5.28231
| 48>    C       12.80262         0.18058        -4.12017
| 49>    N       12.65897         1.01549        -3.14406
| 50>    F       13.73709        -0.75407        -4.00586
| 51>    F       12.13572        -0.60162        -6.28601
| 52>    C        9.88845         3.02973        -4.57838
| 53>    C        9.73722         3.94951        -3.51574
| 54>    C       10.55711         3.87029        -2.33320
| 55>    N       10.24557         4.82444        -1.45461
| 56>    S        9.05538         5.72529        -2.04531
| 57>    N        8.86876         4.95971        -3.43769
| 58>    C        9.08262         3.06067        -5.74769
| 59>    C        8.08235         3.98231        -6.03702
| 60>    C        7.47321         3.72179        -7.25628
| 61>    C        8.00870         2.59029        -7.90242
| 62>    S        9.26897         1.85843        -7.01148
| 63>    C        7.31034         2.41281        -9.12525
| 64>    C        6.34556         3.42439        -9.25231
| 65>    C        6.41209         4.28170        -8.08247
| 66>    C        5.64635         5.37468        -7.80269
| 67>    C        5.81509         6.12522        -6.61896
| 68>    N        5.94298         6.74280        -5.66146
| 69>    C        4.62836         5.83387        -8.66643
| 70>    N        3.79287         6.21599        -9.35178
| 71>    C        5.59738         3.33027       -10.43749
| 72>    C        6.00719         2.25240       -11.17376
| 73>    S        7.31008         1.33198       -10.45130
| 74>    O        5.57314         1.75787       -12.36522
| 75>    C        4.69716         2.41138       -13.15354
| 76>    O        4.20663         3.48423       -12.93002
| 77>    C        4.42595         1.60174       -14.34941
| 78>    C        4.88176         0.28878       -14.68593
| 79>    N        4.40072        -0.07380       -15.85099
| 80>    O        3.64833         0.92386       -16.31578
| 81>    C        3.64192         1.93859       -15.44093
| 82>    C        2.91603         3.11594       -15.71049
| 83>    N        2.32832         4.07081       -15.93646
| 84>    C        5.72177        -0.53824       -13.90756
| 85>    N        6.39986        -1.18402       -13.25144
| 86>    H       16.12536         2.06714         4.44320
| 87>    H       13.69888         1.22907        -1.22844
| 88>    H        7.83831         4.78693        -5.36841
| 89>    H        4.81369         4.00049       -10.74068
| 90> *
| 91>
| 92>                          ****END OF INPUT****

CARTESIAN COORDINATES (ANGSTROEM)
---------------------------------
  O     16.237490    5.025200    9.914290
  N     15.364320    6.012880   10.113370
  C     14.648810    6.151280    9.023310
  C     13.622620    7.114100    8.893590
  N     12.789920    7.888440    8.779410
  C     15.065110    5.202860    8.036930
  C     16.084360    4.519790    8.683220
  C     16.890380    3.459950    8.225650
  N     17.537020    2.601330    7.833140
  C     14.523670    5.024020    6.691200
  O     13.632900    5.681230    6.208710
  O     15.147190    4.022540    6.049920
  C     14.765410    3.703340    4.788800
  C     15.332360    2.684760    4.064500
  C     14.729320    2.586910    2.804660
  C     13.717850    3.541440    2.608040
  S     13.491420    4.566820    3.958860
  C     13.163830    3.355350    1.315820
  C     13.828520    2.277750    0.696850
  C     14.837380    1.762630    1.612050
  C     15.698760    0.728250    1.398450
  C     16.636650    0.318400    2.370610
  N     17.400940   -0.020240    3.155060
  C     15.719410   -0.008010    0.193640
  N     15.754070   -0.617520   -0.776290
  C     13.345400    2.005150   -0.576370
  C     12.316230    2.866090   -0.939870
  S     11.954010    4.034690    0.325440
  C     11.561450    2.893190   -2.145490
  C     11.721110    1.983620   -3.218940
  C     10.898870    2.059290   -4.394520
  N     11.079970    1.167370   -5.390270
  C     11.988990    0.255220   -5.282310
  C     12.802620    0.180580   -4.120170
  N     12.658970    1.015490   -3.144060
  F     13.737090   -0.754070   -4.005860
  F     12.135720   -0.601620   -6.286010
  C      9.888450    3.029730   -4.578380
  C      9.737220    3.949510   -3.515740
  C     10.557110    3.870290   -2.333200
  N     10.245570    4.824440   -1.454610
  S      9.055380    5.725290   -2.045310
  N      8.868760    4.959710   -3.437690
  C      9.082620    3.060670   -5.747690
  C      8.082350    3.982310   -6.037020
  C      7.473210    3.721790   -7.256280
  C      8.008700    2.590290   -7.902420
  S      9.268970    1.858430   -7.011480
  C      7.310340    2.412810   -9.125250
  C      6.345560    3.424390   -9.252310
  C      6.412090    4.281700   -8.082470
  C      5.646350    5.374680   -7.802690
  C      5.815090    6.125220   -6.618960
  N      5.942980    6.742800   -5.661460
  C      4.628360    5.833870   -8.666430
  N      3.792870    6.215990   -9.351780
  C      5.597380    3.330270  -10.437490
  C      6.007190    2.252400  -11.173760
  S      7.310080    1.331980  -10.451300
  O      5.573140    1.757870  -12.365220
  C      4.697160    2.411380  -13.153540
  O      4.206630    3.484230  -12.930020
  C      4.425950    1.601740  -14.349410
  C      4.881760    0.288780  -14.685930
  N      4.400720   -0.073800  -15.850990
  O      3.648330    0.923860  -16.315780
  C      3.641920    1.938590  -15.440930
  C      2.916030    3.115940  -15.710490
  N      2.328320    4.070810  -15.936460
  C      5.721770   -0.538240  -13.907560
  N      6.399860   -1.184020  -13.251440
  H     16.125360    2.067140    4.443200
  H     13.698880    1.229070   -1.228440
  H      7.838310    4.786930   -5.368410
  H      4.813690    4.000490  -10.740680

 Total Charge           Charge          ....    0
 Multiplicity           Mult            ....    1
 Number of Electrons    NEL             ....  512
 Basis Dimension        Dim             .... 1034

ORBITAL ENERGIES
----------------

  NO   OCC          E(Eh)            E(eV)
   0   2.0000     -89.051551     -2423.2159
   1   2.0000     -88.997713     -2421.7509
   2   2.0000     -88.997400     -2421.7424
   3   2.0000     -88.984258     -2421.3848
   4   2.0000     -88.982894     -2421.3477
   5   2.0000     -24.826224      -675.5559
   6   2.0000     -24.819295      -675.3674
   7   2.0000     -19.392020      -527.6837
   8   2.0000     -19.387200      -527.5525
   9   2.0000     -19.339465      -526.2536
  10   2.0000     -19.330380      -526.0064
  11   2.0000     -19.269763      -524.3569
  12   2.0000     -19.257729      -524.0295
  13   2.0000     -14.532604      -395.4523
  14   2.0000     -14.528814      -395.3491
  15   2.0000     -14.466901      -393.6644
  16   2.0000     -14.466802      -393.6617
  17   2.0000     -14.461570      -393.5193
  18   2.0000     -14.460327      -393.4855
  19   2.0000     -14.459828      -393.4719
  20   2.0000     -14.458838      -393.4450
  21   2.0000     -14.450317      -393.2131
  22   2.0000     -14.448924      -393.1752
  23   2.0000     -14.428832      -392.6285
  24   2.0000     -14.428375      -392.6160
  25   2.0000     -14.428017      -392.6063
  26   2.0000     -14.427016      -392.5791
  27   2.0000     -10.472196      -284.9629
  28   2.0000     -10.463938      -284.7382
  29   2.0000     -10.442177      -284.1461
  30   2.0000     -10.440361      -284.0967
  31   2.0000     -10.438307      -284.0408
  32   2.0000     -10.433558      -283.9115
  33   2.0000     -10.401439      -283.0376
  34   2.0000     -10.397501      -282.9304
  35   2.0000     -10.388704      -282.6910
  36   2.0000     -10.387540      -282.6593
  37   2.0000     -10.369574      -282.1705
  38   2.0000     -10.363566      -282.0070
  39   2.0000     -10.362927      -281.9896
  40   2.0000     -10.362890      -281.9886
  41   2.0000     -10.362521      -281.9785
  42   2.0000     -10.354506      -281.7604
  43   2.0000     -10.354460      -281.7592
  44   2.0000     -10.352928      -281.7175
  45   2.0000     -10.350665      -281.6559
  46   2.0000     -10.350131      -281.6414
  47   2.0000     -10.348886      -281.6075
  48   2.0000     -10.348544      -281.5982
  49   2.0000     -10.347368      -281.5662
  50   2.0000     -10.345976      -281.5283
  51   2.0000     -10.335332      -281.2387
  52   2.0000     -10.329201      -281.0718
  53   2.0000     -10.328634      -281.0564
  54   2.0000     -10.328003      -281.0393
  55   2.0000     -10.327342      -281.0212
  56   2.0000     -10.327179      -281.0168
  57   2.0000     -10.324811      -280.9524
  58   2.0000     -10.324264      -280.9375
  59   2.0000     -10.323918      -280.9281
  60   2.0000     -10.323778      -280.9243
  61   2.0000     -10.322980      -280.9026
  62   2.0000     -10.322678      -280.8944
  63   2.0000     -10.307186      -280.4728
  64   2.0000     -10.306880      -280.4645
  65   2.0000     -10.306465      -280.4532
  66   2.0000     -10.304907      -280.4108
  67   2.0000     -10.297570      -280.2111
  68   2.0000     -10.296698      -280.1874
  69   2.0000     -10.294852      -280.1372
  70   2.0000     -10.294355      -280.1236
  71   2.0000      -8.142556      -221.5702
  72   2.0000      -8.092446      -220.2066
  73   2.0000      -8.091174      -220.1720
  74   2.0000      -8.076960      -219.7853
  75   2.0000      -8.076147      -219.7631
  76   2.0000      -6.113659      -166.3611
  77   2.0000      -6.105840      -166.1483
  78   2.0000      -6.105325      -166.1344
  79   2.0000      -6.061777      -164.9493
  80   2.0000      -6.060675      -164.9194
  81   2.0000      -6.057607      -164.8359
  82   2.0000      -6.056134      -164.7958
  83   2.0000      -6.054466      -164.7504
  84   2.0000      -6.053286      -164.7183
  85   2.0000      -6.046464      -164.5327
  86   2.0000      -6.045565      -164.5082
  87   2.0000      -6.041690      -164.4027
  88   2.0000      -6.040938      -164.3823
  89   2.0000      -6.039476      -164.3425
  90   2.0000      -6.038601      -164.3187
  91   2.0000      -1.352636       -36.8071
  92   2.0000      -1.337251       -36.3884
  93   2.0000      -1.335103       -36.3300
  94   2.0000      -1.330334       -36.2002
  95   2.0000      -1.272092       -34.6154
  96   2.0000      -1.257033       -34.2056
  97   2.0000      -1.169937       -31.8356
  98   2.0000      -1.162038       -31.6207
  99   2.0000      -1.149393       -31.2766
 100   2.0000      -1.123571       -30.5739
 101   2.0000      -1.054147       -28.6848
 102   2.0000      -1.050645       -28.5895
 103   2.0000      -1.050139       -28.5757
 104   2.0000      -1.043710       -28.4008
 105   2.0000      -1.042828       -28.3768
 106   2.0000      -1.041625       -28.3441
 107   2.0000      -1.037359       -28.2280
 108   2.0000      -1.020410       -27.7668
 109   2.0000      -1.019920       -27.7534
 110   2.0000      -1.016082       -27.6490
 111   2.0000      -1.015541       -27.6343
 112   2.0000      -1.009052       -27.4577
 113   2.0000      -1.005948       -27.3732
 114   2.0000      -1.005234       -27.3538
 115   2.0000      -1.001467       -27.2513
 116   2.0000      -0.993511       -27.0348
 117   2.0000      -0.984511       -26.7899
 118   2.0000      -0.978648       -26.6304
 119   2.0000      -0.974362       -26.5137
 120   2.0000      -0.956477       -26.0271
 121   2.0000      -0.952288       -25.9131
 122   2.0000      -0.918389       -24.9906
 123   2.0000      -0.909830       -24.7577
 124   2.0000      -0.894410       -24.3381
 125   2.0000      -0.888517       -24.1778
 126   2.0000      -0.878020       -23.8921
 127   2.0000      -0.872685       -23.7470
 128   2.0000      -0.864041       -23.5118
 129   2.0000      -0.857864       -23.3437
 130   2.0000      -0.852841       -23.2070
 131   2.0000      -0.848823       -23.0976
 132   2.0000      -0.825824       -22.4718
 133   2.0000      -0.820327       -22.3222
 134   2.0000      -0.816955       -22.2305
 135   2.0000      -0.814711       -22.1694
 136   2.0000      -0.802853       -21.8468
 137   2.0000      -0.795981       -21.6597
 138   2.0000      -0.785062       -21.3626
 139   2.0000      -0.777761       -21.1640
 140   2.0000      -0.773124       -21.0378
 141   2.0000      -0.765118       -20.8199
 142   2.0000      -0.758655       -20.6440
 143   2.0000      -0.750542       -20.4233
 144   2.0000      -0.744241       -20.2518
 145   2.0000      -0.721548       -19.6343
 146   2.0000      -0.703560       -19.1448
 147   2.0000      -0.694085       -18.8870
 148   2.0000      -0.693211       -18.8632
 149   2.0000      -0.691257       -18.8101
 150   2.0000      -0.685848       -18.6629
 151   2.0000      -0.683919       -18.6104
 152   2.0000      -0.680526       -18.5181
 153   2.0000      -0.674670       -18.3587
 154   2.0000      -0.667006       -18.1501
 155   2.0000      -0.663008       -18.0414
 156   2.0000      -0.654069       -17.7981
 157   2.0000      -0.648741       -17.6531
 158   2.0000      -0.645390       -17.5619
 159   2.0000      -0.643931       -17.5223
 160   2.0000      -0.637749       -17.3540
 161   2.0000      -0.634359       -17.2618
 162   2.0000      -0.629180       -17.1209
 163   2.0000      -0.627206       -17.0671
 164   2.0000      -0.625746       -17.0274
 165   2.0000      -0.621869       -16.9219
 166   2.0000      -0.617713       -16.8088
 167   2.0000      -0.616065       -16.7640
 168   2.0000      -0.614245       -16.7144
 169   2.0000      -0.609811       -16.5938
 170   2.0000      -0.606995       -16.5172
 171   2.0000      -0.601328       -16.3630
 172   2.0000      -0.595506       -16.2045
 173   2.0000      -0.590595       -16.0709
 174   2.0000      -0.578406       -15.7392
 175   2.0000      -0.575316       -15.6551
 176   2.0000      -0.573492       -15.6055
 177   2.0000      -0.569717       -15.5028
 178   2.0000      -0.561868       -15.2892
 179   2.0000      -0.558595       -15.2002
 180   2.0000      -0.557609       -15.1733
 181   2.0000      -0.545793       -14.8518
 182   2.0000      -0.545654       -14.8480
 183   2.0000      -0.544417       -14.8143
 184   2.0000      -0.533440       -14.5156
 185   2.0000      -0.529239       -14.4013
 186   2.0000      -0.527155       -14.3446
 187   2.0000      -0.520195       -14.1552
 188   2.0000      -0.515888       -14.0380
 189   2.0000      -0.513742       -13.9796
 190   2.0000      -0.509096       -13.8532
 191   2.0000      -0.507861       -13.8196
 192   2.0000      -0.506897       -13.7934
 193   2.0000      -0.506428       -13.7806
 194   2.0000      -0.502899       -13.6846
 195   2.0000      -0.502457       -13.6725
 196   2.0000      -0.498790       -13.5728
 197   2.0000      -0.495764       -13.4904
 198   2.0000      -0.495557       -13.4848
 199   2.0000      -0.491301       -13.3690
 200   2.0000      -0.489371       -13.3165
 201   2.0000      -0.487716       -13.2714
 202   2.0000      -0.487474       -13.2648
 203   2.0000      -0.483424       -13.1546
 204   2.0000      -0.482560       -13.1311
 205   2.0000      -0.480193       -13.0667
 206   2.0000      -0.479923       -13.0594
 207   2.0000      -0.475807       -12.9474
 208   2.0000      -0.475503       -12.9391
 209   2.0000      -0.471893       -12.8408
 210   2.0000      -0.471194       -12.8218
 211   2.0000      -0.470630       -12.8065
 212   2.0000      -0.467820       -12.7300
 213   2.0000      -0.466446       -12.6926
 214   2.0000      -0.463713       -12.6183
 215   2.0000      -0.461482       -12.5576
 216   2.0000      -0.459455       -12.5024
 217   2.0000      -0.458879       -12.4867
 218   2.0000      -0.457249       -12.4424
 219   2.0000      -0.455436       -12.3930
 220   2.0000      -0.453304       -12.3350
 221   2.0000      -0.451156       -12.2766
 222   2.0000      -0.449928       -12.2432
 223   2.0000      -0.448370       -12.2008
 224   2.0000      -0.438753       -11.9391
 225   2.0000      -0.438092       -11.9211
 226   2.0000      -0.437963       -11.9176
 227   2.0000      -0.437252       -11.8982
 228   2.0000      -0.436199       -11.8696
 229   2.0000      -0.433899       -11.8070
 230   2.0000      -0.433515       -11.7966
 231   2.0000      -0.428723       -11.6662
 232   2.0000      -0.426004       -11.5921
 233   2.0000      -0.425617       -11.5816
 234   2.0000      -0.417682       -11.3657
 235   2.0000      -0.414637       -11.2828
 236   2.0000      -0.411844       -11.2068
 237   2.0000      -0.405730       -11.0405
 238   2.0000      -0.405275       -11.0281
 239   2.0000      -0.404648       -11.0110
 240   2.0000      -0.403446       -10.9783
 241   2.0000      -0.401058       -10.9134
 242   2.0000      -0.395481       -10.7616
 243   2.0000      -0.390137       -10.6162
 244   2.0000      -0.376829       -10.2540
 245   2.0000      -0.376023       -10.2321
 246   2.0000      -0.371483       -10.1086
 247   2.0000      -0.363502        -9.8914
 248   2.0000      -0.351307        -9.5596
 249   2.0000      -0.348722        -9.4892
 250   2.0000      -0.347283        -9.4501
 251   2.0000      -0.323458        -8.8017
 252   2.0000      -0.319874        -8.7042
 253   2.0000      -0.318206        -8.6588
 254   2.0000      -0.283141        -7.7047
 255   2.0000      -0.241555        -6.5731
 256   0.0000      -0.124257        -3.3812
 257   0.0000      -0.100880        -2.7451
 258   0.0000      -0.095741        -2.6052
 259   0.0000      -0.092644        -2.5210
 260   0.0000      -0.084522        -2.3000

MULLIKEN ATOMIC CHARGES
-----------------------
   0 O :   -0.124506
   1 N :    0.076401
   2 C :   -0.183499
   3 C :   -0.167699
   4 N :    0.264787
   5 C :    0.036078
   6 C :    0.019998
   7 C :   -0.153473
   8 N :    0.257056
   9 C :    0.216451
  10 O :   -0.171202
  11 O :   -0.208646
  12 C :    0.064508
  13 C :   -0.024840
  14 C :   -0.018494
  15 C :   -0.102594
  16 S :    0.213387
  17 C :   -0.069648
  18 C :    0.039230
  19 C :    0.304417
  20 C :   -0.300694
  21 C :   -0.197392
  22 N :    0.175106
  23 C :   -0.190430
  24 N :    0.180185
  25 C :   -0.066377
  26 C :   -0.187756
  27 S :    0.204600
  28 C :    0.208789
  29 C :   -0.078419
  30 C :   -0.061355
  31 N :   -0.055262
  32 C :    0.154479
  33 C :    0.146767
  34 N :    0.008095
  35 F :   -0.128308
  36 F :   -0.132567
  37 C :    0.178542
  38 C :   -0.009681
  39 C :   -0.026518
  40 N :   -0.342300
  41 S :    0.572148
  42 N :   -0.280548
  43 C :   -0.180026
  44 C :   -0.063507
  45 C :    0.032066
  46 C :   -0.073094
  47 S :    0.206121
  48 C :   -0.111325
  49 C :    0.001965
  50 C :    0.309079
  51 C :   -0.304205
  52 C :   -0.185628
  53 N :    0.170793
  54 C :   -0.195253
  55 N :    0.180927
  56 C :   -0.039481
  57 C :    0.067245
  58 S :    0.221485
  59 O :   -0.240017
  60 C :    0.205308
  61 O :   -0.141602
  62 C :    0.036121
  63 C :   -0.181017
  64 N :    0.076913
  65 O :   -0.126122
  66 C :   -0.002808
  67 C :   -0.140813
  68 N :    0.257594
  69 C :   -0.166653
  70 N :    0.248473
  71 H :    0.019122
  72 H :    0.023742
  73 H :    0.020232
  74 H :    0.035551
Sum of atomic charges:   -0.0000000

LOEWDIN ATOMIC CHARGES
----------------------
   0 O :    0.082467
   1 N :    0.028369
   2 C :   -0.044009
   3 C :   -0.033445
   4 N :    0.016599
   5 C :   -0.079029
   6 C :    0.039132
   7 C :   -0.044197
   8 N :    0.029447
   9 C :    0.095548
  10 O :   -0.141066
  11 O :   -0.014041
  12 C :   -0.114377
  13 C :   -0.048418
  14 C :   -0.064972
  15 C :   -0.193765
  16 S :    0.498302
  17 C :   -0.181305
  18 C :   -0.077789
  19 C :    0.081013
  20 C :   -0.102187
  21 C :   -0.018635
  22 N :   -0.031794
  23 C :   -0.018693
  24 N :   -0.028802
  25 C :   -0.012152
  26 C :   -0.168160
  27 S :    0.512839
  28 C :   -0.044681
  29 C :   -0.009151
  30 C :   -0.016889
  31 N :   -0.059307
  32 C :    0.064562
  33 C :    0.061109
  34 N :   -0.027601
  35 F :   -0.017168
  36 F :   -0.022426
  37 C :   -0.043473
  38 C :   -0.038924
  39 C :   -0.047915
  40 N :   -0.307000
  41 S :    0.689161
  42 N :   -0.270354
  43 C :   -0.169795
  44 C :   -0.012439
  45 C :   -0.075528
  46 C :   -0.185841
  47 S :    0.511282
  48 C :   -0.178366
  49 C :   -0.067446
  50 C :    0.081033
  51 C :   -0.100633
  52 C :   -0.015291
  53 N :   -0.033976
  54 C :   -0.020587
  55 N :   -0.026932
  56 C :   -0.058127
  57 C :   -0.106682
  58 S :    0.486000
  59 O :   -0.035646
  60 C :    0.101392
  61 O :   -0.117244
  62 C :   -0.078506
  63 C :   -0.053459
  64 N :    0.025662
  65 O :    0.081953
  66 C :    0.042914
  67 C :   -0.040564
  68 N :    0.033329
  69 C :   -0.033376
  70 N :   -0.000778
  71 H :    0.048950
  72 H :    0.037357
  73 H :    0.037144
  74 H :    0.047378

  Mayer bond orders larger than 0.100000
B(  0-O ,  1-N ) :   1.0224 B(  0-O ,  6-C ) :   1.1946 B(  1-N ,  2-C ) :   1.7092
B(  1-N ,  6-C ) :   0.1022 B(  2-C ,  3-C ) :   1.1588 B(  2-C ,  5-C ) :   1.2438
B(  3-C ,  4-N ) :   3.0659 B(  5-C ,  6-C ) :   1.5149 B(  5-C ,  9-C ) :   0.8925
B(  6-C ,  7-C ) :   1.1357 B(  7-C ,  8-N ) :   3.0297 B(  9-C , 10-O ) :   2.1133
B(  9-C , 11-O ) :   1.1850 B( 11-O , 12-C ) :   1.0129 B( 12-C , 13-C ) :   1.4889
B( 12-C , 16-S ) :   1.1262 B( 13-C , 14-C ) :   1.2479 B( 13-C , 71-H ) :   1.0079
B( 14-C , 15-C ) :   1.4561 B( 14-C , 19-C ) :   1.0133 B( 15-C , 16-S ) :   1.0690
B( 15-C , 17-C ) :   1.1949 B( 17-C , 18-C ) :   1.4134 B( 17-C , 27-S ) :   1.1088
B( 18-C , 19-C ) :   0.9952 B( 18-C , 25-C ) :   1.2631 B( 19-C , 20-C ) :   1.7114
B( 20-C , 21-C ) :   1.1282 B( 20-C , 23-C ) :   1.1382 B( 21-C , 22-N ) :   3.0026
B( 23-C , 24-N ) :   2.9914 B( 25-C , 26-C ) :   1.4143 B( 25-C , 72-H ) :   0.9880
B( 26-C , 27-S ) :   1.0958 B( 26-C , 28-C ) :   1.1832 B( 28-C , 29-C ) :   1.2985
B( 28-C , 37-C ) :   0.1279 B( 28-C , 39-C ) :   1.1899 B( 29-C , 30-C ) :   1.1101
B( 29-C , 34-N ) :   1.4410 B( 30-C , 31-N ) :   1.3729 B( 30-C , 37-C ) :   1.2995
B( 31-N , 32-C ) :   1.6568 B( 32-C , 33-C ) :   1.1026 B( 32-C , 36-F ) :   1.1911
B( 33-C , 34-N ) :   1.6596 B( 33-C , 35-F ) :   1.1852 B( 37-C , 38-C ) :   1.2026
B( 37-C , 43-C ) :   1.1872 B( 38-C , 39-C ) :   1.1108 B( 38-C , 42-N ) :   1.5104
B( 39-C , 40-N ) :   1.4645 B( 40-N , 41-S ) :   1.2705 B( 40-N , 42-N ) :   0.1517
B( 41-S , 42-N ) :   1.2887 B( 43-C , 44-C ) :   1.4227 B( 43-C , 47-S ) :   1.0900
B( 44-C , 45-C ) :   1.2735 B( 44-C , 73-H ) :   0.9816 B( 45-C , 46-C ) :   1.4237
B( 45-C , 50-C ) :   0.9909 B( 46-C , 47-S ) :   1.0936 B( 46-C , 48-C ) :   1.2050
B( 48-C , 49-C ) :   1.4639 B( 48-C , 58-S ) :   1.1012 B( 49-C , 50-C ) :   1.0188
B( 49-C , 56-C ) :   1.2009 B( 50-C , 51-C ) :   1.7082 B( 51-C , 52-C ) :   1.1399
B( 51-C , 54-C ) :   1.1309 B( 52-C , 53-N ) :   2.9845 B( 54-C , 55-N ) :   2.9983
B( 56-C , 57-C ) :   1.4917 B( 56-C , 74-H ) :   1.0044 B( 57-C , 58-S ) :   1.1211
B( 57-C , 59-O ) :   1.0066 B( 59-O , 60-C ) :   1.1531 B( 60-C , 61-O ) :   2.1667
B( 60-C , 62-C ) :   0.8936 B( 62-C , 63-C ) :   1.2247 B( 62-C , 66-C ) :   1.5403
B( 63-C , 64-N ) :   1.7092 B( 63-C , 69-C ) :   1.1531 B( 64-N , 65-O ) :   1.0250
B( 64-N , 66-C ) :   0.1030 B( 65-O , 66-C ) :   1.1934 B( 66-C , 67-C ) :   1.1300
B( 67-C , 68-N ) :   3.0347 B( 69-C , 70-N ) :   3.0685

-----------------------------------------------------------------------------
         ABSORPTION SPECTRUM VIA TRANSITION ELECTRIC DIPOLE MOMENTS
-----------------------------------------------------------------------------
State   Energy  Wavelength   fosc         T2         TX        TY        TZ
        (cm-1)    (nm)                  (au**2)     (au)      (au)      (au)
-----------------------------------------------------------------------------
   0   10038.1    996.2   0.687321940  22.54148   2.58132  -0.08539   3.98384
   1   13386.8    747.0   0.002803755   0.06895  -0.01710  -0.07361  -0.25148
   2   14089.5    709.7   0.006646926   0.15531   0.28609  -0.14182   0.23098
   3   19378.4    516.0   0.007164783   0.12172   0.16736  -0.21034  -0.22241
   4   20570.5    486.1   0.137359504   2.19831  -0.37126  -0.42234  -1.37190
   5   23178.1    431.4   0.238708402   3.39052   0.92833   0.10479   1.58674
   6   24277.3    411.9   0.007184570   0.09743   0.23707  -0.19366   0.06098
   7   25260.6    395.9   0.017292984   0.22537   0.19441   0.04927   0.43029
   8   26124.1    382.8   0.026154288   0.32959   0.34908  -0.07197   0.45006
   9   26872.4    372.1   0.049054563   0.60096  -0.52667   0.56832  -0.02438
  10   27106.4    368.9   0.002519838   0.03060  -0.11099  -0.01632  -0.13423
  11   28016.7    356.9   0.171121733   2.01078   0.65893   0.12030   1.24985
  12   29558.4    338.3   0.313615852   3.49295  -1.00532   0.09501  -1.57266
  13   29872.8    334.8   0.063457538   0.69933  -0.34753  -0.19189  -0.73602
  14   30246.4    330.6   0.125469123   1.36565  -0.52463   0.90289   0.52461
  15   30495.6    327.9   0.013275247   0.14331   0.29412  -0.23088   0.05916
  16   31166.9    320.9   0.005524276   0.05835  -0.21210   0.11187  -0.02917
  17   31410.8    318.4   1.007686500  10.56142   2.37844  -1.44260   1.68028
  18   31557.4    316.9   0.003839943   0.04006   0.09726  -0.02145   0.17360
  19   32222.7    310.3   0.002019625   0.02063   0.12802  -0.02124   0.06160
  20   32603.2    306.7   0.072417616   0.73124   0.60626  -0.17876   0.57597
  21   32851.2    304.4   0.246904295   2.47431  -0.02478   0.88135   1.30266
  22   32955.3    303.4   0.507156120   5.06632  -0.64988   1.69788   1.32710
  23   33274.5    300.5   0.221311512   2.18962  -0.60984  -0.22159  -1.32989
  24   33928.8    294.7   0.004067620   0.03947  -0.08107  -0.00214  -0.18136
  25   34504.0    289.8   0.031572975   0.30125   0.02245   0.30562   0.45534
  26   34800.4    287.4   0.033937877   0.32105   0.04352   0.24783   0.50768
  27   35225.7    283.9   0.483311515   4.51693   1.36785  -1.61118  -0.22367
  28   35552.5    281.3   0.066967505   0.62011   0.54694  -0.55065  -0.13323
  29   36023.6    277.6   0.475384792   4.34444  -0.54998   1.47737   1.36358
  30   37295.2    268.1   0.000505558   0.00446   0.01452  -0.06033  -0.02473
  31   37575.6    266.1   0.010270599   0.08998   0.06007  -0.21995  -0.19493
  32   37810.0    264.5   0.058584379   0.51009   0.25085  -0.53870  -0.39620
  33   38323.1    260.9   0.009253463   0.07949   0.10872  -0.21305  -0.14926
  34   38488.2    259.8   0.068382663   0.58492  -0.13166  -0.32734  -0.67855
  35   38961.1    256.7   0.003787073   0.03200   0.11673  -0.04267   0.12866
  36   39266.3    254.7   0.027655997   0.23187   0.11721  -0.32085  -0.33939
  37   39441.9    253.5   0.006498524   0.05424   0.12652  -0.14857   0.12713
  38   39526.4    253.0   0.037781213   0.31468  -0.38315   0.36584  -0.18447
  39   39624.2    252.4   0.092515634   0.76865   0.17523  -0.65859  -0.55155
  40   39887.0    250.7   0.023531935   0.19422   0.17230  -0.34573  -0.21215
  41   39922.5    250.5   0.001302551   0.01074  -0.05449  -0.04236   0.07731
  42   40164.8    249.0   0.013384917   0.10971  -0.22289   0.24309  -0.03058

FINAL SINGLE POINT ENERGY     -5082.903189154842

DIPOLE MOMENT
-------------
                                X             Y             Z
Electronic contribution:      4.30764      -7.08309      -3.26567
Nuclear contribution   :     -3.96843       6.88286       3.67785
                        -----------------------------------------
Total Dipole Moment    :      0.33922      -0.20023       0.41218
                        -----------------------------------------
Magnitude (a.u.)       :      0.57014
Magnitude (Debye)      :      1.44917

Rotational constants in cm-1:     0.002517     0.000234     0.000214
Rotational constants in MHz :    75.452096     7.010203     6.427559

                             ****ORCA TERMINATED NORMALLY****
TOTAL RUN TIME: 0 days 0 hours 7 minutes 11 seconds 423 msec
