                         Program Version 4.2.0 -  RELEASE  -
|  1> # ORCA input file
|  2> # SCF done       -185.517865759624          0.000811441455
|  3> ! CAM-B3LYP def2-SVP def2/J RIJCOSX Grid4 TightSCF
|  4> %maxcore 5000
|  5> %tddft
|  6>     Mode sTDDFT
|  7>     Ethresh 5.0
|  8>     maxcore 5000
|  9> end
| 10>
| 11> %pal
| 12>   nprocs 6
| 13>   end
| 14> * xyz 0 1
| 15>    C      -12.42375         1.16386        -9.17571
| 16>    C      -12.22048        -0.19299        -9.24077
| 17>    C      -12.46533        -0.97599       -10.38696
| 18>    N      -12.64686        -1.67072       -11.28354
| 19>    C      -11.72589        -1.00259        -8.19800
| 20>    N      -11.32342        -1.73712        -7.41133
| 21>    C      -12.90259         1.99317       -10.27887
| 22>    C      -12.91725         3.34443        -9.85799
| 23>    C      -13.32570         4.37087       -10.67329
| 24>    C      -13.74607         4.04876       -11.96821
| 25>    C      -13.73031         2.69596       -12.37955
| 26>    C      -13.31302         1.65782       -11.55560
| 27>    S      -14.29550         2.51839       -14.01453
| 28>    C      -14.54312         4.24071       -14.11859
| 29>    C      -14.21825         4.91648       -12.99142
| 30>   Br      -15.20570         4.98659       -15.70792
| 31>    C      -12.45431         3.42586        -8.45552
| 32>    O      -12.33456         4.44264        -7.80265
| 33>    C      -12.19180         2.03068        -8.04130
| 34>    C      -11.84929         1.64059        -6.77022
| 35>    C      -11.66333         2.50524        -5.67885
| 36>    C      -11.42294         2.02338        -4.42373
| 37>    C      -11.27824         2.82502        -3.27779
| 38>    O      -11.30347         4.18213        -3.33410
| 39>    C      -11.20289         4.67121        -2.07427
| 40>    C      -11.08675         3.60958        -1.17940
| 41>    C      -11.12984         2.42972        -1.94458
| 42>    O      -11.05273         1.16652        -1.49553
| 43>    O      -10.91909         3.60357         0.16843
| 44>    C      -11.18489         6.08154        -1.89225
| 45>    C      -11.41274         6.73187        -0.72566
| 46>    C      -11.32354         8.14488        -0.58363
| 47>    C      -11.60485         8.76326         0.58500
| 48>    C      -11.49536        10.16835         0.84963
| 49>    C      -11.20717        10.65270         2.12372
| 50>    C      -11.00924         9.89755         3.35275
| 51>    O      -11.00514         8.68130         3.38528
| 52>    C      -10.81292        10.72717         4.59913
| 53>    S      -11.05856        12.38224         2.12349
| 54>    C      -11.39540        12.45448         0.45529
| 55>    C      -11.62181        11.22481        -0.11670
| 56>    C      -12.02140        11.05045        -1.48582
| 57>    C      -11.75527        11.94195        -2.47270
| 58>    C      -12.16242        11.79201        -3.81307
| 59>    C      -11.86575        12.69388        -4.80159
| 60>    C      -12.22329        12.62088        -6.17127
| 61>    C      -11.78510        13.66867        -6.92259
| 62>    C      -11.05573        14.63439        -6.19456
| 63>    S      -10.94573        14.16490        -4.51128
| 64>    C      -10.47784        15.79952        -6.66068
| 65>    C      -10.47775        16.30128        -7.98129
| 66>    C       -9.81072        17.48092        -8.12247
| 67>    C       -9.24638        17.98028        -6.92481
| 68>    S       -9.60196        16.88195        -5.60028
| 69>    C       -8.52195        19.13754        -6.76607
| 70>    C       -7.98904        19.57433        -5.54677
| 71>    C       -7.27074        20.72752        -5.40625
| 72>    C       -6.73348        21.17355        -4.18174
| 73>    O       -6.03941        22.34081        -4.13863
| 74>    C       -5.63471        22.56866        -2.85838
| 75>    C       -6.06417        21.51176        -2.06350
| 76>    C       -6.76591        20.62347        -2.89900
| 77>    O       -7.35025        19.46610        -2.52161
| 78>    O       -5.87738        21.26963        -0.73621
| 79>    C       -4.88832        23.75248        -2.60307
| 80>    C       -4.52978        24.25740        -1.40261
| 81>    C       -3.75991        25.45973        -1.26297
| 82>    C       -3.40975        25.98414        -0.08772
| 83>    H      -13.32436         5.39092       -10.32215
| 84>    H      -13.32308         0.64332       -11.91693
| 85>    H      -14.30816         5.98200       -12.88302
| 86>    H      -11.73580         0.58299        -6.56912
| 87>    H      -11.73844         3.57056        -5.83546
| 88>    H      -11.35817         0.95810        -4.24710
| 89>    H      -10.95111         1.18922        -0.53404
| 90>    H      -10.74074         4.49670         0.48509
| 91>    H      -10.99529         6.65030        -2.79241
| 92>    H      -11.71330         6.18702         0.16011
| 93>    H      -10.97130         8.70376        -1.43910
| 94>    H      -11.86473         8.15578         1.44188
| 95>    H       -9.91693        11.33700         4.50012
| 96>    H      -10.70922        10.06880         5.45753
| 97>    H      -11.66178        11.39126         4.74829
| 98>    H      -11.44560        13.41205        -0.02429
| 99>    H      -12.58219        10.15567        -1.71711
|100>    H      -11.16760        12.82300        -2.24828
|101>    H      -12.73944        10.91815        -4.08495
|102>    H      -12.79162        11.79199        -6.55507
|103>    H      -11.96518        13.77258        -7.97776
|104>    H      -10.96523        15.78161        -8.78669
|105>    H       -9.70444        18.01082        -9.05298
|106>    H       -8.35819        19.74378        -7.64801
|107>    H       -8.16018        18.95956        -4.67419
|108>    H       -7.08378        21.36296        -6.26093
|109>    H       -7.19724        19.35332        -1.57362
|110>    H       -5.25753        21.91275        -0.37626
|111>    H       -4.60920        24.29127        -3.49913
|112>    H       -4.83212        23.78546        -0.47678
|113>    H       -3.46025        25.94518        -2.18235
|114>    H       -3.69413        25.52360         0.84438
|115>    H       -2.83182        26.88846        -0.01799
|116> *
|117>
|118>                          ****END OF INPUT****

CARTESIAN COORDINATES (ANGSTROEM)
---------------------------------
  C    -12.423750    1.163860   -9.175710
  C    -12.220480   -0.192990   -9.240770
  C    -12.465330   -0.975990  -10.386960
  N    -12.646860   -1.670720  -11.283540
  C    -11.725890   -1.002590   -8.198000
  N    -11.323420   -1.737120   -7.411330
  C    -12.902590    1.993170  -10.278870
  C    -12.917250    3.344430   -9.857990
  C    -13.325700    4.370870  -10.673290
  C    -13.746070    4.048760  -11.968210
  C    -13.730310    2.695960  -12.379550
  C    -13.313020    1.657820  -11.555600
  S    -14.295500    2.518390  -14.014530
  C    -14.543120    4.240710  -14.118590
  C    -14.218250    4.916480  -12.991420
  Br   -15.205700    4.986590  -15.707920
  C    -12.454310    3.425860   -8.455520
  O    -12.334560    4.442640   -7.802650
  C    -12.191800    2.030680   -8.041300
  C    -11.849290    1.640590   -6.770220
  C    -11.663330    2.505240   -5.678850
  C    -11.422940    2.023380   -4.423730
  C    -11.278240    2.825020   -3.277790
  O    -11.303470    4.182130   -3.334100
  C    -11.202890    4.671210   -2.074270
  C    -11.086750    3.609580   -1.179400
  C    -11.129840    2.429720   -1.944580
  O    -11.052730    1.166520   -1.495530
  O    -10.919090    3.603570    0.168430
  C    -11.184890    6.081540   -1.892250
  C    -11.412740    6.731870   -0.725660
  C    -11.323540    8.144880   -0.583630
  C    -11.604850    8.763260    0.585000
  C    -11.495360   10.168350    0.849630
  C    -11.207170   10.652700    2.123720
  C    -11.009240    9.897550    3.352750
  O    -11.005140    8.681300    3.385280
  C    -10.812920   10.727170    4.599130
  S    -11.058560   12.382240    2.123490
  C    -11.395400   12.454480    0.455290
  C    -11.621810   11.224810   -0.116700
  C    -12.021400   11.050450   -1.485820
  C    -11.755270   11.941950   -2.472700
  C    -12.162420   11.792010   -3.813070
  C    -11.865750   12.693880   -4.801590
  C    -12.223290   12.620880   -6.171270
  C    -11.785100   13.668670   -6.922590
  C    -11.055730   14.634390   -6.194560
  S    -10.945730   14.164900   -4.511280
  C    -10.477840   15.799520   -6.660680
  C    -10.477750   16.301280   -7.981290
  C     -9.810720   17.480920   -8.122470
  C     -9.246380   17.980280   -6.924810
  S     -9.601960   16.881950   -5.600280
  C     -8.521950   19.137540   -6.766070
  C     -7.989040   19.574330   -5.546770
  C     -7.270740   20.727520   -5.406250
  C     -6.733480   21.173550   -4.181740
  O     -6.039410   22.340810   -4.138630
  C     -5.634710   22.568660   -2.858380
  C     -6.064170   21.511760   -2.063500
  C     -6.765910   20.623470   -2.899000
  O     -7.350250   19.466100   -2.521610
  O     -5.877380   21.269630   -0.736210
  C     -4.888320   23.752480   -2.603070
  C     -4.529780   24.257400   -1.402610
  C     -3.759910   25.459730   -1.262970
  C     -3.409750   25.984140   -0.087720
  H    -13.324360    5.390920  -10.322150
  H    -13.323080    0.643320  -11.916930
  H    -14.308160    5.982000  -12.883020
  H    -11.735800    0.582990   -6.569120
  H    -11.738440    3.570560   -5.835460
  H    -11.358170    0.958100   -4.247100
  H    -10.951110    1.189220   -0.534040
  H    -10.740740    4.496700    0.485090
  H    -10.995290    6.650300   -2.792410
  H    -11.713300    6.187020    0.160110
  H    -10.971300    8.703760   -1.439100
  H    -11.864730    8.155780    1.441880
  H     -9.916930   11.337000    4.500120
  H    -10.709220   10.068800    5.457530
  H    -11.661780   11.391260    4.748290
  H    -11.445600   13.412050   -0.024290
  H    -12.582190   10.155670   -1.717110
  H    -11.167600   12.823000   -2.248280
  H    -12.739440   10.918150   -4.084950
  H    -12.791620   11.791990   -6.555070
  H    -11.965180   13.772580   -7.977760
  H    -10.965230   15.781610   -8.786690
  H     -9.704440   18.010820   -9.052980
  H     -8.358190   19.743780   -7.648010
  H     -8.160180   18.959560   -4.674190
  H     -7.083780   21.362960   -6.260930
  H     -7.197240   19.353320   -1.573620
  H     -5.257530   21.912750   -0.376260
  H     -4.609200   24.291270   -3.499130
  H     -4.832120   23.785460   -0.476780
  H     -3.460250   25.945180   -2.182350
  H     -3.694130   25.523600    0.844380
  H     -2.831820   26.888460   -0.017990

 Total Charge           Charge          ....    0
 Multiplicity           Mult            ....    1
 Number of Electrons    NEL             ....  528
 Basis Dimension        Dim             .... 1151

ORBITAL ENERGIES
----------------

  NO   OCC          E(Eh)            E(eV)
   0   2.0000    -482.879047    -13139.8069
   1   2.0000     -88.968114     -2420.9455
   2   2.0000     -88.966841     -2420.9108
   3   2.0000     -88.938644     -2420.1435
   4   2.0000     -88.938526     -2420.1403
   5   2.0000     -62.556767     -1702.2562
   6   2.0000     -56.390704     -1534.4691
   7   2.0000     -56.388010     -1534.3958
   8   2.0000     -56.387972     -1534.3947
   9   2.0000     -19.294166      -525.0209
  10   2.0000     -19.282697      -524.7089
  11   2.0000     -19.273078      -524.4471
  12   2.0000     -19.270329      -524.3723
  13   2.0000     -19.267589      -524.2978
  14   2.0000     -19.258952      -524.0627
  15   2.0000     -19.203599      -522.5565
  16   2.0000     -19.201929      -522.5111
  17   2.0000     -14.402676      -391.9167
  18   2.0000     -14.401274      -391.8786
  19   2.0000     -10.362998      -281.9915
  20   2.0000     -10.352555      -281.7073
  21   2.0000     -10.351763      -281.6858
  22   2.0000     -10.350786      -281.6592
  23   2.0000     -10.346685      -281.5476
  24   2.0000     -10.346092      -281.5315
  25   2.0000     -10.336974      -281.2834
  26   2.0000     -10.333960      -281.2013
  27   2.0000     -10.332905      -281.1726
  28   2.0000     -10.328504      -281.0529
  29   2.0000     -10.327107      -281.0149
  30   2.0000     -10.325731      -280.9774
  31   2.0000     -10.325323      -280.9663
  32   2.0000     -10.315475      -280.6984
  33   2.0000     -10.306911      -280.4653
  34   2.0000     -10.306232      -280.4468
  35   2.0000     -10.305173      -280.4180
  36   2.0000     -10.303685      -280.3775
  37   2.0000     -10.303394      -280.3696
  38   2.0000     -10.303255      -280.3658
  39   2.0000     -10.300085      -280.2796
  40   2.0000     -10.299521      -280.2642
  41   2.0000     -10.299451      -280.2623
  42   2.0000     -10.298994      -280.2499
  43   2.0000     -10.297664      -280.2137
  44   2.0000     -10.296284      -280.1761
  45   2.0000     -10.296178      -280.1733
  46   2.0000     -10.295547      -280.1561
  47   2.0000     -10.294271      -280.1213
  48   2.0000     -10.293784      -280.1081
  49   2.0000     -10.290109      -280.0081
  50   2.0000     -10.288904      -279.9753
  51   2.0000     -10.288743      -279.9709
  52   2.0000     -10.288340      -279.9600
  53   2.0000     -10.284585      -279.8578
  54   2.0000     -10.282450      -279.7997
  55   2.0000     -10.282360      -279.7972
  56   2.0000     -10.281725      -279.7800
  57   2.0000     -10.281100      -279.7630
  58   2.0000     -10.280055      -279.7345
  59   2.0000     -10.279362      -279.7157
  60   2.0000     -10.278726      -279.6984
  61   2.0000     -10.278654      -279.6964
  62   2.0000     -10.278392      -279.6893
  63   2.0000     -10.275922      -279.6221
  64   2.0000     -10.275606      -279.6135
  65   2.0000     -10.275337      -279.6061
  66   2.0000     -10.274393      -279.5804
  67   2.0000     -10.271927      -279.5133
  68   2.0000     -10.270636      -279.4782
  69   2.0000     -10.268937      -279.4320
  70   2.0000     -10.268837      -279.4293
  71   2.0000     -10.264775      -279.3187
  72   2.0000      -8.786197      -239.0846
  73   2.0000      -8.063813      -219.4275
  74   2.0000      -8.062816      -219.4004
  75   2.0000      -8.034955      -218.6422
  76   2.0000      -8.034860      -218.6397
  77   2.0000      -6.622437      -180.2057
  78   2.0000      -6.607955      -179.8116
  79   2.0000      -6.607779      -179.8068
  80   2.0000      -6.032959      -164.1652
  81   2.0000      -6.032492      -164.1524
  82   2.0000      -6.028600      -164.0465
  83   2.0000      -6.028265      -164.0374
  84   2.0000      -6.026460      -163.9883
  85   2.0000      -6.024032      -163.9222
  86   2.0000      -6.004665      -163.3952
  87   2.0000      -6.004570      -163.3926
  88   2.0000      -6.000770      -163.2892
  89   2.0000      -6.000632      -163.2855
  90   2.0000      -5.995764      -163.1530
  91   2.0000      -5.995749      -163.1526
  92   2.0000      -2.738349       -74.5143
  93   2.0000      -2.734231       -74.4022
  94   2.0000      -2.734115       -74.3991
  95   2.0000      -2.722608       -74.0859
  96   2.0000      -2.722582       -74.0852
  97   2.0000      -1.216157       -33.0933
  98   2.0000      -1.202570       -32.7236
  99   2.0000      -1.170679       -31.8558
 100   2.0000      -1.160785       -31.5866
 101   2.0000      -1.153875       -31.3985
 102   2.0000      -1.143409       -31.1137
 103   2.0000      -1.120583       -30.4926
 104   2.0000      -1.115956       -30.3667
 105   2.0000      -1.011769       -27.5316
 106   2.0000      -1.001346       -27.2480
 107   2.0000      -0.993588       -27.0369
 108   2.0000      -0.989586       -26.9280
 109   2.0000      -0.980943       -26.6928
 110   2.0000      -0.976818       -26.5806
 111   2.0000      -0.967888       -26.3376
 112   2.0000      -0.934630       -25.4326
 113   2.0000      -0.929969       -25.3057
 114   2.0000      -0.918849       -25.0031
 115   2.0000      -0.915879       -24.9223
 116   2.0000      -0.909705       -24.7543
 117   2.0000      -0.904100       -24.6018
 118   2.0000      -0.897898       -24.4331
 119   2.0000      -0.897442       -24.4206
 120   2.0000      -0.890332       -24.2272
 121   2.0000      -0.883888       -24.0518
 122   2.0000      -0.878188       -23.8967
 123   2.0000      -0.875484       -23.8231
 124   2.0000      -0.872216       -23.7342
 125   2.0000      -0.865812       -23.5599
 126   2.0000      -0.851831       -23.1795
 127   2.0000      -0.850999       -23.1569
 128   2.0000      -0.838621       -22.8200
 129   2.0000      -0.836126       -22.7521
 130   2.0000      -0.825362       -22.4592
 131   2.0000      -0.818789       -22.2804
 132   2.0000      -0.815684       -22.1959
 133   2.0000      -0.810340       -22.0505
 134   2.0000      -0.795318       -21.6417
 135   2.0000      -0.791954       -21.5502
 136   2.0000      -0.765903       -20.8413
 137   2.0000      -0.761683       -20.7264
 138   2.0000      -0.747011       -20.3272
 139   2.0000      -0.740652       -20.1542
 140   2.0000      -0.735638       -20.0177
 141   2.0000      -0.723981       -19.7005
 142   2.0000      -0.714366       -19.4389
 143   2.0000      -0.707745       -19.2587
 144   2.0000      -0.705077       -19.1861
 145   2.0000      -0.700500       -19.0616
 146   2.0000      -0.694655       -18.9025
 147   2.0000      -0.693383       -18.8679
 148   2.0000      -0.684058       -18.6142
 149   2.0000      -0.680433       -18.5155
 150   2.0000      -0.675162       -18.3721
 151   2.0000      -0.666491       -18.1361
 152   2.0000      -0.654783       -17.8175
 153   2.0000      -0.652044       -17.7430
 154   2.0000      -0.650662       -17.7054
 155   2.0000      -0.646468       -17.5913
 156   2.0000      -0.644863       -17.5476
 157   2.0000      -0.642450       -17.4820
 158   2.0000      -0.630533       -17.1577
 159   2.0000      -0.627071       -17.0635
 160   2.0000      -0.622749       -16.9458
 161   2.0000      -0.614756       -16.7284
 162   2.0000      -0.613288       -16.6884
 163   2.0000      -0.612327       -16.6623
 164   2.0000      -0.607825       -16.5397
 165   2.0000      -0.601643       -16.3715
 166   2.0000      -0.595909       -16.2155
 167   2.0000      -0.592778       -16.1303
 168   2.0000      -0.589386       -16.0380
 169   2.0000      -0.584042       -15.8926
 170   2.0000      -0.576827       -15.6963
 171   2.0000      -0.575614       -15.6633
 172   2.0000      -0.568351       -15.4656
 173   2.0000      -0.564101       -15.3500
 174   2.0000      -0.561281       -15.2732
 175   2.0000      -0.558642       -15.2014
 176   2.0000      -0.553813       -15.0700
 177   2.0000      -0.547076       -14.8867
 178   2.0000      -0.545705       -14.8494
 179   2.0000      -0.539660       -14.6849
 180   2.0000      -0.537101       -14.6153
 181   2.0000      -0.535960       -14.5842
 182   2.0000      -0.532734       -14.4964
 183   2.0000      -0.527593       -14.3565
 184   2.0000      -0.527130       -14.3439
 185   2.0000      -0.524999       -14.2859
 186   2.0000      -0.522881       -14.2283
 187   2.0000      -0.517022       -14.0689
 188   2.0000      -0.515226       -14.0200
 189   2.0000      -0.514837       -14.0094
 190   2.0000      -0.509462       -13.8632
 191   2.0000      -0.504372       -13.7247
 192   2.0000      -0.503357       -13.6970
 193   2.0000      -0.498733       -13.5712
 194   2.0000      -0.497926       -13.5493
 195   2.0000      -0.496980       -13.5235
 196   2.0000      -0.494802       -13.4642
 197   2.0000      -0.492155       -13.3922
 198   2.0000      -0.491338       -13.3700
 199   2.0000      -0.490783       -13.3549
 200   2.0000      -0.488946       -13.3049
 201   2.0000      -0.487472       -13.2648
 202   2.0000      -0.484989       -13.1972
 203   2.0000      -0.482541       -13.1306
 204   2.0000      -0.482433       -13.1277
 205   2.0000      -0.480633       -13.0787
 206   2.0000      -0.480188       -13.0666
 207   2.0000      -0.477847       -13.0029
 208   2.0000      -0.476182       -12.9576
 209   2.0000      -0.474302       -12.9064
 210   2.0000      -0.471916       -12.8415
 211   2.0000      -0.468829       -12.7575
 212   2.0000      -0.468198       -12.7403
 213   2.0000      -0.463490       -12.6122
 214   2.0000      -0.461711       -12.5638
 215   2.0000      -0.460939       -12.5428
 216   2.0000      -0.456992       -12.4354
 217   2.0000      -0.455718       -12.4007
 218   2.0000      -0.450624       -12.2621
 219   2.0000      -0.448669       -12.2089
 220   2.0000      -0.447109       -12.1665
 221   2.0000      -0.443811       -12.0767
 222   2.0000      -0.438339       -11.9278
 223   2.0000      -0.436444       -11.8762
 224   2.0000      -0.434212       -11.8155
 225   2.0000      -0.433132       -11.7861
 226   2.0000      -0.431535       -11.7427
 227   2.0000      -0.431197       -11.7335
 228   2.0000      -0.428823       -11.6689
 229   2.0000      -0.427991       -11.6462
 230   2.0000      -0.426845       -11.6150
 231   2.0000      -0.424553       -11.5527
 232   2.0000      -0.421299       -11.4641
 233   2.0000      -0.418573       -11.3900
 234   2.0000      -0.417814       -11.3693
 235   2.0000      -0.413731       -11.2582
 236   2.0000      -0.413377       -11.2485
 237   2.0000      -0.410791       -11.1782
 238   2.0000      -0.410679       -11.1751
 239   2.0000      -0.395959       -10.7746
 240   2.0000      -0.394720       -10.7409
 241   2.0000      -0.394601       -10.7376
 242   2.0000      -0.390554       -10.6275
 243   2.0000      -0.378061       -10.2876
 244   2.0000      -0.369563       -10.0563
 245   2.0000      -0.368570       -10.0293
 246   2.0000      -0.363746        -9.8980
 247   2.0000      -0.354920        -9.6579
 248   2.0000      -0.341170        -9.2837
 249   2.0000      -0.333430        -9.0731
 250   2.0000      -0.327375        -8.9083
 251   2.0000      -0.325691        -8.8625
 252   2.0000      -0.323664        -8.8073
 253   2.0000      -0.321558        -8.7500
 254   2.0000      -0.317772        -8.6470
 255   2.0000      -0.315595        -8.5878
 256   2.0000      -0.305534        -8.3140
 257   2.0000      -0.300624        -8.1804
 258   2.0000      -0.287749        -7.8300
 259   2.0000      -0.282759        -7.6943
 260   2.0000      -0.279326        -7.6008
 261   2.0000      -0.246376        -6.7042
 262   2.0000      -0.239644        -6.5211
 263   2.0000      -0.197987        -5.3875
 264   0.0000      -0.087998        -2.3945
 265   0.0000      -0.077857        -2.1186
 266   0.0000      -0.055696        -1.5156
 267   0.0000      -0.042570        -1.1584
 268   0.0000      -0.031465        -0.8562

MULLIKEN ATOMIC CHARGES
-----------------------
   0 C :    0.330839
   1 C :   -0.363308
   2 C :   -0.185270
   3 N :    0.138629
   4 C :   -0.190670
   5 N :    0.139755
   6 C :    0.014615
   7 C :   -0.008927
   8 C :   -0.082421
   9 C :    0.122263
  10 C :   -0.090899
  11 C :   -0.027877
  12 S :    0.181366
  13 C :   -0.123055
  14 C :    0.036598
  15 Br:    0.016081
  16 C :    0.140250
  17 O :   -0.159814
  18 C :   -0.070777
  19 C :   -0.036304
  20 C :   -0.006094
  21 C :   -0.003239
  22 C :    0.080145
  23 O :   -0.206769
  24 C :    0.119719
  25 C :    0.056125
  26 C :    0.107855
  27 O :   -0.158742
  28 O :   -0.198388
  29 C :   -0.006945
  30 C :   -0.029165
  31 C :    0.003903
  32 C :   -0.029153
  33 C :    0.116969
  34 C :   -0.176130
  35 C :    0.022590
  36 O :   -0.200632
  37 C :    0.019454
  38 S :    0.129979
  39 C :   -0.117340
  40 C :    0.091979
  41 C :   -0.039028
  42 C :    0.011329
  43 C :   -0.026271
  44 C :   -0.011462
  45 C :    0.030881
  46 C :    0.028698
  47 C :   -0.050076
  48 S :    0.057322
  49 C :   -0.043716
  50 C :    0.021630
  51 C :    0.038130
  52 C :   -0.022159
  53 S :    0.073202
  54 C :   -0.006076
  55 C :   -0.014071
  56 C :   -0.023142
  57 C :    0.121023
  58 O :   -0.215055
  59 C :    0.090993
  60 C :    0.073201
  61 C :    0.057117
  62 O :   -0.169313
  63 O :   -0.203031
  64 C :    0.010968
  65 C :   -0.035255
  66 C :    0.007550
  67 C :   -0.024531
  68 H :   -0.016506
  69 H :   -0.008322
  70 H :   -0.006728
  71 H :    0.009181
  72 H :    0.029532
  73 H :    0.025799
  74 H :    0.199415
  75 H :    0.194824
  76 H :    0.010812
  77 H :   -0.014372
  78 H :    0.009465
  79 H :    0.014483
  80 H :    0.043782
  81 H :    0.035765
  82 H :    0.043879
  83 H :    0.029576
  84 H :   -0.000536
  85 H :   -0.003654
  86 H :   -0.019254
  87 H :   -0.014000
  88 H :   -0.014217
  89 H :   -0.016306
  90 H :   -0.014822
  91 H :   -0.019075
  92 H :    0.017999
  93 H :   -0.015324
  94 H :    0.192950
  95 H :    0.189998
  96 H :   -0.002243
  97 H :   -0.043797
  98 H :   -0.007244
  99 H :    0.009453
 100 H :    0.023432
Sum of atomic charges:   -0.0000000

LOEWDIN ATOMIC CHARGES
----------------------
   0 C :    0.076471
   1 C :   -0.151146
   2 C :   -0.018073
   3 N :   -0.064455
   4 C :   -0.020684
   5 N :   -0.061454
   6 C :   -0.019259
   7 C :   -0.048531
   8 C :    0.017407
   9 C :   -0.034765
  10 C :   -0.145081
  11 C :   -0.012152
  12 S :    0.428247
  13 C :   -0.273902
  14 C :   -0.071566
  15 Br:    0.130727
  16 C :    0.082612
  17 O :   -0.152850
  18 C :   -0.110388
  19 C :    0.068631
  20 C :   -0.043046
  21 C :    0.026561
  22 C :   -0.012552
  23 O :    0.011234
  24 C :    0.008675
  25 C :   -0.021845
  26 C :    0.019985
  27 O :   -0.030705
  28 O :   -0.055902
  29 C :   -0.035938
  30 C :   -0.025419
  31 C :   -0.021658
  32 C :   -0.008360
  33 C :   -0.018123
  34 C :   -0.227345
  35 C :    0.063951
  36 O :   -0.160824
  37 C :   -0.086259
  38 S :    0.466339
  39 C :   -0.168631
  40 C :   -0.055812
  41 C :   -0.035972
  42 C :   -0.023502
  43 C :   -0.069037
  44 C :   -0.137597
  45 C :   -0.041758
  46 C :   -0.027813
  47 C :   -0.186755
  48 S :    0.359318
  49 C :   -0.172830
  50 C :   -0.038732
  51 C :   -0.031047
  52 C :   -0.151928
  53 S :    0.370857
  54 C :   -0.048385
  55 C :   -0.034028
  56 C :   -0.029238
  57 C :   -0.000175
  58 O :    0.001303
  59 C :   -0.019518
  60 C :   -0.013098
  61 C :   -0.002923
  62 O :   -0.040545
  63 O :   -0.059786
  64 C :   -0.028791
  65 C :   -0.048740
  66 C :   -0.023882
  67 C :   -0.053136
  68 H :    0.038527
  69 H :    0.040415
  70 H :    0.037330
  71 H :    0.040813
  72 H :    0.034949
  73 H :    0.048575
  74 H :    0.108723
  75 H :    0.095313
  76 H :    0.043375
  77 H :    0.022631
  78 H :    0.031943
  79 H :    0.032945
  80 H :    0.039687
  81 H :    0.040280
  82 H :    0.039150
  83 H :    0.025723
  84 H :    0.029717
  85 H :    0.019481
  86 H :    0.031274
  87 H :    0.032772
  88 H :    0.031576
  89 H :    0.030529
  90 H :    0.032756
  91 H :    0.031537
  92 H :    0.024851
  93 H :    0.035202
  94 H :    0.103844
  95 H :    0.091128
  96 H :    0.040723
  97 H :    0.013416
  98 H :    0.030195
  99 H :    0.019260
 100 H :    0.024987

  Mayer bond orders larger than 0.100000
B(  0-C ,  1-C ) :   1.6045 B(  0-C ,  6-C ) :   0.9942 B(  0-C , 18-C ) :   1.0923
B(  1-C ,  2-C ) :   1.1443 B(  1-C ,  4-C ) :   1.1511 B(  2-C ,  3-N ) :   2.9641
B(  4-C ,  5-N ) :   2.9631 B(  6-C ,  7-C ) :   1.2819 B(  6-C , 11-C ) :   1.4108
B(  7-C ,  8-C ) :   1.4248 B(  7-C , 16-C ) :   0.9349 B(  8-C ,  9-C ) :   1.2398
B(  8-C , 68-H ) :   1.0175 B(  9-C , 10-C ) :   1.3143 B(  9-C , 14-C ) :   1.1597
B( 10-C , 11-C ) :   1.3253 B( 10-C , 12-S ) :   1.0823 B( 11-C , 69-H ) :   0.9802
B( 12-S , 13-C ) :   1.0859 B( 13-C , 14-C ) :   1.6196 B( 13-C , 15-Br) :   1.0150
B( 14-C , 70-H ) :   1.0008 B( 16-C , 17-O ) :   2.1986 B( 16-C , 18-C ) :   0.9596
B( 18-C , 19-C ) :   1.4769 B( 19-C , 20-C ) :   1.1978 B( 19-C , 71-H ) :   0.9622
B( 20-C , 21-C ) :   1.4705 B( 20-C , 72-H ) :   0.9951 B( 21-C , 22-C ) :   1.2000
B( 21-C , 73-H ) :   0.9782 B( 22-C , 23-O ) :   1.1101 B( 22-C , 24-C ) :   0.1059
B( 22-C , 26-C ) :   1.3315 B( 23-O , 24-C ) :   1.1229 B( 24-C , 25-C ) :   1.3357
B( 24-C , 29-C ) :   1.1279 B( 25-C , 26-C ) :   1.2516 B( 25-C , 28-O ) :   1.2325
B( 26-C , 27-O ) :   1.2959 B( 27-O , 74-H ) :   0.9485 B( 28-O , 75-H ) :   0.9483
B( 29-C , 30-C ) :   1.6220 B( 29-C , 76-H ) :   0.9640 B( 30-C , 31-C ) :   1.1377
B( 30-C , 77-H ) :   0.9760 B( 31-C , 32-C ) :   1.6545 B( 31-C , 78-H ) :   0.9890
B( 32-C , 33-C ) :   1.1092 B( 32-C , 79-H ) :   0.9485 B( 33-C , 34-C ) :   1.4523
B( 33-C , 40-C ) :   1.2148 B( 34-C , 35-C ) :   0.9989 B( 34-C , 38-S ) :   1.1248
B( 35-C , 36-O ) :   2.1157 B( 35-C , 37-C ) :   1.0630 B( 37-C , 80-H ) :   0.9460
B( 37-C , 81-H ) :   0.9485 B( 37-C , 82-H ) :   0.9522 B( 38-S , 39-C ) :   1.1824
B( 39-C , 40-C ) :   1.5077 B( 39-C , 83-H ) :   0.9631 B( 40-C , 41-C ) :   1.0577
B( 41-C , 42-C ) :   1.6833 B( 41-C , 84-H ) :   0.9714 B( 42-C , 43-C ) :   1.1403
B( 42-C , 85-H ) :   0.9695 B( 43-C , 44-C ) :   1.5714 B( 43-C , 86-H ) :   0.9849
B( 44-C , 45-C ) :   1.1397 B( 44-C , 48-S ) :   1.0328 B( 45-C , 46-C ) :   1.5869
B( 45-C , 87-H ) :   0.9991 B( 46-C , 47-C ) :   1.1960 B( 46-C , 88-H ) :   0.9933
B( 47-C , 48-S ) :   1.0369 B( 47-C , 49-C ) :   1.4998 B( 49-C , 50-C ) :   1.1953
B( 49-C , 53-S ) :   1.0505 B( 50-C , 51-C ) :   1.5800 B( 50-C , 89-H ) :   0.9939
B( 51-C , 52-C ) :   1.1510 B( 51-C , 90-H ) :   0.9990 B( 52-C , 53-S ) :   1.0278
B( 52-C , 54-C ) :   1.5455 B( 54-C , 55-C ) :   1.1686 B( 54-C , 91-H ) :   0.9836
B( 55-C , 56-C ) :   1.5889 B( 55-C , 92-H ) :   0.9644 B( 56-C , 57-C ) :   1.1612
B( 56-C , 93-H ) :   0.9697 B( 57-C , 58-O ) :   1.1091 B( 57-C , 59-C ) :   0.1086
B( 57-C , 61-C ) :   1.3892 B( 58-O , 59-C ) :   1.1045 B( 59-C , 60-C ) :   1.3383
B( 59-C , 64-C ) :   1.1436 B( 60-C , 61-C ) :   1.2640 B( 60-C , 63-O ) :   1.2187
B( 61-C , 62-O ) :   1.2378 B( 62-O , 94-H ) :   0.9479 B( 63-O , 95-H ) :   0.9589
B( 64-C , 65-C ) :   1.6660 B( 64-C , 96-H ) :   0.9569 B( 65-C , 66-C ) :   1.1288
B( 65-C , 97-H ) :   0.9606 B( 66-C , 67-C ) :   1.8935 B( 66-C , 98-H ) :   0.9784
B( 67-C , 99-H ) :   0.9579 B( 67-C ,100-H ) :   0.9523

-----------------------------------------------------------------------------
         ABSORPTION SPECTRUM VIA TRANSITION ELECTRIC DIPOLE MOMENTS
-----------------------------------------------------------------------------
State   Energy  Wavelength   fosc         T2         TX        TY        TZ
        (cm-1)    (nm)                  (au**2)     (au)      (au)      (au)
-----------------------------------------------------------------------------
   0   13266.7    753.8   1.690350187  41.94585  -2.87658  -5.80267  -0.01086
   1   15058.3    664.1   0.047776827   1.04452  -0.62578  -0.19012   0.78535
   2   18299.6    546.5   1.348017087  24.25096  -0.30307  -2.22535  -4.38257
   3   20950.0    477.3   0.025042803   0.39353  -0.12951  -0.61358  -0.01666
   4   21505.9    465.0   0.001440193   0.02205  -0.14092  -0.02849   0.03709
   5   24253.8    412.3   0.839881874  11.40026  -1.13012  -0.48583  -3.14437
   6   25010.9    399.8   0.435998673   5.73895  -0.68927  -0.14334  -2.28983
   7   25331.8    394.8   0.425360242   5.52799   0.44908   0.87285   2.13646
   8   25595.9    390.7   0.023298354   0.29966  -0.18121   0.21443  -0.46994
   9   26536.9    376.8   0.027386247   0.33975  -0.15170  -0.38135  -0.41389
  10   27665.9    361.5   0.166557131   1.98195   0.33720   0.42225   1.29998
  11   27965.7    357.6   0.095799396   1.12775  -0.02304  -0.94755  -0.47892
  12   28079.5    356.1   0.112065830   1.31389   0.46070  -0.41418   0.96442
  13   28676.8    348.7   0.012177198   0.13980   0.11847  -0.28376   0.21269
  14   29335.5    340.9   0.570188446   6.39882  -0.65146   2.04848  -1.33348
  15   30410.9    328.8   0.025867428   0.28003   0.08159  -0.51850   0.06726
  16   30502.5    327.8   0.000820994   0.00886  -0.04656  -0.07855   0.02286
  17   31769.4    314.8   0.059473574   0.61630  -0.04247  -0.23356   0.74829
  18   32186.5    310.7   0.000676618   0.00692  -0.04789   0.04853   0.04767
  19   32283.5    309.8   0.002747866   0.02802   0.06310  -0.14045   0.06568
  20   32461.3    308.1   0.008616699   0.08739  -0.02199  -0.24162  -0.16889
  21   32782.7    305.0   0.001652588   0.01660   0.06384   0.11041  -0.01820
  22   32908.2    303.9   0.050661658   0.50682  -0.27961  -0.61899   0.21327
  23   33514.9    298.4   0.060770617   0.59694   0.14401   0.08242   0.75459
  24   33645.7    297.2   0.200638846   1.96319  -0.65587   0.72906  -1.00075
  25   33763.9    296.2   0.407156368   3.96995  -0.27569   1.78765  -0.83561
  26   33880.2    295.2   0.055167597   0.53606  -0.02620   0.72820  -0.07139
  27   34525.2    289.6   0.034641400   0.33032   0.44292  -0.04557  -0.36341
  28   34751.9    287.8   0.021167250   0.20052  -0.03558  -0.38668  -0.22302
  29   35171.4    284.3   0.131340653   1.22938  -0.36285   0.82705  -0.64320
  30   35220.1    283.9   0.058012233   0.54226  -0.07549   0.72876  -0.07398
  31   35993.0    277.8   0.012920644   0.11818  -0.03802   0.05524   0.33717
  32   36607.2    273.2   0.091548211   0.82330  -0.25360  -0.86637   0.09156
  33   36633.3    273.0   0.042642916   0.38322   0.12019  -0.24382  -0.55617
  34   37086.1    269.6   0.004608642   0.04091  -0.16526  -0.11479   0.02061
  35   37717.4    265.1   0.022581260   0.19710  -0.27245   0.34279  -0.07321
  36   37786.1    264.6   0.101463952   0.88401   0.39585   0.81078   0.26449
  37   37901.8    263.8   0.121886378   1.05870   0.17654  -1.01096   0.07414
  38   38556.4    259.4   0.009670474   0.08257  -0.01348  -0.15380  -0.24235
  39   39154.9    255.4   0.108406057   0.91147  -0.11116  -0.73171  -0.60309
  40   39536.1    252.9   0.087193583   0.72605  -0.03438  -0.62838   0.57446
  41   39795.8    251.3   0.213381181   1.76520   0.44890   0.65655   1.06425
  42   40011.0    249.9   0.012267566   0.10094  -0.06142   0.18377  -0.25178
  43   40254.6    248.4   0.023880416   0.19530  -0.02442  -0.36033   0.25469

FINAL SINGLE POINT ENERGY     -6913.420593757611

DIPOLE MOMENT
-------------
                                X             Y             Z
Electronic contribution:    -74.15725    -128.71475    -164.22338
Nuclear contribution   :     74.77629     133.88620     166.68959
                        -----------------------------------------
Total Dipole Moment    :      0.61904       5.17145       2.46620
                        -----------------------------------------
Magnitude (a.u.)       :      5.76275
Magnitude (Debye)      :     14.64774

Rotational constants in cm-1:     0.000728     0.000222     0.000177
Rotational constants in MHz :    21.838803     6.660547     5.298293

                             ****ORCA TERMINATED NORMALLY****
TOTAL RUN TIME: 0 days 0 hours 8 minutes 59 seconds 403 msec
