                         Program Version 4.2.0 -  RELEASE  -
|  1> # ORCA input file
|  2> # SCF done       -206.023389662133          0.000956497658
|  3> ! CAM-B3LYP def2-SVP def2/J RIJCOSX Grid4 TightSCF
|  4> %maxcore 5000
|  5> %tddft
|  6>     Mode sTDDFT
|  7>     Ethresh 5.0
|  8>     maxcore 5000
|  9> end
| 10>
| 11> %pal
| 12>   nprocs 6
| 13>   end
| 14> * xyz 0 1
| 15>    C      -12.59622        -7.08367        -7.14489
| 16>    C      -13.46244        -6.21830        -7.75318
| 17>    F      -14.22142        -6.63289        -8.77673
| 18>    C      -13.56748        -4.88391        -7.31528
| 19>    F      -14.42546        -4.05538        -7.92846
| 20>    C      -12.80286        -4.43170        -6.27621
| 21>    C      -11.89844        -5.29774        -5.63273
| 22>    C      -11.79362        -6.64817        -6.07222
| 23>    C      -10.88918        -7.53507        -5.44170
| 24>    C      -10.11127        -7.08312        -4.41028
| 25>    C      -10.21992        -5.72991        -3.98074
| 26>    C      -11.08653        -4.85308        -4.56471
| 27>    C       -9.26235        -5.50246        -2.88217
| 28>    O       -9.08823        -4.45695        -2.27267
| 29>    C       -8.57282        -6.76967        -2.67375
| 30>    C       -9.09154        -7.74769        -3.59724
| 31>    C       -8.70851        -9.06087        -3.72783
| 32>    C       -9.26704        -9.95346        -4.66498
| 33>    N       -9.67810       -10.72860        -5.40607
| 34>    C       -7.71397        -9.71130        -2.96968
| 35>    N       -6.91938       -10.32496        -2.41079
| 36>    C       -7.56301        -6.96667        -1.75242
| 37>    C       -6.95794        -6.06900        -0.88661
| 38>    C       -5.85623        -6.48910        -0.08992
| 39>    C       -5.27603        -5.45065         0.66895
| 40>    N       -4.21294        -5.67057         1.45323
| 41>    C       -3.76676        -6.90422         1.47428
| 42>    C       -4.35045        -7.95859         0.72909
| 43>    C       -3.80132        -9.34863         0.79631
| 44>    C       -4.85144       -10.40857         0.48337
| 45>    N       -5.38763        -7.73940        -0.05299
| 46>    C       -5.95007        -4.20870         0.50237
| 47>    S       -7.28217        -4.37430        -0.61201
| 48>    C       -5.53291        -3.05184         1.13637
| 49>    C       -6.12275        -1.79929         1.15461
| 50>    C       -5.56936        -0.67274         1.79728
| 51>    C       -6.35125         0.44580         1.73054
| 52>    C       -7.56631         0.24353         1.05119
| 53>    S       -7.66906        -1.39488         0.45008
| 54>    C       -8.60296         1.16325         0.90680
| 55>    C       -8.60183         2.50522         1.32652
| 56>    C       -9.79808         3.12852         1.11299
| 57>    C      -10.79205         2.30569         0.53732
| 58>    S      -10.14501         0.72007         0.20818
| 59>    C      -12.09926         2.74060         0.36360
| 60>    C      -13.20457         2.02978        -0.06855
| 61>    C      -13.29153         0.69880        -0.54748
| 62>    C      -14.62378         0.25871        -0.77791
| 63>    N      -14.85883        -0.95752        -1.29530
| 64>    C      -13.80610        -1.70908        -1.51721
| 65>    C      -12.48296        -1.30145        -1.24585
| 66>    C      -11.29987        -2.16766        -1.52179
| 67>    C      -10.43713        -1.56600        -2.63286
| 68>    N      -12.24916        -0.08674        -0.78154
| 69>    C      -15.59627         1.23351        -0.46476
| 70>    S      -14.80261         2.71521         0.00654
| 71>    C      -16.98893         1.17182        -0.50640
| 72>    C      -17.80568         0.06635        -0.54220
| 73>    C      -19.19959         0.22172        -1.02539
| 74>    O      -19.78568         1.26015        -1.23737
| 75>    C      -19.69655        -1.15598        -1.22922
| 76>    C      -20.89073        -1.57223        -1.74045
| 77>    C      -21.14341        -2.95867        -1.85483
| 78>    C      -20.14573        -3.88672        -1.43909
| 79>    C      -20.40330        -5.26700        -1.55633
| 80>    C      -21.59600        -5.70560        -2.05938
| 81>    C      -22.58163        -4.78719        -2.46977
| 82>    C      -22.36124        -3.44177        -2.37052
| 83>    F      -23.74281        -5.24501        -2.96023
| 84>    F      -21.83926        -7.01977        -2.16629
| 85>    C      -18.91931        -3.42408        -0.90730
| 86>    C      -18.70013        -2.07788        -0.79877
| 87>    C      -17.57520        -1.32094        -0.25187
| 88>    C      -16.61193        -1.83955         0.58203
| 89>    C      -15.74795        -1.05227         1.36328
| 90>    N      -15.04778        -0.44834         2.04571
| 91>    C      -16.42221        -3.21430         0.81185
| 92>    N      -16.18986        -4.32226         1.00691
| 93>    H      -12.52812        -8.10267        -7.49242
| 94>    H      -12.89501        -3.40603        -5.95450
| 95>    H      -10.83431        -8.55059        -5.79823
| 96>    H      -11.14672        -3.83032        -4.22738
| 97>    H       -7.12349        -7.95499        -1.68244
| 98>    H       -2.90965        -7.08734         2.10830
| 99>    H       -3.36783        -9.51319         1.78600
|100>    H       -2.98656        -9.42040         0.06826
|101>    H       -5.65890       -10.36449         1.21010
|102>    H       -4.40450       -11.39832         0.51958
|103>    H       -5.27363       -10.24787        -0.50367
|104>    H       -4.61777        -3.15985         1.70742
|105>    H       -4.61530        -0.72031         2.29118
|106>    H       -6.09083         1.39026         2.17204
|107>    H       -7.74625         2.98177         1.76979
|108>    H      -10.00158         4.15223         1.37408
|109>    H      -12.28720         3.76367         0.66738
|110>    H      -14.00751        -2.68636        -1.93602
|111>    H      -11.62610        -3.17117        -1.79579
|112>    H      -10.69133        -2.23771        -0.61874
|113>    H      -11.01140        -1.45448        -3.55143
|114>    H       -9.58776        -2.21740        -2.81396
|115>    H      -10.07623        -0.58649        -2.33323
|116>    H      -17.51111         2.12224        -0.56660
|117>    H      -21.63554        -0.85557        -2.05124
|118>    H      -19.66031        -5.98391        -1.24366
|119>    H      -23.12635        -2.75138        -2.68909
|120>    H      -18.18061        -4.14832        -0.60332
|121> *
|122>
|123>                          ****END OF INPUT****

CARTESIAN COORDINATES (ANGSTROEM)
---------------------------------
  C    -12.596220   -7.083670   -7.144890
  C    -13.462440   -6.218300   -7.753180
  F    -14.221420   -6.632890   -8.776730
  C    -13.567480   -4.883910   -7.315280
  F    -14.425460   -4.055380   -7.928460
  C    -12.802860   -4.431700   -6.276210
  C    -11.898440   -5.297740   -5.632730
  C    -11.793620   -6.648170   -6.072220
  C    -10.889180   -7.535070   -5.441700
  C    -10.111270   -7.083120   -4.410280
  C    -10.219920   -5.729910   -3.980740
  C    -11.086530   -4.853080   -4.564710
  C     -9.262350   -5.502460   -2.882170
  O     -9.088230   -4.456950   -2.272670
  C     -8.572820   -6.769670   -2.673750
  C     -9.091540   -7.747690   -3.597240
  C     -8.708510   -9.060870   -3.727830
  C     -9.267040   -9.953460   -4.664980
  N     -9.678100  -10.728600   -5.406070
  C     -7.713970   -9.711300   -2.969680
  N     -6.919380  -10.324960   -2.410790
  C     -7.563010   -6.966670   -1.752420
  C     -6.957940   -6.069000   -0.886610
  C     -5.856230   -6.489100   -0.089920
  C     -5.276030   -5.450650    0.668950
  N     -4.212940   -5.670570    1.453230
  C     -3.766760   -6.904220    1.474280
  C     -4.350450   -7.958590    0.729090
  C     -3.801320   -9.348630    0.796310
  C     -4.851440  -10.408570    0.483370
  N     -5.387630   -7.739400   -0.052990
  C     -5.950070   -4.208700    0.502370
  S     -7.282170   -4.374300   -0.612010
  C     -5.532910   -3.051840    1.136370
  C     -6.122750   -1.799290    1.154610
  C     -5.569360   -0.672740    1.797280
  C     -6.351250    0.445800    1.730540
  C     -7.566310    0.243530    1.051190
  S     -7.669060   -1.394880    0.450080
  C     -8.602960    1.163250    0.906800
  C     -8.601830    2.505220    1.326520
  C     -9.798080    3.128520    1.112990
  C    -10.792050    2.305690    0.537320
  S    -10.145010    0.720070    0.208180
  C    -12.099260    2.740600    0.363600
  C    -13.204570    2.029780   -0.068550
  C    -13.291530    0.698800   -0.547480
  C    -14.623780    0.258710   -0.777910
  N    -14.858830   -0.957520   -1.295300
  C    -13.806100   -1.709080   -1.517210
  C    -12.482960   -1.301450   -1.245850
  C    -11.299870   -2.167660   -1.521790
  C    -10.437130   -1.566000   -2.632860
  N    -12.249160   -0.086740   -0.781540
  C    -15.596270    1.233510   -0.464760
  S    -14.802610    2.715210    0.006540
  C    -16.988930    1.171820   -0.506400
  C    -17.805680    0.066350   -0.542200
  C    -19.199590    0.221720   -1.025390
  O    -19.785680    1.260150   -1.237370
  C    -19.696550   -1.155980   -1.229220
  C    -20.890730   -1.572230   -1.740450
  C    -21.143410   -2.958670   -1.854830
  C    -20.145730   -3.886720   -1.439090
  C    -20.403300   -5.267000   -1.556330
  C    -21.596000   -5.705600   -2.059380
  C    -22.581630   -4.787190   -2.469770
  C    -22.361240   -3.441770   -2.370520
  F    -23.742810   -5.245010   -2.960230
  F    -21.839260   -7.019770   -2.166290
  C    -18.919310   -3.424080   -0.907300
  C    -18.700130   -2.077880   -0.798770
  C    -17.575200   -1.320940   -0.251870
  C    -16.611930   -1.839550    0.582030
  C    -15.747950   -1.052270    1.363280
  N    -15.047780   -0.448340    2.045710
  C    -16.422210   -3.214300    0.811850
  N    -16.189860   -4.322260    1.006910
  H    -12.528120   -8.102670   -7.492420
  H    -12.895010   -3.406030   -5.954500
  H    -10.834310   -8.550590   -5.798230
  H    -11.146720   -3.830320   -4.227380
  H     -7.123490   -7.954990   -1.682440
  H     -2.909650   -7.087340    2.108300
  H     -3.367830   -9.513190    1.786000
  H     -2.986560   -9.420400    0.068260
  H     -5.658900  -10.364490    1.210100
  H     -4.404500  -11.398320    0.519580
  H     -5.273630  -10.247870   -0.503670
  H     -4.617770   -3.159850    1.707420
  H     -4.615300   -0.720310    2.291180
  H     -6.090830    1.390260    2.172040
  H     -7.746250    2.981770    1.769790
  H    -10.001580    4.152230    1.374080
  H    -12.287200    3.763670    0.667380
  H    -14.007510   -2.686360   -1.936020
  H    -11.626100   -3.171170   -1.795790
  H    -10.691330   -2.237710   -0.618740
  H    -11.011400   -1.454480   -3.551430
  H     -9.587760   -2.217400   -2.813960
  H    -10.076230   -0.586490   -2.333230
  H    -17.511110    2.122240   -0.566600
  H    -21.635540   -0.855570   -2.051240
  H    -19.660310   -5.983910   -1.243660
  H    -23.126350   -2.751380   -2.689090
  H    -18.180610   -4.148320   -0.603320

 Total Charge           Charge          ....    0
 Multiplicity           Mult            ....    1
 Number of Electrons    NEL             ....  560
 Basis Dimension        Dim             .... 1248

ORBITAL ENERGIES
----------------

  NO   OCC          E(Eh)            E(eV)
   0   2.0000     -88.987700     -2421.4784
   1   2.0000     -88.982216     -2421.3292
   2   2.0000     -88.975648     -2421.1505
   3   2.0000     -88.970915     -2421.0217
   4   2.0000     -24.795122      -674.7096
   5   2.0000     -24.793627      -674.6689
   6   2.0000     -24.789840      -674.5658
   7   2.0000     -24.789340      -674.5522
   8   2.0000     -19.219029      -522.9764
   9   2.0000     -19.205407      -522.6057
  10   2.0000     -14.440101      -392.9351
  11   2.0000     -14.436826      -392.8460
  12   2.0000     -14.434898      -392.7935
  13   2.0000     -14.426146      -392.5554
  14   2.0000     -14.408169      -392.0662
  15   2.0000     -14.405945      -392.0057
  16   2.0000     -14.405295      -391.9880
  17   2.0000     -14.405044      -391.9812
  18   2.0000     -10.377628      -282.3896
  19   2.0000     -10.376652      -282.3631
  20   2.0000     -10.372098      -282.2391
  21   2.0000     -10.371763      -282.2300
  22   2.0000     -10.365296      -282.0540
  23   2.0000     -10.356108      -281.8040
  24   2.0000     -10.338939      -281.3368
  25   2.0000     -10.338000      -281.3113
  26   2.0000     -10.336302      -281.2651
  27   2.0000     -10.335478      -281.2427
  28   2.0000     -10.333485      -281.1884
  29   2.0000     -10.332250      -281.1548
  30   2.0000     -10.332111      -281.1510
  31   2.0000     -10.331587      -281.1368
  32   2.0000     -10.330974      -281.1201
  33   2.0000     -10.330241      -281.1002
  34   2.0000     -10.329819      -281.0887
  35   2.0000     -10.327148      -281.0160
  36   2.0000     -10.327094      -281.0145
  37   2.0000     -10.327028      -281.0127
  38   2.0000     -10.326098      -280.9874
  39   2.0000     -10.326026      -280.9855
  40   2.0000     -10.322234      -280.8823
  41   2.0000     -10.322018      -280.8764
  42   2.0000     -10.321614      -280.8654
  43   2.0000     -10.315797      -280.7071
  44   2.0000     -10.314754      -280.6787
  45   2.0000     -10.313435      -280.6428
  46   2.0000     -10.311426      -280.5882
  47   2.0000     -10.310528      -280.5637
  48   2.0000     -10.309914      -280.5470
  49   2.0000     -10.309115      -280.5253
  50   2.0000     -10.309086      -280.5245
  51   2.0000     -10.308827      -280.5174
  52   2.0000     -10.308141      -280.4988
  53   2.0000     -10.307555      -280.4828
  54   2.0000     -10.306141      -280.4444
  55   2.0000     -10.306004      -280.4406
  56   2.0000     -10.305409      -280.4244
  57   2.0000     -10.303686      -280.3776
  58   2.0000     -10.301242      -280.3110
  59   2.0000     -10.300640      -280.2947
  60   2.0000     -10.300177      -280.2821
  61   2.0000     -10.298823      -280.2452
  62   2.0000     -10.298179      -280.2277
  63   2.0000     -10.296355      -280.1781
  64   2.0000     -10.296315      -280.1770
  65   2.0000     -10.295842      -280.1641
  66   2.0000     -10.292518      -280.0737
  67   2.0000     -10.292353      -280.0692
  68   2.0000     -10.291262      -280.0395
  69   2.0000     -10.290204      -280.0107
  70   2.0000     -10.289438      -279.9898
  71   2.0000     -10.287074      -279.9255
  72   2.0000     -10.286041      -279.8974
  73   2.0000     -10.282871      -279.8111
  74   2.0000     -10.274169      -279.5743
  75   2.0000     -10.271252      -279.4950
  76   2.0000     -10.256185      -279.0850
  77   2.0000     -10.240286      -278.6523
  78   2.0000      -8.082761      -219.9431
  79   2.0000      -8.074289      -219.7126
  80   2.0000      -8.071208      -219.6287
  81   2.0000      -8.064132      -219.4362
  82   2.0000      -6.051752      -164.6765
  83   2.0000      -6.047927      -164.5724
  84   2.0000      -6.045200      -164.4983
  85   2.0000      -6.043596      -164.4546
  86   2.0000      -6.040825      -164.3792
  87   2.0000      -6.039118      -164.3327
  88   2.0000      -6.036916      -164.2728
  89   2.0000      -6.036596      -164.2641
  90   2.0000      -6.034027      -164.1942
  91   2.0000      -6.032607      -164.1556
  92   2.0000      -6.029467      -164.0701
  93   2.0000      -6.025396      -163.9594
  94   2.0000      -1.317003       -35.8375
  95   2.0000      -1.312075       -35.7034
  96   2.0000      -1.302179       -35.4341
  97   2.0000      -1.297304       -35.3014
  98   2.0000      -1.133003       -30.8306
  99   2.0000      -1.120118       -30.4800
 100   2.0000      -1.098866       -29.9017
 101   2.0000      -1.090675       -29.6788
 102   2.0000      -1.024746       -27.8848
 103   2.0000      -1.018894       -27.7255
 104   2.0000      -1.013896       -27.5895
 105   2.0000      -1.011666       -27.5288
 106   2.0000      -1.008177       -27.4339
 107   2.0000      -1.002459       -27.2783
 108   2.0000      -0.998418       -27.1683
 109   2.0000      -0.995543       -27.0901
 110   2.0000      -0.994171       -27.0528
 111   2.0000      -0.987322       -26.8664
 112   2.0000      -0.985226       -26.8094
 113   2.0000      -0.984438       -26.7879
 114   2.0000      -0.975170       -26.5357
 115   2.0000      -0.970591       -26.4111
 116   2.0000      -0.927941       -25.2506
 117   2.0000      -0.925354       -25.1802
 118   2.0000      -0.918489       -24.9934
 119   2.0000      -0.909118       -24.7383
 120   2.0000      -0.898460       -24.4483
 121   2.0000      -0.894714       -24.3464
 122   2.0000      -0.890329       -24.2271
 123   2.0000      -0.887371       -24.1466
 124   2.0000      -0.884460       -24.0674
 125   2.0000      -0.881784       -23.9946
 126   2.0000      -0.877830       -23.8870
 127   2.0000      -0.866990       -23.5920
 128   2.0000      -0.866362       -23.5749
 129   2.0000      -0.847861       -23.0715
 130   2.0000      -0.846214       -23.0266
 131   2.0000      -0.837915       -22.8008
 132   2.0000      -0.835539       -22.7362
 133   2.0000      -0.830846       -22.6085
 134   2.0000      -0.830239       -22.5919
 135   2.0000      -0.823088       -22.3974
 136   2.0000      -0.808939       -22.0123
 137   2.0000      -0.790895       -21.5213
 138   2.0000      -0.776966       -21.1423
 139   2.0000      -0.770915       -20.9777
 140   2.0000      -0.766352       -20.8535
 141   2.0000      -0.761876       -20.7317
 142   2.0000      -0.757850       -20.6221
 143   2.0000      -0.755009       -20.5448
 144   2.0000      -0.740484       -20.1496
 145   2.0000      -0.736470       -20.0404
 146   2.0000      -0.726536       -19.7701
 147   2.0000      -0.718212       -19.5436
 148   2.0000      -0.713662       -19.4197
 149   2.0000      -0.706689       -19.2300
 150   2.0000      -0.706664       -19.2293
 151   2.0000      -0.697970       -18.9927
 152   2.0000      -0.691977       -18.8296
 153   2.0000      -0.685042       -18.6409
 154   2.0000      -0.679019       -18.4771
 155   2.0000      -0.677216       -18.4280
 156   2.0000      -0.672641       -18.3035
 157   2.0000      -0.669438       -18.2163
 158   2.0000      -0.661786       -18.0081
 159   2.0000      -0.655267       -17.8307
 160   2.0000      -0.653105       -17.7719
 161   2.0000      -0.647778       -17.6269
 162   2.0000      -0.645387       -17.5619
 163   2.0000      -0.641292       -17.4504
 164   2.0000      -0.638533       -17.3754
 165   2.0000      -0.635880       -17.3032
 166   2.0000      -0.633622       -17.2417
 167   2.0000      -0.631780       -17.1916
 168   2.0000      -0.629142       -17.1198
 169   2.0000      -0.624828       -17.0024
 170   2.0000      -0.614763       -16.7286
 171   2.0000      -0.605372       -16.4730
 172   2.0000      -0.604124       -16.4391
 173   2.0000      -0.594701       -16.1826
 174   2.0000      -0.592269       -16.1165
 175   2.0000      -0.590498       -16.0683
 176   2.0000      -0.581720       -15.8294
 177   2.0000      -0.578662       -15.7462
 178   2.0000      -0.577556       -15.7161
 179   2.0000      -0.576817       -15.6960
 180   2.0000      -0.574842       -15.6422
 181   2.0000      -0.571403       -15.5487
 182   2.0000      -0.562903       -15.3174
 183   2.0000      -0.561719       -15.2852
 184   2.0000      -0.555584       -15.1182
 185   2.0000      -0.553975       -15.0744
 186   2.0000      -0.552783       -15.0420
 187   2.0000      -0.550787       -14.9877
 188   2.0000      -0.545627       -14.8473
 189   2.0000      -0.543436       -14.7876
 190   2.0000      -0.543080       -14.7780
 191   2.0000      -0.542042       -14.7497
 192   2.0000      -0.538687       -14.6584
 193   2.0000      -0.535377       -14.5684
 194   2.0000      -0.533823       -14.5261
 195   2.0000      -0.532176       -14.4813
 196   2.0000      -0.529298       -14.4029
 197   2.0000      -0.528007       -14.3678
 198   2.0000      -0.527281       -14.3480
 199   2.0000      -0.524775       -14.2799
 200   2.0000      -0.523850       -14.2547
 201   2.0000      -0.522116       -14.2075
 202   2.0000      -0.520359       -14.1597
 203   2.0000      -0.516905       -14.0657
 204   2.0000      -0.515682       -14.0324
 205   2.0000      -0.513693       -13.9783
 206   2.0000      -0.512423       -13.9437
 207   2.0000      -0.509955       -13.8766
 208   2.0000      -0.506583       -13.7848
 209   2.0000      -0.505554       -13.7568
 210   2.0000      -0.500422       -13.6172
 211   2.0000      -0.497347       -13.5335
 212   2.0000      -0.495544       -13.4844
 213   2.0000      -0.493131       -13.4188
 214   2.0000      -0.490583       -13.3494
 215   2.0000      -0.489847       -13.3294
 216   2.0000      -0.488478       -13.2922
 217   2.0000      -0.485680       -13.2160
 218   2.0000      -0.484703       -13.1894
 219   2.0000      -0.481372       -13.0988
 220   2.0000      -0.480420       -13.0729
 221   2.0000      -0.474747       -12.9185
 222   2.0000      -0.471896       -12.8410
 223   2.0000      -0.467259       -12.7148
 224   2.0000      -0.465202       -12.6588
 225   2.0000      -0.459855       -12.5133
 226   2.0000      -0.459330       -12.4990
 227   2.0000      -0.457710       -12.4549
 228   2.0000      -0.455435       -12.3930
 229   2.0000      -0.454299       -12.3621
 230   2.0000      -0.450830       -12.2677
 231   2.0000      -0.448138       -12.1945
 232   2.0000      -0.448107       -12.1936
 233   2.0000      -0.444224       -12.0879
 234   2.0000      -0.443146       -12.0586
 235   2.0000      -0.442681       -12.0460
 236   2.0000      -0.440472       -11.9858
 237   2.0000      -0.439172       -11.9505
 238   2.0000      -0.437178       -11.8962
 239   2.0000      -0.436136       -11.8679
 240   2.0000      -0.434602       -11.8261
 241   2.0000      -0.434342       -11.8191
 242   2.0000      -0.432374       -11.7655
 243   2.0000      -0.427302       -11.6275
 244   2.0000      -0.426441       -11.6041
 245   2.0000      -0.424387       -11.5482
 246   2.0000      -0.420566       -11.4442
 247   2.0000      -0.418837       -11.3971
 248   2.0000      -0.418109       -11.3773
 249   2.0000      -0.416905       -11.3446
 250   2.0000      -0.411367       -11.1939
 251   2.0000      -0.410153       -11.1608
 252   2.0000      -0.407631       -11.0922
 253   2.0000      -0.404584       -11.0093
 254   2.0000      -0.401183       -10.9167
 255   2.0000      -0.398952       -10.8560
 256   2.0000      -0.396233       -10.7820
 257   2.0000      -0.393717       -10.7136
 258   2.0000      -0.390361       -10.6223
 259   2.0000      -0.383251       -10.4288
 260   2.0000      -0.380832       -10.3630
 261   2.0000      -0.376912       -10.2563
 262   2.0000      -0.364963        -9.9311
 263   2.0000      -0.357746        -9.7348
 264   2.0000      -0.349299        -9.5049
 265   2.0000      -0.346228        -9.4213
 266   2.0000      -0.336982        -9.1697
 267   2.0000      -0.335715        -9.1353
 268   2.0000      -0.334725        -9.1083
 269   2.0000      -0.331013        -9.0073
 270   2.0000      -0.329406        -8.9636
 271   2.0000      -0.326698        -8.8899
 272   2.0000      -0.324601        -8.8328
 273   2.0000      -0.314012        -8.5447
 274   2.0000      -0.306277        -8.3342
 275   2.0000      -0.302887        -8.2420
 276   2.0000      -0.294039        -8.0012
 277   2.0000      -0.286639        -7.7998
 278   2.0000      -0.264582        -7.1996
 279   2.0000      -0.222868        -6.0645
 280   0.0000      -0.136716        -3.7202
 281   0.0000      -0.092087        -2.5058
 282   0.0000      -0.065901        -1.7933
 283   0.0000      -0.057250        -1.5578
 284   0.0000      -0.052118        -1.4182

MULLIKEN ATOMIC CHARGES
-----------------------
   0 C :   -0.107701
   1 C :    0.238571
   2 F :   -0.172347
   3 C :    0.236748
   4 F :   -0.174368
   5 C :   -0.111377
   6 C :    0.125921
   7 C :    0.108065
   8 C :   -0.082833
   9 C :    0.042341
  10 C :    0.010995
  11 C :   -0.081451
  12 C :    0.178535
  13 O :   -0.205215
  14 C :   -0.097099
  15 C :    0.342143
  16 C :   -0.363135
  17 C :   -0.188091
  18 N :    0.138769
  19 C :   -0.198696
  20 N :    0.168031
  21 C :   -0.056357
  22 C :   -0.120435
  23 C :    0.044968
  24 C :    0.017389
  25 N :    0.007585
  26 C :    0.017460
  27 C :   -0.107247
  28 C :    0.059154
  29 C :    0.017472
  30 N :    0.006372
  31 C :   -0.094883
  32 S :    0.205633
  33 C :   -0.044871
  34 C :   -0.013071
  35 C :    0.035456
  36 C :    0.030459
  37 C :   -0.046491
  38 S :    0.128476
  39 C :   -0.024262
  40 C :    0.034696
  41 C :    0.029996
  42 C :   -0.005708
  43 S :    0.150822
  44 C :    0.005774
  45 C :   -0.126563
  46 C :    0.083850
  47 C :    0.005968
  48 N :    0.000694
  49 C :    0.037251
  50 C :   -0.097377
  51 C :    0.106340
  52 C :   -0.003695
  53 N :   -0.056996
  54 C :   -0.162259
  55 S :    0.200872
  56 C :    0.060313
  57 C :   -0.143120
  58 C :    0.132288
  59 O :   -0.150013
  60 C :    0.013732
  61 C :   -0.085142
  62 C :    0.110958
  63 C :    0.113752
  64 C :   -0.109455
  65 C :    0.241363
  66 C :    0.236592
  67 C :   -0.104826
  68 F :   -0.175789
  69 F :   -0.174825
  70 C :   -0.091877
  71 C :    0.039838
  72 C :    0.331954
  73 C :   -0.345700
  74 C :   -0.209547
  75 N :    0.152083
  76 C :   -0.186076
  77 N :    0.135837
  78 H :    0.007605
  79 H :   -0.006357
  80 H :   -0.008203
  81 H :   -0.054504
  82 H :    0.024612
  83 H :    0.001506
  84 H :    0.008581
  85 H :    0.034229
  86 H :    0.007247
  87 H :    0.005153
  88 H :    0.050805
  89 H :    0.008525
  90 H :   -0.000241
  91 H :   -0.005209
  92 H :   -0.008787
  93 H :   -0.003233
  94 H :   -0.013217
  95 H :    0.009713
  96 H :   -0.001161
  97 H :    0.027294
  98 H :    0.005019
  99 H :    0.039175
 100 H :    0.014917
 101 H :    0.013219
 102 H :   -0.013431
 103 H :    0.002833
 104 H :   -0.002998
 105 H :   -0.009713
Sum of atomic charges:   -0.0000000

LOEWDIN ATOMIC CHARGES
----------------------
   0 C :   -0.028797
   1 C :    0.065024
   2 F :   -0.050283
   3 C :    0.065953
   4 F :   -0.052082
   5 C :   -0.036865
   6 C :   -0.010420
   7 C :   -0.007353
   8 C :    0.015627
   9 C :   -0.018132
  10 C :   -0.048570
  11 C :    0.018176
  12 C :    0.086598
  13 O :   -0.181537
  14 C :   -0.121679
  15 C :    0.074163
  16 C :   -0.151530
  17 C :   -0.017972
  18 N :   -0.064822
  19 C :   -0.016491
  20 N :   -0.049640
  21 C :    0.053754
  22 C :   -0.202175
  23 C :   -0.014293
  24 C :   -0.054291
  25 N :   -0.032193
  26 C :    0.003680
  27 C :    0.017322
  28 C :   -0.040351
  29 C :   -0.050894
  30 N :   -0.041418
  31 C :   -0.159171
  32 S :    0.524554
  33 C :   -0.061441
  34 C :   -0.135747
  35 C :   -0.026566
  36 C :   -0.024696
  37 C :   -0.169962
  38 S :    0.414951
  39 C :   -0.176859
  40 C :   -0.027493
  41 C :   -0.023250
  42 C :   -0.130301
  43 S :    0.476426
  44 C :   -0.060005
  45 C :   -0.150205
  46 C :   -0.031017
  47 C :   -0.030653
  48 N :   -0.033456
  49 C :    0.027674
  50 C :    0.006961
  51 C :   -0.033628
  52 C :   -0.055722
  53 N :   -0.052385
  54 C :   -0.190201
  55 S :    0.499318
  56 C :    0.033780
  57 C :   -0.092950
  58 C :    0.080974
  59 O :   -0.151436
  60 C :   -0.052806
  61 C :    0.026789
  62 C :   -0.011890
  63 C :   -0.006197
  64 C :   -0.032114
  65 C :    0.065221
  66 C :    0.064040
  67 C :   -0.034020
  68 F :   -0.052994
  69 F :   -0.052052
  70 C :    0.007072
  71 C :   -0.014104
  72 C :    0.072584
  73 C :   -0.145813
  74 C :   -0.016076
  75 N :   -0.069957
  76 C :   -0.019499
  77 N :   -0.069229
  78 H :    0.047823
  79 H :    0.041991
  80 H :    0.039986
  81 H :    0.036720
  82 H :    0.052508
  83 H :    0.025802
  84 H :    0.029002
  85 H :    0.044067
  86 H :    0.023559
  87 H :    0.024007
  88 H :    0.029728
  89 H :    0.047157
  90 H :    0.038832
  91 H :    0.035524
  92 H :    0.032468
  93 H :    0.036620
  94 H :    0.039775
  95 H :    0.029913
  96 H :    0.025974
  97 H :    0.035642
  98 H :    0.015144
  99 H :    0.026385
 100 H :    0.015527
 101 H :    0.044067
 102 H :    0.038944
 103 H :    0.046074
 104 H :    0.043709
 105 H :    0.038092

  Mayer bond orders larger than 0.100000
B(  0-C ,  1-C ) :   1.4356 B(  0-C ,  5-C ) :   0.1088 B(  0-C ,  7-C ) :   1.1951
B(  0-C , 78-H ) :   1.0065 B(  1-C ,  2-F ) :   1.1339 B(  1-C ,  3-C ) :   1.1978
B(  3-C ,  4-F ) :   1.1309 B(  3-C ,  5-C ) :   1.4403 B(  5-C ,  6-C ) :   1.1926
B(  5-C , 79-H ) :   1.0065 B(  6-C ,  7-C ) :   1.2531 B(  6-C , 11-C ) :   1.1912
B(  7-C ,  8-C ) :   1.2047 B(  8-C ,  9-C ) :   1.4681 B(  8-C , 80-H ) :   0.9884
B(  9-C , 10-C ) :   1.2154 B(  9-C , 15-C ) :   0.9709 B( 10-C , 11-C ) :   1.4749
B( 10-C , 12-C ) :   0.9447 B( 11-C , 81-H ) :   1.0115 B( 12-C , 13-O ) :   2.0297
B( 12-C , 14-C ) :   1.0357 B( 14-C , 15-C ) :   1.1182 B( 14-C , 21-C ) :   1.3501
B( 15-C , 16-C ) :   1.5935 B( 16-C , 17-C ) :   1.1546 B( 16-C , 19-C ) :   1.1482
B( 17-C , 18-N ) :   2.9546 B( 19-C , 20-N ) :   2.9719 B( 21-C , 22-C ) :   1.4153
B( 21-C , 82-H ) :   0.9335 B( 22-C , 23-C ) :   1.1948 B( 22-C , 32-S ) :   1.0757
B( 23-C , 24-C ) :   1.2749 B( 23-C , 30-N ) :   1.4717 B( 24-C , 25-N ) :   1.4723
B( 24-C , 31-C ) :   1.1889 B( 25-N , 26-C ) :   1.6663 B( 26-C , 27-C ) :   1.2176
B( 26-C , 83-H ) :   0.9800 B( 27-C , 28-C ) :   1.0103 B( 27-C , 30-N ) :   1.6323
B( 28-C , 29-C ) :   1.1142 B( 28-C , 84-H ) :   0.9367 B( 28-C , 85-H ) :   0.9126
B( 29-C , 86-H ) :   0.9748 B( 29-C , 87-H ) :   0.9598 B( 29-C , 88-H ) :   0.9524
B( 31-C , 32-S ) :   1.1207 B( 31-C , 33-C ) :   1.3391 B( 33-C , 34-C ) :   1.4145
B( 33-C , 89-H ) :   0.9657 B( 34-C , 35-C ) :   1.1939 B( 34-C , 38-S ) :   1.0745
B( 35-C , 36-C ) :   1.5264 B( 35-C , 90-H ) :   1.0020 B( 36-C , 37-C ) :   1.2316
B( 36-C , 91-H ) :   0.9941 B( 37-C , 38-S ) :   1.0607 B( 37-C , 39-C ) :   1.4295
B( 39-C , 40-C ) :   1.2220 B( 39-C , 43-S ) :   1.0214 B( 40-C , 41-C ) :   1.5389
B( 40-C , 92-H ) :   0.9927 B( 41-C , 42-C ) :   1.1817 B( 41-C , 93-H ) :   1.0008
B( 42-C , 43-S ) :   1.0906 B( 42-C , 44-C ) :   1.4737 B( 44-C , 45-C ) :   1.2861
B( 44-C , 94-H ) :   0.9418 B( 45-C , 46-C ) :   1.2142 B( 45-C , 55-S ) :   1.1689
B( 46-C , 47-C ) :   1.2428 B( 46-C , 53-N ) :   1.4471 B( 47-C , 48-N ) :   1.4484
B( 47-C , 54-C ) :   1.2692 B( 48-N , 49-C ) :   1.6301 B( 49-C , 50-C ) :   1.2343
B( 49-C , 95-H ) :   0.9768 B( 50-C , 51-C ) :   1.0269 B( 50-C , 53-N ) :   1.5499
B( 51-C , 52-C ) :   1.0964 B( 51-C , 96-H ) :   0.9296 B( 51-C , 97-H ) :   0.9145
B( 52-C , 98-H ) :   0.9610 B( 52-C , 99-H ) :   0.9562 B( 52-C ,100-H ) :   0.9617
B( 54-C , 55-S ) :   1.1103 B( 54-C , 56-C ) :   1.2413 B( 56-C , 57-C ) :   1.5535
B( 56-C ,101-H ) :   0.9271 B( 57-C , 58-C ) :   0.9575 B( 57-C , 72-C ) :   1.0994
B( 58-C , 59-O ) :   2.2632 B( 58-C , 60-C ) :   0.9141 B( 60-C , 61-C ) :   1.4793
B( 60-C , 71-C ) :   1.2187 B( 61-C , 62-C ) :   1.1868 B( 61-C ,102-H ) :   1.0156
B( 62-C , 63-C ) :   1.2623 B( 62-C , 67-C ) :   1.1938 B( 63-C , 64-C ) :   1.1934
B( 63-C , 70-C ) :   1.2047 B( 64-C , 65-C ) :   1.4361 B( 64-C , 67-C ) :   0.1096
B( 64-C ,103-H ) :   1.0068 B( 65-C , 66-C ) :   1.1973 B( 65-C , 69-F ) :   1.1309
B( 66-C , 67-C ) :   1.4404 B( 66-C , 68-F ) :   1.1284 B( 67-C ,104-H ) :   1.0064
B( 70-C , 71-C ) :   1.4632 B( 70-C ,105-H ) :   0.9923 B( 71-C , 72-C ) :   1.0000
B( 72-C , 73-C ) :   1.5864 B( 73-C , 74-C ) :   1.1799 B( 73-C , 76-C ) :   1.1524
B( 74-C , 75-N ) :   2.9924 B( 76-C , 77-N ) :   2.9678

-----------------------------------------------------------------------------
         ABSORPTION SPECTRUM VIA TRANSITION ELECTRIC DIPOLE MOMENTS
-----------------------------------------------------------------------------
State   Energy  Wavelength   fosc         T2         TX        TY        TZ
        (cm-1)    (nm)                  (au**2)     (au)      (au)      (au)
-----------------------------------------------------------------------------
   0    5743.9   1741.0   0.445424944  25.52950   4.09043  -2.84811  -0.82834
   1   13625.7    733.9   0.006453636   0.15593  -0.06399  -0.36835  -0.12709
   2   15418.2    648.6   1.293398995  27.61678   3.22368   3.64586   1.98303
   3   18647.5    536.3   0.128669906   2.27160   1.26091   0.49034   0.66428
   4   20687.8    483.4   0.183833169   2.92540   1.20504   0.42681   1.13627
   5   21593.4    463.1   0.081755977   1.24645   0.92761  -0.32172   0.53150
   6   21845.9    457.8   0.097016427   1.46201  -0.16154   0.85370  -0.84090
   7   22243.3    449.6   0.162201935   2.40067   1.37577  -0.11811   0.70283
   8   22730.0    439.9   0.042334438   0.61316   0.69350   0.09012  -0.35227
   9   23043.9    434.0   0.075868493   1.08388   0.50535  -0.59268   0.69083
  10   23629.3    423.2   0.381961827   5.32164  -1.90968   0.59934  -1.14697
  11   24267.1    412.1   0.053581613   0.72690   0.25852  -0.45571   0.67260
  12   24719.4    404.5   0.016138413   0.21493  -0.25146   0.37707  -0.09757
  13   24868.6    402.1   0.000301291   0.00399   0.03386  -0.05145  -0.01397
  14   25389.5    393.9   0.005251365   0.06809   0.08495   0.20825  -0.13231
  15   25527.4    391.7   0.035823267   0.46199   0.44770   0.50932  -0.04634
  16   25956.9    385.3   0.016769884   0.21269   0.06160   0.40712  -0.20772
  17   26442.8    378.2   0.010711938   0.13336   0.30068  -0.01882   0.20640
  18   26681.0    374.8   0.077464269   0.95582   0.87212  -0.32503   0.29928
  19   27683.9    361.2   0.123682239   1.47081  -0.59522   1.02644   0.25088
  20   28735.5    348.0   0.097259004   1.11426   0.78169   0.65511   0.27211
  21   29029.4    344.5   0.000656097   0.00744  -0.03381  -0.07868   0.01033
  22   29292.8    341.4   0.027763368   0.31202   0.09322  -0.52641  -0.16194
  23   29766.7    335.9   0.036798909   0.40699   0.37394  -0.06474   0.51280
  24   30100.8    332.2   0.031187011   0.34109   0.48612  -0.07325   0.31529
  25   30442.7    328.5   0.060404772   0.65323   0.70304  -0.39560  -0.04961
  26   30695.9    325.8   0.090373544   0.96925   0.06804  -0.97619  -0.10805
  27   31077.6    321.8   0.267294370   2.83151  -0.95020   1.07213  -0.88270
  28   31438.4    318.1   0.018706427   0.19589   0.02645   0.33913   0.28316
  29   31527.1    317.2   0.069922098   0.73014  -0.65129  -0.55305   0.00991
  30   31817.4    314.3   0.171273405   1.77215  -1.17093   0.13018  -0.61979
  31   32026.5    312.2   0.070413352   0.72380   0.27693  -0.73541   0.32602
  32   32257.0    310.0   0.025118376   0.25636  -0.14040  -0.44219  -0.20276
  33   32581.5    306.9   0.048113760   0.48615  -0.05604   0.46476  -0.51673
  34   33047.7    302.6   0.190714879   1.89985  -1.18527  -0.05937  -0.70104
  35   33252.9    300.7   0.022147687   0.21927   0.16171  -0.43901  -0.01963
  36   33587.4    297.7   0.007227696   0.07084  -0.08157  -0.03019  -0.25155
  37   34024.9    293.9   0.150709525   1.45821  -1.03472  -0.11779  -0.61130
  38   34397.3    290.7   0.050429453   0.48265  -0.15300  -0.60425  -0.30680
  39   34450.7    290.3   0.004766522   0.04555   0.00909  -0.21187  -0.02407
  40   34751.9    287.8   0.026368071   0.24979   0.32262  -0.37922   0.04357
  41   34888.4    286.6   0.024759624   0.23364  -0.47363  -0.06469   0.07160
  42   34912.2    286.4   0.145108525   1.36833  -1.11315  -0.05091  -0.35585
  43   35187.6    284.2   0.340560981   3.18625  -1.14013   1.19116  -0.68373
  44   35233.4    283.8   0.136078398   1.27148   0.68239  -0.83286   0.33490
  45   35427.6    282.3   0.265444838   2.46665   1.31663  -0.17409   0.83834
  46   35514.7    281.6   0.044197103   0.40969   0.29353  -0.48174   0.30242
  47   36159.8    276.6   0.025927839   0.23606   0.42140   0.22206   0.09573
  48   36224.9    276.1   0.001938524   0.01762  -0.05615  -0.11994   0.00891
  49   36534.6    273.7   0.060146306   0.54198   0.04380   0.69015   0.25248
  50   36754.3    272.1   0.036454381   0.32653  -0.42150  -0.34973  -0.16294
  51   36969.4    270.5   0.050420193   0.44899  -0.55307   0.25066  -0.28332
  52   37239.0    268.5   0.054686176   0.48345   0.52119  -0.25924   0.38028
  53   37462.5    266.9   0.058904163   0.51764   0.40765   0.53496   0.25550
  54   37742.7    265.0   0.060807701   0.53040   0.08367  -0.72292  -0.02811
  55   38211.9    261.7   0.068453813   0.58976   0.41517  -0.54692   0.34390
  56   38275.8    261.3   0.022305484   0.19185  -0.09771   0.42598  -0.02909
  57   38442.7    260.1   0.017737434   0.15190   0.15586   0.31226   0.17349
  58   38694.9    258.4   0.157983686   1.34411  -0.27188   1.07364   0.34275
  59   38986.9    256.5   0.033359438   0.28169  -0.23549  -0.36205  -0.30848
  60   39134.3    255.5   0.050210106   0.42239   0.05719   0.57134   0.30445
  61   39517.3    253.1   0.017526145   0.14601  -0.31977   0.07105  -0.19674
  62   39699.0    251.9   0.073453369   0.60913  -0.50416   0.10272  -0.58686
  63   40050.6    249.7   0.011929279   0.09806   0.03464  -0.30487   0.06255
  64   40069.5    249.6   0.035491089   0.29160  -0.47747  -0.19738  -0.15702
  65   40137.3    249.1   0.135830044   1.11410   0.85911   0.02215   0.61282

FINAL SINGLE POINT ENERGY     -4879.173770617002

DIPOLE MOMENT
-------------
                                X             Y             Z
Electronic contribution:    -67.72131       5.52005     -24.83703
Nuclear contribution   :     70.95192      -1.25859      26.03792
                        -----------------------------------------
Total Dipole Moment    :      3.23061       4.26145       1.20089
                        -----------------------------------------
Magnitude (a.u.)       :      5.48078
Magnitude (Debye)      :     13.93104

Rotational constants in cm-1:     0.000833     0.000463     0.000344
Rotational constants in MHz :    24.984650    13.883395    10.312167

                             ****ORCA TERMINATED NORMALLY****
TOTAL RUN TIME: 0 days 0 hours 12 minutes 55 seconds 566 msec
