                         Program Version 4.2.0 -  RELEASE  -
|  1> # ORCA input file
|  2> # SCF done       -152.971307955396          0.000843009130
|  3> ! CAM-B3LYP def2-SVP def2/J RIJCOSX Grid4 TightSCF
|  4> %maxcore 5000
|  5> %tddft
|  6>     Mode sTDDFT
|  7>     Ethresh 5.0
|  8>     maxcore 5000
|  9> end
| 10>
| 11> %pal
| 12>   nprocs 6
| 13>   end
| 14> * xyz 0 1
| 15>    C       11.36435        -6.97544        -0.48827
| 16>    C       11.27857        -8.27374        -0.17294
| 17>    C       12.11580        -9.01867         0.72509
| 18>    C       11.78597       -10.32161         0.84897
| 19>    C       10.66445       -10.72065         0.06583
| 20>    S       10.04648        -9.35400        -0.84542
| 21>    C       10.09796       -11.96670        -0.00193
| 22>    C       10.48546       -13.14793         0.68369
| 23>    C        9.70882       -14.22901         0.42575
| 24>    C        8.64811       -13.98033        -0.48790
| 25>    S        8.69765       -12.29140        -1.01142
| 26>    C        7.70451       -14.85905        -0.91780
| 27>    N        6.72919       -14.51069        -1.80107
| 28>    C        5.73960       -15.30181        -2.26706
| 29>    S        5.65338       -16.97857        -1.81679
| 30>    C        4.28901       -17.17884        -2.87497
| 31>    N        3.71361       -18.44120        -2.94597
| 32>    O        2.75470       -18.59341        -3.68644
| 33>    O        4.21852       -19.31559        -2.25379
| 34>    C        3.94155       -16.02406        -3.52848
| 35>    C        4.74459       -14.92623        -3.18191
| 36>    C        4.52298       -13.61541        -3.75480
| 37>    C        4.84852       -12.42164        -3.23664
| 38>    C        4.62221       -11.14292        -3.88086
| 39>    C        3.58368       -10.77022        -4.63621
| 40>    C        2.37851       -11.61331        -4.91817
| 41>    C        3.54063        -9.39590        -5.24986
| 42>    N        3.37633        -9.51728        -6.68156
| 43>    C        3.00851        -8.50211        -7.50441
| 44>    C        2.66677        -7.25443        -7.11503
| 45>    C        2.19210        -6.19604        -7.94958
| 46>    S        2.23436        -4.58919        -7.27790
| 47>    C        1.54627        -3.90099        -8.72722
| 48>    C        1.30534        -4.88230        -9.66839
| 49>    C        1.66640        -6.17384        -9.22923
| 50>    C        1.44523        -7.38380       -10.07892
| 51>    C        2.71398        -7.89496       -10.76541
| 52>    O        2.73857        -8.98525       -11.28065
| 53>    C        3.90775        -6.97915       -10.75195
| 54>    C        0.38558        -7.10267       -11.15769
| 55>    C        0.72718        -5.83427       -11.92651
| 56>    C        0.68242        -4.61763       -11.00284
| 57>    C        1.32017        -2.49606        -8.76932
| 58>    S        0.47995        -1.69933       -10.08745
| 59>    C        0.64962        -0.17194        -9.36070
| 60>    C        1.31401        -0.24461        -8.15421
| 61>    C        1.68753        -1.57500        -7.82657
| 62>    C        1.63196         0.86601        -7.28344
| 63>    O        2.20881         0.80036        -6.22695
| 64>    C        1.16999         2.25889        -7.80715
| 65>    F        1.72110         2.55386        -8.99959
| 66>    F       -0.16342         2.31320        -7.98109
| 67>    F        1.49677         3.24033        -6.97142
| 68>    H       12.12805        -6.35511        -0.05363
| 69>    H       10.68022        -6.51269        -1.17564
| 70>    H       12.92938        -8.53778         1.23857
| 71>    H       12.30532       -11.02239         1.47837
| 72>    H       11.32905       -13.15621         1.34987
| 73>    H        9.85211       -15.20361         0.85664
| 74>    H        7.69135       -15.87577        -0.55538
| 75>    H        6.78436       -13.57456        -2.18913
| 76>    H        3.11839       -15.98230        -4.21884
| 77>    H        4.02539       -13.64605        -4.71294
| 78>    H        5.33495       -12.34547        -2.27202
| 79>    H        5.39121       -10.40694        -3.67393
| 80>    H        2.21668       -12.33513        -4.12150
| 81>    H        2.48627       -12.15745        -5.85646
| 82>    H        1.49841       -10.98009        -5.00989
| 83>    H        4.44910        -8.82982        -4.99836
| 84>    H        2.67743        -8.84646        -4.85771
| 85>    H        3.84992       -10.29828        -7.10564
| 86>    H        2.98890        -8.79032        -8.54338
| 87>    H        2.78332        -6.97906        -6.07676
| 88>    H        1.07297        -8.20638        -9.45635
| 89>    H        3.62836        -5.97642       -11.06383
| 90>    H        4.68487        -7.37322       -11.40240
| 91>    H        4.29089        -6.91053        -9.73489
| 92>    H       -0.58830        -6.98645       -10.67757
| 93>    H        0.33602        -7.95795       -11.83334
| 94>    H        1.71778        -5.93464       -12.37297
| 95>    H        0.01513        -5.69048       -12.74074
| 96>    H       -0.35995        -4.32174       -10.84201
| 97>    H        1.18079        -3.77192       -11.48492
| 98>    H        0.25409         0.68824        -9.86230
| 99>    H        2.21411        -1.82043        -6.92270
|100> *
|101>
|102>                          ****END OF INPUT****

CARTESIAN COORDINATES (ANGSTROEM)
---------------------------------
  C     11.364350   -6.975440   -0.488270
  C     11.278570   -8.273740   -0.172940
  C     12.115800   -9.018670    0.725090
  C     11.785970  -10.321610    0.848970
  C     10.664450  -10.720650    0.065830
  S     10.046480   -9.354000   -0.845420
  C     10.097960  -11.966700   -0.001930
  C     10.485460  -13.147930    0.683690
  C      9.708820  -14.229010    0.425750
  C      8.648110  -13.980330   -0.487900
  S      8.697650  -12.291400   -1.011420
  C      7.704510  -14.859050   -0.917800
  N      6.729190  -14.510690   -1.801070
  C      5.739600  -15.301810   -2.267060
  S      5.653380  -16.978570   -1.816790
  C      4.289010  -17.178840   -2.874970
  N      3.713610  -18.441200   -2.945970
  O      2.754700  -18.593410   -3.686440
  O      4.218520  -19.315590   -2.253790
  C      3.941550  -16.024060   -3.528480
  C      4.744590  -14.926230   -3.181910
  C      4.522980  -13.615410   -3.754800
  C      4.848520  -12.421640   -3.236640
  C      4.622210  -11.142920   -3.880860
  C      3.583680  -10.770220   -4.636210
  C      2.378510  -11.613310   -4.918170
  C      3.540630   -9.395900   -5.249860
  N      3.376330   -9.517280   -6.681560
  C      3.008510   -8.502110   -7.504410
  C      2.666770   -7.254430   -7.115030
  C      2.192100   -6.196040   -7.949580
  S      2.234360   -4.589190   -7.277900
  C      1.546270   -3.900990   -8.727220
  C      1.305340   -4.882300   -9.668390
  C      1.666400   -6.173840   -9.229230
  C      1.445230   -7.383800  -10.078920
  C      2.713980   -7.894960  -10.765410
  O      2.738570   -8.985250  -11.280650
  C      3.907750   -6.979150  -10.751950
  C      0.385580   -7.102670  -11.157690
  C      0.727180   -5.834270  -11.926510
  C      0.682420   -4.617630  -11.002840
  C      1.320170   -2.496060   -8.769320
  S      0.479950   -1.699330  -10.087450
  C      0.649620   -0.171940   -9.360700
  C      1.314010   -0.244610   -8.154210
  C      1.687530   -1.575000   -7.826570
  C      1.631960    0.866010   -7.283440
  O      2.208810    0.800360   -6.226950
  C      1.169990    2.258890   -7.807150
  F      1.721100    2.553860   -8.999590
  F     -0.163420    2.313200   -7.981090
  F      1.496770    3.240330   -6.971420
  H     12.128050   -6.355110   -0.053630
  H     10.680220   -6.512690   -1.175640
  H     12.929380   -8.537780    1.238570
  H     12.305320  -11.022390    1.478370
  H     11.329050  -13.156210    1.349870
  H      9.852110  -15.203610    0.856640
  H      7.691350  -15.875770   -0.555380
  H      6.784360  -13.574560   -2.189130
  H      3.118390  -15.982300   -4.218840
  H      4.025390  -13.646050   -4.712940
  H      5.334950  -12.345470   -2.272020
  H      5.391210  -10.406940   -3.673930
  H      2.216680  -12.335130   -4.121500
  H      2.486270  -12.157450   -5.856460
  H      1.498410  -10.980090   -5.009890
  H      4.449100   -8.829820   -4.998360
  H      2.677430   -8.846460   -4.857710
  H      3.849920  -10.298280   -7.105640
  H      2.988900   -8.790320   -8.543380
  H      2.783320   -6.979060   -6.076760
  H      1.072970   -8.206380   -9.456350
  H      3.628360   -5.976420  -11.063830
  H      4.684870   -7.373220  -11.402400
  H      4.290890   -6.910530   -9.734890
  H     -0.588300   -6.986450  -10.677570
  H      0.336020   -7.957950  -11.833340
  H      1.717780   -5.934640  -12.372970
  H      0.015130   -5.690480  -12.740740
  H     -0.359950   -4.321740  -10.842010
  H      1.180790   -3.771920  -11.484920
  H      0.254090    0.688240   -9.862300
  H      2.214110   -1.820430   -6.922700

 Total Charge           Charge          ....    0
 Multiplicity           Mult            ....    1
 Number of Electrons    NEL             ....  420
 Basis Dimension        Dim             ....  922

ORBITAL ENERGIES
----------------

  NO   OCC          E(Eh)            E(eV)
   0   2.0000     -88.981051     -2421.2975
   1   2.0000     -88.970327     -2421.0057
   2   2.0000     -88.953728     -2420.5540
   3   2.0000     -88.944215     -2420.2951
   4   2.0000     -88.941212     -2420.2134
   5   2.0000     -24.801150      -674.8736
   6   2.0000     -24.800820      -674.8646
   7   2.0000     -24.796751      -674.7539
   8   2.0000     -19.228102      -523.2233
   9   2.0000     -19.226676      -523.1844
  10   2.0000     -19.226056      -523.1676
  11   2.0000     -19.203908      -522.5649
  12   2.0000     -14.638620      -398.3371
  13   2.0000     -14.487034      -394.2122
  14   2.0000     -14.436294      -392.8315
  15   2.0000     -10.510216      -285.9975
  16   2.0000     -10.379125      -282.4303
  17   2.0000     -10.369234      -282.1612
  18   2.0000     -10.353074      -281.7215
  19   2.0000     -10.335953      -281.2556
  20   2.0000     -10.333517      -281.1893
  21   2.0000     -10.316515      -280.7267
  22   2.0000     -10.316172      -280.7173
  23   2.0000     -10.314647      -280.6758
  24   2.0000     -10.312957      -280.6298
  25   2.0000     -10.312640      -280.6212
  26   2.0000     -10.312477      -280.6168
  27   2.0000     -10.311081      -280.5788
  28   2.0000     -10.309135      -280.5258
  29   2.0000     -10.305221      -280.4193
  30   2.0000     -10.297766      -280.2165
  31   2.0000     -10.295655      -280.1590
  32   2.0000     -10.294077      -280.1161
  33   2.0000     -10.293999      -280.1140
  34   2.0000     -10.293355      -280.0964
  35   2.0000     -10.292588      -280.0756
  36   2.0000     -10.292289      -280.0674
  37   2.0000     -10.289073      -279.9799
  38   2.0000     -10.288926      -279.9759
  39   2.0000     -10.287912      -279.9483
  40   2.0000     -10.287146      -279.9275
  41   2.0000     -10.278477      -279.6916
  42   2.0000     -10.276037      -279.6252
  43   2.0000     -10.275897      -279.6214
  44   2.0000     -10.275552      -279.6120
  45   2.0000     -10.273568      -279.5580
  46   2.0000     -10.271968      -279.5145
  47   2.0000     -10.271895      -279.5125
  48   2.0000     -10.268039      -279.4076
  49   2.0000     -10.267830      -279.4019
  50   2.0000     -10.265149      -279.3289
  51   2.0000     -10.263229      -279.2767
  52   2.0000     -10.262598      -279.2595
  53   2.0000      -8.076440      -219.7711
  54   2.0000      -8.065452      -219.4721
  55   2.0000      -8.049964      -219.0506
  56   2.0000      -8.039945      -218.7780
  57   2.0000      -8.038009      -218.7253
  58   2.0000      -6.046181      -164.5249
  59   2.0000      -6.041764      -164.4048
  60   2.0000      -6.037776      -164.2962
  61   2.0000      -6.034691      -164.2123
  62   2.0000      -6.030174      -164.0894
  63   2.0000      -6.028065      -164.0320
  64   2.0000      -6.019835      -163.8080
  65   2.0000      -6.015981      -163.7032
  66   2.0000      -6.010520      -163.5546
  67   2.0000      -6.009268      -163.5205
  68   2.0000      -6.007847      -163.4818
  69   2.0000      -6.005342      -163.4137
  70   2.0000      -6.003992      -163.3769
  71   2.0000      -6.001751      -163.3160
  72   2.0000      -5.998445      -163.2260
  73   2.0000      -1.388851       -37.7926
  74   2.0000      -1.305591       -35.5269
  75   2.0000      -1.291660       -35.1479
  76   2.0000      -1.291261       -35.1370
  77   2.0000      -1.144051       -31.1312
  78   2.0000      -1.124436       -30.5975
  79   2.0000      -1.122037       -30.5322
  80   2.0000      -1.094813       -29.7914
  81   2.0000      -1.036358       -28.2007
  82   2.0000      -1.003328       -27.3020
  83   2.0000      -0.998414       -27.1682
  84   2.0000      -0.993695       -27.0398
  85   2.0000      -0.977188       -26.5906
  86   2.0000      -0.971664       -26.4403
  87   2.0000      -0.931195       -25.3391
  88   2.0000      -0.918297       -24.9881
  89   2.0000      -0.908163       -24.7124
  90   2.0000      -0.893695       -24.3187
  91   2.0000      -0.888162       -24.1681
  92   2.0000      -0.875418       -23.8213
  93   2.0000      -0.863979       -23.5101
  94   2.0000      -0.854912       -23.2633
  95   2.0000      -0.850835       -23.1524
  96   2.0000      -0.849538       -23.1171
  97   2.0000      -0.845923       -23.0187
  98   2.0000      -0.837267       -22.7832
  99   2.0000      -0.825550       -22.4644
 100   2.0000      -0.822899       -22.3922
 101   2.0000      -0.812290       -22.1035
 102   2.0000      -0.807491       -21.9730
 103   2.0000      -0.799693       -21.7608
 104   2.0000      -0.793559       -21.5938
 105   2.0000      -0.786694       -21.4070
 106   2.0000      -0.763449       -20.7745
 107   2.0000      -0.754550       -20.5324
 108   2.0000      -0.729883       -19.8611
 109   2.0000      -0.727367       -19.7927
 110   2.0000      -0.722138       -19.6504
 111   2.0000      -0.712565       -19.3899
 112   2.0000      -0.700079       -19.0501
 113   2.0000      -0.692903       -18.8548
 114   2.0000      -0.689530       -18.7631
 115   2.0000      -0.683745       -18.6057
 116   2.0000      -0.678547       -18.4642
 117   2.0000      -0.672213       -18.2918
 118   2.0000      -0.666859       -18.1462
 119   2.0000      -0.656330       -17.8596
 120   2.0000      -0.646888       -17.6027
 121   2.0000      -0.640869       -17.4389
 122   2.0000      -0.633539       -17.2395
 123   2.0000      -0.630732       -17.1631
 124   2.0000      -0.626898       -17.0588
 125   2.0000      -0.623689       -16.9714
 126   2.0000      -0.620045       -16.8723
 127   2.0000      -0.619750       -16.8643
 128   2.0000      -0.617922       -16.8145
 129   2.0000      -0.603629       -16.4256
 130   2.0000      -0.600750       -16.3472
 131   2.0000      -0.592878       -16.1330
 132   2.0000      -0.590328       -16.0636
 133   2.0000      -0.583666       -15.8823
 134   2.0000      -0.578831       -15.7508
 135   2.0000      -0.571526       -15.5520
 136   2.0000      -0.565941       -15.4000
 137   2.0000      -0.563062       -15.3217
 138   2.0000      -0.557333       -15.1658
 139   2.0000      -0.550593       -14.9824
 140   2.0000      -0.550280       -14.9739
 141   2.0000      -0.549155       -14.9433
 142   2.0000      -0.545338       -14.8394
 143   2.0000      -0.544906       -14.8276
 144   2.0000      -0.539910       -14.6917
 145   2.0000      -0.535443       -14.5701
 146   2.0000      -0.534465       -14.5435
 147   2.0000      -0.523508       -14.2454
 148   2.0000      -0.522727       -14.2241
 149   2.0000      -0.519250       -14.1295
 150   2.0000      -0.518025       -14.0962
 151   2.0000      -0.516348       -14.0505
 152   2.0000      -0.513144       -13.9633
 153   2.0000      -0.510240       -13.8843
 154   2.0000      -0.508802       -13.8452
 155   2.0000      -0.504970       -13.7409
 156   2.0000      -0.502720       -13.6797
 157   2.0000      -0.499789       -13.6000
 158   2.0000      -0.498458       -13.5637
 159   2.0000      -0.496576       -13.5125
 160   2.0000      -0.495088       -13.4720
 161   2.0000      -0.493616       -13.4320
 162   2.0000      -0.490402       -13.3445
 163   2.0000      -0.488385       -13.2896
 164   2.0000      -0.486944       -13.2504
 165   2.0000      -0.484807       -13.1923
 166   2.0000      -0.483521       -13.1573
 167   2.0000      -0.478682       -13.0256
 168   2.0000      -0.474820       -12.9205
 169   2.0000      -0.472015       -12.8442
 170   2.0000      -0.471202       -12.8221
 171   2.0000      -0.468436       -12.7468
 172   2.0000      -0.466583       -12.6964
 173   2.0000      -0.458486       -12.4760
 174   2.0000      -0.455921       -12.4062
 175   2.0000      -0.453438       -12.3387
 176   2.0000      -0.452198       -12.3049
 177   2.0000      -0.448161       -12.1951
 178   2.0000      -0.443957       -12.0807
 179   2.0000      -0.441010       -12.0005
 180   2.0000      -0.436146       -11.8681
 181   2.0000      -0.435059       -11.8385
 182   2.0000      -0.427911       -11.6441
 183   2.0000      -0.426058       -11.5936
 184   2.0000      -0.424075       -11.5397
 185   2.0000      -0.415071       -11.2946
 186   2.0000      -0.407596       -11.0913
 187   2.0000      -0.404704       -11.0125
 188   2.0000      -0.402052       -10.9404
 189   2.0000      -0.398651       -10.8479
 190   2.0000      -0.394619       -10.7381
 191   2.0000      -0.386886       -10.5277
 192   2.0000      -0.386482       -10.5167
 193   2.0000      -0.375720       -10.2239
 194   2.0000      -0.367968       -10.0129
 195   2.0000      -0.362154        -9.8547
 196   2.0000      -0.355543        -9.6748
 197   2.0000      -0.349949        -9.5226
 198   2.0000      -0.349021        -9.4973
 199   2.0000      -0.344886        -9.3848
 200   2.0000      -0.339363        -9.2345
 201   2.0000      -0.331206        -9.0126
 202   2.0000      -0.327659        -8.9160
 203   2.0000      -0.325725        -8.8634
 204   2.0000      -0.307175        -8.3587
 205   2.0000      -0.300900        -8.1879
 206   2.0000      -0.298035        -8.1099
 207   2.0000      -0.275073        -7.4851
 208   2.0000      -0.233582        -6.3561
 209   2.0000      -0.221757        -6.0343
 210   0.0000      -0.068691        -1.8692
 211   0.0000      -0.038273        -1.0414
 212   0.0000      -0.034015        -0.9256
 213   0.0000      -0.019542        -0.5318
 214   0.0000      -0.016875        -0.4592

MULLIKEN ATOMIC CHARGES
-----------------------
   0 C :   -0.030909
   1 C :   -0.061175
   2 C :    0.051233
   3 C :    0.029763
   4 C :   -0.066540
   5 S :    0.067964
   6 C :   -0.048507
   7 C :    0.027177
   8 C :    0.042466
   9 C :   -0.040794
  10 S :    0.029912
  11 C :    0.022711
  12 N :   -0.030215
  13 C :   -0.116480
  14 S :    0.144341
  15 C :   -0.008897
  16 N :    0.280328
  17 O :   -0.262673
  18 O :   -0.277593
  19 C :    0.005798
  20 C :    0.103925
  21 C :   -0.013640
  22 C :   -0.031474
  23 C :    0.006665
  24 C :   -0.230397
  25 C :    0.102254
  26 C :    0.224557
  27 N :   -0.182812
  28 C :    0.046579
  29 C :   -0.027076
  30 C :   -0.104303
  31 S :    0.103599
  32 C :   -0.078172
  33 C :   -0.103366
  34 C :   -0.064441
  35 C :    0.000101
  36 C :   -0.082447
  37 O :   -0.190304
  38 C :    0.141730
  39 C :    0.064187
  40 C :    0.037651
  41 C :    0.083669
  42 C :   -0.079413
  43 S :    0.123147
  44 C :   -0.045174
  45 C :   -0.011489
  46 C :   -0.033892
  47 C :    0.036357
  48 O :   -0.136454
  49 C :    0.465539
  50 F :   -0.171867
  51 F :   -0.171803
  52 F :   -0.136511
  53 H :    0.021465
  54 H :    0.021949
  55 H :   -0.010215
  56 H :   -0.010909
  57 H :   -0.011248
  58 H :   -0.009838
  59 H :    0.023564
  60 H :    0.142940
  61 H :    0.006991
  62 H :   -0.006601
  63 H :   -0.004547
  64 H :   -0.008562
  65 H :    0.030399
  66 H :    0.027826
  67 H :    0.018464
  68 H :    0.005734
  69 H :    0.028890
  70 H :    0.124918
  71 H :    0.001062
  72 H :   -0.022903
  73 H :    0.013900
  74 H :    0.021921
  75 H :    0.027985
  76 H :    0.029012
  77 H :    0.008160
  78 H :    0.016253
  79 H :    0.005666
  80 H :    0.004667
  81 H :    0.023331
  82 H :    0.025125
  83 H :    0.044283
  84 H :    0.007481
Sum of atomic charges:    0.0000000

LOEWDIN ATOMIC CHARGES
----------------------
   0 C :   -0.076909
   1 C :   -0.138658
   2 C :   -0.031048
   3 C :   -0.026415
   4 C :   -0.180991
   5 S :    0.341531
   6 C :   -0.176372
   7 C :   -0.037553
   8 C :   -0.030161
   9 C :   -0.179534
  10 S :    0.330950
  11 C :   -0.016755
  12 N :    0.049383
  13 C :   -0.092542
  14 S :    0.448621
  15 C :   -0.220974
  16 N :    0.274578
  17 O :   -0.228431
  18 O :   -0.244157
  19 C :    0.004819
  20 C :   -0.112272
  21 C :   -0.014859
  22 C :   -0.049281
  23 C :   -0.048332
  24 C :   -0.032804
  25 C :   -0.051436
  26 C :    0.046505
  27 N :   -0.013907
  28 C :    0.036280
  29 C :   -0.150912
  30 C :   -0.147067
  31 S :    0.425164
  32 C :   -0.207759
  33 C :   -0.052613
  34 C :   -0.089577
  35 C :   -0.057315
  36 C :    0.081328
  37 O :   -0.148723
  38 C :   -0.078541
  39 C :   -0.010296
  40 C :   -0.029016
  41 C :   -0.041410
  42 C :   -0.169198
  43 S :    0.481819
  44 C :   -0.163403
  45 C :   -0.118151
  46 C :   -0.049339
  47 C :    0.038172
  48 O :   -0.105392
  49 C :    0.140885
  50 F :   -0.065026
  51 F :   -0.064511
  52 F :   -0.037001
  53 H :    0.029391
  54 H :    0.026438
  55 H :    0.033996
  56 H :    0.032467
  57 H :    0.032934
  58 H :    0.034653
  59 H :    0.029814
  60 H :    0.082641
  61 H :    0.044870
  62 H :    0.033298
  63 H :    0.020564
  64 H :    0.029030
  65 H :    0.034232
  66 H :    0.032782
  67 H :    0.034383
  68 H :    0.017941
  69 H :    0.031024
  70 H :    0.079156
  71 H :    0.027929
  72 H :    0.021334
  73 H :    0.042407
  74 H :    0.038741
  75 H :    0.034963
  76 H :    0.049186
  77 H :    0.024956
  78 H :    0.028665
  79 H :    0.020939
  80 H :    0.028214
  81 H :    0.030309
  82 H :    0.023184
  83 H :    0.026352
  84 H :    0.031813

  Mayer bond orders larger than 0.100000
B(  0-C ,  1-C ) :   1.8693 B(  0-C , 53-H ) :   0.9504 B(  0-C , 54-H ) :   0.9421
B(  1-C ,  2-C ) :   1.0776 B(  1-C ,  5-S ) :   1.0055 B(  2-C ,  3-C ) :   1.6691
B(  2-C , 55-H ) :   0.9932 B(  3-C ,  4-C ) :   1.1453 B(  3-C , 56-H ) :   0.9919
B(  4-C ,  5-S ) :   1.0379 B(  4-C ,  6-C ) :   1.5819 B(  6-C ,  7-C ) :   1.1602
B(  6-C , 10-S ) :   1.0306 B(  7-C ,  8-C ) :   1.6380 B(  7-C , 57-H ) :   0.9917
B(  8-C ,  9-C ) :   1.1369 B(  8-C , 58-H ) :   0.9942 B(  9-C , 10-S ) :   1.0071
B(  9-C , 11-C ) :   1.6331 B( 11-C , 12-N ) :   1.1243 B( 11-C , 59-H ) :   0.9592
B( 12-N , 13-C ) :   1.2521 B( 12-N , 60-H ) :   0.8950 B( 13-C , 14-S ) :   1.1359
B( 13-C , 20-C ) :   1.3483 B( 14-S , 15-C ) :   1.0581 B( 15-C , 16-N ) :   0.9939
B( 15-C , 19-C ) :   1.4655 B( 16-N , 17-O ) :   1.5210 B( 16-N , 18-O ) :   1.4974
B( 17-O , 18-O ) :   0.2492 B( 19-C , 20-C ) :   1.2445 B( 19-C , 61-H ) :   1.0080
B( 20-C , 21-C ) :   1.0693 B( 21-C , 22-C ) :   1.7696 B( 21-C , 62-H ) :   0.9596
B( 22-C , 23-C ) :   1.0654 B( 22-C , 63-H ) :   0.9431 B( 23-C , 24-C ) :   1.8678
B( 23-C , 64-H ) :   0.9452 B( 24-C , 25-C ) :   1.0659 B( 24-C , 26-C ) :   1.0487
B( 25-C , 65-H ) :   0.9460 B( 25-C , 66-H ) :   0.9424 B( 25-C , 67-H ) :   0.9471
B( 26-C , 27-N ) :   0.9840 B( 26-C , 68-H ) :   0.9405 B( 26-C , 69-H ) :   0.9172
B( 27-N , 28-C ) :   1.2342 B( 27-N , 70-H ) :   0.9351 B( 28-C , 29-C ) :   1.6331
B( 28-C , 71-H ) :   0.9652 B( 29-C , 30-C ) :   1.1248 B( 29-C , 72-H ) :   0.9378
B( 30-C , 31-S ) :   1.1281 B( 30-C , 34-C ) :   1.5287 B( 31-S , 32-C ) :   1.1015
B( 32-C , 33-C ) :   1.5495 B( 32-C , 42-C ) :   1.1280 B( 33-C , 34-C ) :   1.2895
B( 33-C , 41-C ) :   1.0529 B( 34-C , 35-C ) :   0.9468 B( 35-C , 36-C ) :   0.8857
B( 35-C , 39-C ) :   1.0723 B( 35-C , 73-H ) :   0.8858 B( 36-C , 37-O ) :   2.1607
B( 36-C , 38-C ) :   1.0662 B( 38-C , 74-H ) :   0.9329 B( 38-C , 75-H ) :   0.9494
B( 38-C , 76-H ) :   0.9110 B( 39-C , 40-C ) :   1.0692 B( 39-C , 77-H ) :   0.9485
B( 39-C , 78-H ) :   0.9304 B( 40-C , 41-C ) :   1.0788 B( 40-C , 79-H ) :   0.9457
B( 40-C , 80-H ) :   0.9287 B( 41-C , 81-H ) :   0.9108 B( 41-C , 82-H ) :   0.9103
B( 42-C , 43-S ) :   1.1140 B( 42-C , 46-C ) :   1.5246 B( 43-S , 44-C ) :   1.1925
B( 44-C , 45-C ) :   1.5140 B( 44-C , 83-H ) :   0.9395 B( 45-C , 46-C ) :   1.2245
B( 45-C , 47-C ) :   0.9596 B( 46-C , 84-H ) :   1.0025 B( 47-C , 48-O ) :   2.2238
B( 47-C , 49-C ) :   0.8789 B( 49-C , 50-F ) :   1.1249 B( 49-C , 51-F ) :   1.1234
B( 49-C , 52-F ) :   1.1903

-----------------------------------------------------------------------------
         ABSORPTION SPECTRUM VIA TRANSITION ELECTRIC DIPOLE MOMENTS
-----------------------------------------------------------------------------
State   Energy  Wavelength   fosc         T2         TX        TY        TZ
        (cm-1)    (nm)                  (au**2)     (au)      (au)      (au)
-----------------------------------------------------------------------------
   0   19049.8    524.9   1.369084911  23.66011   3.11829   3.51846   1.24775
   1   25983.6    384.9   0.014703971   0.18630  -0.30268   0.25264  -0.17566
   2   27063.3    369.5   0.004566250   0.05555  -0.05089   0.21835  -0.07267
   3   27357.0    365.5   0.187533285   2.25676  -0.45577   1.31611  -0.56293
   4   28166.9    355.0   0.166612737   1.94736  -0.16413  -1.38295   0.08872
   5   29858.3    334.9   1.245518911  13.73286  -0.88213   3.52887  -0.70838
   6   30149.8    331.7   0.065305291   0.71308  -0.48217   0.22079  -0.65715
   7   31699.0    315.5   0.028555634   0.29657  -0.21537   0.40732  -0.29029
   8   32483.1    307.9   0.003033444   0.03074  -0.02527   0.17313   0.01145
   9   34137.7    292.9   0.000028224   0.00027  -0.00328   0.00498  -0.01538
  10   34254.2    291.9   0.088650916   0.85201  -0.24507   0.80244  -0.38477
  11   34679.7    288.4   0.009900650   0.09399  -0.02368   0.23083  -0.20036
  12   34863.5    286.8   0.003567206   0.03368  -0.02549   0.03985  -0.17733
  13   35360.3    282.8   0.093510344   0.87060  -0.15144   0.86254  -0.32200
  14   35931.5    278.3   0.000130101   0.00119  -0.00216  -0.02417   0.02456
  15   36121.7    276.8   0.000986120   0.00899   0.08267   0.00852  -0.04561
  16   36171.4    276.5   0.173206559   1.57643   0.29307   1.21985  -0.05014
  17   37634.7    265.7   0.105063774   0.91905  -0.27457  -0.91724   0.04839
  18   39647.4    252.2   0.005238491   0.04350  -0.00633  -0.20456   0.04016

FINAL SINGLE POINT ENERGY     -4219.440895299328

DIPOLE MOMENT
-------------
                                X             Y             Z
Electronic contribution:     -9.43552      48.19261      12.13196
Nuclear contribution   :     11.27580     -48.05074     -11.57489
                        -----------------------------------------
Total Dipole Moment    :      1.84028       0.14188       0.55708
                        -----------------------------------------
Magnitude (a.u.)       :      1.92797
Magnitude (Debye)      :      4.90052

Rotational constants in cm-1:     0.001526     0.000393     0.000327
Rotational constants in MHz :    45.737915    11.792028     9.792148

                             ****ORCA TERMINATED NORMALLY****
TOTAL RUN TIME: 0 days 0 hours 6 minutes 1 seconds 474 msec
