                         Program Version 4.2.0 -  RELEASE  -
|  1> # ORCA input file
|  2> # SCF done       -155.565438442041          0.000440635664
|  3> ! CAM-B3LYP def2-SVP def2/J RIJCOSX Grid4 TightSCF
|  4> %maxcore 5000
|  5> %tddft
|  6>     Mode sTDDFT
|  7>     Ethresh 5.0
|  8>     maxcore 5000
|  9> end
| 10>
| 11> %pal
| 12>   nprocs 6
| 13>   end
| 14> * xyz 0 1
| 15>    C       -6.33172         1.55241        -5.89290
| 16>    C       -5.42092         2.56407        -5.83659
| 17>    C       -5.41916         3.80271        -5.13394
| 18>    C       -4.42627         4.69220        -5.36728
| 19>    C       -3.35953         4.40300        -6.27609
| 20>    C       -3.28037         3.21730        -6.92865
| 21>    C       -4.30907         2.25383        -6.74098
| 22>    C       -4.56286         1.05156        -7.35848
| 23>    C       -5.85460         0.56439        -6.84404
| 24>    C       -6.44797        -0.59481        -7.15408
| 25>    C       -3.76851         0.36348        -8.34827
| 26>    C       -4.27086        -0.11583        -9.58303
| 27>    C       -3.32935        -0.72989       -10.35343
| 28>    S       -3.59737        -1.41643       -11.93511
| 29>    C       -1.92721        -1.98624       -12.35502
| 30>    S       -1.77155        -0.76813        -9.57098
| 31>    C       -2.42435         0.06888        -8.19693
| 32>    N       -1.70134         0.31225        -7.05338
| 33>    C       -0.57341        -0.29056        -6.62165
| 34>    S        0.37807        -1.34224        -7.61685
| 35>    C        1.38428        -1.71393        -6.24477
| 36>    N        2.43569        -2.59827        -6.45728
| 37>    O        3.15403        -2.87694        -5.51201
| 38>    O        2.55854        -3.03640        -7.59319
| 39>    C        0.99305        -1.07421        -5.09720
| 40>    C       -0.10672        -0.22746        -5.29496
| 41>    C       -0.70780         0.56950        -4.25687
| 42>    C       -1.18485         1.82042        -4.42415
| 43>    C       -1.84651         2.53859        -3.39065
| 44>    S       -1.96572         4.30918        -3.47638
| 45>    C       -2.88940         4.24792        -2.03563
| 46>    C       -3.01627         2.92309        -1.59703
| 47>    N       -2.42987         2.00264        -2.35306
| 48>    C       -3.83946         2.85080        -0.35151
| 49>    C       -4.17570         4.29962        -0.14973
| 50>    C       -3.59583         5.09558        -1.15769
| 51>    S       -3.93930         6.76235        -0.99569
| 52>    C       -4.89137         6.42034         0.44443
| 53>    C       -4.90311         5.04767         0.74381
| 54>    C       -5.58349         7.34745         1.23057
| 55>    C       -5.67509         8.71470         1.13090
| 56>    C       -6.42809         9.58005         2.01614
| 57>    C       -7.27081         9.20446         3.03223
| 58>    C       -7.98050        10.11119         3.84669
| 59>    N       -8.58564        10.79476         4.54315
| 60>    C       -7.57246         7.87898         3.40620
| 61>    N       -7.87581         6.83227         3.77066
| 62>    C       -6.15644        10.95827         1.61668
| 63>    C       -5.29637        10.94415         0.49101
| 64>    C       -4.98519         9.54629         0.14180
| 65>    O       -4.28738         9.17367        -0.78598
| 66>    C       -4.85416        12.09100        -0.12113
| 67>    C       -5.27797        13.31573         0.40622
| 68>    C       -6.13539        13.32151         1.53157
| 69>    C       -6.58522        12.15982         2.14794
| 70>    S       -6.53320        14.93957         2.02397
| 71>    C       -5.55441        15.57771         0.72988
| 72>    C       -4.96065        14.62987        -0.03373
| 73>   Br       -5.40906        17.43448         0.50906
| 74>    H       -7.25687         1.47303        -5.35543
| 75>    H       -6.22586         4.02117        -4.44980
| 76>    H       -4.41894         5.64990        -4.86760
| 77>    H       -2.60668         5.16179        -6.43068
| 78>    H       -2.47780         3.01135        -7.62356
| 79>    H       -6.01542        -1.28478        -7.85926
| 80>    H       -7.38477        -0.87864        -6.70410
| 81>    H       -5.28646         0.02498        -9.90321
| 82>    H       -1.99866        -2.43799       -13.33910
| 83>    H       -1.59752        -2.72217       -11.62688
| 84>    H       -1.24828        -1.13860       -12.37935
| 85>    H       -2.22545         0.81497        -6.33894
| 86>    H        1.50326        -1.19938        -4.15948
| 87>    H       -0.74275         0.13299        -3.26860
| 88>    H       -1.03476         2.36102        -5.34905
| 89>    H       -3.27400         2.43611         0.48500
| 90>    H       -4.72781         2.23224        -0.48989
| 91>    H       -5.43894         4.65812         1.59129
| 92>    H       -6.11702         6.88569         2.05253
| 93>    H       -4.19960        12.04610        -0.97737
| 94>    H       -7.23592        12.21949         3.00401
| 95>    H       -4.32419        14.84676        -0.87210
| 96> *
| 97>
| 98>                          ****END OF INPUT****

CARTESIAN COORDINATES (ANGSTROEM)
---------------------------------
  C     -6.331720    1.552410   -5.892900
  C     -5.420920    2.564070   -5.836590
  C     -5.419160    3.802710   -5.133940
  C     -4.426270    4.692200   -5.367280
  C     -3.359530    4.403000   -6.276090
  C     -3.280370    3.217300   -6.928650
  C     -4.309070    2.253830   -6.740980
  C     -4.562860    1.051560   -7.358480
  C     -5.854600    0.564390   -6.844040
  C     -6.447970   -0.594810   -7.154080
  C     -3.768510    0.363480   -8.348270
  C     -4.270860   -0.115830   -9.583030
  C     -3.329350   -0.729890  -10.353430
  S     -3.597370   -1.416430  -11.935110
  C     -1.927210   -1.986240  -12.355020
  S     -1.771550   -0.768130   -9.570980
  C     -2.424350    0.068880   -8.196930
  N     -1.701340    0.312250   -7.053380
  C     -0.573410   -0.290560   -6.621650
  S      0.378070   -1.342240   -7.616850
  C      1.384280   -1.713930   -6.244770
  N      2.435690   -2.598270   -6.457280
  O      3.154030   -2.876940   -5.512010
  O      2.558540   -3.036400   -7.593190
  C      0.993050   -1.074210   -5.097200
  C     -0.106720   -0.227460   -5.294960
  C     -0.707800    0.569500   -4.256870
  C     -1.184850    1.820420   -4.424150
  C     -1.846510    2.538590   -3.390650
  S     -1.965720    4.309180   -3.476380
  C     -2.889400    4.247920   -2.035630
  C     -3.016270    2.923090   -1.597030
  N     -2.429870    2.002640   -2.353060
  C     -3.839460    2.850800   -0.351510
  C     -4.175700    4.299620   -0.149730
  C     -3.595830    5.095580   -1.157690
  S     -3.939300    6.762350   -0.995690
  C     -4.891370    6.420340    0.444430
  C     -4.903110    5.047670    0.743810
  C     -5.583490    7.347450    1.230570
  C     -5.675090    8.714700    1.130900
  C     -6.428090    9.580050    2.016140
  C     -7.270810    9.204460    3.032230
  C     -7.980500   10.111190    3.846690
  N     -8.585640   10.794760    4.543150
  C     -7.572460    7.878980    3.406200
  N     -7.875810    6.832270    3.770660
  C     -6.156440   10.958270    1.616680
  C     -5.296370   10.944150    0.491010
  C     -4.985190    9.546290    0.141800
  O     -4.287380    9.173670   -0.785980
  C     -4.854160   12.091000   -0.121130
  C     -5.277970   13.315730    0.406220
  C     -6.135390   13.321510    1.531570
  C     -6.585220   12.159820    2.147940
  S     -6.533200   14.939570    2.023970
  C     -5.554410   15.577710    0.729880
  C     -4.960650   14.629870   -0.033730
  Br    -5.409060   17.434480    0.509060
  H     -7.256870    1.473030   -5.355430
  H     -6.225860    4.021170   -4.449800
  H     -4.418940    5.649900   -4.867600
  H     -2.606680    5.161790   -6.430680
  H     -2.477800    3.011350   -7.623560
  H     -6.015420   -1.284780   -7.859260
  H     -7.384770   -0.878640   -6.704100
  H     -5.286460    0.024980   -9.903210
  H     -1.998660   -2.437990  -13.339100
  H     -1.597520   -2.722170  -11.626880
  H     -1.248280   -1.138600  -12.379350
  H     -2.225450    0.814970   -6.338940
  H      1.503260   -1.199380   -4.159480
  H     -0.742750    0.132990   -3.268600
  H     -1.034760    2.361020   -5.349050
  H     -3.274000    2.436110    0.485000
  H     -4.727810    2.232240   -0.489890
  H     -5.438940    4.658120    1.591290
  H     -6.117020    6.885690    2.052530
  H     -4.199600   12.046100   -0.977370
  H     -7.235920   12.219490    3.004010
  H     -4.324190   14.846760   -0.872100

 Total Charge           Charge          ....    0
 Multiplicity           Mult            ....    1
 Number of Electrons    NEL             ....  476
 Basis Dimension        Dim             ....  978

ORBITAL ENERGIES
----------------

  NO   OCC          E(Eh)            E(eV)
   0   2.0000    -482.884282    -13139.9493
   1   2.0000     -88.982219     -2421.3293
   2   2.0000     -88.978175     -2421.2192
   3   2.0000     -88.975886     -2421.1569
   4   2.0000     -88.973683     -2421.0970
   5   2.0000     -88.971644     -2421.0415
   6   2.0000     -88.939417     -2420.1646
   7   2.0000     -62.561977     -1702.3979
   8   2.0000     -56.395925     -1534.6111
   9   2.0000     -56.393215     -1534.5374
  10   2.0000     -56.393181     -1534.5365
  11   2.0000     -19.226536      -523.1806
  12   2.0000     -19.226255      -523.1730
  13   2.0000     -19.217320      -522.9298
  14   2.0000     -14.638827      -398.3427
  15   2.0000     -14.483292      -394.1104
  16   2.0000     -14.420348      -392.3976
  17   2.0000     -14.413047      -392.1990
  18   2.0000     -14.409356      -392.0985
  19   2.0000     -10.371729      -282.2291
  20   2.0000     -10.365457      -282.0584
  21   2.0000     -10.356968      -281.8274
  22   2.0000     -10.348895      -281.6078
  23   2.0000     -10.347380      -281.5665
  24   2.0000     -10.337303      -281.2923
  25   2.0000     -10.335325      -281.2385
  26   2.0000     -10.332264      -281.1552
  27   2.0000     -10.322988      -280.9028
  28   2.0000     -10.322890      -280.9001
  29   2.0000     -10.320791      -280.8430
  30   2.0000     -10.318910      -280.7918
  31   2.0000     -10.318777      -280.7882
  32   2.0000     -10.316566      -280.7280
  33   2.0000     -10.314024      -280.6589
  34   2.0000     -10.313136      -280.6347
  35   2.0000     -10.312977      -280.6304
  36   2.0000     -10.306049      -280.4418
  37   2.0000     -10.305021      -280.4139
  38   2.0000     -10.304655      -280.4039
  39   2.0000     -10.304300      -280.3943
  40   2.0000     -10.303027      -280.3596
  41   2.0000     -10.302954      -280.3576
  42   2.0000     -10.302462      -280.3442
  43   2.0000     -10.298937      -280.2483
  44   2.0000     -10.298663      -280.2409
  45   2.0000     -10.298040      -280.2239
  46   2.0000     -10.295008      -280.1414
  47   2.0000     -10.294994      -280.1410
  48   2.0000     -10.294970      -280.1404
  49   2.0000     -10.290877      -280.0290
  50   2.0000     -10.290301      -280.0133
  51   2.0000     -10.289710      -279.9972
  52   2.0000     -10.289465      -279.9906
  53   2.0000     -10.287926      -279.9487
  54   2.0000     -10.283230      -279.8209
  55   2.0000     -10.281380      -279.7706
  56   2.0000     -10.280931      -279.7584
  57   2.0000     -10.280661      -279.7510
  58   2.0000     -10.279151      -279.7099
  59   2.0000     -10.277886      -279.6755
  60   2.0000     -10.277781      -279.6726
  61   2.0000     -10.277083      -279.6537
  62   2.0000     -10.267064      -279.3810
  63   2.0000      -8.791393      -239.2260
  64   2.0000      -8.077413      -219.7976
  65   2.0000      -8.072503      -219.6640
  66   2.0000      -8.070909      -219.6206
  67   2.0000      -8.069620      -219.5855
  68   2.0000      -8.064427      -219.4442
  69   2.0000      -8.035066      -218.6453
  70   2.0000      -6.627681      -180.3484
  71   2.0000      -6.613140      -179.9527
  72   2.0000      -6.612930      -179.9470
  73   2.0000      -6.047165      -164.5517
  74   2.0000      -6.042644      -164.4287
  75   2.0000      -6.041689      -164.4027
  76   2.0000      -6.040605      -164.3732
  77   2.0000      -6.039307      -164.3379
  78   2.0000      -6.038788      -164.3238
  79   2.0000      -6.037747      -164.2955
  80   2.0000      -6.036278      -164.2555
  81   2.0000      -6.035033      -164.2216
  82   2.0000      -6.034806      -164.2154
  83   2.0000      -6.034006      -164.1936
  84   2.0000      -6.032398      -164.1499
  85   2.0000      -6.030870      -164.1083
  86   2.0000      -6.029326      -164.0663
  87   2.0000      -6.026570      -163.9913
  88   2.0000      -6.005579      -163.4201
  89   2.0000      -6.001529      -163.3099
  90   2.0000      -5.994492      -163.1184
  91   2.0000      -2.743553       -74.6559
  92   2.0000      -2.739458       -74.5444
  93   2.0000      -2.739342       -74.5413
  94   2.0000      -2.727764       -74.2262
  95   2.0000      -2.727747       -74.2258
  96   2.0000      -1.306417       -35.5494
  97   2.0000      -1.132661       -30.8213
  98   2.0000      -1.125315       -30.6214
  99   2.0000      -1.094151       -29.7734
 100   2.0000      -1.078901       -29.3584
 101   2.0000      -1.020034       -27.7565
 102   2.0000      -1.010544       -27.4983
 103   2.0000      -1.007413       -27.4131
 104   2.0000      -1.006498       -27.3882
 105   2.0000      -0.990476       -26.9522
 106   2.0000      -0.987505       -26.8714
 107   2.0000      -0.986291       -26.8383
 108   2.0000      -0.980320       -26.6759
 109   2.0000      -0.946116       -25.7451
 110   2.0000      -0.935850       -25.4658
 111   2.0000      -0.926295       -25.2058
 112   2.0000      -0.920528       -25.0488
 113   2.0000      -0.907931       -24.7061
 114   2.0000      -0.905714       -24.6457
 115   2.0000      -0.902431       -24.5564
 116   2.0000      -0.891979       -24.2720
 117   2.0000      -0.883249       -24.0344
 118   2.0000      -0.881466       -23.9859
 119   2.0000      -0.869293       -23.6547
 120   2.0000      -0.861503       -23.4427
 121   2.0000      -0.859437       -23.3865
 122   2.0000      -0.852460       -23.1966
 123   2.0000      -0.843549       -22.9541
 124   2.0000      -0.840843       -22.8805
 125   2.0000      -0.827363       -22.5137
 126   2.0000      -0.826629       -22.4937
 127   2.0000      -0.800195       -21.7744
 128   2.0000      -0.791895       -21.5485
 129   2.0000      -0.782009       -21.2795
 130   2.0000      -0.772259       -21.0142
 131   2.0000      -0.763701       -20.7814
 132   2.0000      -0.758991       -20.6532
 133   2.0000      -0.757205       -20.6046
 134   2.0000      -0.736912       -20.0524
 135   2.0000      -0.720258       -19.5992
 136   2.0000      -0.707035       -19.2394
 137   2.0000      -0.701373       -19.0853
 138   2.0000      -0.689398       -18.7595
 139   2.0000      -0.687579       -18.7100
 140   2.0000      -0.683734       -18.6054
 141   2.0000      -0.670731       -18.2515
 142   2.0000      -0.664410       -18.0795
 143   2.0000      -0.663050       -18.0425
 144   2.0000      -0.656453       -17.8630
 145   2.0000      -0.653427       -17.7807
 146   2.0000      -0.641107       -17.4454
 147   2.0000      -0.635450       -17.2915
 148   2.0000      -0.631246       -17.1771
 149   2.0000      -0.627337       -17.0707
 150   2.0000      -0.621743       -16.9185
 151   2.0000      -0.620145       -16.8750
 152   2.0000      -0.618648       -16.8343
 153   2.0000      -0.610650       -16.6166
 154   2.0000      -0.604657       -16.4535
 155   2.0000      -0.598282       -16.2801
 156   2.0000      -0.589816       -16.0497
 157   2.0000      -0.586757       -15.9665
 158   2.0000      -0.581046       -15.8111
 159   2.0000      -0.574964       -15.6456
 160   2.0000      -0.571539       -15.5524
 161   2.0000      -0.563918       -15.3450
 162   2.0000      -0.561632       -15.2828
 163   2.0000      -0.561085       -15.2679
 164   2.0000      -0.557499       -15.1703
 165   2.0000      -0.554374       -15.0853
 166   2.0000      -0.544740       -14.8231
 167   2.0000      -0.543182       -14.7807
 168   2.0000      -0.538827       -14.6622
 169   2.0000      -0.538295       -14.6478
 170   2.0000      -0.536201       -14.5908
 171   2.0000      -0.529558       -14.4100
 172   2.0000      -0.525988       -14.3129
 173   2.0000      -0.524021       -14.2593
 174   2.0000      -0.523845       -14.2546
 175   2.0000      -0.516399       -14.0519
 176   2.0000      -0.514710       -14.0060
 177   2.0000      -0.512442       -13.9443
 178   2.0000      -0.510502       -13.8915
 179   2.0000      -0.507321       -13.8049
 180   2.0000      -0.502948       -13.6859
 181   2.0000      -0.499884       -13.6025
 182   2.0000      -0.493778       -13.4364
 183   2.0000      -0.493049       -13.4165
 184   2.0000      -0.492040       -13.3891
 185   2.0000      -0.491511       -13.3747
 186   2.0000      -0.489986       -13.3332
 187   2.0000      -0.483099       -13.1458
 188   2.0000      -0.480992       -13.0885
 189   2.0000      -0.477875       -13.0036
 190   2.0000      -0.476716       -12.9721
 191   2.0000      -0.473448       -12.8832
 192   2.0000      -0.468558       -12.7501
 193   2.0000      -0.463530       -12.6133
 194   2.0000      -0.462241       -12.5782
 195   2.0000      -0.459653       -12.5078
 196   2.0000      -0.457014       -12.4360
 197   2.0000      -0.450886       -12.2692
 198   2.0000      -0.446247       -12.1430
 199   2.0000      -0.445856       -12.1324
 200   2.0000      -0.440886       -11.9971
 201   2.0000      -0.439627       -11.9629
 202   2.0000      -0.438255       -11.9255
 203   2.0000      -0.436913       -11.8890
 204   2.0000      -0.432427       -11.7669
 205   2.0000      -0.427007       -11.6195
 206   2.0000      -0.426682       -11.6106
 207   2.0000      -0.424501       -11.5513
 208   2.0000      -0.422416       -11.4945
 209   2.0000      -0.416802       -11.3417
 210   2.0000      -0.411106       -11.1868
 211   2.0000      -0.409912       -11.1543
 212   2.0000      -0.406658       -11.0657
 213   2.0000      -0.402190       -10.9441
 214   2.0000      -0.398805       -10.8520
 215   2.0000      -0.389808       -10.6072
 216   2.0000      -0.383969       -10.4483
 217   2.0000      -0.375078       -10.2064
 218   2.0000      -0.373717       -10.1693
 219   2.0000      -0.369827       -10.0635
 220   2.0000      -0.367456        -9.9990
 221   2.0000      -0.366683        -9.9780
 222   2.0000      -0.362053        -9.8520
 223   2.0000      -0.357033        -9.7153
 224   2.0000      -0.355764        -9.6808
 225   2.0000      -0.352887        -9.6025
 226   2.0000      -0.345574        -9.4035
 227   2.0000      -0.334248        -9.0954
 228   2.0000      -0.332886        -9.0583
 229   2.0000      -0.330854        -9.0030
 230   2.0000      -0.324115        -8.8196
 231   2.0000      -0.313833        -8.5398
 232   2.0000      -0.311769        -8.4837
 233   2.0000      -0.296267        -8.0618
 234   2.0000      -0.290806        -7.9132
 235   2.0000      -0.264258        -7.1908
 236   2.0000      -0.251968        -6.8564
 237   2.0000      -0.234563        -6.3828
 238   0.0000      -0.092747        -2.5238
 239   0.0000      -0.078586        -2.1384
 240   0.0000      -0.061168        -1.6645
 241   0.0000      -0.047240        -1.2855
 242   0.0000      -0.039353        -1.0708

MULLIKEN ATOMIC CHARGES
-----------------------
   0 C :   -0.066572
   1 C :    0.081315
   2 C :    0.012899
   3 C :    0.039980
   4 C :    0.012684
   5 C :   -0.036659
   6 C :    0.005481
   7 C :   -0.003589
   8 C :    0.039057
   9 C :   -0.018514
  10 C :    0.060621
  11 C :    0.011050
  12 C :   -0.132673
  13 S :    0.002838
  14 C :   -0.100381
  15 S :    0.080061
  16 C :   -0.125894
  17 N :   -0.011019
  18 C :   -0.093597
  19 S :    0.143722
  20 C :   -0.009532
  21 N :    0.279899
  22 O :   -0.261969
  23 O :   -0.278874
  24 C :    0.027133
  25 C :    0.085970
  26 C :   -0.008043
  27 C :    0.004555
  28 C :   -0.091318
  29 S :    0.136815
  30 C :   -0.075708
  31 C :   -0.212332
  32 N :   -0.014367
  33 C :    0.393751
  34 C :   -0.135071
  35 C :   -0.060164
  36 S :    0.207543
  37 C :   -0.059770
  38 C :   -0.034478
  39 C :   -0.030320
  40 C :   -0.098107
  41 C :    0.326134
  42 C :   -0.362851
  43 C :   -0.189396
  44 N :    0.146932
  45 C :   -0.189366
  46 N :    0.141272
  47 C :    0.011252
  48 C :   -0.010766
  49 C :    0.159891
  50 O :   -0.188715
  51 C :   -0.073389
  52 C :    0.117065
  53 C :   -0.092791
  54 C :   -0.020820
  55 S :    0.185323
  56 C :   -0.123341
  57 C :    0.037919
  58 Br:    0.020986
  59 H :   -0.035548
  60 H :   -0.026076
  61 H :   -0.012758
  62 H :   -0.009523
  63 H :   -0.016673
  64 H :    0.042277
  65 H :    0.031658
  66 H :   -0.017238
  67 H :    0.070955
  68 H :    0.076437
  69 H :    0.073159
  70 H :    0.161069
  71 H :    0.007133
  72 H :    0.023677
  73 H :    0.003794
  74 H :    0.040855
  75 H :    0.039758
  76 H :    0.002073
  77 H :    0.007221
  78 H :   -0.012342
  79 H :   -0.007421
  80 H :   -0.004249
Sum of atomic charges:   -0.0000000

LOEWDIN ATOMIC CHARGES
----------------------
   0 C :   -0.038948
   1 C :   -0.017506
   2 C :   -0.012546
   3 C :   -0.034787
   4 C :   -0.030148
   5 C :   -0.036235
   6 C :   -0.028954
   7 C :   -0.045547
   8 C :   -0.014132
   9 C :    0.048355
  10 C :   -0.083828
  11 C :   -0.085023
  12 C :   -0.326048
  13 S :    0.291949
  14 C :   -0.161473
  15 S :    0.410975
  16 C :   -0.150605
  17 N :    0.034166
  18 C :   -0.093977
  19 S :    0.448444
  20 C :   -0.224297
  21 N :    0.274368
  22 O :   -0.227120
  23 O :   -0.245696
  24 C :    0.007995
  25 C :   -0.120167
  26 C :    0.023040
  27 C :   -0.082238
  28 C :   -0.108780
  29 S :    0.457811
  30 C :   -0.227948
  31 C :   -0.018243
  32 N :   -0.092391
  33 C :   -0.011987
  34 C :   -0.060601
  35 C :   -0.174533
  36 S :    0.506178
  37 C :   -0.188159
  38 C :   -0.008731
  39 C :    0.054094
  40 C :   -0.122702
  41 C :    0.078659
  42 C :   -0.151010
  43 C :   -0.018746
  44 N :   -0.060157
  45 C :   -0.020761
  46 N :   -0.061271
  47 C :   -0.019820
  48 C :   -0.049744
  49 C :    0.083240
  50 O :   -0.175527
  51 C :    0.019713
  52 C :   -0.034233
  53 C :   -0.144975
  54 C :   -0.010086
  55 S :    0.432372
  56 C :   -0.272695
  57 C :   -0.070936
  58 Br:    0.134948
  59 H :    0.021609
  60 H :    0.030581
  61 H :    0.025493
  62 H :    0.026055
  63 H :    0.027854
  64 H :    0.034273
  65 H :    0.033915
  66 H :    0.030629
  67 H :    0.037734
  68 H :    0.025559
  69 H :    0.025203
  70 H :    0.098480
  71 H :    0.046639
  72 H :    0.040532
  73 H :    0.027549
  74 H :    0.057920
  75 H :    0.057195
  76 H :    0.040279
  77 H :    0.050396
  78 H :    0.039926
  79 H :    0.040868
  80 H :    0.038315

  Mayer bond orders larger than 0.100000
B(  0-C ,  1-C ) :   1.5600 B(  0-C ,  8-C ) :   1.0385 B(  0-C , 59-H ) :   1.0160
B(  1-C ,  2-C ) :   1.0972 B(  1-C ,  6-C ) :   1.0838 B(  2-C ,  3-C ) :   1.6480
B(  2-C , 60-H ) :   0.9997 B(  3-C ,  4-C ) :   1.1027 B(  3-C , 61-H ) :   0.9824
B(  4-C ,  5-C ) :   1.6278 B(  4-C , 62-H ) :   0.9848 B(  5-C ,  6-C ) :   1.1144
B(  5-C , 63-H ) :   0.9923 B(  6-C ,  7-C ) :   1.5589 B(  7-C ,  8-C ) :   1.0666
B(  7-C , 10-C ) :   0.9606 B(  8-C ,  9-C ) :   1.8500 B(  9-C , 64-H ) :   0.9327
B(  9-C , 65-H ) :   0.9384 B( 10-C , 11-C ) :   1.2695 B( 10-C , 16-C ) :   1.4968
B( 11-C , 12-C ) :   1.5672 B( 11-C , 66-H ) :   0.9982 B( 12-C , 13-S ) :   1.0132
B( 12-C , 15-S ) :   1.0833 B( 13-S , 14-C ) :   1.0141 B( 14-C , 67-H ) :   0.9723
B( 14-C , 68-H ) :   0.9637 B( 14-C , 69-H ) :   0.9650 B( 15-S , 16-C ) :   1.0892
B( 16-C , 17-N ) :   1.1313 B( 17-N , 18-C ) :   1.2588 B( 17-N , 70-H ) :   0.8608
B( 18-C , 19-S ) :   1.1391 B( 18-C , 25-C ) :   1.3393 B( 19-S , 20-C ) :   1.0575
B( 20-C , 21-N ) :   0.9958 B( 20-C , 24-C ) :   1.4626 B( 21-N , 22-O ) :   1.5235
B( 21-N , 23-O ) :   1.4972 B( 22-O , 23-O ) :   0.2480 B( 24-C , 25-C ) :   1.2618
B( 24-C , 71-H ) :   1.0079 B( 25-C , 26-C ) :   1.0524 B( 26-C , 27-C ) :   1.7273
B( 26-C , 72-H ) :   0.9702 B( 27-C , 28-C ) :   1.1096 B( 27-C , 73-H ) :   0.9408
B( 28-C , 29-S ) :   1.0965 B( 28-C , 32-N ) :   1.6550 B( 29-S , 30-C ) :   1.0859
B( 30-C , 31-C ) :   1.4695 B( 30-C , 35-C ) :   1.2040 B( 31-C , 32-N ) :   1.4453
B( 31-C , 33-C ) :   1.0444 B( 33-C , 34-C ) :   0.9730 B( 33-C , 74-H ) :   0.8587
B( 33-C , 75-H ) :   0.8637 B( 34-C , 35-C ) :   1.4231 B( 34-C , 38-C ) :   1.3779
B( 35-C , 36-S ) :   1.0880 B( 36-S , 37-C ) :   1.0662 B( 37-C , 38-C ) :   1.3090
B( 37-C , 39-C ) :   1.3041 B( 38-C , 76-H ) :   1.0143 B( 39-C , 40-C ) :   1.4538
B( 39-C , 77-H ) :   0.9391 B( 40-C , 41-C ) :   1.0963 B( 40-C , 49-C ) :   0.9870
B( 41-C , 42-C ) :   1.6065 B( 41-C , 47-C ) :   0.9963 B( 42-C , 43-C ) :   1.1482
B( 42-C , 45-C ) :   1.1489 B( 43-C , 44-N ) :   2.9668 B( 45-C , 46-N ) :   2.9588
B( 47-C , 48-C ) :   1.2768 B( 47-C , 54-C ) :   1.4175 B( 48-C , 49-C ) :   0.9564
B( 48-C , 51-C ) :   1.4252 B( 49-C , 50-O ) :   2.1233 B( 51-C , 52-C ) :   1.2413
B( 51-C , 78-H ) :   1.0171 B( 52-C , 53-C ) :   1.3111 B( 52-C , 57-C ) :   1.1630
B( 53-C , 54-C ) :   1.3241 B( 53-C , 55-S ) :   1.0860 B( 54-C , 79-H ) :   0.9798
B( 55-S , 56-C ) :   1.0871 B( 56-C , 57-C ) :   1.6169 B( 56-C , 58-Br) :   1.0168
B( 57-C , 80-H ) :   1.0003

-----------------------------------------------------------------------------
         ABSORPTION SPECTRUM VIA TRANSITION ELECTRIC DIPOLE MOMENTS
-----------------------------------------------------------------------------
State   Energy  Wavelength   fosc         T2         TX        TY        TZ
        (cm-1)    (nm)                  (au**2)     (au)      (au)      (au)
-----------------------------------------------------------------------------
   0   15289.8    654.0   0.130561327   2.81119  -1.30797   0.84787   0.61768
   1   17896.5    558.8   1.050676401  19.32755   1.36155  -3.26217  -2.61381
   2   19905.9    502.4   0.386154660   6.38638  -1.25192   2.00953   0.88368
   3   20533.7    487.0   0.455544920   7.30365  -1.35275   1.84500   1.43865
   4   23639.8    423.0   0.000430982   0.00600  -0.06121  -0.02877   0.03778
   5   24341.1    410.8   0.226148013   3.05864  -1.40488   0.34236  -0.98373
   6   24631.4    406.0   0.238218457   3.18391   1.43861  -0.95717   0.44514
   7   25462.2    392.7   0.154662267   1.99970   0.54097  -1.28237  -0.25014
   8   26869.2    372.2   0.019869753   0.24345   0.23515  -0.29581  -0.31726
   9   28346.0    352.8   0.459728048   5.33930  -0.23382  -2.26005   0.42050
  10   29569.8    338.2   0.000859898   0.00957  -0.03179  -0.06138   0.06925
  11   29921.4    334.2   0.118832115   1.30746  -0.42035   0.47420   0.95179
  12   30228.3    330.8   0.065601721   0.71446   0.40437  -0.27131   0.69089
  13   30365.5    329.3   0.002472258   0.02680   0.16289   0.01535  -0.00579
  14   30947.2    323.1   0.066280559   0.70508   0.80575   0.10384  -0.21228
  15   31075.2    321.8   0.007493032   0.07938   0.19873  -0.05060  -0.19320
  16   31824.0    314.2   0.051048639   0.52809  -0.24101  -0.68500   0.02793
  17   32601.7    306.7   0.009359750   0.09451  -0.06618  -0.29986  -0.01470
  18   32915.7    303.8   0.028144860   0.28150  -0.33113   0.37131   0.18433
  19   33254.3    300.7   0.236830512   2.34458  -0.52043  -1.05087   0.98459
  20   33416.3    299.3   0.041077219   0.40469  -0.00564  -0.05906  -0.63338
  21   33658.2    297.1   0.041042250   0.40144   0.06819  -0.25575  -0.57565
  22   33687.3    296.8   0.095923381   0.93742  -0.83294  -0.38734  -0.30593
  23   33823.7    295.7   0.037298955   0.36304   0.27548   0.53518   0.02710
  24   34897.6    286.6   0.168132957   1.58611   0.37978   0.86804  -0.82968
  25   35400.0    282.5   0.005845781   0.05436   0.07550  -0.09369   0.19971
  26   35810.1    279.3   0.167143312   1.53659  -0.79198  -0.90909   0.28796
  27   36543.4    273.6   0.047868087   0.43123   0.18271  -0.36610  -0.51363
  28   36913.3    270.9   0.018392110   0.16403  -0.12159   0.26320  -0.28279
  29   37198.0    268.8   0.083356766   0.73773   0.67913   0.47174   0.23232
  30   37936.8    263.6   0.050033604   0.43419   0.61263  -0.23507   0.06007
  31   38176.8    261.9   0.018020383   0.15540  -0.23886  -0.10536  -0.29536
  32   38315.9    261.0   0.049896945   0.42872  -0.06915   0.65007  -0.03670
  33   38690.1    258.5   0.019563259   0.16646   0.24260  -0.25483   0.20657
  34   38862.2    257.3   0.049449698   0.41890   0.61868  -0.02517  -0.18841
  35   39039.0    256.2   0.222767340   1.87857   0.88183  -0.46199  -0.94208
  36   39418.9    253.7   0.033867712   0.28285   0.15498  -0.50832  -0.02107
  37   39484.3    253.3   0.114339093   0.95334   0.08542  -0.97264   0.00340
  38   39867.1    250.8   0.043775622   0.36149   0.39897  -0.41094  -0.18288
  39   40282.0    248.2   0.006851143   0.05599   0.00610   0.05355  -0.23041

FINAL SINGLE POINT ENERGY     -7148.767538963065

DIPOLE MOMENT
-------------
                                X             Y             Z
Electronic contribution:    -14.01966     159.79459      64.68351
Nuclear contribution   :     13.71029    -159.38561     -66.92668
                        -----------------------------------------
Total Dipole Moment    :     -0.30936       0.40898      -2.24317
                        -----------------------------------------
Magnitude (a.u.)       :      2.30104
Magnitude (Debye)      :      5.84878

Rotational constants in cm-1:     0.002119     0.000296     0.000288
Rotational constants in MHz :    63.512601     8.869809     8.646250

                             ****ORCA TERMINATED NORMALLY****
TOTAL RUN TIME: 0 days 0 hours 8 minutes 8 seconds 439 msec
