                         Program Version 4.2.0 -  RELEASE  -
|  1> # ORCA input file
|  2> # SCF done       -209.300444019453          0.000417724826
|  3> ! CAM-B3LYP def2-SVP def2/J RIJCOSX Grid4 TightSCF
|  4> %maxcore 5000
|  5> %tddft
|  6>     Mode sTDDFT
|  7>     Ethresh 5.0
|  8>     maxcore 5000
|  9> end
| 10>
| 11> %pal
| 12>   nprocs 6
| 13>   end
| 14> * xyz 0 1
| 15>    C        4.86447         7.08912        -1.97982
| 16>    C        3.87966         7.98238        -2.29825
| 17>    F        4.19298         9.09730        -2.98236
| 18>    C        2.53953         7.78400        -1.93852
| 19>    C        2.20138         6.65601        -1.24422
| 20>    C        3.17641         5.70069        -0.89050
| 21>    C        4.53474         5.92256        -1.26283
| 22>    C        5.53259         4.98459        -0.90867
| 23>    C        5.17922         3.86200        -0.21084
| 24>    C        3.81661         3.63504         0.14141
| 25>    C        2.83548         4.52835        -0.17973
| 26>    C        3.70052         2.34207         0.84228
| 27>    O        2.71401         1.84271         1.33128
| 28>    C        5.05969         1.73468         0.75801
| 29>    C        5.98021         2.76484         0.32391
| 30>    C        7.31518         2.83113         0.62235
| 31>    C        7.96819         1.88251         1.43706
| 32>    N        8.51269         1.16183         2.14507
| 33>    C        8.15109         3.89742         0.23539
| 34>    N        8.86999         4.73519        -0.07862
| 35>    C        5.19770         0.39467         0.94424
| 36>    C        6.22853        -0.47711         0.52261
| 37>    C        6.37818        -1.79470         0.91205
| 38>    C        7.43883        -2.43725         0.27915
| 39>   Cl        7.85921        -4.06723         0.59555
| 40>    C        8.12432        -1.64268        -0.63484
| 41>    S        7.41164        -0.06260        -0.68870
| 42>    C        9.24387        -1.98221        -1.43105
| 43>    C        9.98701        -1.15773        -2.26665
| 44>   Cl        9.63683         0.50310        -2.49586
| 45>    C       11.05547        -1.79480        -2.90123
| 46>    C       11.15065        -3.12902        -2.57574
| 47>    S        9.90533        -3.59392        -1.45638
| 48>    C       12.10576        -4.07165        -3.03730
| 49>    C       12.15344        -5.42154        -2.77642
| 50>    C       13.23437        -6.05412        -3.39569
| 51>   Cl       13.52648        -7.73540        -3.24355
| 52>    C       14.04551        -5.20783        -4.13794
| 53>    S       13.42547        -3.58258        -4.05979
| 54>    C       15.21971        -5.52875        -4.86587
| 55>    C       16.06009        -4.67443        -5.56442
| 56>   Cl       15.79000        -2.98735        -5.68636
| 57>    C       17.15566        -5.30416        -6.16276
| 58>    C       17.17494        -6.66083        -5.94232
| 59>    S       15.81886        -7.16062        -4.97575
| 60>    C       18.13652        -7.60570        -6.39353
| 61>    C       18.11943        -8.97053        -6.23087
| 62>    C       19.23422        -9.60451        -6.79823
| 63>   Cl       19.50787       -11.28612        -6.63040
| 64>    C       20.11830        -8.73739        -7.40958
| 65>    S       19.55701        -7.09575        -7.25558
| 66>    C       21.35790        -8.99345        -8.07272
| 67>    C       21.70829        -9.98805        -8.96803
| 68>   Cl       20.61122       -11.15475        -9.57257
| 69>    C       23.03464        -9.90854        -9.40671
| 70>    C       23.71748        -8.82468        -8.89687
| 71>    S       22.69619        -7.92251        -7.80942
| 72>    C       25.08659        -8.52364        -9.11381
| 73>    C       25.76879        -7.37701        -8.86344
| 74>    C       27.25245        -7.42605        -8.70707
| 75>    O       27.98520        -8.32547        -9.04498
| 76>    C       27.60083        -6.18198        -7.99498
| 77>    C       28.80724        -5.79198        -7.48816
| 78>    C       28.90281        -4.55714        -6.80871
| 79>    C       27.73795        -3.74811        -6.66035
| 80>    C       27.84004        -2.52298        -5.97305
| 81>    C       29.05014        -2.13479        -5.46899
| 82>    C       30.20715        -2.91410        -5.60734
| 83>    C       30.12568        -4.10730        -6.26936
| 84>    F       29.14955        -0.96505        -4.81338
| 85>    C       26.50275        -4.17237        -7.20305
| 86>    C       26.43781        -5.36751        -7.86630
| 87>    C       25.33478        -6.02881        -8.55558
| 88>    C       24.22829        -5.40516        -9.06567
| 89>    C       23.35750        -6.02034        -9.99002
| 90>    N       22.66628        -6.47274       -10.78643
| 91>    C       23.89887        -4.05964        -8.80555
| 92>    N       23.58305        -2.97456        -8.60607
| 93>    H        5.88650         7.27680        -2.26968
| 94>    H        1.80609         8.52400        -2.21692
| 95>    H        1.17580         6.48073        -0.95608
| 96>    H        6.55204         5.17156        -1.20751
| 97>    H        1.81061         4.34310         0.10499
| 98>    H        4.34395        -0.09308         1.40592
| 99>    H        5.75598        -2.26719         1.64978
|100>    H       11.73039        -1.29915        -3.57459
|101>    H       11.43407        -5.93350        -2.16398
|102>    H       17.90170        -4.78448        -6.73569
|103>    H       17.33636        -9.49495        -5.71440
|104>    H       23.46499       -10.59927       -10.10850
|105>    H       25.69450        -9.35966        -9.44716
|106>    H       29.67907        -6.41828        -7.60378
|107>    H       26.97099        -1.89556        -5.85114
|108>    H       31.13433        -2.55587        -5.18906
|109>    H       31.00300        -4.72509        -6.38828
|110>    H       25.63378        -3.54685        -7.07194
|111> *
|112>
|113>                          ****END OF INPUT****

CARTESIAN COORDINATES (ANGSTROEM)
---------------------------------
  C      4.864470    7.089120   -1.979820
  C      3.879660    7.982380   -2.298250
  F      4.192980    9.097300   -2.982360
  C      2.539530    7.784000   -1.938520
  C      2.201380    6.656010   -1.244220
  C      3.176410    5.700690   -0.890500
  C      4.534740    5.922560   -1.262830
  C      5.532590    4.984590   -0.908670
  C      5.179220    3.862000   -0.210840
  C      3.816610    3.635040    0.141410
  C      2.835480    4.528350   -0.179730
  C      3.700520    2.342070    0.842280
  O      2.714010    1.842710    1.331280
  C      5.059690    1.734680    0.758010
  C      5.980210    2.764840    0.323910
  C      7.315180    2.831130    0.622350
  C      7.968190    1.882510    1.437060
  N      8.512690    1.161830    2.145070
  C      8.151090    3.897420    0.235390
  N      8.869990    4.735190   -0.078620
  C      5.197700    0.394670    0.944240
  C      6.228530   -0.477110    0.522610
  C      6.378180   -1.794700    0.912050
  C      7.438830   -2.437250    0.279150
  Cl     7.859210   -4.067230    0.595550
  C      8.124320   -1.642680   -0.634840
  S      7.411640   -0.062600   -0.688700
  C      9.243870   -1.982210   -1.431050
  C      9.987010   -1.157730   -2.266650
  Cl     9.636830    0.503100   -2.495860
  C     11.055470   -1.794800   -2.901230
  C     11.150650   -3.129020   -2.575740
  S      9.905330   -3.593920   -1.456380
  C     12.105760   -4.071650   -3.037300
  C     12.153440   -5.421540   -2.776420
  C     13.234370   -6.054120   -3.395690
  Cl    13.526480   -7.735400   -3.243550
  C     14.045510   -5.207830   -4.137940
  S     13.425470   -3.582580   -4.059790
  C     15.219710   -5.528750   -4.865870
  C     16.060090   -4.674430   -5.564420
  Cl    15.790000   -2.987350   -5.686360
  C     17.155660   -5.304160   -6.162760
  C     17.174940   -6.660830   -5.942320
  S     15.818860   -7.160620   -4.975750
  C     18.136520   -7.605700   -6.393530
  C     18.119430   -8.970530   -6.230870
  C     19.234220   -9.604510   -6.798230
  Cl    19.507870  -11.286120   -6.630400
  C     20.118300   -8.737390   -7.409580
  S     19.557010   -7.095750   -7.255580
  C     21.357900   -8.993450   -8.072720
  C     21.708290   -9.988050   -8.968030
  Cl    20.611220  -11.154750   -9.572570
  C     23.034640   -9.908540   -9.406710
  C     23.717480   -8.824680   -8.896870
  S     22.696190   -7.922510   -7.809420
  C     25.086590   -8.523640   -9.113810
  C     25.768790   -7.377010   -8.863440
  C     27.252450   -7.426050   -8.707070
  O     27.985200   -8.325470   -9.044980
  C     27.600830   -6.181980   -7.994980
  C     28.807240   -5.791980   -7.488160
  C     28.902810   -4.557140   -6.808710
  C     27.737950   -3.748110   -6.660350
  C     27.840040   -2.522980   -5.973050
  C     29.050140   -2.134790   -5.468990
  C     30.207150   -2.914100   -5.607340
  C     30.125680   -4.107300   -6.269360
  F     29.149550   -0.965050   -4.813380
  C     26.502750   -4.172370   -7.203050
  C     26.437810   -5.367510   -7.866300
  C     25.334780   -6.028810   -8.555580
  C     24.228290   -5.405160   -9.065670
  C     23.357500   -6.020340   -9.990020
  N     22.666280   -6.472740  -10.786430
  C     23.898870   -4.059640   -8.805550
  N     23.583050   -2.974560   -8.606070
  H      5.886500    7.276800   -2.269680
  H      1.806090    8.524000   -2.216920
  H      1.175800    6.480730   -0.956080
  H      6.552040    5.171560   -1.207510
  H      1.810610    4.343100    0.104990
  H      4.343950   -0.093080    1.405920
  H      5.755980   -2.267190    1.649780
  H     11.730390   -1.299150   -3.574590
  H     11.434070   -5.933500   -2.163980
  H     17.901700   -4.784480   -6.735690
  H     17.336360   -9.494950   -5.714400
  H     23.464990  -10.599270  -10.108500
  H     25.694500   -9.359660   -9.447160
  H     29.679070   -6.418280   -7.603780
  H     26.970990   -1.895560   -5.851140
  H     31.134330   -2.555870   -5.189060
  H     31.003000   -4.725090   -6.388280
  H     25.633780   -3.546850   -7.071940

 Total Charge           Charge          ....    0
 Multiplicity           Mult            ....    1
 Number of Electrons    NEL             ....  626
 Basis Dimension        Dim             .... 1230

ORBITAL ENERGIES
----------------

  NO   OCC          E(Eh)            E(eV)
   0   2.0000    -101.607437     -2764.8789
   1   2.0000    -101.605970     -2764.8390
   2   2.0000    -101.605652     -2764.8304
   3   2.0000    -101.604707     -2764.8046
   4   2.0000    -101.594954     -2764.5392
   5   2.0000    -101.593551     -2764.5011
   6   2.0000     -88.978605     -2421.2309
   7   2.0000     -88.976401     -2421.1710
   8   2.0000     -88.976136     -2421.1638
   9   2.0000     -88.975887     -2421.1570
  10   2.0000     -88.974470     -2421.1184
  11   2.0000     -88.974283     -2421.1133
  12   2.0000     -24.787979      -674.5152
  13   2.0000     -24.785516      -674.4482
  14   2.0000     -19.217095      -522.9237
  15   2.0000     -19.213132      -522.8159
  16   2.0000     -14.419904      -392.3855
  17   2.0000     -14.416410      -392.2905
  18   2.0000     -14.415783      -392.2734
  19   2.0000     -14.411848      -392.1663
  20   2.0000     -10.371842      -282.2322
  21   2.0000     -10.369240      -282.1614
  22   2.0000     -10.369223      -282.1609
  23   2.0000     -10.365202      -282.0515
  24   2.0000     -10.348304      -281.5917
  25   2.0000     -10.345512      -281.5157
  26   2.0000     -10.345444      -281.5138
  27   2.0000     -10.343576      -281.4630
  28   2.0000     -10.342300      -281.4283
  29   2.0000     -10.341730      -281.4128
  30   2.0000     -10.341339      -281.4021
  31   2.0000     -10.341066      -281.3947
  32   2.0000     -10.340780      -281.3869
  33   2.0000     -10.340367      -281.3757
  34   2.0000     -10.338283      -281.3190
  35   2.0000     -10.335279      -281.2373
  36   2.0000     -10.330128      -281.0971
  37   2.0000     -10.329910      -281.0912
  38   2.0000     -10.329434      -281.0782
  39   2.0000     -10.328779      -281.0604
  40   2.0000     -10.326487      -280.9980
  41   2.0000     -10.326470      -280.9975
  42   2.0000     -10.326468      -280.9975
  43   2.0000     -10.325425      -280.9691
  44   2.0000     -10.322562      -280.8912
  45   2.0000     -10.322540      -280.8906
  46   2.0000     -10.322412      -280.8871
  47   2.0000     -10.322000      -280.8759
  48   2.0000     -10.318971      -280.7935
  49   2.0000     -10.318166      -280.7716
  50   2.0000     -10.318089      -280.7695
  51   2.0000     -10.313849      -280.6541
  52   2.0000     -10.309445      -280.5343
  53   2.0000     -10.308916      -280.5199
  54   2.0000     -10.306031      -280.4414
  55   2.0000     -10.305931      -280.4386
  56   2.0000     -10.305045      -280.4145
  57   2.0000     -10.303930      -280.3842
  58   2.0000     -10.303796      -280.3805
  59   2.0000     -10.302849      -280.3548
  60   2.0000     -10.302131      -280.3352
  61   2.0000     -10.301323      -280.3132
  62   2.0000     -10.300787      -280.2987
  63   2.0000     -10.300012      -280.2776
  64   2.0000     -10.299710      -280.2694
  65   2.0000     -10.297921      -280.2207
  66   2.0000     -10.297451      -280.2079
  67   2.0000     -10.297319      -280.2043
  68   2.0000     -10.296768      -280.1893
  69   2.0000     -10.295543      -280.1560
  70   2.0000     -10.295507      -280.1550
  71   2.0000     -10.294952      -280.1399
  72   2.0000     -10.294649      -280.1316
  73   2.0000     -10.294025      -280.1147
  74   2.0000     -10.293226      -280.0929
  75   2.0000     -10.291211      -280.0381
  76   2.0000     -10.289846      -280.0009
  77   2.0000     -10.288709      -279.9700
  78   2.0000      -9.562192      -260.2005
  79   2.0000      -9.560777      -260.1620
  80   2.0000      -9.560441      -260.1528
  81   2.0000      -9.559474      -260.1265
  82   2.0000      -9.549872      -259.8652
  83   2.0000      -9.548443      -259.8263
  84   2.0000      -8.073755      -219.6980
  85   2.0000      -8.071932      -219.6484
  86   2.0000      -8.070932      -219.6212
  87   2.0000      -8.070278      -219.6034
  88   2.0000      -8.069249      -219.5754
  89   2.0000      -8.069084      -219.5709
  90   2.0000      -7.332292      -199.5218
  91   2.0000      -7.330899      -199.4839
  92   2.0000      -7.330525      -199.4737
  93   2.0000      -7.329569      -199.4477
  94   2.0000      -7.322283      -199.2495
  95   2.0000      -7.322165      -199.2462
  96   2.0000      -7.320835      -199.2100
  97   2.0000      -7.320777      -199.2085
  98   2.0000      -7.320497      -199.2009
  99   2.0000      -7.320479      -199.2004
 100   2.0000      -7.320272      -199.1947
 101   2.0000      -7.319533      -199.1746
 102   2.0000      -7.319501      -199.1737
 103   2.0000      -7.318908      -199.1576
 104   2.0000      -7.310014      -198.9156
 105   2.0000      -7.309520      -198.9022
 106   2.0000      -7.308524      -198.8751
 107   2.0000      -7.308101      -198.8635
 108   2.0000      -6.043098      -164.4411
 109   2.0000      -6.041325      -164.3928
 110   2.0000      -6.040518      -164.3709
 111   2.0000      -6.039814      -164.3517
 112   2.0000      -6.038969      -164.3287
 113   2.0000      -6.038847      -164.3254
 114   2.0000      -6.038686      -164.3210
 115   2.0000      -6.037220      -164.2811
 116   2.0000      -6.036172      -164.2526
 117   2.0000      -6.035694      -164.2396
 118   2.0000      -6.035416      -164.2320
 119   2.0000      -6.034487      -164.2067
 120   2.0000      -6.034324      -164.2023
 121   2.0000      -6.033696      -164.1852
 122   2.0000      -6.032539      -164.1537
 123   2.0000      -6.032042      -164.1402
 124   2.0000      -6.030852      -164.1078
 125   2.0000      -6.030680      -164.1031
 126   2.0000      -1.303093       -35.4590
 127   2.0000      -1.300533       -35.3893
 128   2.0000      -1.132945       -30.8290
 129   2.0000      -1.128846       -30.7175
 130   2.0000      -1.036693       -28.2099
 131   2.0000      -1.033544       -28.1242
 132   2.0000      -1.029950       -28.0264
 133   2.0000      -1.022155       -27.8143
 134   2.0000      -1.018793       -27.7228
 135   2.0000      -1.013887       -27.5893
 136   2.0000      -1.009343       -27.4656
 137   2.0000      -1.004086       -27.3226
 138   2.0000      -1.003247       -27.2997
 139   2.0000      -0.999663       -27.2022
 140   2.0000      -0.996250       -27.1093
 141   2.0000      -0.992282       -27.0014
 142   2.0000      -0.979604       -26.6564
 143   2.0000      -0.976843       -26.5812
 144   2.0000      -0.972806       -26.4714
 145   2.0000      -0.967184       -26.3184
 146   2.0000      -0.962347       -26.1868
 147   2.0000      -0.958400       -26.0794
 148   2.0000      -0.952082       -25.9075
 149   2.0000      -0.948153       -25.8006
 150   2.0000      -0.930247       -25.3133
 151   2.0000      -0.927304       -25.2332
 152   2.0000      -0.911326       -24.7984
 153   2.0000      -0.908470       -24.7207
 154   2.0000      -0.897893       -24.4329
 155   2.0000      -0.892756       -24.2931
 156   2.0000      -0.888839       -24.1866
 157   2.0000      -0.885920       -24.1071
 158   2.0000      -0.881316       -23.9818
 159   2.0000      -0.868437       -23.6314
 160   2.0000      -0.863797       -23.5051
 161   2.0000      -0.844096       -22.9690
 162   2.0000      -0.840910       -22.8823
 163   2.0000      -0.839575       -22.8460
 164   2.0000      -0.836703       -22.7678
 165   2.0000      -0.834320       -22.7030
 166   2.0000      -0.827545       -22.5187
 167   2.0000      -0.825510       -22.4633
 168   2.0000      -0.823008       -22.3952
 169   2.0000      -0.822405       -22.3788
 170   2.0000      -0.811264       -22.0756
 171   2.0000      -0.797543       -21.7023
 172   2.0000      -0.781967       -21.2784
 173   2.0000      -0.771308       -20.9884
 174   2.0000      -0.762707       -20.7543
 175   2.0000      -0.759530       -20.6679
 176   2.0000      -0.739538       -20.1238
 177   2.0000      -0.734165       -19.9776
 178   2.0000      -0.724067       -19.7029
 179   2.0000      -0.717985       -19.5374
 180   2.0000      -0.711996       -19.3744
 181   2.0000      -0.709356       -19.3026
 182   2.0000      -0.708873       -19.2894
 183   2.0000      -0.701588       -19.0912
 184   2.0000      -0.689762       -18.7694
 185   2.0000      -0.684168       -18.6171
 186   2.0000      -0.681026       -18.5317
 187   2.0000      -0.678471       -18.4621
 188   2.0000      -0.669701       -18.2235
 189   2.0000      -0.667436       -18.1619
 190   2.0000      -0.656714       -17.8701
 191   2.0000      -0.644052       -17.5255
 192   2.0000      -0.639912       -17.4129
 193   2.0000      -0.636751       -17.3269
 194   2.0000      -0.632427       -17.2092
 195   2.0000      -0.631796       -17.1920
 196   2.0000      -0.629912       -17.1408
 197   2.0000      -0.628363       -17.0986
 198   2.0000      -0.623136       -16.9564
 199   2.0000      -0.620726       -16.8908
 200   2.0000      -0.619241       -16.8504
 201   2.0000      -0.612330       -16.6624
 202   2.0000      -0.608751       -16.5650
 203   2.0000      -0.606764       -16.5109
 204   2.0000      -0.595169       -16.1954
 205   2.0000      -0.593157       -16.1406
 206   2.0000      -0.589420       -16.0389
 207   2.0000      -0.580488       -15.7959
 208   2.0000      -0.570622       -15.5274
 209   2.0000      -0.566872       -15.4254
 210   2.0000      -0.562917       -15.3177
 211   2.0000      -0.560647       -15.2560
 212   2.0000      -0.558597       -15.2002
 213   2.0000      -0.558184       -15.1890
 214   2.0000      -0.557503       -15.1704
 215   2.0000      -0.553969       -15.0743
 216   2.0000      -0.552639       -15.0381
 217   2.0000      -0.550607       -14.9828
 218   2.0000      -0.547716       -14.9041
 219   2.0000      -0.546102       -14.8602
 220   2.0000      -0.538201       -14.6452
 221   2.0000      -0.535678       -14.5765
 222   2.0000      -0.534410       -14.5420
 223   2.0000      -0.532031       -14.4773
 224   2.0000      -0.531394       -14.4600
 225   2.0000      -0.528999       -14.3948
 226   2.0000      -0.527495       -14.3539
 227   2.0000      -0.526105       -14.3161
 228   2.0000      -0.524948       -14.2846
 229   2.0000      -0.523301       -14.2397
 230   2.0000      -0.522549       -14.2193
 231   2.0000      -0.519781       -14.1440
 232   2.0000      -0.518390       -14.1061
 233   2.0000      -0.516562       -14.0564
 234   2.0000      -0.514376       -13.9969
 235   2.0000      -0.510830       -13.9004
 236   2.0000      -0.505442       -13.7538
 237   2.0000      -0.504502       -13.7282
 238   2.0000      -0.503461       -13.6999
 239   2.0000      -0.503101       -13.6901
 240   2.0000      -0.501586       -13.6489
 241   2.0000      -0.498725       -13.5710
 242   2.0000      -0.496658       -13.5147
 243   2.0000      -0.495226       -13.4758
 244   2.0000      -0.493394       -13.4259
 245   2.0000      -0.491133       -13.3644
 246   2.0000      -0.488280       -13.2868
 247   2.0000      -0.487170       -13.2566
 248   2.0000      -0.483585       -13.1590
 249   2.0000      -0.480601       -13.0778
 250   2.0000      -0.478934       -13.0325
 251   2.0000      -0.477388       -12.9904
 252   2.0000      -0.469878       -12.7860
 253   2.0000      -0.467732       -12.7276
 254   2.0000      -0.462085       -12.5740
 255   2.0000      -0.460941       -12.5428
 256   2.0000      -0.459729       -12.5099
 257   2.0000      -0.457064       -12.4373
 258   2.0000      -0.456361       -12.4182
 259   2.0000      -0.453931       -12.3521
 260   2.0000      -0.451844       -12.2953
 261   2.0000      -0.450420       -12.2566
 262   2.0000      -0.448313       -12.1992
 263   2.0000      -0.446512       -12.1502
 264   2.0000      -0.445872       -12.1328
 265   2.0000      -0.443865       -12.0782
 266   2.0000      -0.443272       -12.0620
 267   2.0000      -0.441731       -12.0201
 268   2.0000      -0.440939       -11.9986
 269   2.0000      -0.439637       -11.9631
 270   2.0000      -0.438998       -11.9457
 271   2.0000      -0.436605       -11.8806
 272   2.0000      -0.432697       -11.7743
 273   2.0000      -0.430189       -11.7060
 274   2.0000      -0.428460       -11.6590
 275   2.0000      -0.426803       -11.6139
 276   2.0000      -0.425316       -11.5734
 277   2.0000      -0.421790       -11.4775
 278   2.0000      -0.419428       -11.4132
 279   2.0000      -0.418094       -11.3769
 280   2.0000      -0.416504       -11.3337
 281   2.0000      -0.411182       -11.1888
 282   2.0000      -0.409098       -11.1321
 283   2.0000      -0.401888       -10.9359
 284   2.0000      -0.401604       -10.9282
 285   2.0000      -0.395013       -10.7489
 286   2.0000      -0.392795       -10.6885
 287   2.0000      -0.388063       -10.5597
 288   2.0000      -0.387584       -10.5467
 289   2.0000      -0.383688       -10.4407
 290   2.0000      -0.380656       -10.3582
 291   2.0000      -0.379495       -10.3266
 292   2.0000      -0.374450       -10.1893
 293   2.0000      -0.373391       -10.1605
 294   2.0000      -0.371495       -10.1089
 295   2.0000      -0.364826        -9.9274
 296   2.0000      -0.346948        -9.4409
 297   2.0000      -0.339885        -9.2487
 298   2.0000      -0.337547        -9.1851
 299   2.0000      -0.334967        -9.1149
 300   2.0000      -0.332364        -9.0441
 301   2.0000      -0.329206        -8.9582
 302   2.0000      -0.326776        -8.8920
 303   2.0000      -0.323670        -8.8075
 304   2.0000      -0.321896        -8.7592
 305   2.0000      -0.318512        -8.6672
 306   2.0000      -0.314709        -8.5637
 307   2.0000      -0.311776        -8.4839
 308   2.0000      -0.302020        -8.2184
 309   2.0000      -0.298410        -8.1201
 310   2.0000      -0.289993        -7.8911
 311   2.0000      -0.269894        -7.3442
 312   2.0000      -0.244493        -6.6530
 313   0.0000      -0.101157        -2.7526
 314   0.0000      -0.098439        -2.6787
 315   0.0000      -0.066908        -1.8207
 316   0.0000      -0.058116        -1.5814
 317   0.0000      -0.053297        -1.4503

MULLIKEN ATOMIC CHARGES
-----------------------
   0 C :   -0.099556
   1 C :    0.304401
   2 F :   -0.189989
   3 C :   -0.029780
   4 C :   -0.010325
   5 C :    0.102215
   6 C :    0.103707
   7 C :   -0.087044
   8 C :    0.044757
   9 C :    0.010274
  10 C :   -0.083017
  11 C :    0.141094
  12 O :   -0.143047
  13 C :   -0.135145
  14 C :    0.244557
  15 C :   -0.312524
  16 C :   -0.211675
  17 N :    0.176622
  18 C :   -0.173408
  19 N :    0.151661
  20 C :    0.057529
  21 C :   -0.071492
  22 C :    0.045131
  23 C :    0.067210
  24 Cl:   -0.060385
  25 C :   -0.072266
  26 S :    0.166703
  27 C :   -0.093886
  28 C :    0.077215
  29 Cl:   -0.050016
  30 C :   -0.024420
  31 C :   -0.015506
  32 S :    0.155598
  33 C :   -0.022315
  34 C :   -0.020383
  35 C :    0.067728
  36 Cl:   -0.062668
  37 C :   -0.089035
  38 S :    0.153494
  39 C :   -0.090259
  40 C :    0.067249
  41 Cl:   -0.059583
  42 C :   -0.023219
  43 C :   -0.012263
  44 S :    0.151339
  45 C :   -0.027863
  46 C :   -0.039108
  47 C :    0.125754
  48 Cl:   -0.057472
  49 C :   -0.146518
  50 S :    0.167732
  51 C :   -0.120486
  52 C :    0.116088
  53 Cl:   -0.055991
  54 C :    0.039552
  55 C :   -0.088035
  56 S :    0.168185
  57 C :    0.071020
  58 C :   -0.138787
  59 C :    0.140924
  60 O :   -0.141208
  61 C :    0.010958
  62 C :   -0.079478
  63 C :    0.100822
  64 C :    0.102381
  65 C :   -0.097729
  66 C :    0.303798
  67 C :   -0.027958
  68 C :   -0.010323
  69 F :   -0.188490
  70 C :   -0.085522
  71 C :    0.043780
  72 C :    0.244896
  73 C :   -0.313236
  74 C :   -0.209983
  75 N :    0.176393
  76 C :   -0.175228
  77 N :    0.157941
  78 H :   -0.002783
  79 H :    0.004241
  80 H :   -0.008942
  81 H :   -0.003912
  82 H :   -0.011185
  83 H :    0.024490
  84 H :   -0.003627
  85 H :   -0.005144
  86 H :   -0.007494
  87 H :   -0.003750
  88 H :   -0.004452
  89 H :    0.000401
  90 H :    0.027988
  91 H :   -0.009782
  92 H :   -0.001881
  93 H :    0.004008
  94 H :   -0.007531
  95 H :   -0.002726
Sum of atomic charges:   -0.0000000

LOEWDIN ATOMIC CHARGES
----------------------
   0 C :   -0.042321
   1 C :    0.093341
   2 F :   -0.064551
   3 C :   -0.037221
   4 C :    0.004909
   5 C :   -0.018872
   6 C :    0.003796
   7 C :    0.009849
   8 C :   -0.015979
   9 C :   -0.059391
  10 C :    0.034610
  11 C :    0.083018
  12 O :   -0.145060
  13 C :   -0.097820
  14 C :    0.060490
  15 C :   -0.140345
  16 C :   -0.039580
  17 N :   -0.044885
  18 C :   -0.019099
  19 N :   -0.050658
  20 C :    0.052712
  21 C :   -0.186852
  22 C :   -0.025655
  23 C :   -0.178111
  24 Cl:    0.161682
  25 C :   -0.180292
  26 S :    0.488642
  27 C :   -0.215098
  28 C :   -0.156896
  29 Cl:    0.171610
  30 C :   -0.074677
  31 C :   -0.174528
  32 S :    0.458477
  33 C :   -0.186501
  34 C :   -0.069738
  35 C :   -0.170083
  36 Cl:    0.160896
  37 C :   -0.205784
  38 S :    0.456717
  39 C :   -0.206748
  40 C :   -0.169309
  41 Cl:    0.163326
  42 C :   -0.069453
  43 C :   -0.186378
  44 S :    0.455351
  45 C :   -0.171193
  46 C :   -0.074355
  47 C :   -0.152084
  48 Cl:    0.155391
  49 C :   -0.224754
  50 S :    0.457100
  51 C :   -0.191202
  52 C :   -0.165092
  53 Cl:    0.155815
  54 C :   -0.023458
  55 C :   -0.179950
  56 S :    0.477936
  57 C :    0.054090
  58 C :   -0.094285
  59 C :    0.083682
  60 O :   -0.141921
  61 C :   -0.059807
  62 C :    0.035731
  63 C :   -0.018298
  64 C :    0.004064
  65 C :   -0.042103
  66 C :    0.093840
  67 C :   -0.035619
  68 C :    0.005119
  69 F :   -0.063417
  70 C :    0.010985
  71 C :   -0.016757
  72 C :    0.060509
  73 C :   -0.137903
  74 C :   -0.038836
  75 N :   -0.043116
  76 C :   -0.019134
  77 N :   -0.048112
  78 H :    0.043014
  79 H :    0.042089
  80 H :    0.035777
  81 H :    0.039035
  82 H :    0.039820
  83 H :    0.052219
  84 H :    0.040328
  85 H :    0.032937
  86 H :    0.031932
  87 H :    0.033411
  88 H :    0.032618
  89 H :    0.041383
  90 H :    0.053515
  91 H :    0.040354
  92 H :    0.043296
  93 H :    0.042260
  94 H :    0.036244
  95 H :    0.039362

  Mayer bond orders larger than 0.100000
B(  0-C ,  1-C ) :   1.4416 B(  0-C ,  6-C ) :   1.2022 B(  0-C , 78-H ) :   1.0069
B(  1-C ,  2-F ) :   1.0887 B(  1-C ,  3-C ) :   1.2541 B(  3-C ,  4-C ) :   1.4618
B(  3-C , 79-H ) :   0.9927 B(  4-C ,  5-C ) :   1.2328 B(  4-C , 80-H ) :   0.9974
B(  5-C ,  6-C ) :   1.2564 B(  5-C , 10-C ) :   1.1927 B(  6-C ,  7-C ) :   1.2013
B(  7-C ,  8-C ) :   1.4628 B(  7-C , 81-H ) :   0.9961 B(  8-C ,  9-C ) :   1.2175
B(  8-C , 14-C ) :   1.0021 B(  9-C , 10-C ) :   1.4708 B(  9-C , 11-C ) :   0.9219
B( 10-C , 82-H ) :   1.0158 B( 11-C , 12-O ) :   2.2691 B( 11-C , 13-C ) :   0.9401
B( 13-C , 14-C ) :   1.0302 B( 13-C , 20-C ) :   1.6380 B( 14-C , 15-C ) :   1.6597
B( 15-C , 16-C ) :   1.1467 B( 15-C , 18-C ) :   1.1360 B( 16-C , 17-N ) :   3.0320
B( 18-C , 19-N ) :   2.9884 B( 20-C , 21-C ) :   1.1546 B( 20-C , 83-H ) :   0.9446
B( 21-C , 22-C ) :   1.4092 B( 21-C , 26-S ) :   1.0852 B( 22-C , 23-C ) :   1.2980
B( 22-C , 84-H ) :   1.0102 B( 23-C , 24-Cl) :   1.0291 B( 23-C , 25-C ) :   1.4264
B( 25-C , 26-S ) :   1.1606 B( 25-C , 27-C ) :   1.1944 B( 27-C , 28-C ) :   1.4641
B( 27-C , 32-S ) :   1.1137 B( 28-C , 29-Cl) :   1.0407 B( 28-C , 30-C ) :   1.2764
B( 30-C , 31-C ) :   1.4634 B( 30-C , 85-H ) :   1.0043 B( 31-C , 32-S ) :   1.1174
B( 31-C , 33-C ) :   1.1613 B( 33-C , 34-C ) :   1.4721 B( 33-C , 38-S ) :   1.1068
B( 34-C , 35-C ) :   1.2703 B( 34-C , 86-H ) :   1.0035 B( 35-C , 36-Cl) :   1.0296
B( 35-C , 37-C ) :   1.4776 B( 37-C , 38-S ) :   1.1250 B( 37-C , 39-C ) :   1.1765
B( 39-C , 40-C ) :   1.4797 B( 39-C , 44-S ) :   1.1230 B( 40-C , 41-Cl) :   1.0324
B( 40-C , 42-C ) :   1.2680 B( 42-C , 43-C ) :   1.4781 B( 42-C , 87-H ) :   1.0035
B( 43-C , 44-S ) :   1.1086 B( 43-C , 45-C ) :   1.1491 B( 45-C , 46-C ) :   1.4869
B( 45-C , 49-C ) :   0.1082 B( 45-C , 50-S ) :   1.1281 B( 46-C , 47-C ) :   1.2378
B( 46-C , 88-H ) :   1.0034 B( 47-C , 48-Cl) :   1.0606 B( 47-C , 49-C ) :   1.5464
B( 49-C , 50-S ) :   1.1215 B( 49-C , 51-C ) :   1.0605 B( 51-C , 52-C ) :   1.5144
B( 51-C , 55-C ) :   0.1021 B( 51-C , 56-S ) :   1.1557 B( 52-C , 53-Cl) :   1.0584
B( 52-C , 54-C ) :   1.2541 B( 54-C , 55-C ) :   1.4395 B( 54-C , 89-H ) :   1.0091
B( 55-C , 56-S ) :   1.0995 B( 55-C , 57-C ) :   1.1262 B( 57-C , 58-C ) :   1.6654
B( 57-C , 90-H ) :   0.9449 B( 58-C , 59-C ) :   0.9346 B( 58-C , 72-C ) :   1.0248
B( 59-C , 60-O ) :   2.2728 B( 59-C , 61-C ) :   0.9223 B( 61-C , 62-C ) :   1.4701
B( 61-C , 71-C ) :   1.2177 B( 62-C , 63-C ) :   1.1952 B( 62-C , 91-H ) :   1.0150
B( 63-C , 64-C ) :   1.2550 B( 63-C , 68-C ) :   1.2326 B( 64-C , 65-C ) :   1.2035
B( 64-C , 70-C ) :   1.2033 B( 65-C , 66-C ) :   1.4407 B( 65-C , 92-H ) :   1.0063
B( 66-C , 67-C ) :   1.2551 B( 66-C , 69-F ) :   1.0909 B( 67-C , 68-C ) :   1.4626
B( 67-C , 93-H ) :   0.9928 B( 68-C , 94-H ) :   0.9970 B( 70-C , 71-C ) :   1.4634
B( 70-C , 95-H ) :   0.9951 B( 71-C , 72-C ) :   1.0022 B( 72-C , 73-C ) :   1.6678
B( 73-C , 74-C ) :   1.1444 B( 73-C , 76-C ) :   1.1364 B( 74-C , 75-N ) :   3.0308
B( 76-C , 77-N ) :   2.9921

-----------------------------------------------------------------------------
         ABSORPTION SPECTRUM VIA TRANSITION ELECTRIC DIPOLE MOMENTS
-----------------------------------------------------------------------------
State   Energy  Wavelength   fosc         T2         TX        TY        TZ
        (cm-1)    (nm)                  (au**2)     (au)      (au)      (au)
-----------------------------------------------------------------------------
   0   17254.8    579.6   1.586028223  30.26060   4.26215  -2.76813  -2.10526
   1   18898.0    529.2   0.396641581   6.90967  -1.90264  -1.77189   0.38734
   2   24061.1    415.6   0.687695093   9.40925  -2.40582   1.39752   1.29159
   3   24567.4    407.0   0.182465141   2.44510   1.22179   0.87005  -0.44196
   4   25724.0    388.7   0.218063028   2.79074  -1.18162   0.72436   0.93264
   5   26948.5    371.1   0.029475353   0.36008   0.06156  -0.56312  -0.19797
   6   27027.6    370.0   0.066387430   0.80864   0.83661  -0.28200   0.17089
   7   27761.3    360.2   0.013507147   0.16018  -0.37413  -0.07244   0.12229
   8   28132.5    355.5   0.104466503   1.22249   1.04605  -0.30327   0.19052
   9   28701.0    348.4   0.006998222   0.08027   0.14319  -0.24446  -0.00283
  10   29272.9    341.6   0.124216105   1.39697   1.16076  -0.18701   0.12100
  11   29666.9    337.1   0.014556689   0.16153  -0.37860   0.10230  -0.08792
  12   30182.3    331.3   0.038087193   0.41543  -0.03648  -0.64063  -0.06078
  13   30276.7    330.3   0.173553580   1.88712  -1.16092   0.24595  -0.69203
  14   30674.9    326.0   0.001689280   0.01813  -0.02725   0.10030   0.08560
  15   31554.6    316.9   0.016545809   0.17262   0.10703   0.39027   0.09410
  16   31774.5    314.7   0.133060378   1.37863   0.54088   0.89242   0.53820
  17   31942.3    313.1   0.160660044   1.65583  -0.33682   1.22298  -0.21613
  18   32804.3    304.8   0.162575011   1.63154  -0.16774  -1.24610   0.22502
  19   33036.9    302.7   0.073082853   0.72827   0.77879   0.33013  -0.11297
  20   33557.8    298.0   0.131298747   1.28808   1.08453   0.02847   0.33327
  21   34061.0    293.6   0.566337974   5.47387  -1.88677  -0.93278  -1.02171
  22   34145.4    292.9   0.510040098   4.91754  -1.50348   1.45577  -0.73335
  23   34552.5    289.4   0.058868306   0.56089   0.67421   0.32577  -0.01422
  24   34931.8    286.3   0.156465002   1.47459   0.32586  -1.16897  -0.04386
  25   35112.4    284.8   0.125290137   1.17471  -0.40338  -0.94084  -0.35610
  26   35479.1    281.9   0.266818512   2.47582   0.62857  -0.60663   1.30871
  27   35967.1    278.0   0.009724799   0.08901   0.00772  -0.09335   0.28326
  28   36139.9    276.7   0.191041518   1.74027  -0.19982  -1.23789  -0.40984
  29   36594.0    273.3   0.057393471   0.51633  -0.51655  -0.44407  -0.22871
  30   37050.6    269.9   0.106008355   0.94193   0.18038  -0.91417   0.27147
  31   37127.2    269.3   0.027566468   0.24444   0.34038   0.05197   0.35479
  32   37222.3    268.7   0.020781556   0.18380   0.29936  -0.03238  -0.30519
  33   37888.0    263.9   0.010580438   0.09193   0.07523  -0.26359   0.12960
  34   38367.7    260.6   0.053201951   0.45650  -0.53747   0.13291  -0.38724
  35   38556.8    259.4   0.028791479   0.24583  -0.05569   0.44676  -0.20770
  36   38849.5    257.4   0.033226306   0.28156   0.51830  -0.11039  -0.02716
  37   39151.4    255.4   0.036943985   0.31065  -0.33427   0.12461  -0.42824
  38   39221.4    255.0   0.155575582   1.30585  -1.04127   0.40171  -0.24544
  39   39416.7    253.7   0.123141226   1.02849  -0.99425  -0.06901   0.18760
  40   39590.4    252.6   0.084308998   0.70107   0.41749  -0.65873  -0.30470
  41   40209.5    248.7   0.038166598   0.31249  -0.41359  -0.29837   0.22891

FINAL SINGLE POINT ENERGY     -7935.375648563998

DIPOLE MOMENT
-------------
                                X             Y             Z
Electronic contribution:     -8.58361     -36.32391      -4.32566
Nuclear contribution   :      8.41802      35.18649       4.41479
                        -----------------------------------------
Total Dipole Moment    :     -0.16559      -1.13743       0.08913
                        -----------------------------------------
Magnitude (a.u.)       :      1.15287
Magnitude (Debye)      :      2.93035

Rotational constants in cm-1:     0.001019     0.000141     0.000130
Rotational constants in MHz :    30.552368     4.230088     3.890912

                             ****ORCA TERMINATED NORMALLY****
TOTAL RUN TIME: 0 days 0 hours 9 minutes 53 seconds 145 msec
