                         Program Version 4.2.0 -  RELEASE  -
|  1> # ORCA input file
|  2> # SCF done       -186.460228165236          0.000624626846
|  3> ! CAM-B3LYP def2-SVP def2/J RIJCOSX Grid4 TightSCF
|  4> %maxcore 5000
|  5> %tddft
|  6>     Mode sTDDFT
|  7>     Ethresh 5.0
|  8>     maxcore 5000
|  9> end
| 10>
| 11> %pal
| 12>   nprocs 6
| 13>   end
| 14> * xyz 0 1
| 15>    C       -6.23251         9.78378        -9.34195
| 16>    C       -5.03326         9.24506        -9.02177
| 17>    C       -4.51811         8.08486        -9.63121
| 18>    C       -5.28541         7.38717       -10.66631
| 19>    C       -6.50075         7.77651       -11.11685
| 20>    S       -7.32419         9.15959       -10.52883
| 21>    C       -4.47923         6.27889       -11.04506
| 22>    C       -3.29493         6.27351       -10.30737
| 23>    C       -2.46616         5.18710       -10.66588
| 24>    C       -3.03051         4.42004       -11.63631
| 25>    S       -4.58106         4.97405       -12.15905
| 26>    C       -3.30889         7.40926        -9.41190
| 27>    C       -2.32491         7.81728        -8.48263
| 28>    C       -1.15765         7.19268        -8.18673
| 29>    C       -0.23470         7.70195        -7.23925
| 30>    S       -0.51587         9.21533        -6.40717
| 31>    C        0.96566         9.11600        -5.49351
| 32>    C        1.62716         7.92879        -5.85599
| 33>    C        0.95180         7.15828        -6.82240
| 34>    N        2.84301         7.44145        -5.34651
| 35>    O        3.43022         8.08787        -4.48575
| 36>    O        3.26052         6.38719        -5.78194
| 37>    C        1.30529        10.16727        -4.60291
| 38>    S        2.84997        10.28500        -3.80551
| 39>    C        2.45578        11.81469        -3.09517
| 40>    C        1.15575        12.19163        -3.41415
| 41>    C        0.51513        11.27800        -4.26178
| 42>    S       -1.10885        11.50472        -4.89476
| 43>    C       -1.97748        12.72281        -3.94358
| 44>    O       -3.12743        12.89797        -4.23828
| 45>    C       -1.32728        13.54699        -2.86478
| 46>    O       -1.98675        14.26595        -2.16696
| 47>    S        0.43145        13.62692        -2.69372
| 48>    C        3.45513        12.44248        -2.30178
| 49>    C        3.48273        13.73016        -1.89828
| 50>    C        4.54265        14.25406        -1.09928
| 51>    O        4.51324        15.58997        -0.79609
| 52>    C        5.60950        15.79660        -0.03954
| 53>    C        6.28062        14.54203         0.09255
| 54>    N        5.55604        13.61262        -0.60148
| 55>    C        7.44824        14.40813         0.82515
| 56>    C        7.90477        15.58037         1.41035
| 57>    C        7.21608        16.82238         1.25444
| 58>    C        6.05075        16.97399         0.52946
| 59>    O        7.90673        17.75560         1.93905
| 60>    C        8.96653        17.07986         2.48078
| 61>    N        8.99652        15.81137         2.19595
| 62>    C        9.88654        17.80414         3.29191
| 63>    C       10.97619        17.23273         3.85291
| 64>    C       11.84962        17.94850         4.71156
| 65>    C       13.01879        17.50993         5.24763
| 66>    C       13.58994        18.18343         6.45019
| 67>    O       13.29838        19.27762         6.87252
| 68>    C       14.52128        17.19874         7.03192
| 69>    C       15.20622        17.25995         8.21155
| 70>    C       16.02206        16.17170         8.59242
| 71>    C       16.10908        15.03184         7.74023
| 72>    C       16.91596        13.94603         8.13230
| 73>    C       17.59797        14.00935         9.31557
| 74>    C       17.52737        15.12180        10.16566
| 75>    C       16.74825        16.18419         9.80123
| 76>    F       18.36843        12.97353         9.69183
| 77>    C       15.39575        14.99890         6.51924
| 78>    C       14.61831        16.06895         6.16739
| 79>    C       13.81070        16.32678         4.97826
| 80>    C       13.94993        15.70961         3.76484
| 81>    C       13.37616        16.19756         2.56970
| 82>    N       12.99394        16.59884         1.56538
| 83>    C       14.79017        14.59670         3.55015
| 84>    N       15.45308        13.68526         3.33443
| 85>    H       -6.60969        10.67187        -8.86387
| 86>    H       -4.45037         9.73830        -8.25676
| 87>    H       -7.03399         7.23585       -11.88261
| 88>    H       -1.50228         4.96595       -10.24660
| 89>    H       -2.62362         3.53886       -12.09267
| 90>    H       -2.53767         8.73598        -7.94793
| 91>    H       -0.88112         6.26510        -8.66161
| 92>    H        1.34986         6.22706        -7.18218
| 93>    H        4.29455        11.81477        -2.03290
| 94>    H        2.72211        14.44495        -2.16925
| 95>    H        7.96128        13.46945         0.93275
| 96>    H        5.53775        17.91356         0.42081
| 97>    H        9.67022        18.85492         3.42433
| 98>    H       11.14992        16.18301         3.66687
| 99>    H       11.51389        18.92067         5.05765
|100>    H       15.12451        18.12808         8.84830
|101>    H       16.99661        13.07468         7.50145
|102>    H       18.08795        15.11478        11.08694
|103>    H       16.67746        17.05211        10.43935
|104>    H       15.47297        14.12159         5.89653
|105> *
|106>
|107>                          ****END OF INPUT****

CARTESIAN COORDINATES (ANGSTROEM)
---------------------------------
  C     -6.232510    9.783780   -9.341950
  C     -5.033260    9.245060   -9.021770
  C     -4.518110    8.084860   -9.631210
  C     -5.285410    7.387170  -10.666310
  C     -6.500750    7.776510  -11.116850
  S     -7.324190    9.159590  -10.528830
  C     -4.479230    6.278890  -11.045060
  C     -3.294930    6.273510  -10.307370
  C     -2.466160    5.187100  -10.665880
  C     -3.030510    4.420040  -11.636310
  S     -4.581060    4.974050  -12.159050
  C     -3.308890    7.409260   -9.411900
  C     -2.324910    7.817280   -8.482630
  C     -1.157650    7.192680   -8.186730
  C     -0.234700    7.701950   -7.239250
  S     -0.515870    9.215330   -6.407170
  C      0.965660    9.116000   -5.493510
  C      1.627160    7.928790   -5.855990
  C      0.951800    7.158280   -6.822400
  N      2.843010    7.441450   -5.346510
  O      3.430220    8.087870   -4.485750
  O      3.260520    6.387190   -5.781940
  C      1.305290   10.167270   -4.602910
  S      2.849970   10.285000   -3.805510
  C      2.455780   11.814690   -3.095170
  C      1.155750   12.191630   -3.414150
  C      0.515130   11.278000   -4.261780
  S     -1.108850   11.504720   -4.894760
  C     -1.977480   12.722810   -3.943580
  O     -3.127430   12.897970   -4.238280
  C     -1.327280   13.546990   -2.864780
  O     -1.986750   14.265950   -2.166960
  S      0.431450   13.626920   -2.693720
  C      3.455130   12.442480   -2.301780
  C      3.482730   13.730160   -1.898280
  C      4.542650   14.254060   -1.099280
  O      4.513240   15.589970   -0.796090
  C      5.609500   15.796600   -0.039540
  C      6.280620   14.542030    0.092550
  N      5.556040   13.612620   -0.601480
  C      7.448240   14.408130    0.825150
  C      7.904770   15.580370    1.410350
  C      7.216080   16.822380    1.254440
  C      6.050750   16.973990    0.529460
  O      7.906730   17.755600    1.939050
  C      8.966530   17.079860    2.480780
  N      8.996520   15.811370    2.195950
  C      9.886540   17.804140    3.291910
  C     10.976190   17.232730    3.852910
  C     11.849620   17.948500    4.711560
  C     13.018790   17.509930    5.247630
  C     13.589940   18.183430    6.450190
  O     13.298380   19.277620    6.872520
  C     14.521280   17.198740    7.031920
  C     15.206220   17.259950    8.211550
  C     16.022060   16.171700    8.592420
  C     16.109080   15.031840    7.740230
  C     16.915960   13.946030    8.132300
  C     17.597970   14.009350    9.315570
  C     17.527370   15.121800   10.165660
  C     16.748250   16.184190    9.801230
  F     18.368430   12.973530    9.691830
  C     15.395750   14.998900    6.519240
  C     14.618310   16.068950    6.167390
  C     13.810700   16.326780    4.978260
  C     13.949930   15.709610    3.764840
  C     13.376160   16.197560    2.569700
  N     12.993940   16.598840    1.565380
  C     14.790170   14.596700    3.550150
  N     15.453080   13.685260    3.334430
  H     -6.609690   10.671870   -8.863870
  H     -4.450370    9.738300   -8.256760
  H     -7.033990    7.235850  -11.882610
  H     -1.502280    4.965950  -10.246600
  H     -2.623620    3.538860  -12.092670
  H     -2.537670    8.735980   -7.947930
  H     -0.881120    6.265100   -8.661610
  H      1.349860    6.227060   -7.182180
  H      4.294550   11.814770   -2.032900
  H      2.722110   14.444950   -2.169250
  H      7.961280   13.469450    0.932750
  H      5.537750   17.913560    0.420810
  H      9.670220   18.854920    3.424330
  H     11.149920   16.183010    3.666870
  H     11.513890   18.920670    5.057650
  H     15.124510   18.128080    8.848300
  H     16.996610   13.074680    7.501450
  H     18.087950   15.114780   11.086940
  H     16.677460   17.052110   10.439350
  H     15.472970   14.121590    5.896530

 Total Charge           Charge          ....    0
 Multiplicity           Mult            ....    1
 Number of Electrons    NEL             ....  522
 Basis Dimension        Dim             .... 1104

ORBITAL ENERGIES
----------------

  NO   OCC          E(Eh)            E(eV)
   0   2.0000     -88.980374     -2421.2791
   1   2.0000     -88.979810     -2421.2637
   2   2.0000     -88.978220     -2421.2205
   3   2.0000     -88.975997     -2421.1600
   4   2.0000     -88.973755     -2421.0990
   5   2.0000     -88.958693     -2420.6891
   6   2.0000     -24.786778      -674.4825
   7   2.0000     -19.302421      -525.2456
   8   2.0000     -19.299339      -525.1617
   9   2.0000     -19.249684      -523.8105
  10   2.0000     -19.248518      -523.7788
  11   2.0000     -19.247298      -523.7456
  12   2.0000     -19.244816      -523.6781
  13   2.0000     -19.216811      -522.9160
  14   2.0000     -14.653637      -398.7457
  15   2.0000     -14.418179      -392.3386
  16   2.0000     -14.414039      -392.2259
  17   2.0000     -14.413758      -392.2183
  18   2.0000     -14.407840      -392.0573
  19   2.0000     -10.411915      -283.3226
  20   2.0000     -10.410631      -283.2877
  21   2.0000     -10.373723      -282.2833
  22   2.0000     -10.372087      -282.2388
  23   2.0000     -10.370786      -282.2034
  24   2.0000     -10.368031      -282.1285
  25   2.0000     -10.350976      -281.6644
  26   2.0000     -10.348358      -281.5931
  27   2.0000     -10.344610      -281.4912
  28   2.0000     -10.343967      -281.4736
  29   2.0000     -10.343134      -281.4510
  30   2.0000     -10.341781      -281.4142
  31   2.0000     -10.340017      -281.3662
  32   2.0000     -10.337377      -281.2943
  33   2.0000     -10.334435      -281.2143
  34   2.0000     -10.331092      -281.1233
  35   2.0000     -10.321039      -280.8497
  36   2.0000     -10.319882      -280.8183
  37   2.0000     -10.318697      -280.7860
  38   2.0000     -10.318120      -280.7703
  39   2.0000     -10.316967      -280.7389
  40   2.0000     -10.315327      -280.6943
  41   2.0000     -10.309578      -280.5379
  42   2.0000     -10.308524      -280.5092
  43   2.0000     -10.308240      -280.5015
  44   2.0000     -10.307771      -280.4887
  45   2.0000     -10.307735      -280.4877
  46   2.0000     -10.305315      -280.4219
  47   2.0000     -10.302698      -280.3507
  48   2.0000     -10.301827      -280.3270
  49   2.0000     -10.301783      -280.3258
  50   2.0000     -10.301781      -280.3257
  51   2.0000     -10.301046      -280.3057
  52   2.0000     -10.300293      -280.2852
  53   2.0000     -10.299950      -280.2759
  54   2.0000     -10.299000      -280.2501
  55   2.0000     -10.297967      -280.2219
  56   2.0000     -10.296718      -280.1880
  57   2.0000     -10.295616      -280.1580
  58   2.0000     -10.293988      -280.1136
  59   2.0000     -10.291898      -280.0568
  60   2.0000     -10.290882      -280.0291
  61   2.0000     -10.290156      -280.0094
  62   2.0000     -10.289845      -280.0009
  63   2.0000     -10.289098      -279.9806
  64   2.0000     -10.287848      -279.9466
  65   2.0000     -10.282904      -279.8120
  66   2.0000     -10.282624      -279.8044
  67   2.0000     -10.277358      -279.6611
  68   2.0000     -10.277091      -279.6539
  69   2.0000     -10.276931      -279.6495
  70   2.0000      -8.076269      -219.7665
  71   2.0000      -8.074798      -219.7264
  72   2.0000      -8.072609      -219.6669
  73   2.0000      -8.071570      -219.6386
  74   2.0000      -8.070167      -219.6004
  75   2.0000      -8.054050      -219.1618
  76   2.0000      -6.045746      -164.5131
  77   2.0000      -6.044185      -164.4706
  78   2.0000      -6.042522      -164.4254
  79   2.0000      -6.041122      -164.3873
  80   2.0000      -6.041031      -164.3848
  81   2.0000      -6.040052      -164.3582
  82   2.0000      -6.039890      -164.3538
  83   2.0000      -6.038444      -164.3144
  84   2.0000      -6.037706      -164.2943
  85   2.0000      -6.036743      -164.2681
  86   2.0000      -6.036541      -164.2626
  87   2.0000      -6.035361      -164.2305
  88   2.0000      -6.033466      -164.1790
  89   2.0000      -6.033449      -164.1785
  90   2.0000      -6.031078      -164.1140
  91   2.0000      -6.023478      -163.9072
  92   2.0000      -6.019235      -163.7917
  93   2.0000      -6.016154      -163.7079
  94   2.0000      -1.325990       -36.0820
  95   2.0000      -1.301930       -35.4273
  96   2.0000      -1.231674       -33.5156
  97   2.0000      -1.228658       -33.4335
  98   2.0000      -1.185629       -32.2626
  99   2.0000      -1.154434       -31.4138
 100   2.0000      -1.142901       -31.0999
 101   2.0000      -1.132082       -30.8055
 102   2.0000      -1.030209       -28.0334
 103   2.0000      -1.026269       -27.9262
 104   2.0000      -1.020218       -27.7615
 105   2.0000      -1.019636       -27.7457
 106   2.0000      -1.008723       -27.4487
 107   2.0000      -1.007008       -27.4021
 108   2.0000      -1.001669       -27.2568
 109   2.0000      -0.994187       -27.0532
 110   2.0000      -0.978132       -26.6163
 111   2.0000      -0.971939       -26.4478
 112   2.0000      -0.960759       -26.1436
 113   2.0000      -0.941403       -25.6169
 114   2.0000      -0.936588       -25.4859
 115   2.0000      -0.934103       -25.4182
 116   2.0000      -0.929225       -25.2855
 117   2.0000      -0.921640       -25.0791
 118   2.0000      -0.918954       -25.0060
 119   2.0000      -0.901986       -24.5443
 120   2.0000      -0.895300       -24.3624
 121   2.0000      -0.889505       -24.2047
 122   2.0000      -0.887036       -24.1375
 123   2.0000      -0.880793       -23.9676
 124   2.0000      -0.869657       -23.6646
 125   2.0000      -0.861763       -23.4498
 126   2.0000      -0.850504       -23.1434
 127   2.0000      -0.844022       -22.9670
 128   2.0000      -0.840746       -22.8779
 129   2.0000      -0.836570       -22.7642
 130   2.0000      -0.833395       -22.6778
 131   2.0000      -0.817894       -22.2560
 132   2.0000      -0.807555       -21.9747
 133   2.0000      -0.797894       -21.7118
 134   2.0000      -0.791034       -21.5251
 135   2.0000      -0.776425       -21.1276
 136   2.0000      -0.763553       -20.7773
 137   2.0000      -0.759107       -20.6563
 138   2.0000      -0.756745       -20.5921
 139   2.0000      -0.738039       -20.0831
 140   2.0000      -0.730199       -19.8697
 141   2.0000      -0.726864       -19.7790
 142   2.0000      -0.720400       -19.6031
 143   2.0000      -0.714269       -19.4363
 144   2.0000      -0.710863       -19.3436
 145   2.0000      -0.704811       -19.1789
 146   2.0000      -0.700531       -19.0624
 147   2.0000      -0.688820       -18.7437
 148   2.0000      -0.683836       -18.6081
 149   2.0000      -0.674289       -18.3483
 150   2.0000      -0.673353       -18.3229
 151   2.0000      -0.662318       -18.0226
 152   2.0000      -0.658789       -17.9266
 153   2.0000      -0.655973       -17.8499
 154   2.0000      -0.653749       -17.7894
 155   2.0000      -0.648651       -17.6507
 156   2.0000      -0.638939       -17.3864
 157   2.0000      -0.637858       -17.3570
 158   2.0000      -0.635980       -17.3059
 159   2.0000      -0.631626       -17.1874
 160   2.0000      -0.630289       -17.1510
 161   2.0000      -0.628667       -17.1069
 162   2.0000      -0.623589       -16.9687
 163   2.0000      -0.616980       -16.7889
 164   2.0000      -0.605799       -16.4846
 165   2.0000      -0.597316       -16.2538
 166   2.0000      -0.596418       -16.2294
 167   2.0000      -0.590704       -16.0739
 168   2.0000      -0.586099       -15.9486
 169   2.0000      -0.584983       -15.9182
 170   2.0000      -0.582946       -15.8628
 171   2.0000      -0.574652       -15.6371
 172   2.0000      -0.573402       -15.6031
 173   2.0000      -0.571529       -15.5521
 174   2.0000      -0.567744       -15.4491
 175   2.0000      -0.565152       -15.3786
 176   2.0000      -0.562968       -15.3191
 177   2.0000      -0.559420       -15.2226
 178   2.0000      -0.559186       -15.2162
 179   2.0000      -0.557966       -15.1830
 180   2.0000      -0.554263       -15.0823
 181   2.0000      -0.550430       -14.9780
 182   2.0000      -0.548927       -14.9371
 183   2.0000      -0.545641       -14.8477
 184   2.0000      -0.544425       -14.8145
 185   2.0000      -0.541290       -14.7292
 186   2.0000      -0.537331       -14.6215
 187   2.0000      -0.535310       -14.5665
 188   2.0000      -0.528886       -14.3917
 189   2.0000      -0.525184       -14.2910
 190   2.0000      -0.524959       -14.2849
 191   2.0000      -0.524577       -14.2745
 192   2.0000      -0.520926       -14.1751
 193   2.0000      -0.516678       -14.0595
 194   2.0000      -0.512803       -13.9541
 195   2.0000      -0.509482       -13.8637
 196   2.0000      -0.509069       -13.8525
 197   2.0000      -0.503656       -13.7052
 198   2.0000      -0.501236       -13.6393
 199   2.0000      -0.497919       -13.5491
 200   2.0000      -0.494810       -13.4645
 201   2.0000      -0.492491       -13.4014
 202   2.0000      -0.490970       -13.3600
 203   2.0000      -0.488163       -13.2836
 204   2.0000      -0.484884       -13.1944
 205   2.0000      -0.484137       -13.1740
 206   2.0000      -0.482389       -13.1265
 207   2.0000      -0.475433       -12.9372
 208   2.0000      -0.474687       -12.9169
 209   2.0000      -0.467278       -12.7153
 210   2.0000      -0.462818       -12.5939
 211   2.0000      -0.460629       -12.5344
 212   2.0000      -0.457319       -12.4443
 213   2.0000      -0.455663       -12.3992
 214   2.0000      -0.453349       -12.3363
 215   2.0000      -0.451406       -12.2834
 216   2.0000      -0.448705       -12.2099
 217   2.0000      -0.446900       -12.1608
 218   2.0000      -0.446612       -12.1529
 219   2.0000      -0.445103       -12.1119
 220   2.0000      -0.441999       -12.0274
 221   2.0000      -0.440189       -11.9782
 222   2.0000      -0.437265       -11.8986
 223   2.0000      -0.435871       -11.8607
 224   2.0000      -0.433045       -11.7837
 225   2.0000      -0.429554       -11.6888
 226   2.0000      -0.427447       -11.6314
 227   2.0000      -0.426467       -11.6048
 228   2.0000      -0.425830       -11.5874
 229   2.0000      -0.420779       -11.4500
 230   2.0000      -0.418453       -11.3867
 231   2.0000      -0.415452       -11.3050
 232   2.0000      -0.413261       -11.2454
 233   2.0000      -0.410350       -11.1662
 234   2.0000      -0.408066       -11.1040
 235   2.0000      -0.404336       -11.0025
 236   2.0000      -0.400031       -10.8854
 237   2.0000      -0.389732       -10.6051
 238   2.0000      -0.386907       -10.5283
 239   2.0000      -0.385201       -10.4819
 240   2.0000      -0.384164       -10.4536
 241   2.0000      -0.377788       -10.2801
 242   2.0000      -0.376649       -10.2491
 243   2.0000      -0.373105       -10.1527
 244   2.0000      -0.368656       -10.0316
 245   2.0000      -0.367085        -9.9889
 246   2.0000      -0.359761        -9.7896
 247   2.0000      -0.346704        -9.4343
 248   2.0000      -0.345477        -9.4009
 249   2.0000      -0.341222        -9.2851
 250   2.0000      -0.340602        -9.2683
 251   2.0000      -0.331287        -9.0148
 252   2.0000      -0.323490        -8.8026
 253   2.0000      -0.314527        -8.5587
 254   2.0000      -0.306435        -8.3385
 255   2.0000      -0.301152        -8.1948
 256   2.0000      -0.300019        -8.1639
 257   2.0000      -0.285783        -7.7765
 258   2.0000      -0.282372        -7.6837
 259   2.0000      -0.265566        -7.2264
 260   2.0000      -0.232628        -6.3301
 261   0.0000      -0.101348        -2.7578
 262   0.0000      -0.086492        -2.3536
 263   0.0000      -0.061862        -1.6833
 264   0.0000      -0.059920        -1.6305
 265   0.0000      -0.054152        -1.4735

MULLIKEN ATOMIC CHARGES
-----------------------
   0 C :   -0.098619
   1 C :    0.033980
   2 C :    0.020140
   3 C :    0.070544
   4 C :   -0.143873
   5 S :    0.138302
   6 C :   -0.119745
   7 C :    0.059049
   8 C :   -0.010497
   9 C :   -0.066103
  10 S :    0.128724
  11 C :    0.089422
  12 C :   -0.024055
  13 C :    0.018439
  14 C :    0.018308
  15 S :    0.094500
  16 C :   -0.143414
  17 C :    0.148494
  18 C :   -0.051215
  19 N :    0.286799
  20 O :   -0.274189
  21 O :   -0.233198
  22 C :   -0.085313
  23 S :    0.229104
  24 C :   -0.111452
  25 C :   -0.012828
  26 C :   -0.059839
  27 S :    0.054083
  28 C :    0.101996
  29 O :   -0.131208
  30 C :    0.081856
  31 O :   -0.120296
  32 S :    0.069455
  33 C :    0.059865
  34 C :   -0.029098
  35 C :    0.102934
  36 O :   -0.199736
  37 C :    0.214223
  38 C :    0.023966
  39 N :   -0.048014
  40 C :   -0.082513
  41 C :    0.023890
  42 C :    0.211179
  43 C :   -0.155630
  44 O :   -0.198246
  45 C :    0.123412
  46 N :   -0.039785
  47 C :   -0.006227
  48 C :    0.034769
  49 C :    0.024597
  50 C :   -0.098211
  51 C :    0.144037
  52 O :   -0.137166
  53 C :    0.002682
  54 C :   -0.080729
  55 C :    0.102333
  56 C :    0.103582
  57 C :   -0.098578
  58 C :    0.303801
  59 C :   -0.028270
  60 C :   -0.010377
  61 F :   -0.188974
  62 C :   -0.087205
  63 C :    0.049556
  64 C :    0.261032
  65 C :   -0.310482
  66 C :   -0.213214
  67 N :    0.180595
  68 C :   -0.177930
  69 N :    0.154026
  70 H :    0.049877
  71 H :   -0.005786
  72 H :    0.037317
  73 H :   -0.014107
  74 H :    0.025641
  75 H :   -0.023478
  76 H :   -0.038113
  77 H :    0.003162
  78 H :    0.024526
  79 H :    0.020496
  80 H :   -0.020271
  81 H :   -0.012777
  82 H :    0.017090
  83 H :    0.045170
  84 H :    0.019996
  85 H :   -0.009856
  86 H :   -0.000890
  87 H :    0.004561
  88 H :   -0.007461
  89 H :   -0.002544
Sum of atomic charges:   -0.0000000

LOEWDIN ATOMIC CHARGES
----------------------
   0 C :   -0.179146
   1 C :   -0.027410
   2 C :   -0.012679
   3 C :   -0.046830
   4 C :   -0.142672
   5 S :    0.463186
   6 C :   -0.205057
   7 C :   -0.036118
   8 C :   -0.067242
   9 C :   -0.165760
  10 S :    0.423939
  11 C :   -0.062298
  12 C :   -0.005122
  13 C :   -0.066784
  14 C :   -0.146850
  15 S :    0.459373
  16 C :   -0.161525
  17 C :   -0.079807
  18 C :   -0.053989
  19 N :    0.290875
  20 O :   -0.235500
  21 O :   -0.196482
  22 C :   -0.208608
  23 S :    0.538868
  24 C :   -0.196444
  25 C :   -0.216491
  26 C :   -0.217937
  27 S :    0.374652
  28 C :   -0.109526
  29 O :   -0.102287
  30 C :   -0.112532
  31 O :   -0.095731
  32 S :    0.394472
  33 C :   -0.001515
  34 C :   -0.052996
  35 C :    0.063131
  36 O :   -0.008990
  37 C :    0.039233
  38 C :   -0.033105
  39 N :   -0.103973
  40 C :   -0.014148
  41 C :   -0.034870
  42 C :    0.037654
  43 C :   -0.063678
  44 O :   -0.005647
  45 C :    0.054609
  46 N :   -0.085869
  47 C :    0.001195
  48 C :    0.010435
  49 C :    0.062285
  50 C :   -0.077297
  51 C :    0.082600
  52 O :   -0.139308
  53 C :   -0.060442
  54 C :    0.035805
  55 C :   -0.018254
  56 C :    0.004205
  57 C :   -0.041713
  58 C :    0.093893
  59 C :   -0.035880
  60 C :    0.005073
  61 F :   -0.063542
  62 C :    0.011805
  63 C :   -0.016940
  64 C :    0.067277
  65 C :   -0.126179
  66 C :   -0.025923
  67 N :   -0.036972
  68 C :   -0.017787
  69 N :   -0.044871
  70 H :    0.034049
  71 H :    0.040155
  72 H :    0.036025
  73 H :    0.027934
  74 H :    0.023755
  75 H :    0.018138
  76 H :    0.032413
  77 H :    0.040461
  78 H :    0.043480
  79 H :    0.025681
  80 H :    0.044444
  81 H :    0.044491
  82 H :    0.044101
  83 H :    0.042936
  84 H :    0.046044
  85 H :    0.040239
  86 H :    0.043633
  87 H :    0.042376
  88 H :    0.036159
  89 H :    0.039648

  Mayer bond orders larger than 0.100000
B(  0-C ,  1-C ) :   1.6538 B(  0-C ,  5-S ) :   1.1095 B(  0-C , 70-H ) :   0.9386
B(  1-C ,  2-C ) :   1.2112 B(  1-C , 71-H ) :   0.9701 B(  2-C ,  3-C ) :   1.0582
B(  2-C , 11-C ) :   1.4119 B(  3-C ,  4-C ) :   1.5932 B(  3-C ,  6-C ) :   1.1868
B(  4-C ,  5-S ) :   1.1501 B(  4-C , 72-H ) :   0.9422 B(  6-C ,  7-C ) :   1.4596
B(  6-C , 10-S ) :   1.0757 B(  7-C ,  8-C ) :   1.2164 B(  7-C , 11-C ) :   1.0729
B(  8-C ,  9-C ) :   1.5852 B(  8-C , 73-H ) :   1.0004 B(  9-C , 10-S ) :   1.1606
B(  9-C , 74-H ) :   0.9644 B( 11-C , 12-C ) :   1.1845 B( 12-C , 13-C ) :   1.6007
B( 12-C , 75-H ) :   0.9520 B( 13-C , 14-C ) :   1.1659 B( 13-C , 76-H ) :   0.9828
B( 14-C , 15-S ) :   1.0707 B( 14-C , 18-C ) :   1.4506 B( 15-S , 16-C ) :   1.1504
B( 16-C , 17-C ) :   1.4152 B( 16-C , 22-C ) :   1.2121 B( 17-C , 18-C ) :   1.2370
B( 17-C , 19-N ) :   0.9719 B( 18-C , 77-H ) :   1.0041 B( 19-N , 20-O ) :   1.4313
B( 19-N , 21-O ) :   1.5652 B( 20-O , 21-O ) :   0.2456 B( 22-C , 23-S ) :   1.1437
B( 22-C , 24-C ) :   0.1006 B( 22-C , 26-C ) :   1.4802 B( 23-S , 24-C ) :   1.1099
B( 24-C , 25-C ) :   1.5034 B( 24-C , 33-C ) :   1.1233 B( 25-C , 26-C ) :   1.3333
B( 25-C , 32-S ) :   0.9703 B( 26-C , 27-S ) :   0.9685 B( 27-S , 28-C ) :   1.0440
B( 27-S , 29-O ) :   0.1342 B( 28-C , 29-O ) :   2.1643 B( 28-C , 30-C ) :   0.7702
B( 30-C , 31-O ) :   2.1680 B( 30-C , 32-S ) :   1.0501 B( 31-O , 32-S ) :   0.1360
B( 33-C , 34-C ) :   1.6917 B( 33-C , 78-H ) :   0.9535 B( 34-C , 35-C ) :   1.1266
B( 34-C , 79-H ) :   0.9377 B( 35-C , 36-O ) :   1.1250 B( 35-C , 39-N ) :   1.7516
B( 36-O , 37-C ) :   1.1158 B( 37-C , 38-C ) :   1.2413 B( 37-C , 43-C ) :   1.3208
B( 38-C , 39-N ) :   1.2910 B( 38-C , 40-C ) :   1.2927 B( 40-C , 41-C ) :   1.2717
B( 40-C , 43-C ) :   0.1495 B( 40-C , 80-H ) :   1.0521 B( 41-C , 42-C ) :   1.2457
B( 41-C , 46-N ) :   1.3021 B( 42-C , 43-C ) :   1.3096 B( 42-C , 44-O ) :   1.1195
B( 43-C , 81-H ) :   1.0463 B( 44-O , 45-C ) :   1.1207 B( 45-C , 46-N ) :   1.7344
B( 45-C , 47-C ) :   1.0861 B( 47-C , 48-C ) :   1.6936 B( 47-C , 82-H ) :   0.9649
B( 48-C , 49-C ) :   1.1031 B( 48-C , 83-H ) :   0.9555 B( 49-C , 50-C ) :   1.6423
B( 49-C , 84-H ) :   0.9571 B( 50-C , 51-C ) :   0.9305 B( 50-C , 64-C ) :   1.0272
B( 51-C , 52-O ) :   2.2762 B( 51-C , 53-C ) :   0.9237 B( 53-C , 54-C ) :   1.4693
B( 53-C , 63-C ) :   1.2144 B( 54-C , 55-C ) :   1.1956 B( 54-C , 85-H ) :   1.0153
B( 55-C , 56-C ) :   1.2533 B( 55-C , 60-C ) :   1.2336 B( 56-C , 57-C ) :   1.2035
B( 56-C , 62-C ) :   1.2045 B( 57-C , 58-C ) :   1.4414 B( 57-C , 86-H ) :   1.0063
B( 58-C , 59-C ) :   1.2529 B( 58-C , 61-F ) :   1.0903 B( 59-C , 60-C ) :   1.4625
B( 59-C , 87-H ) :   0.9926 B( 60-C , 88-H ) :   0.9969 B( 62-C , 63-C ) :   1.4611
B( 62-C , 89-H ) :   0.9947 B( 63-C , 64-C ) :   0.9999 B( 64-C , 65-C ) :   1.6689
B( 65-C , 66-C ) :   1.1480 B( 65-C , 68-C ) :   1.1323 B( 66-C , 67-N ) :   3.0193
B( 68-C , 69-N ) :   2.9860

-----------------------------------------------------------------------------
         ABSORPTION SPECTRUM VIA TRANSITION ELECTRIC DIPOLE MOMENTS
-----------------------------------------------------------------------------
State   Energy  Wavelength   fosc         T2         TX        TY        TZ
        (cm-1)    (nm)                  (au**2)     (au)      (au)      (au)
-----------------------------------------------------------------------------
   0   16973.5    589.2   1.117859752  21.68166   2.95080   2.06539   2.95103
   1   21146.3    472.9   0.822156495  12.79956   3.02898   0.55895   1.82001
   2   22257.8    449.3   0.242033865   3.57989  -1.59637   0.97483  -0.28495
   3   22719.6    440.1   0.014970440   0.21692  -0.36052   0.29470   0.01031
   4   23459.6    426.3   0.282449703   3.96366  -1.51555  -0.70509  -1.08149
   5   24804.1    403.2   0.223737642   2.96955   0.32688  -1.56561  -0.64154
   6   26448.4    378.1   0.812369849  10.11183  -2.40885  -0.57105  -1.99579
   7   26530.4    376.9   0.079217794   0.98300  -0.77028  -0.53737  -0.31767
   8   27265.2    366.8   0.015232969   0.18393   0.33727   0.22119   0.14579
   9   27567.5    362.7   0.038726866   0.46248   0.16434   0.23276   0.61749
  10   28211.3    354.5   0.110663772   1.29139  -0.92742   0.64984   0.09481
  11   28457.9    351.4   0.058936046   0.68180   0.15441  -0.80274  -0.11642
  12   29147.1    343.1   0.012527930   0.14150  -0.11727  -0.10604   0.34133
  13   29341.4    340.8   0.006394101   0.07174  -0.20154  -0.10719  -0.14012
  14   29500.4    339.0   0.077764539   0.86782  -0.60989  -0.33941  -0.61697
  15   29992.2    333.4   0.303583838   3.33231  -1.63982   0.72288  -0.34748
  16   30789.2    324.8   0.144235825   1.54224  -0.66048  -0.23014  -1.02617
  17   31286.1    319.6   0.184848733   1.94509  -0.57051  -0.31958  -1.23186
  18   32257.7    310.0   0.073583990   0.75097   0.71751  -0.43233   0.22190
  19   32602.8    306.7   0.068009036   0.68673  -0.62102   0.09146  -0.54102
  20   32690.3    305.9   0.131186683   1.32113  -0.64196  -0.48076  -0.82334
  21   32943.6    303.5   0.159350420   1.59242  -0.61709  -0.02072  -1.10054
  22   33564.1    297.9   0.047253353   0.46348  -0.38202   0.08752  -0.55667
  23   33591.4    297.7   0.084732498   0.83042  -0.80342   0.15395   0.40154
  24   33818.2    295.7   0.196071681   1.90871   0.75946  -0.53669   1.02171
  25   33857.4    295.4   0.052148357   0.50706  -0.02565   0.27502   0.65633
  26   34685.1    288.3   0.165648415   1.57224  -1.12748  -0.26753  -0.47903
  27   34761.6    287.7   0.236728241   2.24195   0.93623  -0.59500   1.00568
  28   35375.8    282.7   0.180094441   1.67598   0.90587  -0.45908   0.80289
  29   35719.2    280.0   0.098463922   0.90751  -0.71359   0.61599  -0.13732
  30   36144.0    276.7   0.172755030   1.57351  -0.75750   0.73888  -0.67362
  31   36273.9    275.7   0.024738734   0.22452  -0.42486  -0.02042  -0.20881
  32   36648.2    272.9   0.022934795   0.20602  -0.06056   0.33306   0.30237
  33   37009.4    270.2   0.005143510   0.04575   0.05440   0.16106   0.12982
  34   37218.3    268.7   0.026246862   0.23216  -0.25556   0.38898   0.12468
  35   37391.6    267.4   0.047862181   0.42140  -0.54771   0.10720  -0.33154
  36   37816.9    264.4   0.133654458   1.16352   0.28797   0.66510   0.79889
  37   38162.1    262.0   0.010952225   0.09448   0.16556   0.11358   0.23275
  38   38515.9    259.6   0.055461861   0.47406  -0.23963   0.46269   0.45006
  39   38568.0    259.3   0.021641981   0.18473   0.04599   0.31967   0.28360
  40   39025.4    256.2   0.058898121   0.49686  -0.70248   0.01363  -0.05647
  41   39231.5    254.9   0.006305394   0.05291  -0.03088   0.00022  -0.22794
  42   39520.1    253.0   0.191609438   1.59615   0.73080   0.47450   0.91484
  43   39753.7    251.5   0.057158935   0.47335   0.10373   0.29389   0.61337
  44   39839.1    251.0   0.149478987   1.23523  -0.97650   0.50081  -0.17566
  45   39966.3    250.2   0.329082513   2.71073  -1.13548   1.18091   0.16393
  46   40246.6    248.5   0.007279792   0.05955  -0.19268  -0.13533  -0.06410

FINAL SINGLE POINT ENERGY     -5240.342941305058

DIPOLE MOMENT
-------------
                                X             Y             Z
Electronic contribution:     -7.98492      -0.22855      -3.17968
Nuclear contribution   :      5.61848       0.24941       2.73086
                        -----------------------------------------
Total Dipole Moment    :     -2.36644       0.02086      -0.44882
                        -----------------------------------------
Magnitude (a.u.)       :      2.40871
Magnitude (Debye)      :      6.12247

Rotational constants in cm-1:     0.002337     0.000154     0.000147
Rotational constants in MHz :    70.052794     4.614453     4.395129

                             ****ORCA TERMINATED NORMALLY****
TOTAL RUN TIME: 0 days 0 hours 7 minutes 41 seconds 249 msec
