                         Program Version 4.2.0 -  RELEASE  -
|  1> # ORCA input file
|  2> # SCF done       -194.837373826486          0.000430334834
|  3> ! CAM-B3LYP def2-SVP def2/J RIJCOSX Grid4 TightSCF
|  4> %maxcore 5000
|  5> %tddft
|  6>     Mode sTDDFT
|  7>     Ethresh 5.0
|  8>     maxcore 5000
|  9> end
| 10>
| 11> %pal
| 12>   nprocs 6
| 13>   end
| 14> * xyz 0 1
| 15>    C       -4.10914        16.14912        -5.37786
| 16>    C       -4.42120        16.70015        -4.19465
| 17>    C       -5.35989        15.80455        -3.50503
| 18>    C       -5.86954        16.03745        -2.22155
| 19>    N       -6.28481        16.23798        -1.17031
| 20>    C       -5.62431        14.74139        -4.31011
| 21>    C       -4.85340        14.89933        -5.52736
| 22>    C       -4.76788        14.05568        -6.59823
| 23>    C       -5.53092        12.81402        -6.86266
| 24>    C       -4.92441        12.18255        -7.90877
| 25>    C       -3.82139        12.99926        -8.37391
| 26>    C       -3.75279        14.13524        -7.61744
| 27>    C       -2.98600        12.65613        -9.44695
| 28>    N       -2.31055        12.36864       -10.32890
| 29>    C       -6.73949        12.42405        -6.20749
| 30>    C       -7.18845        11.15130        -6.12813
| 31>    C       -8.43324        10.79330        -5.52144
| 32>    C       -9.56419        11.55480        -5.48263
| 33>    C      -10.62998        10.77659        -4.88954
| 34>    C      -11.93263        11.24894        -4.67656
| 35>    N      -12.99828        11.63905        -4.50573
| 36>    C      -10.15866         9.52988        -4.57837
| 37>    C       -8.75937         9.48519        -4.90442
| 38>    C       -7.87822         8.51376        -4.51179
| 39>    C       -8.22481         7.21401        -3.88841
| 40>    C       -7.07942         6.68970        -3.37186
| 41>    C       -5.98142         7.58521        -3.67279
| 42>    C       -6.45346         8.65628        -4.38134
| 43>    C       -4.65163         7.36398        -3.28845
| 44>    N       -3.56384         7.17574        -2.97496
| 45>    C       -9.51421         6.58970        -3.88600
| 46>    C       -9.96238         5.84937        -2.84861
| 47>    C      -11.22090         5.19536        -2.78040
| 48>    C      -11.82481         4.72496        -1.62630
| 49>    C      -13.07200         4.15972        -1.87807
| 50>    C      -13.41061         4.16466        -3.24339
| 51>    S      -12.21267         4.90964        -4.20513
| 52>    C      -14.68055         3.54796        -3.39318
| 53>    C      -15.15815         3.19391        -2.11936
| 54>    C      -14.16294         3.55899        -1.12633
| 55>    C      -14.23602         3.37963         0.22341
| 56>    C      -15.36107         2.79356         0.84147
| 57>    N      -16.27578         2.31705         1.34200
| 58>    C      -13.19218         3.76934         1.08930
| 59>    N      -12.34444         4.08675         1.79268
| 60>    C      -16.41507         2.58476        -2.15868
| 61>    C      -16.87268         2.42699        -3.44776
| 62>    S      -15.75623         3.09137        -4.63870
| 63>    C      -18.13342         1.86927        -3.84219
| 64>    C      -19.33370         2.13785        -3.26107
| 65>    C      -20.37065         1.46938        -4.02177
| 66>    C      -21.73601         1.51461        -3.70876
| 67>    N      -22.85499         1.56364        -3.45908
| 68>    C      -19.80371         0.81288        -5.08029
| 69>    C      -18.37797         0.97777        -4.99403
| 70>    C      -17.43054         0.23703        -5.65434
| 71>    C      -17.62362        -0.60912        -6.85755
| 72>    C      -16.53592        -1.43420        -6.95225
| 73>    C      -15.62089        -1.11792        -5.88582
| 74>    C      -16.13340        -0.08584        -5.13909
| 75>    C      -14.40245        -1.77268        -5.65713
| 76>    N      -13.40191        -2.30472        -5.47618
| 77>    C      -18.64850        -0.50984        -7.83814
| 78>    C      -19.39595         0.59429        -8.08763
| 79>    C      -20.41970         0.65382        -9.07632
| 80>    C      -21.15801        -0.38890        -9.56228
| 81>    C      -22.19724         0.13696       -10.41671
| 82>    C      -23.12554        -0.65652       -11.10666
| 83>    N      -23.87982        -1.31624       -11.66545
| 84>    C      -22.12251         1.50511       -10.43412
| 85>    C      -20.98549         1.89914        -9.64965
| 86>    C      -20.43691         3.15087        -9.59743
| 87>    C      -21.06809         4.41945       -10.02261
| 88>    C      -20.11688         5.38431        -9.97922
| 89>    C      -18.86249         4.78748        -9.53918
| 90>    C      -19.06693         3.46542        -9.27128
| 91>    C      -17.65152         5.47925        -9.40980
| 92>    N      -16.65905         6.04428        -9.29249
| 93>    C      -22.47735         4.60680       -10.29291
| 94>    C      -22.96060         5.53672       -11.11063
| 95>    H       -3.45818        16.55973        -6.12436
| 96>    H       -4.06835        17.62531        -3.77929
| 97>    H       -6.23465        13.89710        -4.05676
| 98>    H       -5.22395        11.26360        -8.37661
| 99>    H       -3.02458        14.91656        -7.71374
|100>    H       -7.32120        13.21137        -5.74992
|101>    H       -6.58603        10.34919        -6.53062
|102>    H       -9.69234        12.54903        -5.86733
|103>    H      -10.70810         8.76105        -4.07202
|104>    H       -6.96601         5.74679        -2.87119
|105>    H       -5.87540         9.50729        -4.68275
|106>    H      -10.14134         6.72701        -4.75798
|107>    H       -9.36244         5.78282        -1.95040
|108>    H      -11.37036         4.81224        -0.65620
|109>    H      -16.96011         2.23422        -1.30132
|110>    H      -19.51409         2.76027        -2.40529
|111>    H      -20.31731         0.17892        -5.77592
|112>    H      -16.35144        -2.17163        -7.71076
|113>    H      -15.70470         0.29892        -4.23445
|114>    H      -18.74357        -1.36475        -8.49534
|115>    H      -19.21931         1.49254        -7.51259
|116>    H      -21.04644        -1.43106        -9.32879
|117>    H      -22.72829         2.16031       -11.02886
|118>    H      -20.23934         6.42971       -10.18972
|119>    H      -18.30896         2.75740        -8.99790
|120>    H      -23.15339         3.94960        -9.76155
|121>    H      -22.31402         6.19211       -11.66926
|122>    H      -24.01860         5.65987       -11.26223
|123> *
|124>
|125>                          ****END OF INPUT****

CARTESIAN COORDINATES (ANGSTROEM)
---------------------------------
  C     -4.109140   16.149120   -5.377860
  C     -4.421200   16.700150   -4.194650
  C     -5.359890   15.804550   -3.505030
  C     -5.869540   16.037450   -2.221550
  N     -6.284810   16.237980   -1.170310
  C     -5.624310   14.741390   -4.310110
  C     -4.853400   14.899330   -5.527360
  C     -4.767880   14.055680   -6.598230
  C     -5.530920   12.814020   -6.862660
  C     -4.924410   12.182550   -7.908770
  C     -3.821390   12.999260   -8.373910
  C     -3.752790   14.135240   -7.617440
  C     -2.986000   12.656130   -9.446950
  N     -2.310550   12.368640  -10.328900
  C     -6.739490   12.424050   -6.207490
  C     -7.188450   11.151300   -6.128130
  C     -8.433240   10.793300   -5.521440
  C     -9.564190   11.554800   -5.482630
  C    -10.629980   10.776590   -4.889540
  C    -11.932630   11.248940   -4.676560
  N    -12.998280   11.639050   -4.505730
  C    -10.158660    9.529880   -4.578370
  C     -8.759370    9.485190   -4.904420
  C     -7.878220    8.513760   -4.511790
  C     -8.224810    7.214010   -3.888410
  C     -7.079420    6.689700   -3.371860
  C     -5.981420    7.585210   -3.672790
  C     -6.453460    8.656280   -4.381340
  C     -4.651630    7.363980   -3.288450
  N     -3.563840    7.175740   -2.974960
  C     -9.514210    6.589700   -3.886000
  C     -9.962380    5.849370   -2.848610
  C    -11.220900    5.195360   -2.780400
  C    -11.824810    4.724960   -1.626300
  C    -13.072000    4.159720   -1.878070
  C    -13.410610    4.164660   -3.243390
  S    -12.212670    4.909640   -4.205130
  C    -14.680550    3.547960   -3.393180
  C    -15.158150    3.193910   -2.119360
  C    -14.162940    3.558990   -1.126330
  C    -14.236020    3.379630    0.223410
  C    -15.361070    2.793560    0.841470
  N    -16.275780    2.317050    1.342000
  C    -13.192180    3.769340    1.089300
  N    -12.344440    4.086750    1.792680
  C    -16.415070    2.584760   -2.158680
  C    -16.872680    2.426990   -3.447760
  S    -15.756230    3.091370   -4.638700
  C    -18.133420    1.869270   -3.842190
  C    -19.333700    2.137850   -3.261070
  C    -20.370650    1.469380   -4.021770
  C    -21.736010    1.514610   -3.708760
  N    -22.854990    1.563640   -3.459080
  C    -19.803710    0.812880   -5.080290
  C    -18.377970    0.977770   -4.994030
  C    -17.430540    0.237030   -5.654340
  C    -17.623620   -0.609120   -6.857550
  C    -16.535920   -1.434200   -6.952250
  C    -15.620890   -1.117920   -5.885820
  C    -16.133400   -0.085840   -5.139090
  C    -14.402450   -1.772680   -5.657130
  N    -13.401910   -2.304720   -5.476180
  C    -18.648500   -0.509840   -7.838140
  C    -19.395950    0.594290   -8.087630
  C    -20.419700    0.653820   -9.076320
  C    -21.158010   -0.388900   -9.562280
  C    -22.197240    0.136960  -10.416710
  C    -23.125540   -0.656520  -11.106660
  N    -23.879820   -1.316240  -11.665450
  C    -22.122510    1.505110  -10.434120
  C    -20.985490    1.899140   -9.649650
  C    -20.436910    3.150870   -9.597430
  C    -21.068090    4.419450  -10.022610
  C    -20.116880    5.384310   -9.979220
  C    -18.862490    4.787480   -9.539180
  C    -19.066930    3.465420   -9.271280
  C    -17.651520    5.479250   -9.409800
  N    -16.659050    6.044280   -9.292490
  C    -22.477350    4.606800  -10.292910
  C    -22.960600    5.536720  -11.110630
  H     -3.458180   16.559730   -6.124360
  H     -4.068350   17.625310   -3.779290
  H     -6.234650   13.897100   -4.056760
  H     -5.223950   11.263600   -8.376610
  H     -3.024580   14.916560   -7.713740
  H     -7.321200   13.211370   -5.749920
  H     -6.586030   10.349190   -6.530620
  H     -9.692340   12.549030   -5.867330
  H    -10.708100    8.761050   -4.072020
  H     -6.966010    5.746790   -2.871190
  H     -5.875400    9.507290   -4.682750
  H    -10.141340    6.727010   -4.757980
  H     -9.362440    5.782820   -1.950400
  H    -11.370360    4.812240   -0.656200
  H    -16.960110    2.234220   -1.301320
  H    -19.514090    2.760270   -2.405290
  H    -20.317310    0.178920   -5.775920
  H    -16.351440   -2.171630   -7.710760
  H    -15.704700    0.298920   -4.234450
  H    -18.743570   -1.364750   -8.495340
  H    -19.219310    1.492540   -7.512590
  H    -21.046440   -1.431060   -9.328790
  H    -22.728290    2.160310  -11.028860
  H    -20.239340    6.429710  -10.189720
  H    -18.308960    2.757400   -8.997900
  H    -23.153390    3.949600   -9.761550
  H    -22.314020    6.192110  -11.669260
  H    -24.018600    5.659870  -11.262230

 Total Charge           Charge          ....    0
 Multiplicity           Mult            ....    1
 Number of Electrons    NEL             ....  538
 Basis Dimension        Dim             .... 1268

ORBITAL ENERGIES
----------------

  NO   OCC          E(Eh)            E(eV)
   0   2.0000     -89.002880     -2421.8915
   1   2.0000     -88.999106     -2421.7888
   2   2.0000     -14.438881      -392.9019
   3   2.0000     -14.438416      -392.8893
   4   2.0000     -14.426201      -392.5569
   5   2.0000     -14.425099      -392.5269
   6   2.0000     -14.423858      -392.4931
   7   2.0000     -14.423073      -392.4718
   8   2.0000     -14.421310      -392.4238
   9   2.0000     -14.421084      -392.4176
  10   2.0000     -14.421025      -392.4160
  11   2.0000     -14.420141      -392.3920
  12   2.0000     -10.374461      -282.3034
  13   2.0000     -10.360730      -281.9298
  14   2.0000     -10.345588      -281.5178
  15   2.0000     -10.345027      -281.5025
  16   2.0000     -10.344741      -281.4947
  17   2.0000     -10.343096      -281.4499
  18   2.0000     -10.338989      -281.3382
  19   2.0000     -10.338875      -281.3351
  20   2.0000     -10.338848      -281.3344
  21   2.0000     -10.338408      -281.3224
  22   2.0000     -10.338229      -281.3175
  23   2.0000     -10.337900      -281.3086
  24   2.0000     -10.337828      -281.3066
  25   2.0000     -10.337812      -281.3062
  26   2.0000     -10.337135      -281.2878
  27   2.0000     -10.337000      -281.2841
  28   2.0000     -10.336202      -281.2624
  29   2.0000     -10.334912      -281.2273
  30   2.0000     -10.334588      -281.2184
  31   2.0000     -10.334122      -281.2057
  32   2.0000     -10.334119      -281.2057
  33   2.0000     -10.333958      -281.2013
  34   2.0000     -10.333308      -281.1836
  35   2.0000     -10.331859      -281.1442
  36   2.0000     -10.324370      -280.9404
  37   2.0000     -10.322970      -280.9023
  38   2.0000     -10.321957      -280.8747
  39   2.0000     -10.321016      -280.8491
  40   2.0000     -10.320581      -280.8373
  41   2.0000     -10.319096      -280.7969
  42   2.0000     -10.319087      -280.7966
  43   2.0000     -10.318908      -280.7918
  44   2.0000     -10.318320      -280.7758
  45   2.0000     -10.317243      -280.7465
  46   2.0000     -10.315037      -280.6864
  47   2.0000     -10.314611      -280.6748
  48   2.0000     -10.314452      -280.6705
  49   2.0000     -10.314269      -280.6655
  50   2.0000     -10.314206      -280.6638
  51   2.0000     -10.313501      -280.6446
  52   2.0000     -10.313381      -280.6414
  53   2.0000     -10.312837      -280.6266
  54   2.0000     -10.312503      -280.6175
  55   2.0000     -10.312485      -280.6170
  56   2.0000     -10.311975      -280.6031
  57   2.0000     -10.311886      -280.6007
  58   2.0000     -10.311599      -280.5929
  59   2.0000     -10.311523      -280.5908
  60   2.0000     -10.311281      -280.5842
  61   2.0000     -10.311027      -280.5773
  62   2.0000     -10.310990      -280.5763
  63   2.0000     -10.310528      -280.5637
  64   2.0000     -10.310470      -280.5621
  65   2.0000     -10.310278      -280.5569
  66   2.0000     -10.309772      -280.5432
  67   2.0000     -10.309413      -280.5334
  68   2.0000     -10.309223      -280.5282
  69   2.0000     -10.309085      -280.5245
  70   2.0000     -10.308691      -280.5137
  71   2.0000     -10.307931      -280.4931
  72   2.0000     -10.307785      -280.4891
  73   2.0000     -10.307166      -280.4723
  74   2.0000     -10.306526      -280.4548
  75   2.0000     -10.305830      -280.4359
  76   2.0000     -10.305507      -280.4271
  77   2.0000     -10.299735      -280.2700
  78   2.0000     -10.298155      -280.2270
  79   2.0000     -10.288163      -279.9552
  80   2.0000      -8.097278      -220.3381
  81   2.0000      -8.093654      -220.2395
  82   2.0000      -6.066524      -165.0785
  83   2.0000      -6.062831      -164.9780
  84   2.0000      -6.062298      -164.9635
  85   2.0000      -6.059689      -164.8925
  86   2.0000      -6.058724      -164.8663
  87   2.0000      -6.056098      -164.7948
  88   2.0000      -1.054860       -28.7042
  89   2.0000      -1.034573       -28.1522
  90   2.0000      -1.029997       -28.0277
  91   2.0000      -1.028371       -27.9834
  92   2.0000      -1.026418       -27.9303
  93   2.0000      -1.023630       -27.8544
  94   2.0000      -1.017715       -27.6934
  95   2.0000      -1.016130       -27.6503
  96   2.0000      -1.015381       -27.6299
  97   2.0000      -1.012405       -27.5489
  98   2.0000      -1.011119       -27.5140
  99   2.0000      -1.007647       -27.4195
 100   2.0000      -1.002620       -27.2827
 101   2.0000      -1.001994       -27.2656
 102   2.0000      -0.999282       -27.1918
 103   2.0000      -0.997989       -27.1567
 104   2.0000      -0.993273       -27.0283
 105   2.0000      -0.991624       -26.9835
 106   2.0000      -0.989407       -26.9231
 107   2.0000      -0.986941       -26.8560
 108   2.0000      -0.968477       -26.3536
 109   2.0000      -0.932951       -25.3869
 110   2.0000      -0.928963       -25.2784
 111   2.0000      -0.923499       -25.1297
 112   2.0000      -0.910035       -24.7633
 113   2.0000      -0.904902       -24.6236
 114   2.0000      -0.897011       -24.4089
 115   2.0000      -0.892679       -24.2910
 116   2.0000      -0.891618       -24.2621
 117   2.0000      -0.889699       -24.2100
 118   2.0000      -0.883368       -24.0377
 119   2.0000      -0.870926       -23.6991
 120   2.0000      -0.867164       -23.5967
 121   2.0000      -0.864790       -23.5321
 122   2.0000      -0.861648       -23.4466
 123   2.0000      -0.844125       -22.9698
 124   2.0000      -0.839848       -22.8534
 125   2.0000      -0.828752       -22.5515
 126   2.0000      -0.820407       -22.3244
 127   2.0000      -0.815613       -22.1939
 128   2.0000      -0.815152       -22.1814
 129   2.0000      -0.810953       -22.0672
 130   2.0000      -0.809512       -22.0279
 131   2.0000      -0.806896       -21.9567
 132   2.0000      -0.796518       -21.6744
 133   2.0000      -0.786384       -21.3986
 134   2.0000      -0.757196       -20.6043
 135   2.0000      -0.751651       -20.4535
 136   2.0000      -0.751189       -20.4409
 137   2.0000      -0.740286       -20.1442
 138   2.0000      -0.739793       -20.1308
 139   2.0000      -0.735814       -20.0225
 140   2.0000      -0.734903       -19.9977
 141   2.0000      -0.726292       -19.7634
 142   2.0000      -0.723167       -19.6784
 143   2.0000      -0.708809       -19.2877
 144   2.0000      -0.705393       -19.1947
 145   2.0000      -0.698772       -19.0146
 146   2.0000      -0.691830       -18.8256
 147   2.0000      -0.685681       -18.6583
 148   2.0000      -0.683176       -18.5902
 149   2.0000      -0.665088       -18.0980
 150   2.0000      -0.660057       -17.9611
 151   2.0000      -0.656650       -17.8684
 152   2.0000      -0.655068       -17.8253
 153   2.0000      -0.650888       -17.7116
 154   2.0000      -0.648620       -17.6499
 155   2.0000      -0.646793       -17.6001
 156   2.0000      -0.642321       -17.4785
 157   2.0000      -0.636864       -17.3300
 158   2.0000      -0.634278       -17.2596
 159   2.0000      -0.631235       -17.1768
 160   2.0000      -0.630837       -17.1660
 161   2.0000      -0.629001       -17.1160
 162   2.0000      -0.624144       -16.9838
 163   2.0000      -0.619420       -16.8553
 164   2.0000      -0.612765       -16.6742
 165   2.0000      -0.609301       -16.5799
 166   2.0000      -0.607086       -16.5196
 167   2.0000      -0.606650       -16.5078
 168   2.0000      -0.576017       -15.6742
 169   2.0000      -0.569192       -15.4885
 170   2.0000      -0.566006       -15.4018
 171   2.0000      -0.565461       -15.3870
 172   2.0000      -0.561384       -15.2760
 173   2.0000      -0.558387       -15.1945
 174   2.0000      -0.554335       -15.0842
 175   2.0000      -0.547589       -14.9007
 176   2.0000      -0.546615       -14.8742
 177   2.0000      -0.545061       -14.8319
 178   2.0000      -0.540816       -14.7163
 179   2.0000      -0.538239       -14.6462
 180   2.0000      -0.536534       -14.5998
 181   2.0000      -0.534584       -14.5468
 182   2.0000      -0.531717       -14.4688
 183   2.0000      -0.530363       -14.4319
 184   2.0000      -0.528553       -14.3826
 185   2.0000      -0.526468       -14.3259
 186   2.0000      -0.525614       -14.3027
 187   2.0000      -0.522207       -14.2100
 188   2.0000      -0.521853       -14.2003
 189   2.0000      -0.520136       -14.1536
 190   2.0000      -0.519796       -14.1444
 191   2.0000      -0.515984       -14.0406
 192   2.0000      -0.515572       -14.0294
 193   2.0000      -0.513594       -13.9756
 194   2.0000      -0.512429       -13.9439
 195   2.0000      -0.511317       -13.9136
 196   2.0000      -0.510992       -13.9048
 197   2.0000      -0.508940       -13.8490
 198   2.0000      -0.506236       -13.7754
 199   2.0000      -0.505656       -13.7596
 200   2.0000      -0.505455       -13.7541
 201   2.0000      -0.504760       -13.7352
 202   2.0000      -0.504145       -13.7185
 203   2.0000      -0.503333       -13.6964
 204   2.0000      -0.499439       -13.5904
 205   2.0000      -0.497864       -13.5476
 206   2.0000      -0.497004       -13.5242
 207   2.0000      -0.491570       -13.3763
 208   2.0000      -0.490513       -13.3475
 209   2.0000      -0.486459       -13.2372
 210   2.0000      -0.478779       -13.0282
 211   2.0000      -0.473619       -12.8878
 212   2.0000      -0.469557       -12.7773
 213   2.0000      -0.469148       -12.7662
 214   2.0000      -0.467238       -12.7142
 215   2.0000      -0.466206       -12.6861
 216   2.0000      -0.464971       -12.6525
 217   2.0000      -0.464153       -12.6303
 218   2.0000      -0.459043       -12.4912
 219   2.0000      -0.458437       -12.4747
 220   2.0000      -0.457545       -12.4504
 221   2.0000      -0.454155       -12.3582
 222   2.0000      -0.452630       -12.3167
 223   2.0000      -0.452297       -12.3076
 224   2.0000      -0.451886       -12.2964
 225   2.0000      -0.451409       -12.2835
 226   2.0000      -0.450566       -12.2605
 227   2.0000      -0.449712       -12.2373
 228   2.0000      -0.448694       -12.2096
 229   2.0000      -0.448590       -12.2068
 230   2.0000      -0.448072       -12.1927
 231   2.0000      -0.447874       -12.1873
 232   2.0000      -0.447163       -12.1679
 233   2.0000      -0.446922       -12.1614
 234   2.0000      -0.446028       -12.1370
 235   2.0000      -0.441925       -12.0254
 236   2.0000      -0.436464       -11.8768
 237   2.0000      -0.433930       -11.8078
 238   2.0000      -0.431556       -11.7432
 239   2.0000      -0.426301       -11.6002
 240   2.0000      -0.425143       -11.5687
 241   2.0000      -0.424883       -11.5617
 242   2.0000      -0.423566       -11.5258
 243   2.0000      -0.421636       -11.4733
 244   2.0000      -0.421132       -11.4596
 245   2.0000      -0.420644       -11.4463
 246   2.0000      -0.420319       -11.4375
 247   2.0000      -0.418839       -11.3972
 248   2.0000      -0.418104       -11.3772
 249   2.0000      -0.404323       -11.0022
 250   2.0000      -0.398637       -10.8475
 251   2.0000      -0.393672       -10.7124
 252   2.0000      -0.385157       -10.4807
 253   2.0000      -0.373473       -10.1627
 254   2.0000      -0.361237        -9.8298
 255   2.0000      -0.351522        -9.5654
 256   2.0000      -0.346846        -9.4381
 257   2.0000      -0.344383        -9.3711
 258   2.0000      -0.341505        -9.2928
 259   2.0000      -0.337843        -9.1932
 260   2.0000      -0.334381        -9.0990
 261   2.0000      -0.332847        -9.0572
 262   2.0000      -0.329920        -8.9776
 263   2.0000      -0.325894        -8.8680
 264   2.0000      -0.308645        -8.3987
 265   2.0000      -0.306970        -8.3531
 266   2.0000      -0.283794        -7.7224
 267   2.0000      -0.282727        -7.6934
 268   2.0000      -0.265085        -7.2133
 269   0.0000      -0.142632        -3.8812
 270   0.0000      -0.136629        -3.7179
 271   0.0000      -0.131719        -3.5843
 272   0.0000      -0.126864        -3.4521
 273   0.0000      -0.113945        -3.1006

MULLIKEN ATOMIC CHARGES
-----------------------
   0 C :   -0.000399
   1 C :    0.071391
   2 C :   -0.127923
   3 C :   -0.127827
   4 N :    0.147568
   5 C :   -0.013812
   6 C :    0.026476
   7 C :    0.085334
   8 C :    0.076672
   9 C :   -0.016580
  10 C :   -0.084948
  11 C :   -0.021041
  12 C :   -0.136252
  13 N :    0.143891
  14 C :   -0.028761
  15 C :   -0.023626
  16 C :    0.072871
  17 C :   -0.017622
  18 C :   -0.096018
  19 C :   -0.128022
  20 N :    0.148560
  21 C :   -0.038930
  22 C :    0.059921
  23 C :    0.063882
  24 C :    0.063663
  25 C :   -0.015244
  26 C :   -0.094357
  27 C :   -0.043347
  28 C :   -0.130635
  29 N :    0.147867
  30 C :   -0.038580
  31 C :    0.011787
  32 C :   -0.052381
  33 C :   -0.030716
  34 C :    0.011826
  35 C :   -0.095648
  36 S :    0.191477
  37 C :   -0.109032
  38 C :    0.013551
  39 C :    0.301720
  40 C :   -0.290453
  41 C :   -0.189263
  42 N :    0.179122
  43 C :   -0.187767
  44 N :    0.175453
  45 C :   -0.006422
  46 C :   -0.157255
  47 S :    0.212422
  48 C :    0.076696
  49 C :    0.004992
  50 C :   -0.103787
  51 C :   -0.131690
  52 N :    0.150637
  53 C :   -0.035469
  54 C :    0.045008
  55 C :    0.025532
  56 C :    0.084656
  57 C :   -0.007057
  58 C :   -0.098195
  59 C :   -0.014903
  60 C :   -0.130530
  61 N :    0.147953
  62 C :   -0.013218
  63 C :   -0.044323
  64 C :    0.069643
  65 C :   -0.017174
  66 C :   -0.096208
  67 C :   -0.131612
  68 N :    0.149250
  69 C :   -0.028573
  70 C :    0.054015
  71 C :    0.046854
  72 C :    0.067400
  73 C :   -0.011983
  74 C :   -0.100525
  75 C :   -0.036454
  76 C :   -0.132371
  77 N :    0.141619
  78 C :   -0.037122
  79 C :   -0.006429
  80 H :   -0.003335
  81 H :    0.002547
  82 H :    0.006218
  83 H :   -0.002846
  84 H :   -0.000526
  85 H :    0.005843
  86 H :    0.009763
  87 H :   -0.002061
  88 H :    0.005333
  89 H :   -0.003023
  90 H :    0.003378
  91 H :    0.016915
  92 H :    0.008968
  93 H :    0.009363
  94 H :    0.009362
  95 H :    0.001588
  96 H :    0.019652
  97 H :   -0.002686
  98 H :    0.016205
  99 H :   -0.002579
 100 H :    0.021076
 101 H :   -0.002327
 102 H :    0.008984
 103 H :   -0.003456
 104 H :    0.006340
 105 H :    0.019146
 106 H :    0.026431
 107 H :    0.036500
Sum of atomic charges:   -0.0000000

LOEWDIN ATOMIC CHARGES
----------------------
   0 C :   -0.025438
   1 C :    0.019607
   2 C :   -0.048768
   3 C :   -0.032845
   4 N :   -0.034918
   5 C :    0.000102
   6 C :    0.033224
   7 C :    0.034476
   8 C :   -0.033356
   9 C :    0.015832
  10 C :   -0.052527
  11 C :    0.008519
  12 C :   -0.032186
  13 N :   -0.037201
  14 C :   -0.014951
  15 C :   -0.014924
  16 C :   -0.030446
  17 C :    0.011776
  18 C :   -0.048997
  19 C :   -0.031534
  20 N :   -0.036100
  21 C :    0.000374
  22 C :    0.036198
  23 C :    0.039474
  24 C :   -0.026147
  25 C :    0.007315
  26 C :   -0.045152
  27 C :   -0.005957
  28 C :   -0.031629
  29 N :   -0.034550
  30 C :   -0.036923
  31 C :   -0.022439
  32 C :   -0.166395
  33 C :   -0.021664
  34 C :   -0.069107
  35 C :   -0.178155
  36 S :    0.479991
  37 C :   -0.178795
  38 C :   -0.069606
  39 C :    0.079839
  40 C :   -0.096871
  41 C :   -0.016931
  42 N :   -0.028297
  43 C :   -0.016577
  44 N :   -0.027446
  45 C :   -0.023936
  46 C :   -0.168762
  47 S :    0.488937
  48 C :   -0.052012
  49 C :    0.021498
  50 C :   -0.053345
  51 C :   -0.032359
  52 N :   -0.034774
  53 C :    0.001192
  54 C :    0.031930
  55 C :    0.036683
  56 C :   -0.029152
  57 C :    0.009743
  58 C :   -0.049514
  59 C :   -0.005853
  60 C :   -0.031348
  61 N :   -0.034368
  62 C :   -0.007071
  63 C :   -0.023771
  64 C :   -0.032293
  65 C :    0.013469
  66 C :   -0.049079
  67 C :   -0.031765
  68 N :   -0.034662
  69 C :    0.003831
  70 C :    0.035349
  71 C :    0.040996
  72 C :   -0.026315
  73 C :    0.014239
  74 C :   -0.046818
  75 C :   -0.005268
  76 C :   -0.030987
  77 N :   -0.040090
  78 C :   -0.032309
  79 C :   -0.019429
  80 H :    0.030913
  81 H :    0.037026
  82 H :    0.035647
  83 H :    0.033424
  84 H :    0.035368
  85 H :    0.030668
  86 H :    0.031163
  87 H :    0.033903
  88 H :    0.036232
  89 H :    0.034544
  90 H :    0.035380
  91 H :    0.026029
  92 H :    0.042043
  93 H :    0.042926
  94 H :    0.043237
  95 H :    0.038557
  96 H :    0.038764
  97 H :    0.035955
  98 H :    0.034559
  99 H :    0.037320
 100 H :    0.030661
 101 H :    0.033674
 102 H :    0.038122
 103 H :    0.035029
 104 H :    0.035006
 105 H :    0.034442
 106 H :    0.025946
 107 H :    0.030981

  Mayer bond orders larger than 0.100000
B(  0-C ,  1-C ) :   1.6916 B(  0-C ,  6-C ) :   1.0731 B(  0-C , 80-H ) :   1.0057
B(  1-C ,  2-C ) :   1.0698 B(  1-C , 81-H ) :   1.0127 B(  2-C ,  3-C ) :   1.0667
B(  2-C ,  5-C ) :   1.6841 B(  3-C ,  4-N ) :   3.0375 B(  5-C ,  6-C ) :   1.0607
B(  5-C , 82-H ) :   1.0120 B(  6-C ,  7-C ) :   1.5051 B(  7-C ,  8-C ) :   1.0407
B(  7-C , 11-C ) :   1.0714 B(  8-C ,  9-C ) :   1.6228 B(  8-C , 14-C ) :   1.0619
B(  9-C , 10-C ) :   1.0936 B(  9-C , 83-H ) :   1.0123 B( 10-C , 11-C ) :   1.6393
B( 10-C , 12-C ) :   1.0560 B( 11-C , 84-H ) :   1.0198 B( 12-C , 13-N ) :   3.0427
B( 14-C , 15-C ) :   1.7294 B( 14-C , 85-H ) :   0.9635 B( 15-C , 16-C ) :   1.0573
B( 15-C , 86-H ) :   0.9604 B( 16-C , 17-C ) :   1.6256 B( 16-C , 22-C ) :   1.0410
B( 17-C , 18-C ) :   1.0901 B( 17-C , 87-H ) :   1.0146 B( 18-C , 19-C ) :   1.0581
B( 18-C , 21-C ) :   1.6373 B( 19-C , 20-N ) :   3.0417 B( 21-C , 22-C ) :   1.0799
B( 21-C , 88-H ) :   1.0123 B( 22-C , 23-C ) :   1.5077 B( 23-C , 24-C ) :   1.0451
B( 23-C , 27-C ) :   1.0743 B( 24-C , 25-C ) :   1.6366 B( 24-C , 30-C ) :   1.0658
B( 25-C , 26-C ) :   1.0831 B( 25-C , 89-H ) :   1.0183 B( 26-C , 27-C ) :   1.6447
B( 26-C , 28-C ) :   1.0583 B( 27-C , 90-H ) :   1.0137 B( 28-C , 29-N ) :   3.0410
B( 30-C , 31-C ) :   1.7071 B( 30-C , 91-H ) :   0.9471 B( 31-C , 32-C ) :   1.1402
B( 31-C , 92-H ) :   0.9763 B( 32-C , 33-C ) :   1.4392 B( 32-C , 36-S ) :   1.0976
B( 33-C , 34-C ) :   1.2814 B( 33-C , 93-H ) :   1.0042 B( 34-C , 35-C ) :   1.4401
B( 34-C , 39-C ) :   0.9965 B( 35-C , 36-S ) :   1.1290 B( 35-C , 37-C ) :   1.1912
B( 37-C , 38-C ) :   1.4404 B( 37-C , 47-S ) :   1.1283 B( 38-C , 39-C ) :   0.9899
B( 38-C , 45-C ) :   1.2639 B( 39-C , 40-C ) :   1.7178 B( 40-C , 41-C ) :   1.1339
B( 40-C , 43-C ) :   1.1315 B( 41-C , 42-N ) :   2.9922 B( 43-C , 44-N ) :   2.9917
B( 45-C , 46-C ) :   1.4970 B( 45-C , 94-H ) :   1.0016 B( 46-C , 47-S ) :   1.1095
B( 46-C , 48-C ) :   0.9918 B( 48-C , 49-C ) :   1.6581 B( 48-C , 54-C ) :   1.0683
B( 49-C , 50-C ) :   1.0784 B( 49-C , 95-H ) :   1.0236 B( 50-C , 51-C ) :   1.0650
B( 50-C , 53-C ) :   1.6342 B( 51-C , 52-N ) :   3.0415 B( 53-C , 54-C ) :   1.0823
B( 53-C , 96-H ) :   1.0142 B( 54-C , 55-C ) :   1.4923 B( 55-C , 56-C ) :   1.0224
B( 55-C , 59-C ) :   1.1110 B( 56-C , 57-C ) :   1.5738 B( 56-C , 62-C ) :   1.1174
B( 57-C , 58-C ) :   1.1030 B( 57-C , 97-H ) :   1.0229 B( 58-C , 59-C ) :   1.6157
B( 58-C , 60-C ) :   1.0616 B( 59-C , 98-H ) :   1.0099 B( 60-C , 61-N ) :   3.0416
B( 62-C , 63-C ) :   1.6636 B( 62-C , 99-H ) :   0.9709 B( 63-C , 64-C ) :   1.0936
B( 63-C ,100-H ) :   0.9520 B( 64-C , 65-C ) :   1.6073 B( 64-C , 70-C ) :   1.0368
B( 65-C , 66-C ) :   1.0986 B( 65-C ,101-H ) :   1.0133 B( 66-C , 67-C ) :   1.0567
B( 66-C , 69-C ) :   1.6277 B( 67-C , 68-N ) :   3.0430 B( 69-C , 70-C ) :   1.0816
B( 69-C ,102-H ) :   1.0141 B( 70-C , 71-C ) :   1.5058 B( 71-C , 72-C ) :   1.0517
B( 71-C , 75-C ) :   1.0706 B( 72-C , 73-C ) :   1.6547 B( 72-C , 78-C ) :   1.0433
B( 73-C , 74-C ) :   1.0721 B( 73-C ,103-H ) :   1.0176 B( 74-C , 75-C ) :   1.6600
B( 74-C , 76-C ) :   1.0601 B( 75-C ,104-H ) :   1.0110 B( 76-C , 77-N ) :   3.0384
B( 78-C , 79-C ) :   1.9574 B( 78-C ,105-H ) :   0.9528 B( 79-C ,106-H ) :   0.9612
B( 79-C ,107-H ) :   0.9504

-----------------------------------------------------------------------------
         ABSORPTION SPECTRUM VIA TRANSITION ELECTRIC DIPOLE MOMENTS
-----------------------------------------------------------------------------
State   Energy  Wavelength   fosc         T2         TX        TY        TZ
        (cm-1)    (nm)                  (au**2)     (au)      (au)      (au)
-----------------------------------------------------------------------------
   0   10713.8    933.4   0.126467692   3.88608  -1.39709  -0.75653  -1.16700
   1   12063.7    828.9   0.192127953   5.24309   1.33323   1.68058  -0.80077
   2   12704.9    787.1   0.034451723   0.89272   0.22516  -0.63714   0.66036
   3   13514.1    740.0   0.025805766   0.62864   0.14489  -0.76852   0.13050
   4   13675.7    731.2   0.032866736   0.79120  -0.41086  -0.73008   0.29897
   5   13754.4    727.0   0.043217494   1.03441   0.92930   0.40785   0.06688
   6   14917.6    670.3   0.013794522   0.30443   0.39389   0.35434   0.15400
   7   16327.4    612.5   0.013075117   0.26364   0.18636  -0.46838   0.09758
   8   17320.1    577.4   0.003184007   0.06052   0.21867   0.08366   0.07553
   9   20128.4    496.8   0.004210059   0.06886   0.20252   0.16603  -0.01663
  10   20997.9    476.2   0.023347216   0.36604  -0.59872  -0.00124   0.08703
  11   21788.5    459.0   0.051005041   0.77066  -0.85801  -0.18286  -0.03233
  12   21818.6    458.3   0.009829038   0.14831   0.06670  -0.22220  -0.30738
  13   22416.1    446.1   0.000844486   0.01240   0.08832   0.06689  -0.01129
  14   23413.0    427.1   0.036983747   0.52003   0.61961   0.09704   0.35595
  15   23662.8    422.6   0.001364769   0.01899  -0.13652  -0.01814   0.00471
  16   24228.2    412.7   0.063627466   0.86457   0.07393   0.91470   0.14975
  17   24920.9    401.3   0.001542236   0.02037   0.08881   0.10891   0.02497
  18   25159.7    397.5   0.016496566   0.21586   0.30547  -0.09162   0.33786
  19   25429.5    393.2   0.016743577   0.21676  -0.22436   0.18083  -0.36569
  20   25948.8    385.4   0.028323183   0.35934  -0.38699   0.10997   0.44439
  21   26175.8    382.0   0.024079534   0.30285  -0.53450   0.08965   0.09551
  22   26445.6    378.1   0.028999449   0.36100  -0.09678  -0.53788   0.24965
  23   27034.4    369.9   0.069046226   0.84081  -0.43193  -0.60820   0.53323
  24   27163.6    368.1   0.074829314   0.90690   0.77415   0.51819  -0.19769
  25   27362.4    365.5   0.103404223   1.24411   0.54478  -0.26274   0.93717
  26   27824.3    359.4   0.003809212   0.04507  -0.15996   0.02408   0.13748
  27   28105.6    355.8   0.088575851   1.03753  -0.95592   0.31752   0.15140
  28   28411.2    352.0   0.019925747   0.23089  -0.33453   0.13921   0.31559
  29   28474.4    351.2   0.007317702   0.08460   0.17313   0.11434  -0.20385
  30   28809.3    347.1   0.777677357   8.88674   0.69195   2.89932   0.04372
  31   29150.5    343.0   0.017458103   0.19716  -0.05619  -0.35034  -0.26696
  32   29282.6    341.5   0.092346625   1.03821   0.35470   0.61007  -0.73499
  33   29455.4    339.5   0.036673054   0.40988   0.26691   0.58017  -0.04515
  34   29703.3    336.7   0.098671390   1.09361  -0.59086  -0.78151  -0.36571
  35   30217.7    330.9   0.182823803   1.99181   0.85181  -0.64502  -0.92206
  36   30505.0    327.8   0.184718686   1.99350  -0.37569  -0.93617   0.98790
  37   30925.5    323.4   0.756594208   8.05419   1.93936   1.94407   0.71670
  38   31231.7    320.2   0.251207516   2.64797  -0.43900  -0.46919   1.49503
  39   31509.4    317.4   0.582115746   6.08198  -1.90049   1.30633   0.87387
  40   31758.8    314.9   0.004231531   0.04386   0.07676  -0.19236  -0.03115
  41   31827.9    314.2   0.059837864   0.61893   0.43136   0.45525   0.47498
  42   31880.5    313.7   0.069482443   0.71751   0.10898  -0.55100  -0.63406
  43   32190.3    310.7   0.373899434   3.82388  -0.55513  -1.11272  -1.50916
  44   32426.2    308.4   0.223290100   2.26699  -0.10300  -0.19604  -1.48928
  45   32552.2    307.2   0.568635301   5.75081   0.62322  -0.43095   2.27524
  46   32670.1    306.1   0.258451136   2.60437   1.33863  -0.52998  -0.72908
  47   32951.1    303.5   0.029513511   0.29487  -0.25380   0.23678  -0.41760
  48   33276.0    300.5   0.173023964   1.71179   0.72487  -1.07774   0.15758
  49   33287.5    300.4   0.062448346   0.61761   0.49320  -0.60747   0.07306
  50   33851.6    295.4   0.000972192   0.00945  -0.08332   0.04632  -0.01919
  51   34113.7    293.1   0.058948222   0.56888   0.67221   0.32461  -0.10790
  52   34510.1    289.8   0.032376620   0.30886  -0.29761   0.44860  -0.13802
  53   34871.3    286.8   0.001527869   0.01442   0.08941  -0.02143   0.07727
  54   35067.5    285.2   0.537696428   5.04786  -2.18275  -0.48898  -0.21064
  55   35733.1    279.9   0.005734956   0.05284   0.09951   0.13090   0.16063
  56   35881.4    278.7   0.018663900   0.17124   0.34139   0.03959   0.23049
  57   36122.3    276.8   0.033071346   0.30141   0.49189   0.08002   0.23033
  58   36232.1    276.0   0.006522603   0.05927  -0.19595  -0.13355  -0.05507
  59   36314.5    275.4   0.014248271   0.12917  -0.27732  -0.03273  -0.22625
  60   36515.2    273.9   0.018531034   0.16707  -0.37012  -0.14809   0.09028
  61   36600.4    273.2   0.023410126   0.21057   0.29689   0.11594  -0.33012
  62   36823.2    271.6   0.497761498   4.45016   1.98006  -0.02816   0.72713
  63   37091.7    269.6   0.071358757   0.63335   0.78863   0.04543   0.09667
  64   37310.5    268.0   0.031107074   0.27448  -0.45719   0.21870   0.13275
  65   37345.4    267.8   0.028138386   0.24805   0.16034  -0.47006  -0.03724
  66   37388.9    267.5   0.001363290   0.01200   0.05271   0.02309   0.09323
  67   37515.2    266.6   0.105008733   0.92150   0.91344  -0.07511  -0.28546
  68   37541.6    266.4   0.470711390   4.12779  -1.87870   0.07098   0.77021
  69   37567.1    266.2   0.002462441   0.02158  -0.02828  -0.03349  -0.14021
  70   37926.0    263.7   0.026948097   0.23392  -0.35092  -0.08902  -0.32070
  71   37990.4    263.2   0.020691884   0.17931   0.37152   0.08904   0.18263
  72   38089.2    262.5   0.008009596   0.06923  -0.18175   0.06457  -0.17896
  73   38364.5    260.7   0.269267640   2.31063  -1.51809   0.06976  -0.03407
  74   38682.7    258.5   0.050718321   0.43164  -0.58843   0.06013  -0.28597
  75   38867.0    257.3   0.003371172   0.02855   0.16284   0.01494  -0.04259
  76   39048.3    256.1   0.034634691   0.29200   0.15497  -0.10047   0.50783
  77   39453.8    253.5   0.116488405   0.97201  -0.79868   0.25503  -0.51872
  78   39517.3    253.1   0.004202960   0.03501   0.13759   0.01892   0.12540
  79   39665.5    252.1   0.035363106   0.29350  -0.36956  -0.07370   0.38923
  80   39746.2    251.6   0.009517680   0.07883  -0.12912   0.03796  -0.24642
  81   40037.3    249.8   0.002210902   0.01818   0.10310  -0.07373   0.04596
  82   40259.5    248.4   0.058910114   0.48172   0.63565   0.27054  -0.06692
  83   40304.2    248.1   0.002019357   0.01649  -0.11746  -0.01095  -0.05077

FINAL SINGLE POINT ENERGY     -3947.147800416627

DIPOLE MOMENT
-------------
                                X             Y             Z
Electronic contribution:      4.64988     -15.42041      21.47880
Nuclear contribution   :     -5.23434      16.36901     -23.98297
                        -----------------------------------------
Total Dipole Moment    :     -0.58446       0.94860      -2.50417
                        -----------------------------------------
Magnitude (a.u.)       :      2.74086
Magnitude (Debye)      :      6.96670

Rotational constants in cm-1:     0.001057     0.000251     0.000228
Rotational constants in MHz :    31.686728     7.530917     6.834158

                             ****ORCA TERMINATED NORMALLY****
TOTAL RUN TIME: 0 days 0 hours 12 minutes 9 seconds 159 msec
