                         Program Version 4.2.0 -  RELEASE  -
|  1> # ORCA input file
|  2> # SCF done        -21.206018928909          0.000366745420
|  3> ! B3LYP/G D3BJ Opt RIJCOSX def2-SVP def2/J
|  4> * xyz 0 1
|  5>    C       -0.56887         1.11892         0.00201
|  6>    N        0.74952         1.18331         0.00668
|  7>    C        1.36519         0.00448         0.00901
|  8>    C        2.79619         0.00544         0.01407
|  9>    N        3.93927         0.00613         0.01814
| 10>    N        0.75110        -1.17517         0.00697
| 11>    C       -0.56738        -1.11254         0.00228
| 12>    N       -1.27823         0.00272        -0.00038
| 13>    H       -1.10910         2.05696        -0.00002
| 14>    H       -1.10636        -2.05130         0.00048
| 15> *
| 16>
| 17>                          ****END OF INPUT****
 Total Charge           Charge          ....    0
 Multiplicity           Mult            ....    1
 Number of Electrons    NEL             ....   54
Dispersion correction           -0.017650630
FINAL SINGLE POINT ENERGY      -372.332220918000
Dispersion correction            ... done
Dispersion correction           -0.017613299
FINAL SINGLE POINT ENERGY      -372.334039220438
Dispersion correction            ... done
Dispersion correction           -0.017604797
FINAL SINGLE POINT ENERGY      -372.334096685572
Dispersion correction            ... done
Dispersion correction           -0.017600404
FINAL SINGLE POINT ENERGY      -372.334108013037
Dispersion correction            ... done
                    ***********************HURRAY********************

CARTESIAN COORDINATES (ANGSTROEM)
---------------------------------
  C     -0.577196    1.127960    0.001963
  N      0.754761    1.191948    0.006608
  C      1.364558    0.004495    0.009106
  C      2.815215    0.005431    0.014167
  N      3.973561    0.006128    0.018252
  N      0.756362   -1.183771    0.006924
  C     -0.575680   -1.121582    0.002238
  N     -1.293311    0.002710   -0.000415
  H     -1.124874    2.077358   -0.000047
  H     -1.122066   -2.071727    0.000443

 Multiplicity           Mult            ....    1
 Number of Electrons    NEL             ....   54
 Basis Dimension        Dim             ....  122

ORBITAL ENERGIES
----------------

  NO   OCC          E(Eh)            E(eV)
   0   2.0000     -14.381560      -391.3421
   1   2.0000     -14.381515      -391.3409
   2   2.0000     -14.376730      -391.2107
   3   2.0000     -14.360308      -390.7638
   4   2.0000     -10.337058      -281.2856
   5   2.0000     -10.309241      -280.5287
   6   2.0000     -10.309144      -280.5261
   7   2.0000     -10.253295      -279.0063
   8   2.0000      -1.064896       -28.9773
   9   2.0000      -0.945448       -25.7269
  10   2.0000      -0.939366       -25.5615
  11   2.0000      -0.917836       -24.9756
  12   2.0000      -0.752564       -20.4783
  13   2.0000      -0.722457       -19.6590
  14   2.0000      -0.621005       -16.8984
  15   2.0000      -0.599000       -16.2996
  16   2.0000      -0.508329       -13.8323
  17   2.0000      -0.500831       -13.6283
  18   2.0000      -0.472732       -12.8637
  19   2.0000      -0.406491       -11.0612
  20   2.0000      -0.404511       -11.0073
  21   2.0000      -0.386818       -10.5258
  22   2.0000      -0.370697       -10.0872
  23   2.0000      -0.367832       -10.0092
  24   2.0000      -0.344827        -9.3832
  25   2.0000      -0.308059        -8.3827
  26   2.0000      -0.307567        -8.3693
  27   0.0000      -0.111173        -3.0252
  28   0.0000      -0.088497        -2.4081
  29   0.0000       0.008684         0.2363
  30   0.0000       0.032526         0.8851
  31   0.0000       0.071939         1.9576

MULLIKEN ATOMIC CHARGES
-----------------------
   0 C :    0.135507
   1 N :   -0.071964
   2 C :   -0.163137
   3 C :   -0.019131
   4 N :    0.101701
   5 N :   -0.071960
   6 C :    0.135527
   7 N :   -0.125890
   8 H :    0.039681
   9 H :    0.039666
Sum of atomic charges:   -0.0000000

LOEWDIN ATOMIC CHARGES
----------------------
   0 C :    0.090208
   1 N :   -0.071056
   2 C :    0.017526
   3 C :   -0.019504
   4 N :   -0.011713
   5 N :   -0.071051
   6 C :    0.090216
   7 N :   -0.088629
   8 H :    0.032002
   9 H :    0.032001

  Mayer bond orders larger than 0.100000
B(  0-C ,  1-N ) :   1.4709 B(  0-C ,  7-N ) :   1.4999 B(  0-C ,  8-H ) :   0.9714
B(  1-N ,  2-C ) :   1.5701 B(  2-C ,  3-C ) :   1.0242 B(  2-C ,  5-N ) :   1.5701
B(  3-C ,  4-N ) :   3.0483 B(  5-N ,  6-C ) :   1.4709 B(  6-C ,  7-N ) :   1.4998
B(  6-C ,  9-H ) :   0.9714

Dispersion correction           -0.017600187
FINAL SINGLE POINT ENERGY      -372.334108161831

DIPOLE MOMENT
-------------
                                X             Y             Z
Electronic contribution:      2.39458       0.00162       0.00853
Nuclear contribution   :     -3.74554      -0.00249      -0.01323
                        -----------------------------------------
Total Dipole Moment    :     -1.35096      -0.00088      -0.00470
                        -----------------------------------------
Magnitude (a.u.)       :      1.35097
Magnitude (Debye)      :      3.43389

Rotational constants in cm-1:     0.214488     0.054823     0.043663
Rotational constants in MHz :  6430.188913  1643.551796  1308.977949

                             ****ORCA TERMINATED NORMALLY****
TOTAL RUN TIME: 0 days 0 hours 1 minutes 47 seconds 480 msec
