                         Program Version 4.2.0 -  RELEASE  -
|  1> # ORCA input file
|  2> # SCF done       -185.818614208786          0.000603812738
|  3> ! CAM-B3LYP def2-SVP def2/J RIJCOSX Grid4 TightSCF
|  4> %maxcore 5000
|  5> %tddft
|  6>     Mode sTDDFT
|  7>     Ethresh 5.0
|  8>     maxcore 5000
|  9> end
| 10>
| 11> %pal
| 12>   nprocs 6
| 13>   end
| 14> * xyz 0 1
| 15>    C      -12.76900         3.33598         2.12959
| 16>    C      -13.35836         2.35016         2.87879
| 17>    C      -14.25940         2.58863         3.93599
| 18>    N      -14.99549         2.72502         4.80638
| 19>    C      -13.13554         0.97244         2.68162
| 20>    N      -12.97913        -0.15777         2.55435
| 21>    C      -12.96944         4.77378         2.29840
| 22>    C      -12.18899         5.46401         1.33470
| 23>    C      -12.16483         6.83465         1.24277
| 24>    C      -12.94807         7.56222         2.14485
| 25>    C      -13.72344         6.86645         3.10255
| 26>    C      -13.74766         5.47906         3.19515
| 27>    S      -14.61411         7.95785         4.11790
| 28>    C      -13.94239         9.31614         3.25506
| 29>    C      -13.09443         8.97176         2.25660
| 30>   Br      -14.42379        11.05910         3.75217
| 31>    C      -11.46532         4.48088         0.52178
| 32>    O      -10.69440         4.70544        -0.40917
| 33>    C      -11.84114         3.16291         1.03708
| 34>    C      -11.32746         2.00741         0.49352
| 35>    N      -10.46151         2.08456        -0.52039
| 36>    C       -9.84860         1.07165        -1.18108
| 37>    S      -10.14667        -0.59377        -0.79340
| 38>    C       -9.02011        -1.05247        -2.02850
| 39>    N       -8.79691        -2.42012        -2.23947
| 40>    O       -8.00558        -2.73367        -3.10909
| 41>    O       -9.41678        -3.19406        -1.53242
| 42>    C       -8.45654         0.00739        -2.68665
| 43>    C       -8.91958         1.25164        -2.21624
| 44>    C       -8.52411         2.54611        -2.70296
| 45>    C       -7.52566         2.77319        -3.57626
| 46>    C       -7.11662         4.07029        -4.06390
| 47>    C       -5.89921         4.16880        -4.75848
| 48>    C       -5.46408         5.38923        -5.21499
| 49>    C       -6.22745         6.54501        -4.96892
| 50>    C       -7.44339         6.45895        -4.30555
| 51>    C       -7.88023         5.22826        -3.86354
| 52>    C       -5.50220         7.69445        -5.45829
| 53>    C       -4.28213         7.25572        -5.99966
| 54>    C       -4.19566         5.74310        -5.95939
| 55>    C       -2.93804         5.25215        -5.22774
| 56>    C       -2.81577         5.84177        -3.82706
| 57>    C       -4.23361         5.25113        -7.42551
| 58>    C       -4.33141         3.74359        -7.61875
| 59>    C       -3.37185         8.15468        -6.49755
| 60>    C       -3.66139         9.52802        -6.46019
| 61>    C       -4.89332         9.94477        -5.93270
| 62>    C       -5.81157         9.04703        -5.43191
| 63>    C       -2.74739        10.53762        -6.93057
| 64>    C       -1.49365        10.35754        -7.39253
| 65>    C       -0.64445        11.41822        -7.81499
| 66>    C        0.65235        11.32272        -8.27752
| 67>    C        1.22863        12.54998        -8.60245
| 68>    C        0.38683        13.62490        -8.39879
| 69>    S       -1.15295        13.08320        -7.79019
| 70>    C        0.59442        15.01746        -8.60391
| 71>    C        1.74241        15.57892        -9.04360
| 72>    C        1.94250        16.97821        -9.24952
| 73>    C        3.12159        17.56593        -9.68188
| 74>    C        2.92902        18.97718        -9.77151
| 75>    C        3.76824        19.99555       -10.14623
| 76>    C        3.25344        21.30703       -10.13090
| 77>    C        3.83122        22.52504       -10.45129
| 78>    C        2.86314        23.56515       -10.26723
| 79>    C        1.68942        22.98189        -9.83209
| 80>    C        1.88496        21.56702        -9.73129
| 81>    C        1.04671        20.55256        -9.35428
| 82>    C        1.56102        19.23850        -9.37026
| 83>    C        0.97797        18.02413        -9.05657
| 84>    C        3.05754        24.97720       -10.49249
| 85>    C        4.18378        25.54829       -10.91066
| 86>    H      -11.56062         7.33116         0.49980
| 87>    H      -14.35456         4.99664         3.94286
| 88>    H      -12.59222         9.68134         1.62474
| 89>    H      -11.59234         1.02218         0.85455
| 90>    H      -10.25173         3.05945        -0.80718
| 91>    H       -7.74741        -0.12940        -3.48179
| 92>    H       -9.07426         3.38940        -2.31234
| 93>    H       -6.93970         1.93928        -3.93911
| 94>    H       -5.30381         3.27815        -4.89709
| 95>    H       -8.03579         7.34419        -4.12890
| 96>    H       -8.82853         5.16513        -3.35316
| 97>    H       -2.05875         5.52477        -5.81523
| 98>    H       -2.96737         4.16425        -5.15362
| 99>    H       -2.75441         6.92699        -3.87024
|100>    H       -1.92029         5.46503        -3.33777
|101>    H       -3.67874         5.57212        -3.22166
|102>    H       -3.33113         5.61670        -7.92082
|103>    H       -5.09033         5.72309        -7.91418
|104>    H       -3.50369         3.22676        -7.14009
|105>    H       -4.30034         3.51495        -8.68205
|106>    H       -5.26715         3.36155        -7.22001
|107>    H       -2.43540         7.81169        -6.91003
|108>    H       -5.11682        11.00201        -5.91424
|109>    H       -6.75050         9.39078        -5.02398
|110>    H       -3.12021        11.55451        -6.88516
|111>    H       -1.05540         9.37074        -7.45595
|112>    H        1.16305        10.38006        -8.37310
|113>    H        2.23116        12.65273        -8.97686
|114>    H       -0.25454        15.64695        -8.37589
|115>    H        2.59334        14.94796        -9.26336
|116>    H        4.03594        17.05094        -9.91433
|117>    H        4.79034        19.81052       -10.44641
|118>    H        4.84240        22.67096       -10.78499
|119>    H        0.77263        23.49467        -9.60381
|120>    H        0.02439        20.73702        -9.05425
|121>    H       -0.03455        17.88318        -8.72465
|122>    H        2.18802        25.59243       -10.29501
|123>    H        5.07287        24.97961       -11.12295
|124>    H        4.25393        26.61182       -11.05993
|125> *
|126>
|127>                          ****END OF INPUT****

CARTESIAN COORDINATES (ANGSTROEM)
---------------------------------
  C    -12.769000    3.335980    2.129590
  C    -13.358360    2.350160    2.878790
  C    -14.259400    2.588630    3.935990
  N    -14.995490    2.725020    4.806380
  C    -13.135540    0.972440    2.681620
  N    -12.979130   -0.157770    2.554350
  C    -12.969440    4.773780    2.298400
  C    -12.188990    5.464010    1.334700
  C    -12.164830    6.834650    1.242770
  C    -12.948070    7.562220    2.144850
  C    -13.723440    6.866450    3.102550
  C    -13.747660    5.479060    3.195150
  S    -14.614110    7.957850    4.117900
  C    -13.942390    9.316140    3.255060
  C    -13.094430    8.971760    2.256600
  Br   -14.423790   11.059100    3.752170
  C    -11.465320    4.480880    0.521780
  O    -10.694400    4.705440   -0.409170
  C    -11.841140    3.162910    1.037080
  C    -11.327460    2.007410    0.493520
  N    -10.461510    2.084560   -0.520390
  C     -9.848600    1.071650   -1.181080
  S    -10.146670   -0.593770   -0.793400
  C     -9.020110   -1.052470   -2.028500
  N     -8.796910   -2.420120   -2.239470
  O     -8.005580   -2.733670   -3.109090
  O     -9.416780   -3.194060   -1.532420
  C     -8.456540    0.007390   -2.686650
  C     -8.919580    1.251640   -2.216240
  C     -8.524110    2.546110   -2.702960
  C     -7.525660    2.773190   -3.576260
  C     -7.116620    4.070290   -4.063900
  C     -5.899210    4.168800   -4.758480
  C     -5.464080    5.389230   -5.214990
  C     -6.227450    6.545010   -4.968920
  C     -7.443390    6.458950   -4.305550
  C     -7.880230    5.228260   -3.863540
  C     -5.502200    7.694450   -5.458290
  C     -4.282130    7.255720   -5.999660
  C     -4.195660    5.743100   -5.959390
  C     -2.938040    5.252150   -5.227740
  C     -2.815770    5.841770   -3.827060
  C     -4.233610    5.251130   -7.425510
  C     -4.331410    3.743590   -7.618750
  C     -3.371850    8.154680   -6.497550
  C     -3.661390    9.528020   -6.460190
  C     -4.893320    9.944770   -5.932700
  C     -5.811570    9.047030   -5.431910
  C     -2.747390   10.537620   -6.930570
  C     -1.493650   10.357540   -7.392530
  C     -0.644450   11.418220   -7.814990
  C      0.652350   11.322720   -8.277520
  C      1.228630   12.549980   -8.602450
  C      0.386830   13.624900   -8.398790
  S     -1.152950   13.083200   -7.790190
  C      0.594420   15.017460   -8.603910
  C      1.742410   15.578920   -9.043600
  C      1.942500   16.978210   -9.249520
  C      3.121590   17.565930   -9.681880
  C      2.929020   18.977180   -9.771510
  C      3.768240   19.995550  -10.146230
  C      3.253440   21.307030  -10.130900
  C      3.831220   22.525040  -10.451290
  C      2.863140   23.565150  -10.267230
  C      1.689420   22.981890   -9.832090
  C      1.884960   21.567020   -9.731290
  C      1.046710   20.552560   -9.354280
  C      1.561020   19.238500   -9.370260
  C      0.977970   18.024130   -9.056570
  C      3.057540   24.977200  -10.492490
  C      4.183780   25.548290  -10.910660
  H    -11.560620    7.331160    0.499800
  H    -14.354560    4.996640    3.942860
  H    -12.592220    9.681340    1.624740
  H    -11.592340    1.022180    0.854550
  H    -10.251730    3.059450   -0.807180
  H     -7.747410   -0.129400   -3.481790
  H     -9.074260    3.389400   -2.312340
  H     -6.939700    1.939280   -3.939110
  H     -5.303810    3.278150   -4.897090
  H     -8.035790    7.344190   -4.128900
  H     -8.828530    5.165130   -3.353160
  H     -2.058750    5.524770   -5.815230
  H     -2.967370    4.164250   -5.153620
  H     -2.754410    6.926990   -3.870240
  H     -1.920290    5.465030   -3.337770
  H     -3.678740    5.572120   -3.221660
  H     -3.331130    5.616700   -7.920820
  H     -5.090330    5.723090   -7.914180
  H     -3.503690    3.226760   -7.140090
  H     -4.300340    3.514950   -8.682050
  H     -5.267150    3.361550   -7.220010
  H     -2.435400    7.811690   -6.910030
  H     -5.116820   11.002010   -5.914240
  H     -6.750500    9.390780   -5.023980
  H     -3.120210   11.554510   -6.885160
  H     -1.055400    9.370740   -7.455950
  H      1.163050   10.380060   -8.373100
  H      2.231160   12.652730   -8.976860
  H     -0.254540   15.646950   -8.375890
  H      2.593340   14.947960   -9.263360
  H      4.035940   17.050940   -9.914330
  H      4.790340   19.810520  -10.446410
  H      4.842400   22.670960  -10.784990
  H      0.772630   23.494670   -9.603810
  H      0.024390   20.737020   -9.054250
  H     -0.034550   17.883180   -8.724650
  H      2.188020   25.592430  -10.295010
  H      5.072870   24.979610  -11.122950
  H      4.253930   26.611820  -11.059930

 Total Charge           Charge          ....    0
 Multiplicity           Mult            ....    1
 Number of Electrons    NEL             ....  534
 Basis Dimension        Dim             .... 1219

ORBITAL ENERGIES
----------------

  NO   OCC          E(Eh)            E(eV)
   0   2.0000    -482.890374    -13140.1151
   1   2.0000     -88.990368     -2421.5510
   2   2.0000     -88.981793     -2421.3177
   3   2.0000     -88.944590     -2420.3053
   4   2.0000     -62.568061     -1702.5635
   5   2.0000     -56.402019     -1534.7770
   6   2.0000     -56.399290     -1534.7027
   7   2.0000     -56.399260     -1534.7019
   8   2.0000     -19.239900      -523.5443
   9   2.0000     -19.238794      -523.5142
  10   2.0000     -19.237251      -523.4722
  11   2.0000     -14.651165      -398.6785
  12   2.0000     -14.497848      -394.5065
  13   2.0000     -14.421890      -392.4396
  14   2.0000     -14.417645      -392.3241
  15   2.0000     -10.383568      -282.5513
  16   2.0000     -10.372975      -282.2630
  17   2.0000     -10.370937      -282.2075
  18   2.0000     -10.364437      -282.0307
  19   2.0000     -10.349489      -281.6239
  20   2.0000     -10.348391      -281.5940
  21   2.0000     -10.345015      -281.5022
  22   2.0000     -10.331915      -281.1457
  23   2.0000     -10.324237      -280.9368
  24   2.0000     -10.320874      -280.8452
  25   2.0000     -10.315335      -280.6945
  26   2.0000     -10.313816      -280.6532
  27   2.0000     -10.312080      -280.6060
  28   2.0000     -10.311695      -280.5955
  29   2.0000     -10.309974      -280.5487
  30   2.0000     -10.307555      -280.4828
  31   2.0000     -10.302481      -280.3447
  32   2.0000     -10.301841      -280.3274
  33   2.0000     -10.301789      -280.3259
  34   2.0000     -10.295809      -280.1632
  35   2.0000     -10.295306      -280.1495
  36   2.0000     -10.293634      -280.1040
  37   2.0000     -10.291361      -280.0422
  38   2.0000     -10.288677      -279.9691
  39   2.0000     -10.286724      -279.9160
  40   2.0000     -10.280935      -279.7585
  41   2.0000     -10.280912      -279.7578
  42   2.0000     -10.280873      -279.7568
  43   2.0000     -10.279238      -279.7123
  44   2.0000     -10.275960      -279.6231
  45   2.0000     -10.275755      -279.6175
  46   2.0000     -10.272964      -279.5416
  47   2.0000     -10.272938      -279.5408
  48   2.0000     -10.272797      -279.5370
  49   2.0000     -10.272389      -279.5259
  50   2.0000     -10.272144      -279.5193
  51   2.0000     -10.271418      -279.4995
  52   2.0000     -10.269803      -279.4555
  53   2.0000     -10.269697      -279.4527
  54   2.0000     -10.268961      -279.4326
  55   2.0000     -10.268622      -279.4234
  56   2.0000     -10.268118      -279.4097
  57   2.0000     -10.267744      -279.3995
  58   2.0000     -10.267318      -279.3879
  59   2.0000     -10.267286      -279.3870
  60   2.0000     -10.267081      -279.3815
  61   2.0000     -10.267024      -279.3799
  62   2.0000     -10.266755      -279.3726
  63   2.0000     -10.266419      -279.3635
  64   2.0000     -10.265185      -279.3299
  65   2.0000     -10.264216      -279.3035
  66   2.0000     -10.263917      -279.2954
  67   2.0000     -10.263700      -279.2895
  68   2.0000     -10.263055      -279.2719
  69   2.0000     -10.262616      -279.2600
  70   2.0000     -10.262436      -279.2551
  71   2.0000     -10.262257      -279.2502
  72   2.0000     -10.255927      -279.0780
  73   2.0000     -10.252940      -278.9967
  74   2.0000     -10.247030      -278.8359
  75   2.0000      -8.797487      -239.3918
  76   2.0000      -8.085578      -220.0198
  77   2.0000      -8.077674      -219.8047
  78   2.0000      -8.040398      -218.7903
  79   2.0000      -6.633793      -180.5147
  80   2.0000      -6.619216      -180.1180
  81   2.0000      -6.619009      -180.1124
  82   2.0000      -6.055174      -164.7697
  83   2.0000      -6.050903      -164.6534
  84   2.0000      -6.047343      -164.5566
  85   2.0000      -6.047065      -164.5490
  86   2.0000      -6.043066      -164.4402
  87   2.0000      -6.038962      -164.3285
  88   2.0000      -6.009525      -163.5275
  89   2.0000      -6.005669      -163.4226
  90   2.0000      -6.002585      -163.3386
  91   2.0000      -2.749699       -74.8231
  92   2.0000      -2.745533       -74.7097
  93   2.0000      -2.745425       -74.7068
  94   2.0000      -2.733817       -74.3909
  95   2.0000      -2.733801       -74.3905
  96   2.0000      -1.320914       -35.9439
  97   2.0000      -1.151672       -31.3386
  98   2.0000      -1.139955       -31.0197
  99   2.0000      -1.105537       -30.0832
 100   2.0000      -1.029408       -28.0116
 101   2.0000      -1.018719       -27.7207
 102   2.0000      -1.011208       -27.5164
 103   2.0000      -0.999233       -27.1905
 104   2.0000      -0.995481       -27.0884
 105   2.0000      -0.987243       -26.8643
 106   2.0000      -0.983861       -26.7722
 107   2.0000      -0.975166       -26.5356
 108   2.0000      -0.957844       -26.0643
 109   2.0000      -0.948347       -25.8058
 110   2.0000      -0.947581       -25.7850
 111   2.0000      -0.926851       -25.2209
 112   2.0000      -0.916855       -24.9489
 113   2.0000      -0.914811       -24.8933
 114   2.0000      -0.902029       -24.5455
 115   2.0000      -0.901159       -24.5218
 116   2.0000      -0.892511       -24.2864
 117   2.0000      -0.891241       -24.2519
 118   2.0000      -0.884777       -24.0760
 119   2.0000      -0.876058       -23.8388
 120   2.0000      -0.864023       -23.5113
 121   2.0000      -0.859802       -23.3964
 122   2.0000      -0.854427       -23.2501
 123   2.0000      -0.847158       -23.0523
 124   2.0000      -0.839894       -22.8547
 125   2.0000      -0.836652       -22.7665
 126   2.0000      -0.836135       -22.7524
 127   2.0000      -0.833843       -22.6900
 128   2.0000      -0.830088       -22.5878
 129   2.0000      -0.820153       -22.3175
 130   2.0000      -0.810537       -22.0558
 131   2.0000      -0.798915       -21.7396
 132   2.0000      -0.793830       -21.6012
 133   2.0000      -0.784101       -21.3365
 134   2.0000      -0.769100       -20.9283
 135   2.0000      -0.764478       -20.8025
 136   2.0000      -0.764127       -20.7930
 137   2.0000      -0.754319       -20.5261
 138   2.0000      -0.741018       -20.1641
 139   2.0000      -0.737067       -20.0566
 140   2.0000      -0.731051       -19.8929
 141   2.0000      -0.719108       -19.5679
 142   2.0000      -0.716400       -19.4942
 143   2.0000      -0.704992       -19.1838
 144   2.0000      -0.696480       -18.9522
 145   2.0000      -0.692687       -18.8490
 146   2.0000      -0.688152       -18.7256
 147   2.0000      -0.681010       -18.5312
 148   2.0000      -0.677137       -18.4258
 149   2.0000      -0.672177       -18.2909
 150   2.0000      -0.665514       -18.1096
 151   2.0000      -0.664467       -18.0811
 152   2.0000      -0.657129       -17.8814
 153   2.0000      -0.652022       -17.7424
 154   2.0000      -0.649257       -17.6672
 155   2.0000      -0.638431       -17.3726
 156   2.0000      -0.637199       -17.3391
 157   2.0000      -0.633624       -17.2418
 158   2.0000      -0.632497       -17.2111
 159   2.0000      -0.626243       -17.0409
 160   2.0000      -0.624958       -17.0060
 161   2.0000      -0.619917       -16.8688
 162   2.0000      -0.618970       -16.8430
 163   2.0000      -0.609678       -16.5902
 164   2.0000      -0.607284       -16.5250
 165   2.0000      -0.598838       -16.2952
 166   2.0000      -0.597500       -16.2588
 167   2.0000      -0.591939       -16.1075
 168   2.0000      -0.585777       -15.9398
 169   2.0000      -0.584247       -15.8982
 170   2.0000      -0.579364       -15.7653
 171   2.0000      -0.575581       -15.6624
 172   2.0000      -0.572316       -15.5735
 173   2.0000      -0.567492       -15.4422
 174   2.0000      -0.561817       -15.2878
 175   2.0000      -0.561124       -15.2690
 176   2.0000      -0.560315       -15.2470
 177   2.0000      -0.553017       -15.0484
 178   2.0000      -0.544644       -14.8205
 179   2.0000      -0.543341       -14.7850
 180   2.0000      -0.541091       -14.7238
 181   2.0000      -0.540273       -14.7016
 182   2.0000      -0.538354       -14.6494
 183   2.0000      -0.535117       -14.5613
 184   2.0000      -0.531187       -14.4543
 185   2.0000      -0.530609       -14.4386
 186   2.0000      -0.529507       -14.4086
 187   2.0000      -0.524905       -14.2834
 188   2.0000      -0.521233       -14.1835
 189   2.0000      -0.517300       -14.0764
 190   2.0000      -0.515620       -14.0307
 191   2.0000      -0.514394       -13.9974
 192   2.0000      -0.512430       -13.9439
 193   2.0000      -0.508221       -13.8294
 194   2.0000      -0.503630       -13.7045
 195   2.0000      -0.502908       -13.6848
 196   2.0000      -0.502473       -13.6730
 197   2.0000      -0.496659       -13.5148
 198   2.0000      -0.494831       -13.4650
 199   2.0000      -0.491502       -13.3745
 200   2.0000      -0.491309       -13.3692
 201   2.0000      -0.486284       -13.2325
 202   2.0000      -0.482825       -13.1383
 203   2.0000      -0.479854       -13.0575
 204   2.0000      -0.476755       -12.9732
 205   2.0000      -0.474709       -12.9175
 206   2.0000      -0.472180       -12.8487
 207   2.0000      -0.469077       -12.7642
 208   2.0000      -0.467253       -12.7146
 209   2.0000      -0.465554       -12.6684
 210   2.0000      -0.464937       -12.6516
 211   2.0000      -0.463006       -12.5990
 212   2.0000      -0.458507       -12.4766
 213   2.0000      -0.455779       -12.4024
 214   2.0000      -0.454885       -12.3780
 215   2.0000      -0.453859       -12.3501
 216   2.0000      -0.452947       -12.3253
 217   2.0000      -0.451087       -12.2747
 218   2.0000      -0.450407       -12.2562
 219   2.0000      -0.447800       -12.1853
 220   2.0000      -0.447176       -12.1683
 221   2.0000      -0.445027       -12.1098
 222   2.0000      -0.443664       -12.0727
 223   2.0000      -0.441437       -12.0121
 224   2.0000      -0.439272       -11.9532
 225   2.0000      -0.434088       -11.8121
 226   2.0000      -0.431964       -11.7544
 227   2.0000      -0.431863       -11.7516
 228   2.0000      -0.431555       -11.7432
 229   2.0000      -0.423189       -11.5156
 230   2.0000      -0.422039       -11.4843
 231   2.0000      -0.419949       -11.4274
 232   2.0000      -0.417744       -11.3674
 233   2.0000      -0.417532       -11.3616
 234   2.0000      -0.415299       -11.3008
 235   2.0000      -0.414650       -11.2832
 236   2.0000      -0.410764       -11.1775
 237   2.0000      -0.403458       -10.9786
 238   2.0000      -0.402875       -10.9628
 239   2.0000      -0.400913       -10.9094
 240   2.0000      -0.394607       -10.7378
 241   2.0000      -0.392997       -10.6940
 242   2.0000      -0.386889       -10.5278
 243   2.0000      -0.386357       -10.5133
 244   2.0000      -0.385180       -10.4813
 245   2.0000      -0.379660       -10.3311
 246   2.0000      -0.379055       -10.3146
 247   2.0000      -0.378918       -10.3109
 248   2.0000      -0.376526       -10.2458
 249   2.0000      -0.368371       -10.0239
 250   2.0000      -0.367122        -9.9899
 251   2.0000      -0.362957        -9.8766
 252   2.0000      -0.360070        -9.7980
 253   2.0000      -0.348819        -9.4918
 254   2.0000      -0.343446        -9.3456
 255   2.0000      -0.326561        -8.8862
 256   2.0000      -0.323935        -8.8147
 257   2.0000      -0.321180        -8.7398
 258   2.0000      -0.316433        -8.6106
 259   2.0000      -0.313742        -8.5373
 260   2.0000      -0.305757        -8.3201
 261   2.0000      -0.299608        -8.1528
 262   2.0000      -0.286925        -7.8076
 263   2.0000      -0.265662        -7.2290
 264   2.0000      -0.264574        -7.1994
 265   2.0000      -0.246972        -6.7205
 266   2.0000      -0.219733        -5.9792
 267   0.0000      -0.091495        -2.4897
 268   0.0000      -0.090908        -2.4737
 269   0.0000      -0.072982        -1.9859
 270   0.0000      -0.050889        -1.3848
 271   0.0000      -0.041248        -1.1224

MULLIKEN ATOMIC CHARGES
-----------------------
   0 C :    0.324777
   1 C :   -0.342962
   2 C :   -0.184479
   3 N :    0.150445
   4 C :   -0.197946
   5 N :    0.146773
   6 C :    0.009302
   7 C :   -0.006081
   8 C :   -0.065775
   9 C :    0.115048
  10 C :   -0.096318
  11 C :   -0.017501
  12 S :    0.192636
  13 C :   -0.124826
  14 C :    0.041282
  15 Br:    0.027551
  16 C :    0.167231
  17 O :   -0.228913
  18 C :   -0.131974
  19 C :    0.028319
  20 N :   -0.000101
  21 C :   -0.130703
  22 S :    0.177647
  23 C :    0.002872
  24 N :    0.275928
  25 O :   -0.248572
  26 O :   -0.254727
  27 C :   -0.001164
  28 C :    0.146830
  29 C :   -0.032647
  30 C :    0.002557
  31 C :    0.120809
  32 C :   -0.113243
  33 C :    0.028569
  34 C :    0.104440
  35 C :   -0.052632
  36 C :   -0.015160
  37 C :    0.094764
  38 C :    0.016099
  39 C :   -0.128080
  40 C :    0.048867
  41 C :    0.026085
  42 C :    0.080945
  43 C :    0.030488
  44 C :   -0.091150
  45 C :    0.134733
  46 C :   -0.026186
  47 C :   -0.043681
  48 C :   -0.032434
  49 C :    0.047876
  50 C :   -0.051847
  51 C :    0.005037
  52 C :    0.012156
  53 C :   -0.070949
  54 S :    0.096486
  55 C :    0.059283
  56 C :    0.011875
  57 C :    0.077263
  58 C :   -0.041277
  59 C :    0.063059
  60 C :   -0.004551
  61 C :    0.043776
  62 C :   -0.021817
  63 C :    0.062793
  64 C :   -0.032308
  65 C :    0.059406
  66 C :   -0.003684
  67 C :    0.049984
  68 C :   -0.029721
  69 C :    0.009777
  70 C :   -0.025238
  71 H :   -0.010875
  72 H :   -0.003285
  73 H :   -0.002662
  74 H :    0.046553
  75 H :    0.185410
  76 H :    0.013794
  77 H :   -0.011198
  78 H :   -0.026005
  79 H :   -0.039130
  80 H :   -0.036485
  81 H :   -0.023726
  82 H :   -0.003337
  83 H :    0.006626
  84 H :    0.023355
  85 H :    0.008187
  86 H :    0.018840
  87 H :   -0.004546
  88 H :    0.005392
  89 H :    0.003362
  90 H :    0.013735
  91 H :    0.016170
  92 H :   -0.047513
  93 H :   -0.029762
  94 H :   -0.039439
  95 H :   -0.019214
  96 H :   -0.019877
  97 H :   -0.023962
  98 H :   -0.022821
  99 H :   -0.029272
 100 H :   -0.029095
 101 H :   -0.032320
 102 H :   -0.028502
 103 H :   -0.026642
 104 H :   -0.030445
 105 H :   -0.028324
 106 H :   -0.024616
 107 H :   -0.020218
 108 H :    0.006776
 109 H :    0.019950
Sum of atomic charges:   -0.0000000

LOEWDIN ATOMIC CHARGES
----------------------
   0 C :    0.078772
   1 C :   -0.148804
   2 C :   -0.019770
   3 N :   -0.053974
   4 C :   -0.020646
   5 N :   -0.052804
   6 C :   -0.017700
   7 C :   -0.051456
   8 C :    0.023868
   9 C :   -0.034083
  10 C :   -0.143796
  11 C :   -0.007159
  12 S :    0.438296
  13 C :   -0.271226
  14 C :   -0.070148
  15 Br:    0.139636
  16 C :    0.097118
  17 O :   -0.180815
  18 C :   -0.148917
  19 C :    0.112788
  20 N :    0.082926
  21 C :   -0.119631
  22 S :    0.470197
  23 C :   -0.199603
  24 N :    0.273401
  25 O :   -0.214198
  26 O :   -0.222025
  27 C :    0.002427
  28 C :   -0.077989
  29 C :   -0.040238
  30 C :    0.000261
  31 C :   -0.031847
  32 C :   -0.019673
  33 C :    0.002051
  34 C :   -0.010494
  35 C :   -0.018680
  36 C :   -0.011505
  37 C :   -0.023429
  38 C :    0.008362
  39 C :   -0.034247
  40 C :   -0.016015
  41 C :   -0.056619
  42 C :   -0.008961
  43 C :   -0.059445
  44 C :   -0.019569
  45 C :   -0.019973
  46 C :   -0.020737
  47 C :   -0.018806
  48 C :   -0.032343
  49 C :   -0.034909
  50 C :   -0.172402
  51 C :   -0.054819
  52 C :   -0.062899
  53 C :   -0.162647
  54 S :    0.422103
  55 C :   -0.054669
  56 C :   -0.010706
  57 C :   -0.057188
  58 C :    0.001810
  59 C :   -0.056288
  60 C :    0.064625
  61 C :   -0.061745
  62 C :    0.041459
  63 C :   -0.058040
  64 C :    0.007007
  65 C :   -0.055489
  66 C :    0.065129
  67 C :   -0.059470
  68 C :    0.036495
  69 C :   -0.020417
  70 C :   -0.056313
  71 H :    0.041075
  72 H :    0.042350
  73 H :    0.039015
  74 H :    0.036946
  75 H :    0.084038
  76 H :    0.045145
  77 H :    0.027094
  78 H :    0.026659
  79 H :    0.023232
  80 H :    0.026878
  81 H :    0.027429
  82 H :    0.019664
  83 H :    0.019497
  84 H :    0.025950
  85 H :    0.023535
  86 H :    0.025126
  87 H :    0.019839
  88 H :    0.027024
  89 H :    0.019788
  90 H :    0.028103
  91 H :    0.023070
  92 H :    0.021219
  93 H :    0.025636
  94 H :    0.025521
  95 H :    0.019222
  96 H :    0.029961
  97 H :    0.027620
  98 H :    0.026419
  99 H :    0.022367
 100 H :    0.027811
 101 H :    0.022038
 102 H :    0.033539
 103 H :    0.023904
 104 H :    0.022777
 105 H :    0.033601
 106 H :    0.023082
 107 H :    0.028991
 108 H :    0.017394
 109 H :    0.024040

  Mayer bond orders larger than 0.100000
B(  0-C ,  1-C ) :   1.6254 B(  0-C ,  6-C ) :   1.0029 B(  0-C , 18-C ) :   1.1016
B(  1-C ,  2-C ) :   1.1437 B(  1-C ,  4-C ) :   1.1489 B(  2-C ,  3-N ) :   2.9676
B(  4-C ,  5-N ) :   2.9551 B(  6-C ,  7-C ) :   1.2738 B(  6-C , 11-C ) :   1.4279
B(  7-C ,  8-C ) :   1.4263 B(  7-C , 16-C ) :   0.9820 B(  8-C ,  9-C ) :   1.2421
B(  8-C , 71-H ) :   1.0172 B(  9-C , 10-C ) :   1.3108 B(  9-C , 14-C ) :   1.1643
B( 10-C , 11-C ) :   1.3202 B( 10-C , 12-S ) :   1.0902 B( 11-C , 72-H ) :   0.9788
B( 12-S , 13-C ) :   1.0883 B( 13-C , 14-C ) :   1.6163 B( 13-C , 15-Br) :   1.0214
B( 14-C , 73-H ) :   0.9996 B( 16-C , 17-O ) :   2.0196 B( 16-C , 18-C ) :   1.0130
B( 17-O , 75-H ) :   0.1442 B( 18-C , 19-C ) :   1.4375 B( 19-C , 20-N ) :   1.3542
B( 19-C , 74-H ) :   0.9326 B( 20-N , 21-C ) :   1.1893 B( 20-N , 75-H ) :   0.8216
B( 21-C , 22-S ) :   1.1302 B( 21-C , 28-C ) :   1.3768 B( 22-S , 23-C ) :   1.0850
B( 23-C , 24-N ) :   0.9640 B( 23-C , 27-C ) :   1.5015 B( 24-N , 25-O ) :   1.5335
B( 24-N , 26-O ) :   1.5171 B( 25-O , 26-O ) :   0.2624 B( 27-C , 28-C ) :   1.2171
B( 27-C , 76-H ) :   1.0015 B( 28-C , 29-C ) :   1.0667 B( 29-C , 30-C ) :   1.7325
B( 29-C , 77-H ) :   0.9623 B( 30-C , 31-C ) :   1.0606 B( 30-C , 78-H ) :   0.9853
B( 31-C , 32-C ) :   1.2816 B( 31-C , 36-C ) :   1.3470 B( 32-C , 33-C ) :   1.3831
B( 32-C , 79-H ) :   1.0056 B( 33-C , 34-C ) :   1.3876 B( 33-C , 39-C ) :   0.9139
B( 34-C , 35-C ) :   1.3265 B( 34-C , 37-C ) :   0.9997 B( 35-C , 36-C ) :   1.3993
B( 35-C , 80-H ) :   0.9902 B( 36-C , 81-H ) :   0.9852 B( 37-C , 38-C ) :   1.3619
B( 37-C , 47-C ) :   1.3420 B( 38-C , 39-C ) :   0.9267 B( 38-C , 44-C ) :   1.4128
B( 39-C , 40-C ) :   1.0329 B( 39-C , 42-C ) :   1.0131 B( 40-C , 41-C ) :   1.1039
B( 40-C , 82-H ) :   0.9391 B( 40-C , 83-H ) :   0.9382 B( 41-C , 84-H ) :   0.9627
B( 41-C , 85-H ) :   0.9647 B( 41-C , 86-H ) :   0.9652 B( 42-C , 43-C ) :   1.1136
B( 42-C , 87-H ) :   0.9373 B( 42-C , 88-H ) :   0.9389 B( 43-C , 89-H ) :   0.9632
B( 43-C , 90-H ) :   0.9596 B( 43-C , 91-H ) :   0.9609 B( 44-C , 45-C ) :   1.3001
B( 44-C , 92-H ) :   0.9961 B( 45-C , 46-C ) :   1.3318 B( 45-C , 48-C ) :   1.0786
B( 46-C , 47-C ) :   1.3771 B( 46-C , 93-H ) :   0.9941 B( 47-C , 94-H ) :   0.9895
B( 48-C , 49-C ) :   1.6727 B( 48-C , 95-H ) :   0.9775 B( 49-C , 50-C ) :   1.1495
B( 49-C , 96-H ) :   0.9714 B( 50-C , 51-C ) :   1.4721 B( 50-C , 54-S ) :   1.1078
B( 51-C , 52-C ) :   1.2649 B( 51-C , 97-H ) :   0.9991 B( 52-C , 53-C ) :   1.5065
B( 52-C , 98-H ) :   0.9928 B( 53-C , 54-S ) :   1.1197 B( 53-C , 55-C ) :   1.1066
B( 55-C , 56-C ) :   1.6900 B( 55-C , 99-H ) :   0.9591 B( 56-C , 57-C ) :   1.1061
B( 56-C ,100-H ) :   0.9784 B( 57-C , 58-C ) :   1.4840 B( 57-C , 68-C ) :   1.1340
B( 58-C , 59-C ) :   1.0864 B( 58-C ,101-H ) :   1.0186 B( 59-C , 60-C ) :   1.4613
B( 59-C , 67-C ) :   1.1292 B( 60-C , 61-C ) :   1.1268 B( 60-C ,102-H ) :   1.0039
B( 61-C , 62-C ) :   1.4490 B( 61-C , 65-C ) :   1.1281 B( 62-C , 63-C ) :   1.1390
B( 62-C ,103-H ) :   1.0070 B( 63-C , 64-C ) :   1.5194 B( 63-C , 69-C ) :   1.0843
B( 64-C , 65-C ) :   1.0772 B( 64-C ,104-H ) :   1.0163 B( 65-C , 66-C ) :   1.4775
B( 66-C , 67-C ) :   1.1181 B( 66-C ,105-H ) :   1.0037 B( 67-C , 68-C ) :   1.4541
B( 68-C ,106-H ) :   1.0058 B( 69-C , 70-C ) :   1.9342 B( 69-C ,107-H ) :   0.9665
B( 70-C ,108-H ) :   0.9517 B( 70-C ,109-H ) :   0.9495

-----------------------------------------------------------------------------
         ABSORPTION SPECTRUM VIA TRANSITION ELECTRIC DIPOLE MOMENTS
-----------------------------------------------------------------------------
State   Energy  Wavelength   fosc         T2         TX        TY        TZ
        (cm-1)    (nm)                  (au**2)     (au)      (au)      (au)
-----------------------------------------------------------------------------
   0    8888.2   1125.1   0.010154513   0.37611   0.31955   0.49275  -0.17665
   1   19591.1    510.4   0.914096307  15.36059   2.87200   1.02566  -2.46176
   2   19851.0    503.8   0.051737948   0.85803   0.05062  -0.77659  -0.50237
   3   22849.7    437.6   1.793836222  25.84503  -1.64969  -4.77969   0.52732
   4   23072.9    433.4   0.297504476   4.24489  -1.52013   0.10384   1.38683
   5   23443.7    426.6   1.240923595  17.42588   2.13366   3.25275  -1.51426
   6   23678.6    422.3   0.072946055   1.01420  -0.27759   0.96501   0.07680
   7   26497.2    377.4   0.042006772   0.52191  -0.39967   0.46328   0.38411
   8   27537.4    363.1   0.211726596   2.53121  -1.24476   0.21266   0.96776
   9   27650.7    361.7   0.146501380   1.74426   0.11038  -1.23254  -0.46143
  10   28219.7    354.4   0.007071923   0.08250  -0.20294  -0.05753  -0.19495
  11   29503.4    338.9   0.461149653   5.14572   0.39877  -2.20812  -0.33302
  12   30306.6    330.0   0.152424518   1.65574   0.06617  -1.28347  -0.06383
  13   30845.5    324.2   0.119363256   1.27395  -0.16772  -1.07556   0.29832
  14   30919.1    323.4   0.195503821   2.08163   1.00485   0.88883  -0.53093
  15   31373.6    318.7   0.087747450   0.92076   0.50016  -0.75267  -0.32263
  16   31623.4    316.2   0.324541315   3.37861  -0.17769   1.81340   0.24210
  17   31966.4    312.8   0.002055029   0.02116  -0.03183  -0.12312  -0.07065
  18   32100.0    311.5   0.025412534   0.26063  -0.24852  -0.43208   0.11033
  19   33026.3    302.8   0.073336750   0.73103  -0.00306  -0.82397   0.22824
  20   33420.0    299.2   0.002027512   0.01997   0.02666   0.13726  -0.02055
  21   33951.5    294.5   0.000144911   0.00141   0.01240  -0.01726  -0.03087
  22   34224.8    292.2   0.251966784   2.42369   0.44307   1.37390  -0.58290
  23   34367.8    291.0   0.000085183   0.00082  -0.00890  -0.00014  -0.02714
  24   34934.9    286.2   0.022058531   0.20787   0.22084   0.31194  -0.24859
  25   35170.3    284.3   1.027988815   9.62249   0.51384   2.97274  -0.72200
  26   35428.3    282.3   0.013780327   0.12805   0.16217   0.17704  -0.26535
  27   35934.0    278.3   0.039951764   0.36602  -0.09007  -0.57389   0.16900
  28   36228.0    276.0   0.025245955   0.22942   0.09763  -0.46875   0.01243
  29   36343.9    275.1   0.000120332   0.00109  -0.00465   0.03151  -0.00870
  30   36707.7    272.4   0.023770359   0.21318   0.29663  -0.30750  -0.17504
  31   36887.1    271.1   0.137927976   1.23099  -0.32486  -1.00167   0.34944
  32   37191.3    268.9   0.012700213   0.11242  -0.30605   0.01146   0.13648
  33   37277.9    268.3   0.000494336   0.00437  -0.03068   0.04912   0.03181
  34   37756.5    264.9   0.082837384   0.72229  -0.40564  -0.68026   0.30822
  35   38289.4    261.2   0.080502752   0.69216  -0.44276  -0.61459   0.34410
  36   38381.3    260.5   0.212657520   1.82405   0.66521  -0.88781  -0.77028
  37   39209.0    255.0   0.027818862   0.23358  -0.07480  -0.47641  -0.03189
  38   39550.3    252.8   0.025413040   0.21154   0.22442   0.15394  -0.37077
  39   39677.7    252.0   0.015106083   0.12534   0.24717   0.19166  -0.16585
  40   39884.2    250.7   0.041422888   0.34191  -0.02870   0.58308  -0.03334
  41   40038.2    249.8   0.045832579   0.37686  -0.13855  -0.59374  -0.07161
  42   40171.6    248.9   0.083213286   0.68195  -0.47403  -0.41740   0.53199

FINAL SINGLE POINT ENERGY     -6519.014284545631

DIPOLE MOMENT
-------------
                                X             Y             Z
Electronic contribution:   -190.19503     -30.69522     163.13180
Nuclear contribution   :    191.61509      34.59440    -164.48301
                        -----------------------------------------
Total Dipole Moment    :      1.42006       3.89918      -1.35121
                        -----------------------------------------
Magnitude (a.u.)       :      4.36417
Magnitude (Debye)      :     11.09283

Rotational constants in cm-1:     0.000848     0.000172     0.000144
Rotational constants in MHz :    25.426096     5.155330     4.315145

                             ****ORCA TERMINATED NORMALLY****
TOTAL RUN TIME: 0 days 0 hours 10 minutes 11 seconds 862 msec
