                         Program Version 4.2.0 -  RELEASE  -
|  1> # ORCA input file
|  2> # SCF done       -206.778053887924          0.000849902576
|  3> ! CAM-B3LYP def2-SVP def2/J RIJCOSX Grid4 TightSCF
|  4> %maxcore 5000
|  5> %tddft
|  6>     Mode sTDDFT
|  7>     Ethresh 5.0
|  8>     maxcore 5000
|  9> end
| 10>
| 11> %pal
| 12>   nprocs 6
| 13>   end
| 14> * xyz 0 1
| 15>    C       -6.99034        -2.39972        -3.83678
| 16>    C       -7.13926        -3.60468        -3.20035
| 17>    C       -6.83612        -4.85290        -3.78136
| 18>    N       -6.60772        -5.89602        -4.20274
| 19>    C       -7.60909        -3.74700        -1.87877
| 20>    N       -7.98631        -3.90491        -0.80620
| 21>    C       -6.49497        -2.20605        -5.19729
| 22>    C       -6.46228        -0.81641        -5.48458
| 23>    C       -6.04064        -0.31936        -6.69429
| 24>    C       -5.63574        -1.23596        -7.67043
| 25>    C       -5.67368        -2.61996        -7.37613
| 26>    C       -6.09653        -3.12246        -6.15079
| 27>    S       -5.13800        -3.57511        -8.72346
| 28>    C       -4.87416        -2.12379        -9.65308
| 29>    C       -5.17037        -0.98079        -8.98907
| 30>   Br       -4.23702        -2.25480       -11.41181
| 31>    C       -6.94580        -0.07865        -4.31100
| 32>    O       -7.05230         1.13599        -4.18073
| 33>    C       -7.28247        -1.08925        -3.30315
| 34>    C       -7.80636        -0.74389        -2.08226
| 35>    N       -8.02361         0.53826        -1.76832
| 36>    C       -8.58980         0.99995        -0.62182
| 37>    S       -9.21453        -0.10174         0.57105
| 38>    C       -9.78235         1.24985         1.49329
| 39>    N      -10.44308         0.99178         2.70306
| 40>    O      -10.84513         1.94706         3.33947
| 41>    O      -10.56495        -0.17656         3.02313
| 42>    C       -9.51119         2.45928         0.91372
| 43>    C       -8.80622         2.34326        -0.30098
| 44>    C       -8.41156         3.50690        -1.05911
| 45>    C       -7.36706         3.61414        -1.89783
| 46>    C       -6.98967         4.80781        -2.62306
| 47>    C       -5.72478         4.84506        -3.23043
| 48>    C       -5.31665         5.97882        -3.88848
| 49>    C       -6.16470         7.09698        -3.97419
| 50>    C       -7.43102         7.06067        -3.40673
| 51>    C       -7.83053         5.92269        -2.73742
| 52>    C       -5.47325         8.14754        -4.68549
| 53>    C       -4.19454         7.68092        -5.04278
| 54>    C       -4.00104         6.25546        -4.57800
| 55>    C       -2.81843         6.14268        -3.59776
| 56>    C       -2.95669         7.06753        -2.39438
| 57>    C       -3.77756         5.30051        -5.76557
| 58>    C       -4.92098         5.33049        -6.77260
| 59>    C       -3.30626         8.49610        -5.69698
| 60>    C       -3.67418         9.81830        -6.00431
| 61>    C       -4.96222        10.25980        -5.65488
| 62>    C       -5.86123         9.44194        -5.00529
| 63>    C       -2.78153        10.75968        -6.62334
| 64>    C       -1.51290        10.51270        -7.02733
| 65>    C       -0.61696        11.47813        -7.56843
| 66>    C        0.68799        11.07657        -7.95065
| 67>    C        1.67429        12.00138        -8.44461
| 68>    N        2.88713        11.56319        -8.79314
| 69>    C        3.17221        10.28351        -8.68039
| 70>    C        2.19741         9.36482        -8.18125
| 71>    N        1.00174         9.77396        -7.83431
| 72>    C        2.51184         7.98867        -8.05360
| 73>    N        2.78714         6.88032        -7.95909
| 74>    C        4.45745         9.82873        -9.05739
| 75>    N        5.49103         9.43032        -9.35304
| 76>    C        1.40913        13.40216        -8.56631
| 77>    C        0.09066        13.78994        -8.21977
| 78>    C       -0.90075        12.85407        -7.73834
| 79>    N       -2.05991        13.46347        -7.48595
| 80>    S       -1.93063        15.03172        -7.81569
| 81>    N       -0.39393        15.02298        -8.29447
| 82>    C        2.44581        14.24275        -8.99186
| 83>    C        2.53375        15.61171        -9.13209
| 84>    C        3.73518        16.24768        -9.54387
| 85>    C        3.67712        17.60609        -9.58532
| 86>    C        2.41536        18.11818        -9.20945
| 87>    S        1.30697        16.81493        -8.82111
| 88>    C        2.02951        19.44047        -9.12765
| 89>    C        2.81745        20.59167        -9.40389
| 90>    C        2.17012        21.76565        -9.22552
| 91>    C        0.81024        21.62870        -8.79061
| 92>    S        0.42107        19.90736        -8.63152
| 93>    C       -0.07144        22.60473        -8.53066
| 94>    H       -6.02612         0.74258        -6.88374
| 95>    H       -6.10729        -4.18513        -5.97551
| 96>    H       -5.06670         0.00193        -9.41138
| 97>    H       -8.06032        -1.48421        -1.33454
| 98>    H       -7.78612         1.21287        -2.51518
| 99>    H       -9.79741         3.39321         1.36304
|100>    H       -9.01610         4.37859        -0.85110
|101>    H       -6.68502         2.78405        -2.02447
|102>    H       -5.07862         3.98161        -3.16200
|103>    H       -8.09297         7.91023        -3.48339
|104>    H       -8.81765         5.89229        -2.30278
|105>    H       -1.89683         6.38005        -4.13279
|106>    H       -2.74663         5.10871        -3.25378
|107>    H       -3.00477         8.10692        -2.71158
|108>    H       -2.10181         6.94953        -1.73265
|109>    H       -3.86041         6.83800        -1.83373
|110>    H       -3.66124         4.28529        -5.38002
|111>    H       -2.84677         5.57744        -6.26475
|112>    H       -5.85233         5.01527        -6.30692
|113>    H       -4.70528         4.66025        -7.60167
|114>    H       -5.05734         6.33405        -7.16967
|115>    H       -2.32505         8.13263        -5.95965
|116>    H       -5.24253        11.27437        -5.89930
|117>    H       -6.84313         9.80487        -4.74028
|118>    H       -3.16834        11.76121        -6.75039
|119>    H       -1.08727         9.52317        -6.94313
|120>    H        3.35760        13.70580        -9.22910
|121>    H        4.60991        15.67112        -9.78916
|122>    H        4.49902        18.23847        -9.86949
|123>    H        3.84019        20.50579        -9.72506
|124>    H        2.60141        22.73805        -9.38343
|125>    H        0.20470        23.63846        -8.64134
|126>    H       -1.07415        22.38963        -8.20971
|127> *
|128>
|129>                          ****END OF INPUT****

CARTESIAN COORDINATES (ANGSTROEM)
---------------------------------
  C     -6.990340   -2.399720   -3.836780
  C     -7.139260   -3.604680   -3.200350
  C     -6.836120   -4.852900   -3.781360
  N     -6.607720   -5.896020   -4.202740
  C     -7.609090   -3.747000   -1.878770
  N     -7.986310   -3.904910   -0.806200
  C     -6.494970   -2.206050   -5.197290
  C     -6.462280   -0.816410   -5.484580
  C     -6.040640   -0.319360   -6.694290
  C     -5.635740   -1.235960   -7.670430
  C     -5.673680   -2.619960   -7.376130
  C     -6.096530   -3.122460   -6.150790
  S     -5.138000   -3.575110   -8.723460
  C     -4.874160   -2.123790   -9.653080
  C     -5.170370   -0.980790   -8.989070
  Br    -4.237020   -2.254800  -11.411810
  C     -6.945800   -0.078650   -4.311000
  O     -7.052300    1.135990   -4.180730
  C     -7.282470   -1.089250   -3.303150
  C     -7.806360   -0.743890   -2.082260
  N     -8.023610    0.538260   -1.768320
  C     -8.589800    0.999950   -0.621820
  S     -9.214530   -0.101740    0.571050
  C     -9.782350    1.249850    1.493290
  N    -10.443080    0.991780    2.703060
  O    -10.845130    1.947060    3.339470
  O    -10.564950   -0.176560    3.023130
  C     -9.511190    2.459280    0.913720
  C     -8.806220    2.343260   -0.300980
  C     -8.411560    3.506900   -1.059110
  C     -7.367060    3.614140   -1.897830
  C     -6.989670    4.807810   -2.623060
  C     -5.724780    4.845060   -3.230430
  C     -5.316650    5.978820   -3.888480
  C     -6.164700    7.096980   -3.974190
  C     -7.431020    7.060670   -3.406730
  C     -7.830530    5.922690   -2.737420
  C     -5.473250    8.147540   -4.685490
  C     -4.194540    7.680920   -5.042780
  C     -4.001040    6.255460   -4.578000
  C     -2.818430    6.142680   -3.597760
  C     -2.956690    7.067530   -2.394380
  C     -3.777560    5.300510   -5.765570
  C     -4.920980    5.330490   -6.772600
  C     -3.306260    8.496100   -5.696980
  C     -3.674180    9.818300   -6.004310
  C     -4.962220   10.259800   -5.654880
  C     -5.861230    9.441940   -5.005290
  C     -2.781530   10.759680   -6.623340
  C     -1.512900   10.512700   -7.027330
  C     -0.616960   11.478130   -7.568430
  C      0.687990   11.076570   -7.950650
  C      1.674290   12.001380   -8.444610
  N      2.887130   11.563190   -8.793140
  C      3.172210   10.283510   -8.680390
  C      2.197410    9.364820   -8.181250
  N      1.001740    9.773960   -7.834310
  C      2.511840    7.988670   -8.053600
  N      2.787140    6.880320   -7.959090
  C      4.457450    9.828730   -9.057390
  N      5.491030    9.430320   -9.353040
  C      1.409130   13.402160   -8.566310
  C      0.090660   13.789940   -8.219770
  C     -0.900750   12.854070   -7.738340
  N     -2.059910   13.463470   -7.485950
  S     -1.930630   15.031720   -7.815690
  N     -0.393930   15.022980   -8.294470
  C      2.445810   14.242750   -8.991860
  C      2.533750   15.611710   -9.132090
  C      3.735180   16.247680   -9.543870
  C      3.677120   17.606090   -9.585320
  C      2.415360   18.118180   -9.209450
  S      1.306970   16.814930   -8.821110
  C      2.029510   19.440470   -9.127650
  C      2.817450   20.591670   -9.403890
  C      2.170120   21.765650   -9.225520
  C      0.810240   21.628700   -8.790610
  S      0.421070   19.907360   -8.631520
  C     -0.071440   22.604730   -8.530660
  H     -6.026120    0.742580   -6.883740
  H     -6.107290   -4.185130   -5.975510
  H     -5.066700    0.001930   -9.411380
  H     -8.060320   -1.484210   -1.334540
  H     -7.786120    1.212870   -2.515180
  H     -9.797410    3.393210    1.363040
  H     -9.016100    4.378590   -0.851100
  H     -6.685020    2.784050   -2.024470
  H     -5.078620    3.981610   -3.162000
  H     -8.092970    7.910230   -3.483390
  H     -8.817650    5.892290   -2.302780
  H     -1.896830    6.380050   -4.132790
  H     -2.746630    5.108710   -3.253780
  H     -3.004770    8.106920   -2.711580
  H     -2.101810    6.949530   -1.732650
  H     -3.860410    6.838000   -1.833730
  H     -3.661240    4.285290   -5.380020
  H     -2.846770    5.577440   -6.264750
  H     -5.852330    5.015270   -6.306920
  H     -4.705280    4.660250   -7.601670
  H     -5.057340    6.334050   -7.169670
  H     -2.325050    8.132630   -5.959650
  H     -5.242530   11.274370   -5.899300
  H     -6.843130    9.804870   -4.740280
  H     -3.168340   11.761210   -6.750390
  H     -1.087270    9.523170   -6.943130
  H      3.357600   13.705800   -9.229100
  H      4.609910   15.671120   -9.789160
  H      4.499020   18.238470   -9.869490
  H      3.840190   20.505790   -9.725060
  H      2.601410   22.738050   -9.383430
  H      0.204700   23.638460   -8.641340
  H     -1.074150   22.389630   -8.209710

 Total Charge           Charge          ....    0
 Multiplicity           Mult            ....    1
 Number of Electrons    NEL             ....  602
 Basis Dimension        Dim             .... 1309

ORBITAL ENERGIES
----------------

  NO   OCC          E(Eh)            E(eV)
   0   2.0000    -482.887691    -13140.0421
   1   2.0000     -89.037519     -2422.8341
   2   2.0000     -88.988704     -2421.5057
   3   2.0000     -88.979125     -2421.2451
   4   2.0000     -88.958099     -2420.6730
   5   2.0000     -88.957242     -2420.6496
   6   2.0000     -62.565405     -1702.4912
   7   2.0000     -56.399364     -1534.7047
   8   2.0000     -56.396631     -1534.6304
   9   2.0000     -56.396602     -1534.6296
  10   2.0000     -19.237835      -523.4881
  11   2.0000     -19.236937      -523.4637
  12   2.0000     -19.233162      -523.3609
  13   2.0000     -14.649412      -398.6308
  14   2.0000     -14.497061      -394.4851
  15   2.0000     -14.453858      -393.3095
  16   2.0000     -14.453217      -393.2920
  17   2.0000     -14.450380      -393.2148
  18   2.0000     -14.445139      -393.0722
  19   2.0000     -14.422579      -392.4583
  20   2.0000     -14.420553      -392.4032
  21   2.0000     -14.419475      -392.3739
  22   2.0000     -14.416212      -392.2851
  23   2.0000     -10.380379      -282.4645
  24   2.0000     -10.371623      -282.2262
  25   2.0000     -10.370697      -282.2010
  26   2.0000     -10.370217      -282.1880
  27   2.0000     -10.367240      -282.1069
  28   2.0000     -10.361919      -281.9621
  29   2.0000     -10.347893      -281.5805
  30   2.0000     -10.345747      -281.5221
  31   2.0000     -10.343755      -281.4679
  32   2.0000     -10.340321      -281.3744
  33   2.0000     -10.338158      -281.3156
  34   2.0000     -10.336828      -281.2794
  35   2.0000     -10.335435      -281.2415
  36   2.0000     -10.332086      -281.1504
  37   2.0000     -10.329634      -281.0836
  38   2.0000     -10.326331      -280.9937
  39   2.0000     -10.324424      -280.9419
  40   2.0000     -10.322946      -280.9017
  41   2.0000     -10.319382      -280.8047
  42   2.0000     -10.316405      -280.7236
  43   2.0000     -10.314062      -280.6599
  44   2.0000     -10.313392      -280.6417
  45   2.0000     -10.312979      -280.6304
  46   2.0000     -10.312702      -280.6229
  47   2.0000     -10.311742      -280.5968
  48   2.0000     -10.310019      -280.5499
  49   2.0000     -10.309870      -280.5458
  50   2.0000     -10.307622      -280.4847
  51   2.0000     -10.306277      -280.4480
  52   2.0000     -10.305878      -280.4372
  53   2.0000     -10.304354      -280.3957
  54   2.0000     -10.300164      -280.2817
  55   2.0000     -10.299941      -280.2756
  56   2.0000     -10.299534      -280.2646
  57   2.0000     -10.299439      -280.2620
  58   2.0000     -10.296350      -280.1779
  59   2.0000     -10.293122      -280.0901
  60   2.0000     -10.291794      -280.0539
  61   2.0000     -10.289414      -279.9892
  62   2.0000     -10.289228      -279.9841
  63   2.0000     -10.286925      -279.9215
  64   2.0000     -10.281354      -279.7699
  65   2.0000     -10.276740      -279.6443
  66   2.0000     -10.275012      -279.5973
  67   2.0000     -10.273877      -279.5664
  68   2.0000     -10.272929      -279.5406
  69   2.0000     -10.272133      -279.5190
  70   2.0000     -10.272093      -279.5179
  71   2.0000     -10.270554      -279.4760
  72   2.0000     -10.270101      -279.4637
  73   2.0000     -10.268768      -279.4274
  74   2.0000     -10.268211      -279.4122
  75   2.0000     -10.268052      -279.4079
  76   2.0000     -10.267495      -279.3927
  77   2.0000     -10.266883      -279.3761
  78   2.0000     -10.266588      -279.3681
  79   2.0000     -10.262203      -279.2488
  80   2.0000     -10.261221      -279.2220
  81   2.0000     -10.246372      -278.8180
  82   2.0000     -10.244474      -278.7663
  83   2.0000      -8.794835      -239.3196
  84   2.0000      -8.128971      -221.2006
  85   2.0000      -8.083937      -219.9751
  86   2.0000      -8.075170      -219.7365
  87   2.0000      -8.054738      -219.1806
  88   2.0000      -8.051650      -219.0965
  89   2.0000      -6.631188      -180.4438
  90   2.0000      -6.616555      -180.0456
  91   2.0000      -6.616328      -180.0394
  92   2.0000      -6.100241      -165.9960
  93   2.0000      -6.092451      -165.7840
  94   2.0000      -6.091341      -165.7538
  95   2.0000      -6.053559      -164.7257
  96   2.0000      -6.049180      -164.6066
  97   2.0000      -6.045454      -164.5052
  98   2.0000      -6.044846      -164.4886
  99   2.0000      -6.040559      -164.3720
 100   2.0000      -6.036402      -164.2589
 101   2.0000      -6.024496      -163.9349
 102   2.0000      -6.021469      -163.8525
 103   2.0000      -6.020516      -163.8266
 104   2.0000      -6.017049      -163.7322
 105   2.0000      -6.015461      -163.6890
 106   2.0000      -6.012779      -163.6160
 107   2.0000      -2.747022       -74.7503
 108   2.0000      -2.742938       -74.6391
 109   2.0000      -2.742813       -74.6357
 110   2.0000      -2.731161       -74.3187
 111   2.0000      -2.731142       -74.3181
 112   2.0000      -1.319338       -35.9010
 113   2.0000      -1.147733       -31.2314
 114   2.0000      -1.138446       -30.9787
 115   2.0000      -1.136706       -30.9313
 116   2.0000      -1.110061       -30.2063
 117   2.0000      -1.103841       -30.0370
 118   2.0000      -1.036782       -28.2123
 119   2.0000      -1.027357       -27.9558
 120   2.0000      -1.017028       -27.6747
 121   2.0000      -1.009417       -27.4676
 122   2.0000      -1.008011       -27.4294
 123   2.0000      -1.005290       -27.3553
 124   2.0000      -0.997856       -27.1530
 125   2.0000      -0.996335       -27.1117
 126   2.0000      -0.993518       -27.0350
 127   2.0000      -0.992769       -27.0146
 128   2.0000      -0.987585       -26.8736
 129   2.0000      -0.982869       -26.7452
 130   2.0000      -0.967945       -26.3391
 131   2.0000      -0.947983       -25.7959
 132   2.0000      -0.945818       -25.7370
 133   2.0000      -0.926100       -25.2005
 134   2.0000      -0.915192       -24.9036
 135   2.0000      -0.912700       -24.8358
 136   2.0000      -0.908585       -24.7238
 137   2.0000      -0.899816       -24.4852
 138   2.0000      -0.898645       -24.4534
 139   2.0000      -0.891919       -24.2703
 140   2.0000      -0.890323       -24.2269
 141   2.0000      -0.884972       -24.0813
 142   2.0000      -0.877391       -23.8750
 143   2.0000      -0.865172       -23.5425
 144   2.0000      -0.860057       -23.4033
 145   2.0000      -0.853180       -23.2162
 146   2.0000      -0.849995       -23.1295
 147   2.0000      -0.837575       -22.7916
 148   2.0000      -0.835998       -22.7487
 149   2.0000      -0.833835       -22.6898
 150   2.0000      -0.833555       -22.6822
 151   2.0000      -0.832048       -22.6412
 152   2.0000      -0.827572       -22.5194
 153   2.0000      -0.822564       -22.3831
 154   2.0000      -0.801099       -21.7990
 155   2.0000      -0.798718       -21.7342
 156   2.0000      -0.792354       -21.5610
 157   2.0000      -0.774775       -21.0827
 158   2.0000      -0.766659       -20.8619
 159   2.0000      -0.760506       -20.6944
 160   2.0000      -0.757806       -20.6209
 161   2.0000      -0.746392       -20.3104
 162   2.0000      -0.732331       -19.9277
 163   2.0000      -0.729841       -19.8600
 164   2.0000      -0.727265       -19.7899
 165   2.0000      -0.721023       -19.6200
 166   2.0000      -0.711726       -19.3670
 167   2.0000      -0.704091       -19.1593
 168   2.0000      -0.699536       -19.0353
 169   2.0000      -0.694347       -18.8942
 170   2.0000      -0.689663       -18.7667
 171   2.0000      -0.685050       -18.6412
 172   2.0000      -0.680163       -18.5082
 173   2.0000      -0.673048       -18.3146
 174   2.0000      -0.671345       -18.2682
 175   2.0000      -0.668576       -18.1929
 176   2.0000      -0.662585       -18.0299
 177   2.0000      -0.659603       -17.9487
 178   2.0000      -0.653872       -17.7928
 179   2.0000      -0.648813       -17.6551
 180   2.0000      -0.644798       -17.5459
 181   2.0000      -0.637891       -17.3579
 182   2.0000      -0.634908       -17.2767
 183   2.0000      -0.630739       -17.1633
 184   2.0000      -0.629363       -17.1259
 185   2.0000      -0.625244       -17.0138
 186   2.0000      -0.623150       -16.9568
 187   2.0000      -0.619193       -16.8491
 188   2.0000      -0.615264       -16.7422
 189   2.0000      -0.613474       -16.6935
 190   2.0000      -0.608394       -16.5552
 191   2.0000      -0.606560       -16.5053
 192   2.0000      -0.596618       -16.2348
 193   2.0000      -0.592550       -16.1241
 194   2.0000      -0.590250       -16.0615
 195   2.0000      -0.583597       -15.8805
 196   2.0000      -0.579476       -15.7683
 197   2.0000      -0.571987       -15.5646
 198   2.0000      -0.570606       -15.5270
 199   2.0000      -0.564747       -15.3675
 200   2.0000      -0.562096       -15.2954
 201   2.0000      -0.559995       -15.2382
 202   2.0000      -0.553836       -15.0706
 203   2.0000      -0.550720       -14.9858
 204   2.0000      -0.550592       -14.9824
 205   2.0000      -0.547464       -14.8972
 206   2.0000      -0.543305       -14.7841
 207   2.0000      -0.541988       -14.7482
 208   2.0000      -0.541077       -14.7235
 209   2.0000      -0.538632       -14.6569
 210   2.0000      -0.535713       -14.5775
 211   2.0000      -0.532626       -14.4935
 212   2.0000      -0.528180       -14.3725
 213   2.0000      -0.524991       -14.2857
 214   2.0000      -0.521606       -14.1936
 215   2.0000      -0.521125       -14.1805
 216   2.0000      -0.520278       -14.1575
 217   2.0000      -0.516576       -14.0567
 218   2.0000      -0.515646       -14.0314
 219   2.0000      -0.514440       -13.9986
 220   2.0000      -0.511888       -13.9292
 221   2.0000      -0.509223       -13.8567
 222   2.0000      -0.506669       -13.7872
 223   2.0000      -0.502574       -13.6757
 224   2.0000      -0.500782       -13.6270
 225   2.0000      -0.500444       -13.6178
 226   2.0000      -0.495063       -13.4713
 227   2.0000      -0.492409       -13.3991
 228   2.0000      -0.488905       -13.3038
 229   2.0000      -0.485075       -13.1996
 230   2.0000      -0.483122       -13.1464
 231   2.0000      -0.481282       -13.0963
 232   2.0000      -0.480313       -13.0700
 233   2.0000      -0.477050       -12.9812
 234   2.0000      -0.474430       -12.9099
 235   2.0000      -0.471515       -12.8306
 236   2.0000      -0.471076       -12.8186
 237   2.0000      -0.470041       -12.7905
 238   2.0000      -0.469363       -12.7720
 239   2.0000      -0.465871       -12.6770
 240   2.0000      -0.464756       -12.6467
 241   2.0000      -0.463101       -12.6016
 242   2.0000      -0.459157       -12.4943
 243   2.0000      -0.452787       -12.3210
 244   2.0000      -0.452464       -12.3122
 245   2.0000      -0.451735       -12.2923
 246   2.0000      -0.449182       -12.2229
 247   2.0000      -0.448524       -12.2050
 248   2.0000      -0.446637       -12.1536
 249   2.0000      -0.446222       -12.1423
 250   2.0000      -0.445774       -12.1301
 251   2.0000      -0.443161       -12.0590
 252   2.0000      -0.442955       -12.0534
 253   2.0000      -0.441484       -12.0134
 254   2.0000      -0.440610       -11.9896
 255   2.0000      -0.435529       -11.8513
 256   2.0000      -0.435186       -11.8420
 257   2.0000      -0.430463       -11.7135
 258   2.0000      -0.429946       -11.6994
 259   2.0000      -0.427488       -11.6326
 260   2.0000      -0.424623       -11.5546
 261   2.0000      -0.423618       -11.5272
 262   2.0000      -0.421763       -11.4767
 263   2.0000      -0.418116       -11.3775
 264   2.0000      -0.417741       -11.3673
 265   2.0000      -0.415015       -11.2931
 266   2.0000      -0.413085       -11.2406
 267   2.0000      -0.409304       -11.1377
 268   2.0000      -0.407545       -11.0899
 269   2.0000      -0.405174       -11.0253
 270   2.0000      -0.399848       -10.8804
 271   2.0000      -0.396201       -10.7812
 272   2.0000      -0.393329       -10.7030
 273   2.0000      -0.392254       -10.6738
 274   2.0000      -0.391429       -10.6513
 275   2.0000      -0.385117       -10.4796
 276   2.0000      -0.384193       -10.4544
 277   2.0000      -0.380096       -10.3429
 278   2.0000      -0.379544       -10.3279
 279   2.0000      -0.377151       -10.2628
 280   2.0000      -0.376153       -10.2356
 281   2.0000      -0.373622       -10.1668
 282   2.0000      -0.366281        -9.9670
 283   2.0000      -0.357305        -9.7228
 284   2.0000      -0.356231        -9.6935
 285   2.0000      -0.355619        -9.6769
 286   2.0000      -0.351271        -9.5586
 287   2.0000      -0.349934        -9.5222
 288   2.0000      -0.344764        -9.3815
 289   2.0000      -0.342940        -9.3319
 290   2.0000      -0.341068        -9.2809
 291   2.0000      -0.334239        -9.0951
 292   2.0000      -0.321627        -8.7519
 293   2.0000      -0.321109        -8.7378
 294   2.0000      -0.316696        -8.6177
 295   2.0000      -0.314365        -8.5543
 296   2.0000      -0.298682        -8.1275
 297   2.0000      -0.293365        -7.9829
 298   2.0000      -0.276434        -7.5221
 299   2.0000      -0.255455        -6.9513
 300   2.0000      -0.216703        -5.8968
 301   0.0000      -0.121176        -3.2974
 302   0.0000      -0.089669        -2.4400
 303   0.0000      -0.070534        -1.9193
 304   0.0000      -0.065099        -1.7714
 305   0.0000      -0.046216        -1.2576

MULLIKEN ATOMIC CHARGES
-----------------------
   0 C :    0.330890
   1 C :   -0.347192
   2 C :   -0.183615
   3 N :    0.150940
   4 C :   -0.198030
   5 N :    0.148804
   6 C :    0.010341
   7 C :   -0.004947
   8 C :   -0.073782
   9 C :    0.120011
  10 C :   -0.088358
  11 C :   -0.025033
  12 S :    0.192458
  13 C :   -0.121518
  14 C :    0.034079
  15 Br:    0.028177
  16 C :    0.165229
  17 O :   -0.213889
  18 C :   -0.129870
  19 C :    0.021211
  20 N :   -0.005358
  21 C :   -0.130637
  22 S :    0.171071
  23 C :    0.011222
  24 N :    0.273495
  25 O :   -0.248320
  26 O :   -0.255678
  27 C :    0.002078
  28 C :    0.131429
  29 C :   -0.020612
  30 C :    0.003930
  31 C :    0.107532
  32 C :   -0.098717
  33 C :    0.020945
  34 C :    0.106197
  35 C :   -0.046824
  36 C :   -0.012805
  37 C :    0.104168
  38 C :    0.018069
  39 C :   -0.145654
  40 C :    0.068233
  41 C :    0.024317
  42 C :    0.070356
  43 C :    0.024590
  44 C :   -0.085517
  45 C :    0.124969
  46 C :   -0.018015
  47 C :   -0.043162
  48 C :   -0.005129
  49 C :   -0.069540
  50 C :    0.091136
  51 C :   -0.051001
  52 C :   -0.056441
  53 N :    0.052081
  54 C :   -0.147834
  55 C :   -0.136376
  56 N :    0.043090
  57 C :   -0.213932
  58 N :    0.232478
  59 C :   -0.218089
  60 N :    0.229682
  61 C :    0.117825
  62 C :    0.045206
  63 C :    0.021259
  64 N :   -0.296052
  65 S :    0.533095
  66 N :   -0.325033
  67 C :   -0.140558
  68 C :    0.021962
  69 C :    0.020779
  70 C :    0.044945
  71 C :   -0.035081
  72 S :    0.128143
  73 C :   -0.066971
  74 C :    0.032451
  75 C :    0.059607
  76 C :   -0.068933
  77 S :    0.098085
  78 C :   -0.015405
  79 H :   -0.007496
  80 H :   -0.004649
  81 H :   -0.001767
  82 H :    0.048399
  83 H :    0.179228
  84 H :    0.011698
  85 H :   -0.007226
  86 H :   -0.017982
  87 H :   -0.039394
  88 H :   -0.035556
  89 H :   -0.029126
  90 H :    0.001985
  91 H :   -0.004140
  92 H :    0.022620
  93 H :    0.010327
  94 H :    0.018815
  95 H :   -0.003330
  96 H :    0.002406
  97 H :    0.022951
  98 H :    0.003242
  99 H :    0.022319
 100 H :   -0.037995
 101 H :   -0.027626
 102 H :   -0.038726
 103 H :   -0.009131
 104 H :   -0.012637
 105 H :    0.002314
 106 H :   -0.001921
 107 H :   -0.012107
 108 H :   -0.004381
 109 H :   -0.003150
 110 H :    0.030005
 111 H :    0.029375
Sum of atomic charges:   -0.0000000

LOEWDIN ATOMIC CHARGES
----------------------
   0 C :    0.078889
   1 C :   -0.148434
   2 C :   -0.019803
   3 N :   -0.053514
   4 C :   -0.021183
   5 N :   -0.051964
   6 C :   -0.018495
   7 C :   -0.052114
   8 C :    0.023706
   9 C :   -0.033380
  10 C :   -0.143618
  11 C :   -0.007452
  12 S :    0.437855
  13 C :   -0.270814
  14 C :   -0.069773
  15 Br:    0.140192
  16 C :    0.093855
  17 O :   -0.175740
  18 C :   -0.145795
  19 C :    0.109350
  20 N :    0.080796
  21 C :   -0.112829
  22 S :    0.472796
  23 C :   -0.203626
  24 N :    0.273139
  25 O :   -0.213961
  26 O :   -0.222401
  27 C :    0.000835
  28 C :   -0.082319
  29 C :   -0.034722
  30 C :   -0.008628
  31 C :   -0.026001
  32 C :   -0.014748
  33 C :    0.004256
  34 C :   -0.014212
  35 C :   -0.017011
  36 C :   -0.014569
  37 C :   -0.016645
  38 C :    0.004409
  39 C :   -0.035564
  40 C :   -0.011523
  41 C :   -0.057989
  42 C :   -0.011102
  43 C :   -0.058160
  44 C :   -0.012426
  45 C :   -0.023885
  46 C :   -0.013700
  47 C :   -0.021013
  48 C :   -0.001839
  49 C :   -0.027318
  50 C :   -0.043465
  51 C :   -0.005037
  52 C :   -0.012591
  53 N :    0.001372
  54 C :   -0.045720
  55 C :   -0.029692
  56 N :   -0.004670
  57 C :   -0.034444
  58 N :   -0.014064
  59 C :   -0.038513
  60 N :   -0.019153
  61 C :   -0.027775
  62 C :   -0.038172
  63 C :   -0.033431
  64 N :   -0.284028
  65 S :    0.651705
  66 N :   -0.287686
  67 C :   -0.048508
  68 C :   -0.125456
  69 C :   -0.032817
  70 C :   -0.021606
  71 C :   -0.198835
  72 S :    0.437200
  73 C :   -0.156091
  74 C :   -0.026598
  75 C :   -0.017317
  76 C :   -0.142082
  77 S :    0.368383
  78 C :   -0.053387
  79 H :    0.042058
  80 H :    0.042137
  81 H :    0.039462
  82 H :    0.035244
  83 H :    0.089053
  84 H :    0.046704
  85 H :    0.030921
  86 H :    0.023800
  87 H :    0.025018
  88 H :    0.027080
  89 H :    0.024715
  90 H :    0.021632
  91 H :    0.019392
  92 H :    0.025796
  93 H :    0.024465
  94 H :    0.024481
  95 H :    0.019579
  96 H :    0.021889
  97 H :    0.025509
  98 H :    0.021791
  99 H :    0.026104
 100 H :    0.025743
 101 H :    0.026833
 102 H :    0.025866
 103 H :    0.024699
 104 H :    0.026173
 105 H :    0.040602
 106 H :    0.036884
 107 H :    0.031645
 108 H :    0.035433
 109 H :    0.037038
 110 H :    0.032999
 111 H :    0.029925

  Mayer bond orders larger than 0.100000
B(  0-C ,  1-C ) :   1.6270 B(  0-C ,  6-C ) :   1.0011 B(  0-C , 18-C ) :   1.1028
B(  1-C ,  2-C ) :   1.1433 B(  1-C ,  4-C ) :   1.1477 B(  2-C ,  3-N ) :   2.9682
B(  4-C ,  5-N ) :   2.9549 B(  6-C ,  7-C ) :   1.2746 B(  6-C , 11-C ) :   1.4210
B(  7-C ,  8-C ) :   1.4197 B(  7-C , 16-C ) :   0.9759 B(  8-C ,  9-C ) :   1.2409
B(  8-C , 79-H ) :   1.0194 B(  9-C , 10-C ) :   1.3092 B(  9-C , 14-C ) :   1.1606
B( 10-C , 11-C ) :   1.3189 B( 10-C , 12-S ) :   1.0909 B( 11-C , 80-H ) :   0.9815
B( 12-S , 13-C ) :   1.0877 B( 13-C , 14-C ) :   1.6175 B( 13-C , 15-Br) :   1.0215
B( 14-C , 81-H ) :   1.0015 B( 16-C , 17-O ) :   2.0570 B( 16-C , 18-C ) :   0.9968
B( 17-O , 83-H ) :   0.1283 B( 18-C , 19-C ) :   1.4554 B( 19-C , 20-N ) :   1.3405
B( 19-C , 82-H ) :   0.9278 B( 20-N , 21-C ) :   1.1799 B( 20-N , 83-H ) :   0.8296
B( 21-C , 22-S ) :   1.1371 B( 21-C , 28-C ) :   1.3957 B( 22-S , 23-C ) :   1.0861
B( 23-C , 24-N ) :   0.9635 B( 23-C , 27-C ) :   1.4919 B( 24-N , 25-O ) :   1.5370
B( 24-N , 26-O ) :   1.5184 B( 25-O , 26-O ) :   0.2623 B( 27-C , 28-C ) :   1.2131
B( 27-C , 84-H ) :   1.0081 B( 28-C , 29-C ) :   1.0665 B( 29-C , 30-C ) :   1.7072
B( 29-C , 85-H ) :   0.9583 B( 30-C , 31-C ) :   1.0875 B( 30-C , 86-H ) :   0.9689
B( 31-C , 32-C ) :   1.2893 B( 31-C , 36-C ) :   1.3466 B( 32-C , 33-C ) :   1.3811
B( 32-C , 87-H ) :   1.0119 B( 33-C , 34-C ) :   1.3693 B( 33-C , 39-C ) :   0.9129
B( 34-C , 35-C ) :   1.3296 B( 34-C , 37-C ) :   0.9998 B( 35-C , 36-C ) :   1.3995
B( 35-C , 88-H ) :   0.9899 B( 36-C , 89-H ) :   0.9811 B( 37-C , 38-C ) :   1.3502
B( 37-C , 47-C ) :   1.3400 B( 38-C , 39-C ) :   0.9194 B( 38-C , 44-C ) :   1.4095
B( 39-C , 40-C ) :   1.0427 B( 39-C , 42-C ) :   1.0343 B( 40-C , 41-C ) :   1.0994
B( 40-C , 90-H ) :   0.9393 B( 40-C , 91-H ) :   0.9381 B( 41-C , 92-H ) :   0.9642
B( 41-C , 93-H ) :   0.9645 B( 41-C , 94-H ) :   0.9646 B( 42-C , 43-C ) :   1.1022
B( 42-C , 95-H ) :   0.9390 B( 42-C , 96-H ) :   0.9406 B( 43-C , 97-H ) :   0.9636
B( 43-C , 98-H ) :   0.9634 B( 43-C , 99-H ) :   0.9648 B( 44-C , 45-C ) :   1.2915
B( 44-C ,100-H ) :   1.0023 B( 45-C , 46-C ) :   1.3283 B( 45-C , 48-C ) :   1.0650
B( 46-C , 47-C ) :   1.3756 B( 46-C ,101-H ) :   0.9938 B( 47-C ,102-H ) :   0.9901
B( 48-C , 49-C ) :   1.5843 B( 48-C ,103-H ) :   0.9703 B( 49-C , 50-C ) :   1.1997
B( 49-C ,104-H ) :   0.9520 B( 50-C , 51-C ) :   1.2389 B( 50-C , 61-C ) :   0.1156
B( 50-C , 63-C ) :   1.1649 B( 51-C , 52-C ) :   1.1146 B( 51-C , 56-N ) :   1.4283
B( 52-C , 53-N ) :   1.4889 B( 52-C , 61-C ) :   1.1895 B( 53-N , 54-C ) :   1.7003
B( 54-C , 55-C ) :   1.2215 B( 54-C , 59-C ) :   1.1626 B( 55-C , 56-N ) :   1.7414
B( 55-C , 57-C ) :   1.1526 B( 57-C , 58-N ) :   3.0535 B( 59-C , 60-N ) :   3.0442
B( 61-C , 62-C ) :   1.1359 B( 61-C , 67-C ) :   1.2999 B( 62-C , 63-C ) :   1.1159
B( 62-C , 66-N ) :   1.4919 B( 63-C , 64-N ) :   1.5124 B( 64-N , 65-S ) :   1.2539
B( 64-N , 66-N ) :   0.1406 B( 65-S , 66-N ) :   1.2517 B( 67-C , 68-C ) :   1.4324
B( 67-C ,105-H ) :   0.9433 B( 68-C , 69-C ) :   1.1649 B( 68-C , 72-S ) :   1.0807
B( 69-C , 70-C ) :   1.5671 B( 69-C ,106-H ) :   1.0028 B( 70-C , 71-C ) :   1.1882
B( 70-C ,107-H ) :   0.9924 B( 71-C , 72-S ) :   1.0062 B( 71-C , 73-C ) :   1.5113
B( 73-C , 74-C ) :   1.1624 B( 73-C , 77-S ) :   1.0696 B( 74-C , 75-C ) :   1.6490
B( 74-C ,108-H ) :   0.9919 B( 75-C , 76-C ) :   1.0822 B( 75-C ,109-H ) :   0.9941
B( 76-C , 77-S ) :   1.0046 B( 76-C , 78-C ) :   1.8552 B( 78-C ,110-H ) :   0.9522
B( 78-C ,111-H ) :   0.9420

-----------------------------------------------------------------------------
         ABSORPTION SPECTRUM VIA TRANSITION ELECTRIC DIPOLE MOMENTS
-----------------------------------------------------------------------------
State   Energy  Wavelength   fosc         T2         TX        TY        TZ
        (cm-1)    (nm)                  (au**2)     (au)      (au)      (au)
-----------------------------------------------------------------------------
   0    6813.1   1467.8   0.479258950  23.15812  -1.75345  -4.33604   1.13239
   1   16850.9    593.4   0.115177559   2.25019   1.33327   0.00543  -0.68743
   2   18728.5    533.9   0.848409908  14.91343   0.14314  -3.85504   0.17787
   3   19671.4    508.4   0.216074736   3.61613   0.29646   1.79030   0.56840
   4   21966.6    455.2   0.209456034   3.13911   1.28285   1.02743  -0.66167
   5   22743.1    439.7   0.602892067   8.72702   1.38071  -1.89519  -1.79692
   6   22949.4    435.7   0.213863000   3.06789  -1.33006  -0.76920   0.84093
   7   23147.0    432.0   0.061095356   0.86894   0.48533  -0.66366   0.43925
   8   23450.6    426.4   0.014556790   0.20436  -0.27236  -0.36073  -0.00698
   9   26105.1    383.1   0.225421851   2.84280  -1.08669  -0.28826   1.25651
  10   26572.9    376.3   0.181973541   2.25447  -1.15153  -0.77755   0.56910
  11   26963.7    370.9   0.242253253   2.95778   1.37978   0.62927  -0.81118
  12   27466.1    364.1   0.003793264   0.04547  -0.02521   0.07968  -0.19617
  13   28058.3    356.4   0.231779544   2.71950   0.89003  -0.39495  -1.33092
  14   28683.7    348.6   0.002548097   0.02925   0.06620  -0.15362   0.03557
  15   29029.0    344.5   0.001531032   0.01736   0.07188  -0.02850   0.10670
  16   29381.2    340.4   0.047713840   0.53463   0.16403   0.51407  -0.49341
  17   29395.9    340.2   0.569128101   6.37380   0.87606   0.13615  -2.36385
  18   29850.4    335.0   0.156550257   1.72655  -0.52228  -0.94405   0.75003
  19   30268.1    330.4   0.079430393   0.86393  -0.81727   0.42168   0.13484
  20   30397.0    329.0   0.038316758   0.41499   0.40028  -0.04870  -0.50238
  21   31253.2    320.0   0.021774300   0.22936  -0.28275  -0.20552   0.32738
  22   31649.6    316.0   0.042797589   0.44517  -0.42213  -0.03519   0.51550
  23   31671.6    315.7   0.183515696   1.90756   0.41776   0.31049  -1.27931
  24   31951.6    313.0   0.614915236   6.33575  -0.82217   2.33894  -0.43491
  25   32265.0    309.9   0.218013811   2.22447   1.08143   0.01693  -1.02698
  26   32311.2    309.5   0.237950233   2.42443   1.40509  -0.09894  -0.66360
  27   33357.9    299.8   0.021978851   0.21691   0.37914   0.22016  -0.15714
  28   33474.1    298.7   0.005615604   0.05523   0.12700  -0.05875   0.18880
  29   33623.2    297.4   0.007898305   0.07733  -0.24086   0.07841   0.11477
  30   33736.3    296.4   0.066342620   0.64740   0.43713  -0.14446  -0.65988
  31   33894.4    295.0   0.490808123   4.76715   0.53350   1.47023  -1.52347
  32   34016.1    294.0   0.041335084   0.40005  -0.09703  -0.42293   0.46017
  33   34482.4    290.0   0.035855872   0.34233   0.57264  -0.11947  -0.01147
  34   34515.8    289.7   0.009956430   0.09496  -0.19826  -0.06863   0.22572
  35   35056.9    285.3   0.088266122   0.82889   0.46402  -0.65328   0.43219
  36   35248.2    283.7   0.203278739   1.89859  -1.01946  -0.47968   0.79322
  37   35724.5    279.9   0.002627684   0.02421  -0.07418   0.13318   0.03124
  38   35953.0    278.1   0.156538982   1.43339  -0.13712   1.08979  -0.47639
  39   36203.3    276.2   0.121812726   1.10769   0.88434  -0.40221  -0.40481
  40   36499.6    274.0   0.147034842   1.32620  -0.48638   1.03627  -0.12557
  41   36775.3    271.9   0.007518597   0.06731  -0.16156   0.20282   0.00835
  42   37276.9    268.3   0.046873579   0.41396  -0.30296   0.12198   0.55435
  43   37390.9    267.4   0.082011174   0.72208   0.23631   0.34810  -0.73828
  44   37515.5    266.6   0.036992346   0.32462   0.09508   0.39985  -0.39459
  45   38108.1    262.4   0.056819193   0.49085  -0.14610  -0.68060  -0.07929
  46   38356.1    260.7   0.059052735   0.50685   0.28408  -0.52895  -0.38258
  47   38686.9    258.5   0.105353942   0.89653  -0.34624   0.77678   0.41625
  48   38885.9    257.2   0.009142828   0.07740  -0.04366  -0.10773  -0.25277
  49   39190.3    255.2   0.036105632   0.30330   0.33796  -0.42151  -0.10685
  50   39246.3    254.8   0.002907745   0.02439  -0.01134   0.13701   0.07410
  51   39406.0    253.8   0.043118846   0.36023   0.48938  -0.26425  -0.22562
  52   39653.0    252.2   0.124871136   1.03672   0.87847  -0.32005  -0.40320
  53   39923.7    250.5   0.010728173   0.08846  -0.26225  -0.10175   0.09664
  54   40012.2    249.9   0.036892727   0.30355   0.42167  -0.32419  -0.14367
  55   40130.5    249.2   0.001963826   0.01611   0.02905  -0.11601  -0.04253

FINAL SINGLE POINT ENERGY     -7639.662032894296

DIPOLE MOMENT
-------------
                                X             Y             Z
Electronic contribution:     -4.73461    -128.22409     -70.82391
Nuclear contribution   :      5.13195     135.40082      67.83329
                        -----------------------------------------
Total Dipole Moment    :      0.39735       7.17674      -2.99062
                        -----------------------------------------
Magnitude (a.u.)       :      7.78507
Magnitude (Debye)      :     19.78806

Rotational constants in cm-1:     0.000880     0.000186     0.000161
Rotational constants in MHz :    26.394088     5.581291     4.820224

                             ****ORCA TERMINATED NORMALLY****
TOTAL RUN TIME: 0 days 0 hours 12 minutes 13 seconds 381 msec
