                         Program Version 4.2.0 -  RELEASE  -
|  1> # ORCA input file
|  2> # SCF done       -198.955989663634          0.000563961953
|  3> ! CAM-B3LYP def2-SVP def2/J RIJCOSX Grid4 TightSCF
|  4> %maxcore 5000
|  5> %tddft
|  6>     Mode sTDDFT
|  7>     Ethresh 5.0
|  8>     maxcore 5000
|  9> end
| 10>
| 11> %pal
| 12>   nprocs 6
| 13>   end
| 14> * xyz 0 1
| 15>    C      -14.43191         2.40871        -3.20848
| 16>    C      -15.37650         2.00596        -2.29917
| 17>    C      -16.75657         2.26255        -2.42226
| 18>    N      -17.88915         2.44468        -2.46960
| 19>    C      -15.07959         1.30492        -1.11299
| 20>    N      -14.88356         0.74291        -0.13129
| 21>    C      -14.68979         3.17079        -4.42849
| 22>    C      -13.45340         3.45582        -5.06359
| 23>    C      -13.37065         4.15526        -6.24292
| 24>    C      -14.56432         4.59084        -6.82850
| 25>    C      -15.79255         4.30031        -6.18923
| 26>    C      -15.87614         3.59613        -4.99316
| 27>    S      -17.14299         4.92245        -7.08681
| 28>    C      -16.05491         5.55543        -8.29325
| 29>    C      -14.74675         5.31523        -8.03817
| 30>   Br      -16.74796         6.47380        -9.77419
| 31>    C      -12.36523         2.86774        -4.26971
| 32>    O      -11.16244         2.91455        -4.50221
| 33>    C      -13.00753         2.18925        -3.13979
| 34>    C      -12.28517         1.42866        -2.25127
| 35>    N      -10.95714         1.33630        -2.36362
| 36>    C      -10.13375         0.51280        -1.66632
| 37>    S      -10.74643        -0.68196        -0.56393
| 38>    C       -9.13248        -1.28171        -0.35413
| 39>    N       -8.94674        -2.35417         0.53021
| 40>    O       -7.81534        -2.77258         0.68138
| 41>    O       -9.94279        -2.78698         1.08183
| 42>    C       -8.19479        -0.61178        -1.09265
| 43>    C       -8.74603         0.44749        -1.83962
| 44>    C       -7.96860         1.33223        -2.66635
| 45>    C       -8.25247         2.64025        -2.85017
| 46>    C       -7.53590         3.56575        -3.66698
| 47>    C       -6.62104         3.22897        -4.68872
| 48>    C       -5.92993         4.23657        -5.45427
| 49>    N       -5.09062         3.88107        -6.42570
| 50>    C       -4.89321         2.60206        -6.68219
| 51>    C       -5.57536         1.60332        -5.92710
| 52>    N       -6.40955         1.92997        -4.96908
| 53>    C       -5.36334         0.23000        -6.21021
| 54>    N       -5.16765        -0.87136        -6.45698
| 55>    C       -4.00395         2.24045        -7.72021
| 56>    N       -3.28694         1.92215        -8.55628
| 57>    C       -6.08883         5.64231        -5.20152
| 58>    C       -7.04425         5.96569        -4.20338
| 59>    C       -7.76005         4.94820        -3.47470
| 60>    N       -8.61684         5.47541        -2.60048
| 61>    S       -8.54131         7.08131        -2.68536
| 62>    N       -7.40964         7.18500        -3.83206
| 63>    C       -5.31347         6.53958        -5.93523
| 64>    C       -5.13291         7.90887        -5.83009
| 65>    C       -4.24246         8.61645        -6.66960
| 66>    C       -4.10800         9.94221        -6.36689
| 67>    C       -4.88702        10.33467        -5.26591
| 68>    S       -5.83097         8.99471        -4.65693
| 69>    C       -4.93852        11.58862        -4.66431
| 70>    C       -4.25073        12.75869        -5.03411
| 71>    C       -4.48936        13.81895        -4.20614
| 72>    C       -5.37295        13.53836        -3.14079
| 73>    S       -5.91110        11.87277        -3.24409
| 74>    C       -5.71406        14.44158        -2.15432
| 75>    C       -6.56756        14.25370        -1.07017
| 76>    S       -7.49362        12.78150        -0.94228
| 77>    C       -8.29112        13.28191         0.49421
| 78>    C       -7.79903        14.51994         0.92984
| 79>    C       -6.84044        15.10561         0.03323
| 80>    C       -6.24919        16.34919         0.38445
| 81>    C       -5.32966        17.15001        -0.45187
| 82>    O       -5.34452        17.25702        -1.65533
| 83>    O       -4.45155        17.84402         0.28935
| 84>    C       -6.57494        16.91895         1.60377
| 85>    C       -7.46187        16.32370         2.49268
| 86>    C       -8.07832        15.13311         2.18113
| 87>    O       -8.90269        14.51826         3.05075
| 88>    C       -9.32868        12.41497         0.98898
| 89>    C      -10.47928        12.79701         1.53826
| 90>    H      -12.41615         4.35543        -6.70392
| 91>    H      -16.83627         3.39621        -4.54774
| 92>    H      -13.94280         5.63275        -8.67678
| 93>    H      -12.75507         0.87344        -1.44931
| 94>    H      -10.54729         1.88485        -3.14192
| 95>    H       -7.14997        -0.86405        -1.07432
| 96>    H       -7.08434         0.90635        -3.11528
| 97>    H       -9.04460         3.10797        -2.27862
| 98>    H       -4.71134         6.06359        -6.70118
| 99>    H       -3.71682         8.12188        -7.46735
|100>    H       -3.46603        10.62132        -6.89842
|101>    H       -3.60065        12.79389        -5.88927
|102>    H       -4.05478        14.79539        -4.32560
|103>    H       -5.26845        15.41804        -2.26209
|104>    H       -3.90186        18.39779        -0.28773
|105>    H       -6.12212        17.85822         1.87723
|106>    H       -7.66204        16.79744         3.44361
|107>    H       -8.94706        15.01932         3.87626
|108>    H       -9.15901        11.36426         0.78617
|109>    H      -10.72633        13.83079         1.69622
|110>    H      -11.21321        12.07113         1.84059
|111> *
|112>
|113>                          ****END OF INPUT****

CARTESIAN COORDINATES (ANGSTROEM)
---------------------------------
  C    -14.431910    2.408710   -3.208480
  C    -15.376500    2.005960   -2.299170
  C    -16.756570    2.262550   -2.422260
  N    -17.889150    2.444680   -2.469600
  C    -15.079590    1.304920   -1.112990
  N    -14.883560    0.742910   -0.131290
  C    -14.689790    3.170790   -4.428490
  C    -13.453400    3.455820   -5.063590
  C    -13.370650    4.155260   -6.242920
  C    -14.564320    4.590840   -6.828500
  C    -15.792550    4.300310   -6.189230
  C    -15.876140    3.596130   -4.993160
  S    -17.142990    4.922450   -7.086810
  C    -16.054910    5.555430   -8.293250
  C    -14.746750    5.315230   -8.038170
  Br   -16.747960    6.473800   -9.774190
  C    -12.365230    2.867740   -4.269710
  O    -11.162440    2.914550   -4.502210
  C    -13.007530    2.189250   -3.139790
  C    -12.285170    1.428660   -2.251270
  N    -10.957140    1.336300   -2.363620
  C    -10.133750    0.512800   -1.666320
  S    -10.746430   -0.681960   -0.563930
  C     -9.132480   -1.281710   -0.354130
  N     -8.946740   -2.354170    0.530210
  O     -7.815340   -2.772580    0.681380
  O     -9.942790   -2.786980    1.081830
  C     -8.194790   -0.611780   -1.092650
  C     -8.746030    0.447490   -1.839620
  C     -7.968600    1.332230   -2.666350
  C     -8.252470    2.640250   -2.850170
  C     -7.535900    3.565750   -3.666980
  C     -6.621040    3.228970   -4.688720
  C     -5.929930    4.236570   -5.454270
  N     -5.090620    3.881070   -6.425700
  C     -4.893210    2.602060   -6.682190
  C     -5.575360    1.603320   -5.927100
  N     -6.409550    1.929970   -4.969080
  C     -5.363340    0.230000   -6.210210
  N     -5.167650   -0.871360   -6.456980
  C     -4.003950    2.240450   -7.720210
  N     -3.286940    1.922150   -8.556280
  C     -6.088830    5.642310   -5.201520
  C     -7.044250    5.965690   -4.203380
  C     -7.760050    4.948200   -3.474700
  N     -8.616840    5.475410   -2.600480
  S     -8.541310    7.081310   -2.685360
  N     -7.409640    7.185000   -3.832060
  C     -5.313470    6.539580   -5.935230
  C     -5.132910    7.908870   -5.830090
  C     -4.242460    8.616450   -6.669600
  C     -4.108000    9.942210   -6.366890
  C     -4.887020   10.334670   -5.265910
  S     -5.830970    8.994710   -4.656930
  C     -4.938520   11.588620   -4.664310
  C     -4.250730   12.758690   -5.034110
  C     -4.489360   13.818950   -4.206140
  C     -5.372950   13.538360   -3.140790
  S     -5.911100   11.872770   -3.244090
  C     -5.714060   14.441580   -2.154320
  C     -6.567560   14.253700   -1.070170
  S     -7.493620   12.781500   -0.942280
  C     -8.291120   13.281910    0.494210
  C     -7.799030   14.519940    0.929840
  C     -6.840440   15.105610    0.033230
  C     -6.249190   16.349190    0.384450
  C     -5.329660   17.150010   -0.451870
  O     -5.344520   17.257020   -1.655330
  O     -4.451550   17.844020    0.289350
  C     -6.574940   16.918950    1.603770
  C     -7.461870   16.323700    2.492680
  C     -8.078320   15.133110    2.181130
  O     -8.902690   14.518260    3.050750
  C     -9.328680   12.414970    0.988980
  C    -10.479280   12.797010    1.538260
  H    -12.416150    4.355430   -6.703920
  H    -16.836270    3.396210   -4.547740
  H    -13.942800    5.632750   -8.676780
  H    -12.755070    0.873440   -1.449310
  H    -10.547290    1.884850   -3.141920
  H     -7.149970   -0.864050   -1.074320
  H     -7.084340    0.906350   -3.115280
  H     -9.044600    3.107970   -2.278620
  H     -4.711340    6.063590   -6.701180
  H     -3.716820    8.121880   -7.467350
  H     -3.466030   10.621320   -6.898420
  H     -3.600650   12.793890   -5.889270
  H     -4.054780   14.795390   -4.325600
  H     -5.268450   15.418040   -2.262090
  H     -3.901860   18.397790   -0.287730
  H     -6.122120   17.858220    1.877230
  H     -7.662040   16.797440    3.443610
  H     -8.947060   15.019320    3.876260
  H     -9.159010   11.364260    0.786170
  H    -10.726330   13.830790    1.696220
  H    -11.213210   12.071130    1.840590

 Total Charge           Charge          ....    0
 Multiplicity           Mult            ....    1
 Number of Electrons    NEL             ....  582
 Basis Dimension        Dim             .... 1197

ORBITAL ENERGIES
----------------

  NO   OCC          E(Eh)            E(eV)
   0   2.0000    -482.885454    -13139.9812
   1   2.0000     -89.027003     -2422.5479
   2   2.0000     -88.988938     -2421.5121
   3   2.0000     -88.979221     -2421.2477
   4   2.0000     -88.975399     -2421.1437
   5   2.0000     -88.969772     -2420.9906
   6   2.0000     -88.960682     -2420.7432
   7   2.0000     -62.563177     -1702.4306
   8   2.0000     -56.397127     -1534.6438
   9   2.0000     -56.394412     -1534.5700
  10   2.0000     -56.394377     -1534.5690
  11   2.0000     -19.285963      -524.7977
  12   2.0000     -19.280101      -524.6382
  13   2.0000     -19.229416      -523.2590
  14   2.0000     -19.228850      -523.2436
  15   2.0000     -19.224062      -523.1133
  16   2.0000     -19.223857      -523.1077
  17   2.0000     -14.641042      -398.4030
  18   2.0000     -14.487018      -394.2118
  19   2.0000     -14.446612      -393.1123
  20   2.0000     -14.445819      -393.0907
  21   2.0000     -14.439013      -392.9055
  22   2.0000     -14.434353      -392.7787
  23   2.0000     -14.416974      -392.3058
  24   2.0000     -14.413614      -392.2144
  25   2.0000     -14.410724      -392.1357
  26   2.0000     -14.410248      -392.1228
  27   2.0000     -10.425789      -283.7001
  28   2.0000     -10.378128      -282.4032
  29   2.0000     -10.371683      -282.2279
  30   2.0000     -10.365462      -282.0586
  31   2.0000     -10.361435      -281.9490
  32   2.0000     -10.358917      -281.8805
  33   2.0000     -10.358372      -281.8656
  34   2.0000     -10.356260      -281.8082
  35   2.0000     -10.340926      -281.3909
  36   2.0000     -10.339172      -281.3432
  37   2.0000     -10.336948      -281.2827
  38   2.0000     -10.336606      -281.2733
  39   2.0000     -10.336101      -281.2596
  40   2.0000     -10.332726      -281.1678
  41   2.0000     -10.332384      -281.1585
  42   2.0000     -10.331250      -281.1276
  43   2.0000     -10.327856      -281.0353
  44   2.0000     -10.326556      -280.9999
  45   2.0000     -10.325566      -280.9729
  46   2.0000     -10.325018      -280.9580
  47   2.0000     -10.323576      -280.9188
  48   2.0000     -10.322646      -280.8935
  49   2.0000     -10.316267      -280.7199
  50   2.0000     -10.313874      -280.6548
  51   2.0000     -10.313871      -280.6547
  52   2.0000     -10.312920      -280.6288
  53   2.0000     -10.310472      -280.5622
  54   2.0000     -10.310124      -280.5527
  55   2.0000     -10.309294      -280.5302
  56   2.0000     -10.307657      -280.4856
  57   2.0000     -10.307608      -280.4843
  58   2.0000     -10.306944      -280.4662
  59   2.0000     -10.306786      -280.4619
  60   2.0000     -10.306521      -280.4547
  61   2.0000     -10.306198      -280.4459
  62   2.0000     -10.304842      -280.4090
  63   2.0000     -10.302052      -280.3331
  64   2.0000     -10.301131      -280.3080
  65   2.0000     -10.300178      -280.2821
  66   2.0000     -10.299340      -280.2593
  67   2.0000     -10.298637      -280.2402
  68   2.0000     -10.296607      -280.1849
  69   2.0000     -10.295822      -280.1636
  70   2.0000     -10.294109      -280.1170
  71   2.0000     -10.293523      -280.1010
  72   2.0000     -10.291078      -280.0345
  73   2.0000     -10.290473      -280.0180
  74   2.0000     -10.289802      -279.9998
  75   2.0000     -10.287283      -279.9312
  76   2.0000     -10.281391      -279.7709
  77   2.0000     -10.274726      -279.5895
  78   2.0000     -10.271385      -279.4986
  79   2.0000      -8.792617      -239.2593
  80   2.0000      -8.118593      -220.9181
  81   2.0000      -8.084547      -219.9917
  82   2.0000      -8.074490      -219.7180
  83   2.0000      -8.071435      -219.6349
  84   2.0000      -8.065765      -219.4806
  85   2.0000      -8.054942      -219.1861
  86   2.0000      -6.628926      -180.3823
  87   2.0000      -6.614335      -179.9852
  88   2.0000      -6.614157      -179.9804
  89   2.0000      -6.089887      -165.7142
  90   2.0000      -6.082283      -165.5073
  91   2.0000      -6.080750      -165.4656
  92   2.0000      -6.053448      -164.7227
  93   2.0000      -6.049245      -164.6083
  94   2.0000      -6.047386      -164.5577
  95   2.0000      -6.044092      -164.4681
  96   2.0000      -6.041107      -164.3869
  97   2.0000      -6.039758      -164.3502
  98   2.0000      -6.036840      -164.2708
  99   2.0000      -6.036017      -164.2484
 100   2.0000      -6.035360      -164.2305
 101   2.0000      -6.032666      -164.1572
 102   2.0000      -6.031165      -164.1163
 103   2.0000      -6.027099      -164.0057
 104   2.0000      -6.024595      -163.9376
 105   2.0000      -6.020198      -163.8179
 106   2.0000      -6.016436      -163.7156
 107   2.0000      -2.744781       -74.6893
 108   2.0000      -2.740702       -74.5783
 109   2.0000      -2.740577       -74.5749
 110   2.0000      -2.728970       -74.2590
 111   2.0000      -2.728959       -74.2588
 112   2.0000      -1.311094       -35.6767
 113   2.0000      -1.209978       -32.9252
 114   2.0000      -1.184899       -32.2427
 115   2.0000      -1.138717       -30.9861
 116   2.0000      -1.130163       -30.7533
 117   2.0000      -1.127464       -30.6799
 118   2.0000      -1.112043       -30.2602
 119   2.0000      -1.101585       -29.9757
 120   2.0000      -1.094250       -29.7761
 121   2.0000      -1.028342       -27.9826
 122   2.0000      -1.023855       -27.8605
 123   2.0000      -1.021955       -27.8088
 124   2.0000      -1.011208       -27.5164
 125   2.0000      -1.010954       -27.5095
 126   2.0000      -0.999763       -27.2049
 127   2.0000      -0.998672       -27.1752
 128   2.0000      -0.991753       -26.9870
 129   2.0000      -0.991479       -26.9795
 130   2.0000      -0.987418       -26.8690
 131   2.0000      -0.987345       -26.8670
 132   2.0000      -0.980896       -26.6915
 133   2.0000      -0.961806       -26.1721
 134   2.0000      -0.960756       -26.1435
 135   2.0000      -0.940793       -25.6003
 136   2.0000      -0.925408       -25.1816
 137   2.0000      -0.913972       -24.8704
 138   2.0000      -0.907717       -24.7002
 139   2.0000      -0.902166       -24.5492
 140   2.0000      -0.893137       -24.3035
 141   2.0000      -0.890253       -24.2250
 142   2.0000      -0.885451       -24.0943
 143   2.0000      -0.883453       -24.0400
 144   2.0000      -0.879695       -23.9377
 145   2.0000      -0.871850       -23.7242
 146   2.0000      -0.866408       -23.5762
 147   2.0000      -0.857694       -23.3391
 148   2.0000      -0.855508       -23.2796
 149   2.0000      -0.845231       -22.9999
 150   2.0000      -0.838134       -22.8068
 151   2.0000      -0.835357       -22.7312
 152   2.0000      -0.829007       -22.5584
 153   2.0000      -0.817946       -22.2574
 154   2.0000      -0.813708       -22.1421
 155   2.0000      -0.793739       -21.5987
 156   2.0000      -0.788833       -21.4652
 157   2.0000      -0.779702       -21.2168
 158   2.0000      -0.768981       -20.9250
 159   2.0000      -0.759925       -20.6786
 160   2.0000      -0.755474       -20.5575
 161   2.0000      -0.740388       -20.1470
 162   2.0000      -0.730196       -19.8696
 163   2.0000      -0.726158       -19.7598
 164   2.0000      -0.724369       -19.7111
 165   2.0000      -0.720364       -19.6021
 166   2.0000      -0.716611       -19.5000
 167   2.0000      -0.704917       -19.1818
 168   2.0000      -0.694688       -18.9034
 169   2.0000      -0.690983       -18.8026
 170   2.0000      -0.686935       -18.6925
 171   2.0000      -0.686120       -18.6703
 172   2.0000      -0.679498       -18.4901
 173   2.0000      -0.670773       -18.2527
 174   2.0000      -0.664177       -18.0732
 175   2.0000      -0.659040       -17.9334
 176   2.0000      -0.655459       -17.8360
 177   2.0000      -0.651958       -17.7407
 178   2.0000      -0.640666       -17.4334
 179   2.0000      -0.638231       -17.3671
 180   2.0000      -0.631137       -17.1741
 181   2.0000      -0.629705       -17.1351
 182   2.0000      -0.627254       -17.0684
 183   2.0000      -0.622457       -16.9379
 184   2.0000      -0.622178       -16.9303
 185   2.0000      -0.616993       -16.7892
 186   2.0000      -0.616082       -16.7644
 187   2.0000      -0.613026       -16.6813
 188   2.0000      -0.609431       -16.5835
 189   2.0000      -0.601087       -16.3564
 190   2.0000      -0.600387       -16.3374
 191   2.0000      -0.598069       -16.2743
 192   2.0000      -0.589935       -16.0529
 193   2.0000      -0.581871       -15.8335
 194   2.0000      -0.579847       -15.7784
 195   2.0000      -0.576726       -15.6935
 196   2.0000      -0.571586       -15.5536
 197   2.0000      -0.570842       -15.5334
 198   2.0000      -0.563375       -15.3302
 199   2.0000      -0.561761       -15.2863
 200   2.0000      -0.558661       -15.2019
 201   2.0000      -0.553694       -15.0668
 202   2.0000      -0.552661       -15.0387
 203   2.0000      -0.549935       -14.9645
 204   2.0000      -0.546069       -14.8593
 205   2.0000      -0.543487       -14.7890
 206   2.0000      -0.542542       -14.7633
 207   2.0000      -0.540107       -14.6971
 208   2.0000      -0.538472       -14.6526
 209   2.0000      -0.533561       -14.5189
 210   2.0000      -0.533131       -14.5072
 211   2.0000      -0.530533       -14.4365
 212   2.0000      -0.524804       -14.2807
 213   2.0000      -0.521906       -14.2018
 214   2.0000      -0.518974       -14.1220
 215   2.0000      -0.516336       -14.0502
 216   2.0000      -0.514307       -13.9950
 217   2.0000      -0.514033       -13.9875
 218   2.0000      -0.511062       -13.9067
 219   2.0000      -0.506930       -13.7943
 220   2.0000      -0.500380       -13.6160
 221   2.0000      -0.499894       -13.6028
 222   2.0000      -0.497875       -13.5479
 223   2.0000      -0.496353       -13.5065
 224   2.0000      -0.494313       -13.4509
 225   2.0000      -0.493117       -13.4184
 226   2.0000      -0.492034       -13.3889
 227   2.0000      -0.488337       -13.2883
 228   2.0000      -0.481404       -13.0997
 229   2.0000      -0.479548       -13.0492
 230   2.0000      -0.476053       -12.9541
 231   2.0000      -0.475706       -12.9446
 232   2.0000      -0.470761       -12.8101
 233   2.0000      -0.467463       -12.7203
 234   2.0000      -0.466723       -12.7002
 235   2.0000      -0.462179       -12.5765
 236   2.0000      -0.462156       -12.5759
 237   2.0000      -0.460295       -12.5253
 238   2.0000      -0.458769       -12.4837
 239   2.0000      -0.454328       -12.3629
 240   2.0000      -0.454043       -12.3551
 241   2.0000      -0.449209       -12.2236
 242   2.0000      -0.446614       -12.1530
 243   2.0000      -0.446348       -12.1458
 244   2.0000      -0.443279       -12.0622
 245   2.0000      -0.440738       -11.9931
 246   2.0000      -0.440138       -11.9768
 247   2.0000      -0.438477       -11.9316
 248   2.0000      -0.438136       -11.9223
 249   2.0000      -0.437542       -11.9061
 250   2.0000      -0.436655       -11.8820
 251   2.0000      -0.433837       -11.8053
 252   2.0000      -0.428670       -11.6647
 253   2.0000      -0.424460       -11.5502
 254   2.0000      -0.423664       -11.5285
 255   2.0000      -0.420958       -11.4548
 256   2.0000      -0.418291       -11.3823
 257   2.0000      -0.416162       -11.3243
 258   2.0000      -0.409708       -11.1487
 259   2.0000      -0.409315       -11.1380
 260   2.0000      -0.407302       -11.0833
 261   2.0000      -0.405510       -11.0345
 262   2.0000      -0.401015       -10.9122
 263   2.0000      -0.393928       -10.7193
 264   2.0000      -0.390880       -10.6364
 265   2.0000      -0.387770       -10.5518
 266   2.0000      -0.383404       -10.4330
 267   2.0000      -0.377670       -10.2769
 268   2.0000      -0.376062       -10.2332
 269   2.0000      -0.374959       -10.2032
 270   2.0000      -0.372971       -10.1491
 271   2.0000      -0.369204       -10.0466
 272   2.0000      -0.367914       -10.0115
 273   2.0000      -0.358117        -9.7449
 274   2.0000      -0.356713        -9.7067
 275   2.0000      -0.354867        -9.6564
 276   2.0000      -0.351393        -9.5619
 277   2.0000      -0.347513        -9.4563
 278   2.0000      -0.343183        -9.3385
 279   2.0000      -0.341428        -9.2907
 280   2.0000      -0.338452        -9.2097
 281   2.0000      -0.336465        -9.1557
 282   2.0000      -0.334604        -9.1050
 283   2.0000      -0.333459        -9.0739
 284   2.0000      -0.323025        -8.7899
 285   2.0000      -0.316647        -8.6164
 286   2.0000      -0.300222        -8.1695
 287   2.0000      -0.293339        -7.9822
 288   2.0000      -0.275139        -7.4869
 289   2.0000      -0.255925        -6.9641
 290   2.0000      -0.208954        -5.6859
 291   0.0000      -0.125054        -3.4029
 292   0.0000      -0.082583        -2.2472
 293   0.0000      -0.079831        -2.1723
 294   0.0000      -0.062514        -1.7011
 295   0.0000      -0.049801        -1.3552

MULLIKEN ATOMIC CHARGES
-----------------------
   0 C :    0.326240
   1 C :   -0.347319
   2 C :   -0.184523
   3 N :    0.143843
   4 C :   -0.198317
   5 N :    0.143849
   6 C :    0.008202
   7 C :   -0.003615
   8 C :   -0.072075
   9 C :    0.115540
  10 C :   -0.090878
  11 C :   -0.022159
  12 S :    0.187103
  13 C :   -0.124151
  14 C :    0.039718
  15 Br:    0.022638
  16 C :    0.163237
  17 O :   -0.208220
  18 C :   -0.130638
  19 C :    0.023900
  20 N :   -0.005444
  21 C :   -0.124116
  22 S :    0.169942
  23 C :    0.003493
  24 N :    0.275230
  25 O :   -0.247309
  26 O :   -0.260365
  27 C :    0.015150
  28 C :    0.126615
  29 C :   -0.010459
  30 C :   -0.074352
  31 C :    0.042913
  32 C :   -0.044568
  33 C :   -0.053133
  34 N :    0.047241
  35 C :   -0.152615
  36 C :   -0.115723
  37 N :    0.024323
  38 C :   -0.224163
  39 N :    0.235591
  40 C :   -0.222697
  41 N :    0.220425
  42 C :    0.118775
  43 C :    0.028890
  44 C :    0.023518
  45 N :   -0.295777
  46 S :    0.503611
  47 N :   -0.321142
  48 C :   -0.136914
  49 C :    0.020491
  50 C :    0.014439
  51 C :    0.042995
  52 C :   -0.046429
  53 S :    0.141561
  54 C :   -0.019435
  55 C :    0.019366
  56 C :    0.046324
  57 C :   -0.068485
  58 S :    0.084814
  59 C :    0.013350
  60 C :   -0.152722
  61 S :    0.149253
  62 C :   -0.131395
  63 C :    0.067084
  64 C :    0.172588
  65 C :   -0.065730
  66 C :    0.137786
  67 O :   -0.216040
  68 O :   -0.171234
  69 C :    0.030495
  70 C :   -0.076810
  71 C :    0.134238
  72 O :   -0.155417
  73 C :   -0.009044
  74 C :    0.031325
  75 H :   -0.012264
  76 H :   -0.006047
  77 H :   -0.004466
  78 H :    0.045726
  79 H :    0.184382
  80 H :    0.012627
  81 H :    0.014815
  82 H :   -0.002656
  83 H :    0.005456
  84 H :   -0.001733
  85 H :   -0.010720
  86 H :   -0.008651
  87 H :    0.004232
  88 H :    0.016706
  89 H :    0.193476
  90 H :    0.005893
  91 H :   -0.031553
  92 H :    0.190975
  93 H :    0.010432
  94 H :    0.025136
  95 H :    0.035549
Sum of atomic charges:   -0.0000000

LOEWDIN ATOMIC CHARGES
----------------------
   0 C :    0.079116
   1 C :   -0.153306
   2 C :   -0.019852
   3 N :   -0.059430
   4 C :   -0.021550
   5 N :   -0.055913
   6 C :   -0.017706
   7 C :   -0.049893
   8 C :    0.022012
   9 C :   -0.035029
  10 C :   -0.144751
  11 C :   -0.009184
  12 S :    0.434071
  13 C :   -0.272916
  14 C :   -0.070060
  15 Br:    0.135920
  16 C :    0.092584
  17 O :   -0.170731
  18 C :   -0.149639
  19 C :    0.108927
  20 N :    0.087547
  21 C :   -0.117872
  22 S :    0.466153
  23 C :   -0.202880
  24 N :    0.272995
  25 O :   -0.213528
  26 O :   -0.226635
  27 C :    0.004131
  28 C :   -0.077416
  29 C :   -0.027406
  30 C :   -0.013474
  31 C :   -0.074513
  32 C :    0.004398
  33 C :   -0.010000
  34 N :   -0.001812
  35 C :   -0.056709
  36 C :   -0.023193
  37 N :   -0.012804
  38 C :   -0.034630
  39 N :   -0.012929
  40 C :   -0.039754
  41 N :   -0.026986
  42 C :   -0.024225
  43 C :   -0.045724
  44 C :   -0.030901
  45 N :   -0.299915
  46 S :    0.627918
  47 N :   -0.292132
  48 C :   -0.043931
  49 C :   -0.126160
  50 C :   -0.039231
  51 C :   -0.020585
  52 C :   -0.207471
  53 S :    0.454124
  54 C :   -0.143302
  55 C :   -0.052341
  56 C :   -0.002552
  57 C :   -0.178024
  58 S :    0.386378
  59 C :   -0.025775
  60 C :   -0.189580
  61 S :    0.497012
  62 C :   -0.140402
  63 C :   -0.074028
  64 C :   -0.004105
  65 C :   -0.094360
  66 C :    0.095388
  67 O :   -0.184306
  68 O :   -0.031814
  69 C :    0.032245
  70 C :   -0.099846
  71 C :    0.086510
  72 O :   -0.016163
  73 C :   -0.061028
  74 C :    0.000521
  75 H :    0.040708
  76 H :    0.041547
  77 H :    0.038561
  78 H :    0.035913
  79 H :    0.091436
  80 H :    0.048239
  81 H :    0.030747
  82 H :    0.028564
  83 H :    0.041269
  84 H :    0.036686
  85 H :    0.032096
  86 H :    0.034181
  87 H :    0.040338
  88 H :    0.042527
  89 H :    0.102031
  90 H :    0.038029
  91 H :    0.029375
  92 H :    0.103585
  93 H :    0.033060
  94 H :    0.022866
  95 H :    0.030695

  Mayer bond orders larger than 0.100000
B(  0-C ,  1-C ) :   1.6187 B(  0-C ,  6-C ) :   0.9997 B(  0-C , 18-C ) :   1.1113
B(  1-C ,  2-C ) :   1.1416 B(  1-C ,  4-C ) :   1.1492 B(  2-C ,  3-N ) :   2.9681
B(  4-C ,  5-N ) :   2.9594 B(  6-C ,  7-C ) :   1.2772 B(  6-C , 11-C ) :   1.4244
B(  7-C ,  8-C ) :   1.4258 B(  7-C , 16-C ) :   0.9709 B(  8-C ,  9-C ) :   1.2384
B(  8-C , 75-H ) :   1.0187 B(  9-C , 10-C ) :   1.3141 B(  9-C , 14-C ) :   1.1626
B( 10-C , 11-C ) :   1.3176 B( 10-C , 12-S ) :   1.0881 B( 11-C , 76-H ) :   0.9805
B( 12-S , 13-C ) :   1.0874 B( 13-C , 14-C ) :   1.6178 B( 13-C , 15-Br) :   1.0183
B( 14-C , 77-H ) :   1.0003 B( 16-C , 17-O ) :   2.0620 B( 16-C , 18-C ) :   0.9997
B( 17-O , 79-H ) :   0.1315 B( 18-C , 19-C ) :   1.4316 B( 19-C , 20-N ) :   1.3574
B( 19-C , 78-H ) :   0.9331 B( 20-N , 21-C ) :   1.1744 B( 20-N , 79-H ) :   0.8228
B( 21-C , 22-S ) :   1.1319 B( 21-C , 28-C ) :   1.3936 B( 22-S , 23-C ) :   1.0845
B( 23-C , 24-N ) :   0.9651 B( 23-C , 27-C ) :   1.4878 B( 24-N , 25-O ) :   1.5390
B( 24-N , 26-O ) :   1.5155 B( 25-O , 26-O ) :   0.2608 B( 27-C , 28-C ) :   1.2194
B( 27-C , 80-H ) :   1.0096 B( 28-C , 29-C ) :   1.0524 B( 29-C , 30-C ) :   1.6512
B( 29-C , 81-H ) :   0.9538 B( 30-C , 31-C ) :   1.2106 B( 30-C , 82-H ) :   0.9448
B( 31-C , 32-C ) :   1.2568 B( 31-C , 44-C ) :   1.1805 B( 32-C , 33-C ) :   1.1177
B( 32-C , 37-N ) :   1.4158 B( 33-C , 34-N ) :   1.5291 B( 33-C , 42-C ) :   1.1425
B( 34-N , 35-C ) :   1.6560 B( 35-C , 36-C ) :   1.2483 B( 35-C , 40-C ) :   1.1628
B( 36-C , 37-N ) :   1.7127 B( 36-C , 38-C ) :   1.1501 B( 38-C , 39-N ) :   3.0536
B( 40-C , 41-N ) :   3.0427 B( 42-C , 43-C ) :   1.1281 B( 42-C , 48-C ) :   1.3743
B( 43-C , 44-C ) :   1.1134 B( 43-C , 47-N ) :   1.5058 B( 44-C , 45-N ) :   1.5462
B( 45-N , 46-S ) :   1.2376 B( 45-N , 47-N ) :   0.1359 B( 46-S , 47-N ) :   1.2374
B( 48-C , 49-C ) :   1.3575 B( 48-C , 83-H ) :   0.9412 B( 49-C , 50-C ) :   1.2146
B( 49-C , 53-S ) :   1.1000 B( 50-C , 51-C ) :   1.5002 B( 50-C , 84-H ) :   1.0039
B( 51-C , 52-C ) :   1.2472 B( 51-C , 85-H ) :   0.9945 B( 52-C , 53-S ) :   1.0287
B( 52-C , 54-C ) :   1.4014 B( 54-C , 55-C ) :   1.2384 B( 54-C , 58-S ) :   1.0871
B( 55-C , 56-C ) :   1.5198 B( 55-C , 86-H ) :   0.9949 B( 56-C , 57-C ) :   1.1998
B( 56-C , 87-H ) :   1.0003 B( 57-C , 58-S ) :   1.0231 B( 57-C , 59-C ) :   1.4863
B( 59-C , 60-C ) :   1.2692 B( 59-C , 88-H ) :   0.9366 B( 60-C , 61-S ) :   1.0940
B( 60-C , 64-C ) :   1.3072 B( 61-S , 62-C ) :   1.2120 B( 62-C , 63-C ) :   1.3372
B( 62-C , 73-C ) :   1.0782 B( 63-C , 64-C ) :   1.2333 B( 63-C , 71-C ) :   1.1827
B( 64-C , 65-C ) :   1.2240 B( 65-C , 66-C ) :   0.9204 B( 65-C , 69-C ) :   1.4858
B( 66-C , 67-O ) :   2.0372 B( 66-C , 68-O ) :   1.2763 B( 68-O , 89-H ) :   0.9423
B( 69-C , 70-C ) :   1.2469 B( 69-C , 90-H ) :   0.9814 B( 70-C , 71-C ) :   1.4193
B( 70-C , 91-H ) :   0.9879 B( 71-C , 72-O ) :   1.2694 B( 72-O , 92-H ) :   0.9490
B( 73-C , 74-C ) :   1.9501 B( 73-C , 93-H ) :   0.9459 B( 74-C , 94-H ) :   0.9556
B( 74-C , 95-H ) :   0.9491

-----------------------------------------------------------------------------
         ABSORPTION SPECTRUM VIA TRANSITION ELECTRIC DIPOLE MOMENTS
-----------------------------------------------------------------------------
State   Energy  Wavelength   fosc         T2         TX        TY        TZ
        (cm-1)    (nm)                  (au**2)     (au)      (au)      (au)
-----------------------------------------------------------------------------
   0    5012.6   1995.0   0.389538454  25.58378  -0.72879  -4.85717  -1.20854
   1   14208.7    703.8   0.047135290   1.09211   0.26895  -0.68885  -0.73842
   2   15036.1    665.1   0.394655012   8.64089  -0.90437   1.33744   2.45648
   3   15513.7    644.6   0.432624036   9.18058  -2.69522   0.76841   1.15148
   4   18867.8    530.0   0.018271395   0.31881  -0.55314   0.11009  -0.02676
   5   19569.0    511.0   0.051913945   0.87336  -0.36880  -0.36895  -0.77538
   6   21061.1    474.8   0.118786753   1.85679   0.26583   1.22588  -0.53230
   7   22685.2    440.8   0.029354020   0.42599  -0.00546   0.65006  -0.05821
   8   22926.2    436.2   0.400771320   5.75494   1.68021   0.60437  -1.60205
   9   23878.9    418.8   0.474627938   6.54356  -2.09603   0.99007  -1.08164
  10   24485.9    408.4   0.230285097   3.09617   0.30034   1.68367  -0.41378
  11   25044.1    399.3   0.062651403   0.82357   0.52774   0.67207  -0.30559
  12   25944.5    385.4   0.053077719   0.67351   0.55281   0.36739  -0.48263
  13   26646.1    375.3   0.109295968   1.35035   0.29585  -0.85558   0.72857
  14   26877.0    372.1   0.028133449   0.34460  -0.29002   0.10534  -0.49939
  15   27078.0    369.3   0.081205857   0.98729  -0.38429   0.58482  -0.70541
  16   27377.4    365.3   0.176650901   2.12422   0.53312   0.52635  -1.25019
  17   27861.2    358.9   0.004535506   0.05359  -0.07849  -0.00635  -0.21769
  18   29208.4    342.4   0.000938717   0.01058   0.06321   0.00717  -0.08083
  19   29294.9    341.4   0.044422075   0.49921  -0.55243   0.42015  -0.13231
  20   29858.3    334.9   0.010428755   0.11499   0.08560  -0.19754  -0.26198
  21   30083.9    332.4   0.291881559   3.19409   0.81389  -0.96001   1.26889
  22   30324.7    329.8   0.378162080   4.10542  -0.30672  -0.98535   1.74368
  23   30691.9    325.8   0.001909799   0.02049   0.06462   0.12497  -0.02629
  24   30960.8    323.0   0.398054263   4.23259   0.90237  -1.13895  -1.45640
  25   31209.1    320.4   0.046799886   0.49367  -0.24771   0.53877  -0.37688
  26   31246.0    320.0   0.081357585   0.85719  -0.31650   0.67661  -0.54701
  27   31771.7    314.7   0.016264077   0.16852  -0.06412  -0.16809  -0.36900
  28   31836.1    314.1   0.025391473   0.26257   0.23469   0.21645  -0.40080
  29   31974.2    312.8   0.198410069   2.04287  -0.18620  -1.32955   0.49040
  30   32504.1    307.7   0.066375292   0.67227  -0.46068   0.59505  -0.32552
  31   32898.3    304.0   0.163375810   1.63489  -0.07645  -0.47092   1.18629
  32   32960.9    303.4   0.130946403   1.30789   0.39807   0.92574  -0.54077
  33   33118.3    301.9   0.011992356   0.11921  -0.28777  -0.12159   0.14701
  34   33578.1    297.8   0.092355295   0.90548  -0.34940   0.75725   0.45823
  35   34046.0    293.7   0.058876359   0.56931   0.19135  -0.72961  -0.01894
  36   34479.5    290.0   0.012077431   0.11532   0.10008   0.17404  -0.27388
  37   34648.9    288.6   0.169464344   1.61014  -0.58459  -0.44616   1.03409
  38   34712.6    288.1   0.003011469   0.02856   0.10136   0.06092  -0.12073
  39   34811.1    287.3   0.054019697   0.51087  -0.51545   0.49333   0.04257
  40   34875.9    286.7   0.259322974   2.44788  -0.75912  -0.49071   1.27704
  41   34925.4    286.3   0.070969275   0.66897  -0.42148  -0.51301   0.47764
  42   35309.1    283.2   0.022006198   0.20518   0.36775  -0.23610  -0.11917
  43   35477.3    281.9   0.088682711   0.82293   0.12992   0.70447   0.55657
  44   35712.3    280.0   0.030314309   0.27945  -0.52805   0.01811  -0.01685
  45   35903.2    278.5   0.253221436   2.32190   0.30007   1.39955   0.52261
  46   36301.9    275.5   0.007210258   0.06539   0.12578  -0.03047   0.22054
  47   37058.3    269.8   0.047052903   0.41800  -0.44719  -0.18159   0.43017
  48   37220.6    268.7   0.037037764   0.32759   0.25694   0.33664  -0.38504
  49   37983.6    263.3   0.003073192   0.02664   0.06861   0.13545   0.05986
  50   38111.4    262.4   0.008050593   0.06954   0.02161  -0.23968  -0.10785
  51   38177.7    261.9   0.058039329   0.50048   0.35799  -0.58919  -0.15867
  52   38403.9    260.4   0.224762164   1.92674   0.54342  -1.20982   0.40961
  53   38523.6    259.6   0.126618767   1.08205  -0.20930   0.50179   0.88682
  54   38746.5    258.1   0.008599346   0.07306   0.11179   0.24596   0.00835
  55   39146.3    255.5   0.063972555   0.53800  -0.67343   0.16960  -0.23606
  56   39319.0    254.3   0.015012104   0.12569   0.33152   0.07773  -0.09872
  57   39446.0    253.5   0.037332966   0.31158   0.46614   0.16220  -0.26072
  58   39793.3    251.3   0.027819960   0.23016  -0.44329   0.00773   0.18328
  59   40174.0    248.9   0.022508233   0.18445  -0.14341  -0.39194   0.10131
  60   40221.0    248.6   0.011928682   0.09764   0.26160  -0.07512   0.15349

FINAL SINGLE POINT ENERGY     -7951.481068834790

DIPOLE MOMENT
-------------
                                X             Y             Z
Electronic contribution:    -90.76979     -41.79916     -78.25699
Nuclear contribution   :     91.95635      52.19695      79.49978
                        -----------------------------------------
Total Dipole Moment    :      1.18656      10.39780       1.24279
                        -----------------------------------------
Magnitude (a.u.)       :     10.53881
Magnitude (Debye)      :     26.78754

Rotational constants in cm-1:     0.000632     0.000322     0.000288
Rotational constants in MHz :    18.951996     9.642261     8.628443

                             ****ORCA TERMINATED NORMALLY****
TOTAL RUN TIME: 0 days 0 hours 10 minutes 0 seconds 330 msec
