                         Program Version 4.2.0 -  RELEASE  -
|  1> # ORCA input file
|  2> # SCF done       -172.728955186099          0.000386976708
|  3> ! CAM-B3LYP def2-SVP def2/J RIJCOSX Grid4 TightSCF
|  4> %maxcore 5000
|  5> %tddft
|  6>     Mode sTDDFT
|  7>     Ethresh 5.0
|  8>     maxcore 5000
|  9> end
| 10>
| 11> %pal
| 12>   nprocs 6
| 13>   end
| 14> * xyz 0 1
| 15>    C        1.11059         2.23074        -0.68557
| 16>    C        0.29428         1.22669        -0.98633
| 17>    C       -0.30526         1.24737        -2.30997
| 18>    C        0.10171         2.23835        -3.11143
| 19>    S        1.27916         3.26374        -2.14629
| 20>    O        0.69131         4.57024        -1.99475
| 21>    O        2.63526         3.24542        -2.62502
| 22>    C       -0.32904         2.84419        -4.31618
| 23>    C       -1.60825         3.24370        -4.68516
| 24>    N       -2.82656         2.80286        -4.14077
| 25>    O       -3.82531         3.44696        -4.40179
| 26>    O       -2.81537         1.80019        -3.44398
| 27>    C       -1.50980         4.27916        -5.67791
| 28>    C       -0.19728         4.54844        -5.90128
| 29>    C        0.59471         3.64266        -5.11422
| 30>    C        1.94838         3.39894        -5.23193
| 31>    C        2.59316         2.12865        -5.16308
| 32>    C        3.84682         2.25104        -5.68686
| 33>    C        4.07696         3.62204        -6.03549
| 34>    N        5.31631         4.10917        -6.48910
| 35>    O        5.46305         5.31567        -6.58802
| 36>    O        6.17482         3.28758        -6.75847
| 37>    C        2.94110         4.36684        -5.73066
| 38>    C        2.77173         5.76067        -5.69853
| 39>    C        1.96162         6.37266        -4.77492
| 40>    C        1.76898         7.76250        -4.73160
| 41>    N        1.23122         8.43587        -3.66681
| 42>    C        0.90930         7.87423        -2.37378
| 43>    C        2.16590         7.63168        -1.54346
| 44>    C        1.16166         9.81894        -3.89822
| 45>    O        0.74112        10.62197        -3.09459
| 46>    C        1.67437         9.98452        -5.25074
| 47>    C        2.03612         8.71907        -5.73026
| 48>    C        2.49668         8.86447        -7.09931
| 49>    O        2.87265         8.05925        -7.91988
| 50>    N        2.40963        10.24942        -7.34290
| 51>    C        2.76107        10.79813        -8.63128
| 52>    C        1.52739        11.06098        -9.49126
| 53>    C        1.91708        10.93622        -6.26182
| 54>    C        1.73130        12.32909        -6.23007
| 55>    C        1.26255        12.99041        -5.12673
| 56>    C        1.07750        14.38553        -5.05066
| 57>    C        0.65421        15.07660        -3.92626
| 58>    C        0.59250        16.46477        -4.21984
| 59>    C        1.00334        16.59900        -5.63215
| 60>    C        1.29292        15.36218        -6.11099
| 61>    C        1.09277        17.77996        -6.37847
| 62>    N        1.17795        18.72412        -7.02743
| 63>    C        0.23647        17.49634        -3.37778
| 64>    C        0.17160        18.88461        -3.69500
| 65>    C       -0.22064        19.58094        -2.57279
| 66>    C       -0.41715        18.62697        -1.48883
| 67>    C       -0.14943        17.38093        -1.95706
| 68>    C       -0.22240        16.20156        -1.20528
| 69>    N       -0.28594        15.24797        -0.56903
| 70>    C       -0.41838        20.96930        -2.41030
| 71>    C       -0.30694        22.00583        -3.26352
| 72>    C       -0.59727        23.30838        -2.70404
| 73>    C       -0.93875        23.33103        -1.41776
| 74>    S       -0.91717        21.64131        -0.79797
| 75>    O       -2.23847        21.20268        -0.44691
| 76>    O        0.12454        21.46164         0.17365
| 77>    H        1.65938         2.42123         0.21249
| 78>    H        0.03867         0.42899        -0.30649
| 79>    H       -1.02928         0.50225        -2.59368
| 80>    H       -2.36444         4.73231        -6.14286
| 81>    H        0.20580         5.22367        -6.63098
| 82>    H        2.11619         1.22202        -4.84406
| 83>    H        4.57882         1.47653        -5.82061
| 84>    H        3.38757         6.35667        -6.36237
| 85>    H        1.51432         5.77986        -3.98789
| 86>    H        0.36167         6.93740        -2.49640
| 87>    H        0.26848         8.60623        -1.87568
| 88>    H        2.81300         6.90584        -2.03041
| 89>    H        1.88096         7.23759        -0.57309
| 90>    H        2.71347         8.56073        -1.40105
| 91>    H        3.39236        10.04907        -9.11693
| 92>    H        3.34487        11.71189        -8.49210
| 93>    H        0.98948        10.13184        -9.66168
| 94>    H        1.83002        11.46666       -10.45241
| 95>    H        0.85405        11.76627        -9.00883
| 96>    H        1.98788        12.88626        -7.11914
| 97>    H        1.01508        12.42494        -4.23739
| 98>    H        0.41421        14.63314        -2.97983
| 99>    H        1.62056        15.14170        -7.10978
|100>    H        0.39338        19.30558        -4.65511
|101>    H       -0.72328        18.90360        -0.49776
|102>    H       -0.02446        21.90948        -4.29978
|103>    H       -0.52815        24.18362        -3.33170
|104>    H       -1.19231        24.16773        -0.80088
|105> *
|106>
|107>                          ****END OF INPUT****

CARTESIAN COORDINATES (ANGSTROEM)
---------------------------------
  C      1.110590    2.230740   -0.685570
  C      0.294280    1.226690   -0.986330
  C     -0.305260    1.247370   -2.309970
  C      0.101710    2.238350   -3.111430
  S      1.279160    3.263740   -2.146290
  O      0.691310    4.570240   -1.994750
  O      2.635260    3.245420   -2.625020
  C     -0.329040    2.844190   -4.316180
  C     -1.608250    3.243700   -4.685160
  N     -2.826560    2.802860   -4.140770
  O     -3.825310    3.446960   -4.401790
  O     -2.815370    1.800190   -3.443980
  C     -1.509800    4.279160   -5.677910
  C     -0.197280    4.548440   -5.901280
  C      0.594710    3.642660   -5.114220
  C      1.948380    3.398940   -5.231930
  C      2.593160    2.128650   -5.163080
  C      3.846820    2.251040   -5.686860
  C      4.076960    3.622040   -6.035490
  N      5.316310    4.109170   -6.489100
  O      5.463050    5.315670   -6.588020
  O      6.174820    3.287580   -6.758470
  C      2.941100    4.366840   -5.730660
  C      2.771730    5.760670   -5.698530
  C      1.961620    6.372660   -4.774920
  C      1.768980    7.762500   -4.731600
  N      1.231220    8.435870   -3.666810
  C      0.909300    7.874230   -2.373780
  C      2.165900    7.631680   -1.543460
  C      1.161660    9.818940   -3.898220
  O      0.741120   10.621970   -3.094590
  C      1.674370    9.984520   -5.250740
  C      2.036120    8.719070   -5.730260
  C      2.496680    8.864470   -7.099310
  O      2.872650    8.059250   -7.919880
  N      2.409630   10.249420   -7.342900
  C      2.761070   10.798130   -8.631280
  C      1.527390   11.060980   -9.491260
  C      1.917080   10.936220   -6.261820
  C      1.731300   12.329090   -6.230070
  C      1.262550   12.990410   -5.126730
  C      1.077500   14.385530   -5.050660
  C      0.654210   15.076600   -3.926260
  C      0.592500   16.464770   -4.219840
  C      1.003340   16.599000   -5.632150
  C      1.292920   15.362180   -6.110990
  C      1.092770   17.779960   -6.378470
  N      1.177950   18.724120   -7.027430
  C      0.236470   17.496340   -3.377780
  C      0.171600   18.884610   -3.695000
  C     -0.220640   19.580940   -2.572790
  C     -0.417150   18.626970   -1.488830
  C     -0.149430   17.380930   -1.957060
  C     -0.222400   16.201560   -1.205280
  N     -0.285940   15.247970   -0.569030
  C     -0.418380   20.969300   -2.410300
  C     -0.306940   22.005830   -3.263520
  C     -0.597270   23.308380   -2.704040
  C     -0.938750   23.331030   -1.417760
  S     -0.917170   21.641310   -0.797970
  O     -2.238470   21.202680   -0.446910
  O      0.124540   21.461640    0.173650
  H      1.659380    2.421230    0.212490
  H      0.038670    0.428990   -0.306490
  H     -1.029280    0.502250   -2.593680
  H     -2.364440    4.732310   -6.142860
  H      0.205800    5.223670   -6.630980
  H      2.116190    1.222020   -4.844060
  H      4.578820    1.476530   -5.820610
  H      3.387570    6.356670   -6.362370
  H      1.514320    5.779860   -3.987890
  H      0.361670    6.937400   -2.496400
  H      0.268480    8.606230   -1.875680
  H      2.813000    6.905840   -2.030410
  H      1.880960    7.237590   -0.573090
  H      2.713470    8.560730   -1.401050
  H      3.392360   10.049070   -9.116930
  H      3.344870   11.711890   -8.492100
  H      0.989480   10.131840   -9.661680
  H      1.830020   11.466660  -10.452410
  H      0.854050   11.766270   -9.008830
  H      1.987880   12.886260   -7.119140
  H      1.015080   12.424940   -4.237390
  H      0.414210   14.633140   -2.979830
  H      1.620560   15.141700   -7.109780
  H      0.393380   19.305580   -4.655110
  H     -0.723280   18.903600   -0.497760
  H     -0.024460   21.909480   -4.299780
  H     -0.528150   24.183620   -3.331700
  H     -1.192310   24.167730   -0.800880

 Total Charge           Charge          ....    0
 Multiplicity           Mult            ....    1
 Number of Electrons    NEL             ....  446
 Basis Dimension        Dim             .... 1016

ORBITAL ENERGIES
----------------

  NO   OCC          E(Eh)            E(eV)
   0   2.0000     -89.163527     -2426.2629
   1   2.0000     -89.150917     -2425.9198
   2   2.0000     -19.247862      -523.7609
   3   2.0000     -19.247337      -523.7467
   4   2.0000     -19.229827      -523.2702
   5   2.0000     -19.229403      -523.2586
   6   2.0000     -19.224412      -523.1229
   7   2.0000     -19.224330      -523.1206
   8   2.0000     -19.206833      -522.6445
   9   2.0000     -19.206577      -522.6375
  10   2.0000     -19.204223      -522.5735
  11   2.0000     -19.199710      -522.4507
  12   2.0000     -14.655560      -398.7981
  13   2.0000     -14.639226      -398.3536
  14   2.0000     -14.465262      -393.6198
  15   2.0000     -14.459054      -393.4509
  16   2.0000     -14.418712      -392.3531
  17   2.0000     -14.406405      -392.0182
  18   2.0000     -10.386164      -282.6219
  19   2.0000     -10.382340      -282.5178
  20   2.0000     -10.353897      -281.7439
  21   2.0000     -10.345966      -281.5280
  22   2.0000     -10.344704      -281.4937
  23   2.0000     -10.336891      -281.2811
  24   2.0000     -10.333689      -281.1940
  25   2.0000     -10.331644      -281.1383
  26   2.0000     -10.330466      -281.1063
  27   2.0000     -10.329675      -281.0848
  28   2.0000     -10.326707      -281.0040
  29   2.0000     -10.326056      -280.9863
  30   2.0000     -10.325910      -280.9823
  31   2.0000     -10.325746      -280.9778
  32   2.0000     -10.325391      -280.9682
  33   2.0000     -10.323477      -280.9161
  34   2.0000     -10.322279      -280.8835
  35   2.0000     -10.320835      -280.8442
  36   2.0000     -10.320240      -280.8280
  37   2.0000     -10.319175      -280.7990
  38   2.0000     -10.319108      -280.7972
  39   2.0000     -10.318594      -280.7832
  40   2.0000     -10.318549      -280.7820
  41   2.0000     -10.317238      -280.7463
  42   2.0000     -10.316108      -280.7156
  43   2.0000     -10.314957      -280.6842
  44   2.0000     -10.309938      -280.5477
  45   2.0000     -10.309808      -280.5441
  46   2.0000     -10.308655      -280.5128
  47   2.0000     -10.308139      -280.4987
  48   2.0000     -10.306224      -280.4466
  49   2.0000     -10.305228      -280.4195
  50   2.0000     -10.303340      -280.3681
  51   2.0000     -10.302618      -280.3485
  52   2.0000     -10.300009      -280.2775
  53   2.0000     -10.296881      -280.1924
  54   2.0000     -10.296272      -280.1758
  55   2.0000     -10.295957      -280.1672
  56   2.0000     -10.293799      -280.1085
  57   2.0000     -10.287988      -279.9504
  58   2.0000     -10.277944      -279.6771
  59   2.0000     -10.276837      -279.6470
  60   2.0000     -10.273269      -279.5499
  61   2.0000     -10.254869      -279.0492
  62   2.0000      -8.229938      -223.9480
  63   2.0000      -8.216668      -223.5869
  64   2.0000      -6.198921      -168.6812
  65   2.0000      -6.198513      -168.6701
  66   2.0000      -6.197776      -168.6501
  67   2.0000      -6.185537      -168.3170
  68   2.0000      -6.185368      -168.3124
  69   2.0000      -6.184827      -168.2977
  70   2.0000      -1.326651       -36.1000
  71   2.0000      -1.309421       -35.6312
  72   2.0000      -1.227476       -33.4013
  73   2.0000      -1.211720       -32.9726
  74   2.0000      -1.145648       -31.1747
  75   2.0000      -1.144145       -31.1338
  76   2.0000      -1.137646       -30.9569
  77   2.0000      -1.126921       -30.6651
  78   2.0000      -1.104622       -30.0583
  79   2.0000      -1.089694       -29.6521
  80   2.0000      -1.075864       -29.2758
  81   2.0000      -1.065607       -28.9966
  82   2.0000      -1.025442       -27.9037
  83   2.0000      -1.023362       -27.8471
  84   2.0000      -1.007109       -27.4048
  85   2.0000      -1.003638       -27.3104
  86   2.0000      -0.993090       -27.0234
  87   2.0000      -0.988436       -26.8967
  88   2.0000      -0.987109       -26.8606
  89   2.0000      -0.976640       -26.5757
  90   2.0000      -0.938131       -25.5278
  91   2.0000      -0.925091       -25.1730
  92   2.0000      -0.919682       -25.0258
  93   2.0000      -0.913971       -24.8704
  94   2.0000      -0.894315       -24.3356
  95   2.0000      -0.892376       -24.2828
  96   2.0000      -0.881859       -23.9966
  97   2.0000      -0.877935       -23.8898
  98   2.0000      -0.866460       -23.5776
  99   2.0000      -0.859004       -23.3747
 100   2.0000      -0.847754       -23.0686
 101   2.0000      -0.836819       -22.7710
 102   2.0000      -0.830865       -22.6090
 103   2.0000      -0.824943       -22.4478
 104   2.0000      -0.813808       -22.1448
 105   2.0000      -0.810617       -22.0580
 106   2.0000      -0.799399       -21.7528
 107   2.0000      -0.790960       -21.5231
 108   2.0000      -0.773922       -21.0595
 109   2.0000      -0.765692       -20.8355
 110   2.0000      -0.764074       -20.7915
 111   2.0000      -0.735793       -20.0219
 112   2.0000      -0.733216       -19.9518
 113   2.0000      -0.723447       -19.6860
 114   2.0000      -0.718597       -19.5540
 115   2.0000      -0.714027       -19.4297
 116   2.0000      -0.703801       -19.1514
 117   2.0000      -0.703149       -19.1337
 118   2.0000      -0.693904       -18.8821
 119   2.0000      -0.686789       -18.6885
 120   2.0000      -0.679923       -18.5016
 121   2.0000      -0.674760       -18.3611
 122   2.0000      -0.674010       -18.3407
 123   2.0000      -0.656059       -17.8523
 124   2.0000      -0.650960       -17.7135
 125   2.0000      -0.648784       -17.6543
 126   2.0000      -0.644602       -17.5405
 127   2.0000      -0.639060       -17.3897
 128   2.0000      -0.636210       -17.3122
 129   2.0000      -0.634524       -17.2663
 130   2.0000      -0.631842       -17.1933
 131   2.0000      -0.622487       -16.9387
 132   2.0000      -0.620867       -16.8947
 133   2.0000      -0.618952       -16.8425
 134   2.0000      -0.611437       -16.6380
 135   2.0000      -0.601809       -16.3761
 136   2.0000      -0.600807       -16.3488
 137   2.0000      -0.594843       -16.1865
 138   2.0000      -0.591314       -16.0905
 139   2.0000      -0.587484       -15.9863
 140   2.0000      -0.580303       -15.7908
 141   2.0000      -0.575318       -15.6552
 142   2.0000      -0.571457       -15.5501
 143   2.0000      -0.569436       -15.4951
 144   2.0000      -0.567665       -15.4470
 145   2.0000      -0.556193       -15.1348
 146   2.0000      -0.555790       -15.1238
 147   2.0000      -0.552679       -15.0392
 148   2.0000      -0.551968       -15.0198
 149   2.0000      -0.550183       -14.9712
 150   2.0000      -0.548783       -14.9332
 151   2.0000      -0.538716       -14.6592
 152   2.0000      -0.538443       -14.6518
 153   2.0000      -0.536490       -14.5986
 154   2.0000      -0.535671       -14.5763
 155   2.0000      -0.533009       -14.5039
 156   2.0000      -0.530897       -14.4465
 157   2.0000      -0.528730       -14.3875
 158   2.0000      -0.527707       -14.3596
 159   2.0000      -0.526662       -14.3312
 160   2.0000      -0.526024       -14.3138
 161   2.0000      -0.516668       -14.0592
 162   2.0000      -0.515747       -14.0342
 163   2.0000      -0.511973       -13.9315
 164   2.0000      -0.509774       -13.8717
 165   2.0000      -0.508952       -13.8493
 166   2.0000      -0.506421       -13.7804
 167   2.0000      -0.503180       -13.6922
 168   2.0000      -0.502320       -13.6688
 169   2.0000      -0.497198       -13.5294
 170   2.0000      -0.494070       -13.4443
 171   2.0000      -0.487644       -13.2695
 172   2.0000      -0.486729       -13.2446
 173   2.0000      -0.484490       -13.1836
 174   2.0000      -0.481257       -13.0957
 175   2.0000      -0.478688       -13.0258
 176   2.0000      -0.473920       -12.8960
 177   2.0000      -0.470957       -12.8154
 178   2.0000      -0.468077       -12.7370
 179   2.0000      -0.467599       -12.7240
 180   2.0000      -0.464662       -12.6441
 181   2.0000      -0.464203       -12.6316
 182   2.0000      -0.458374       -12.4730
 183   2.0000      -0.453913       -12.3516
 184   2.0000      -0.451089       -12.2748
 185   2.0000      -0.447470       -12.1763
 186   2.0000      -0.444138       -12.0856
 187   2.0000      -0.440403       -11.9840
 188   2.0000      -0.438173       -11.9233
 189   2.0000      -0.435634       -11.8542
 190   2.0000      -0.434446       -11.8219
 191   2.0000      -0.430798       -11.7226
 192   2.0000      -0.427007       -11.6194
 193   2.0000      -0.424070       -11.5395
 194   2.0000      -0.421607       -11.4725
 195   2.0000      -0.417563       -11.3625
 196   2.0000      -0.414337       -11.2747
 197   2.0000      -0.408642       -11.1197
 198   2.0000      -0.400530       -10.8990
 199   2.0000      -0.397235       -10.8093
 200   2.0000      -0.392324       -10.6757
 201   2.0000      -0.390319       -10.6211
 202   2.0000      -0.386141       -10.5074
 203   2.0000      -0.385282       -10.4841
 204   2.0000      -0.379732       -10.3330
 205   2.0000      -0.375584       -10.2202
 206   2.0000      -0.375161       -10.2086
 207   2.0000      -0.371156       -10.0997
 208   2.0000      -0.368804       -10.0357
 209   2.0000      -0.364522        -9.9192
 210   2.0000      -0.359928        -9.7941
 211   2.0000      -0.358225        -9.7478
 212   2.0000      -0.356440        -9.6992
 213   2.0000      -0.355362        -9.6699
 214   2.0000      -0.341855        -9.3023
 215   2.0000      -0.335758        -9.1364
 216   2.0000      -0.331254        -9.0139
 217   2.0000      -0.326650        -8.8886
 218   2.0000      -0.311184        -8.4678
 219   2.0000      -0.309062        -8.4100
 220   2.0000      -0.296219        -8.0605
 221   2.0000      -0.290694        -7.9102
 222   2.0000      -0.239148        -6.5075
 223   0.0000      -0.146499        -3.9864
 224   0.0000      -0.130025        -3.5382
 225   0.0000      -0.085926        -2.3382
 226   0.0000      -0.063860        -1.7377
 227   0.0000      -0.054386        -1.4799

MULLIKEN ATOMIC CHARGES
-----------------------
   0 C :   -0.010084
   1 C :    0.043150
   2 C :    0.065468
   3 C :   -0.147295
   4 S :    0.754636
   5 O :   -0.446781
   6 O :   -0.429324
   7 C :    0.075422
   8 C :    0.107298
   9 N :    0.273538
  10 O :   -0.235874
  11 O :   -0.255939
  12 C :   -0.004177
  13 C :    0.051537
  14 C :   -0.067156
  15 C :    0.038056
  16 C :    0.042419
  17 C :    0.026568
  18 C :    0.101723
  19 N :    0.271094
  20 O :   -0.248790
  21 O :   -0.255096
  22 C :    0.039551
  23 C :   -0.014979
  24 C :   -0.028602
  25 C :    0.120681
  26 N :   -0.244347
  27 C :    0.090851
  28 C :    0.010834
  29 C :    0.169207
  30 O :   -0.191726
  31 C :   -0.073727
  32 C :   -0.046744
  33 C :    0.149692
  34 O :   -0.181625
  35 N :   -0.257966
  36 C :    0.097178
  37 C :    0.004524
  38 C :    0.156176
  39 C :   -0.031154
  40 C :    0.016152
  41 C :    0.105335
  42 C :   -0.094368
  43 C :    0.120645
  44 C :   -0.097275
  45 C :   -0.003127
  46 C :   -0.169470
  47 N :    0.129410
  48 C :    0.107637
  49 C :   -0.123242
  50 C :    0.140573
  51 C :    0.008171
  52 C :   -0.091155
  53 C :   -0.180763
  54 N :    0.145888
  55 C :   -0.052872
  56 C :    0.014448
  57 C :    0.046133
  58 C :   -0.004562
  59 S :    0.740067
  60 O :   -0.447038
  61 O :   -0.447203
  62 H :    0.059705
  63 H :    0.031055
  64 H :    0.032776
  65 H :    0.000626
  66 H :    0.008591
  67 H :   -0.010856
  68 H :    0.007076
  69 H :    0.047152
  70 H :    0.012039
  71 H :    0.047200
  72 H :    0.041828
  73 H :    0.019374
  74 H :    0.022100
  75 H :    0.022279
  76 H :    0.049811
  77 H :    0.025532
  78 H :    0.031302
  79 H :    0.027501
  80 H :    0.013694
  81 H :   -0.030002
  82 H :    0.021798
  83 H :    0.021968
  84 H :   -0.000263
  85 H :   -0.001268
  86 H :    0.022527
  87 H :    0.017586
  88 H :    0.021933
  89 H :    0.055341
Sum of atomic charges:   -0.0000000

LOEWDIN ATOMIC CHARGES
----------------------
   0 C :   -0.145460
   1 C :   -0.002592
   2 C :   -0.004064
   3 C :   -0.148101
   4 S :    1.177276
   5 O :   -0.492624
   6 O :   -0.469295
   7 C :   -0.041634
   8 C :   -0.010842
   9 N :    0.284582
  10 O :   -0.200351
  11 O :   -0.212472
  12 C :   -0.014488
  13 C :   -0.009552
  14 C :   -0.000069
  15 C :    0.065662
  16 C :   -0.038985
  17 C :    0.037558
  18 C :   -0.045665
  19 N :    0.283698
  20 O :   -0.212254
  21 O :   -0.218242
  22 C :    0.012444
  23 C :    0.032730
  24 C :   -0.006299
  25 C :    0.067283
  26 N :    0.009528
  27 C :    0.037516
  28 C :   -0.058013
  29 C :    0.079507
  30 O :   -0.183475
  31 C :   -0.108109
  32 C :   -0.099560
  33 C :    0.079790
  34 O :   -0.177158
  35 N :   -0.000105
  36 C :    0.037223
  37 C :   -0.060506
  38 C :    0.078786
  39 C :   -0.040146
  40 C :    0.041798
  41 C :   -0.020314
  42 C :   -0.001610
  43 C :    0.037296
  44 C :   -0.076536
  45 C :    0.053967
  46 C :   -0.029158
  47 N :   -0.063935
  48 C :    0.040690
  49 C :   -0.011398
  50 C :   -0.027975
  51 C :    0.057082
  52 C :   -0.081695
  53 C :   -0.030940
  54 N :   -0.054048
  55 C :   -0.143538
  56 C :   -0.006692
  57 C :   -0.013603
  58 C :   -0.139988
  59 S :    1.164767
  60 O :   -0.488257
  61 O :   -0.488325
  62 H :    0.041424
  63 H :    0.045612
  64 H :    0.044708
  65 H :    0.038255
  66 H :    0.035997
  67 H :    0.028502
  68 H :    0.040343
  69 H :    0.046620
  70 H :    0.031268
  71 H :    0.028044
  72 H :    0.036877
  73 H :    0.023521
  74 H :    0.031720
  75 H :    0.027701
  76 H :    0.040699
  77 H :    0.023742
  78 H :    0.033257
  79 H :    0.032452
  80 H :    0.021069
  81 H :    0.028008
  82 H :    0.044762
  83 H :    0.042826
  84 H :    0.035031
  85 H :    0.033802
  86 H :    0.037225
  87 H :    0.042448
  88 H :    0.042589
  89 H :    0.040388

  Mayer bond orders larger than 0.100000
B(  0-C ,  1-C ) :   1.7755 B(  0-C ,  4-S ) :   0.8176 B(  0-C , 62-H ) :   0.9730
B(  1-C ,  2-C ) :   1.0591 B(  1-C , 63-H ) :   0.9890 B(  2-C ,  3-C ) :   1.7330
B(  2-C , 64-H ) :   0.9934 B(  3-C ,  4-S ) :   0.7935 B(  3-C ,  7-C ) :   1.0997
B(  4-S ,  5-O ) :   1.6502 B(  4-S ,  6-O ) :   1.6829 B(  7-C ,  8-C ) :   1.5266
B(  7-C , 14-C ) :   1.0586 B(  8-C ,  9-N ) :   0.9413 B(  8-C , 12-C ) :   1.1649
B(  9-N , 10-O ) :   1.5396 B(  9-N , 11-O ) :   1.4975 B( 10-O , 11-O ) :   0.2698
B( 12-C , 13-C ) :   1.5663 B( 12-C , 65-H ) :   1.0135 B( 13-C , 14-C ) :   1.1434
B( 13-C , 66-H ) :   0.9986 B( 14-C , 15-C ) :   1.4436 B( 15-C , 16-C ) :   1.1684
B( 15-C , 22-C ) :   0.9867 B( 16-C , 17-C ) :   1.5388 B( 16-C , 67-H ) :   1.0040
B( 17-C , 18-C ) :   1.1420 B( 17-C , 68-H ) :   1.0115 B( 18-C , 19-N ) :   0.9515
B( 18-C , 22-C ) :   1.4785 B( 19-N , 20-O ) :   1.5034 B( 19-N , 21-O ) :   1.5197
B( 20-O , 21-O ) :   0.2605 B( 22-C , 23-C ) :   1.2262 B( 23-C , 24-C ) :   1.4852
B( 23-C , 69-H ) :   0.9438 B( 24-C , 25-C ) :   1.2132 B( 24-C , 70-H ) :   0.9339
B( 25-C , 26-N ) :   1.1805 B( 25-C , 32-C ) :   1.2864 B( 26-N , 27-C ) :   0.9305
B( 26-N , 29-C ) :   1.0673 B( 27-C , 28-C ) :   1.1242 B( 27-C , 71-H ) :   0.9433
B( 27-C , 72-H ) :   0.9290 B( 28-C , 73-H ) :   0.9658 B( 28-C , 74-H ) :   0.9669
B( 28-C , 75-H ) :   0.9645 B( 29-C , 30-O ) :   2.0412 B( 29-C , 31-C ) :   0.9730
B( 30-O , 82-H ) :   0.1118 B( 31-C , 32-C ) :   1.3061 B( 31-C , 38-C ) :   1.2904
B( 32-C , 33-C ) :   0.9694 B( 33-C , 34-O ) :   2.1017 B( 33-C , 35-N ) :   1.0416
B( 35-N , 36-C ) :   0.9430 B( 35-N , 38-C ) :   1.1698 B( 36-C , 37-C ) :   1.1213
B( 36-C , 76-H ) :   0.9278 B( 36-C , 77-H ) :   0.9493 B( 37-C , 78-H ) :   0.9634
B( 37-C , 79-H ) :   0.9679 B( 37-C , 80-H ) :   0.9684 B( 38-C , 39-C ) :   1.1854
B( 39-C , 40-C ) :   1.5209 B( 39-C , 81-H ) :   0.9621 B( 40-C , 41-C ) :   1.1435
B( 40-C , 82-H ) :   0.9570 B( 41-C , 42-C ) :   1.4850 B( 41-C , 45-C ) :   1.0329
B( 42-C , 43-C ) :   1.1230 B( 42-C , 83-H ) :   1.0110 B( 43-C , 44-C ) :   1.0967
B( 43-C , 48-C ) :   1.3928 B( 44-C , 45-C ) :   1.6921 B( 44-C , 46-C ) :   1.0901
B( 45-C , 84-H ) :   1.0139 B( 46-C , 47-N ) :   2.9643 B( 48-C , 49-C ) :   1.1234
B( 48-C , 52-C ) :   1.1124 B( 49-C , 50-C ) :   1.5566 B( 49-C , 85-H ) :   0.9976
B( 50-C , 51-C ) :   1.0540 B( 50-C , 55-C ) :   1.1398 B( 51-C , 52-C ) :   1.6651
B( 51-C , 86-H ) :   0.9988 B( 52-C , 53-C ) :   1.0922 B( 53-C , 54-N ) :   2.9703
B( 55-C , 56-C ) :   1.6964 B( 55-C , 59-S ) :   0.7955 B( 56-C , 57-C ) :   1.0757
B( 56-C , 87-H ) :   0.9911 B( 57-C , 58-C ) :   1.7674 B( 57-C , 88-H ) :   0.9897
B( 58-C , 59-S ) :   0.8196 B( 58-C , 89-H ) :   0.9758 B( 59-S , 60-O ) :   1.7020
B( 59-S , 61-O ) :   1.7031

-----------------------------------------------------------------------------
         ABSORPTION SPECTRUM VIA TRANSITION ELECTRIC DIPOLE MOMENTS
-----------------------------------------------------------------------------
State   Energy  Wavelength   fosc         T2         TX        TY        TZ
        (cm-1)    (nm)                  (au**2)     (au)      (au)      (au)
-----------------------------------------------------------------------------
   0    5812.6   1720.4   0.384179959  21.75895  -0.10600   4.66315   0.05271
   1   10140.2    986.2   0.234818892   7.62362  -0.87239   2.45157   0.92323
   2   14532.5    688.1   0.013756775   0.31164  -0.14301   0.40801   0.35315
   3   15607.0    640.7   0.077581169   1.63649   0.35663  -0.92708  -0.80611
   4   16900.9    591.7   0.040360017   0.78617  -0.21771   0.55109  -0.65960
   5   18004.3    555.4   0.084850944   1.55151  -0.22095   1.07767  -0.58422
   6   19049.1    525.0   0.052087869   0.90020   0.36432  -0.77035  -0.41716
   7   22362.3    447.2   0.025053454   0.36883  -0.07878   0.58298   0.15085
   8   23057.3    433.7   0.206838449   2.95323   0.29373   1.69310  -0.01942
   9   23747.6    421.1   0.044005060   0.61004   0.39292  -0.64835   0.18786
  10   24082.3    415.2   0.255394336   3.49132  -0.42337   1.44727   1.10339
  11   24266.0    412.1   0.138811820   1.88323  -0.66191   0.88636   0.81208
  12   25234.1    396.3   0.032549410   0.42465  -0.61851  -0.05912   0.19647
  13   25265.5    395.8   0.137704544   1.79430   1.31073   0.16430  -0.22203
  14   25493.9    392.3   0.317346846   4.09802  -0.52387   1.58629   1.14335
  15   26657.3    375.1   0.030087261   0.37157   0.48684  -0.30460   0.20440
  16   27039.5    369.8   0.006111458   0.07441   0.18587  -0.14500   0.13724
  17   27178.2    367.9   0.015890877   0.19249   0.30516   0.30362   0.08474
  18   27362.9    365.5   0.075470378   0.90801   0.40442  -0.85928  -0.07803
  19   27598.6    362.3   0.007293709   0.08700  -0.03730  -0.20350   0.21024
  20   27920.0    358.2   0.006128735   0.07227   0.16354  -0.01052  -0.21310
  21   28682.4    348.6   0.045613810   0.52355   0.48858  -0.50584   0.17019
  22   28902.2    346.0   0.201778923   2.29838   1.27624  -0.32695  -0.75013
  23   29436.0    339.7   0.079740151   0.89181   0.06463   0.58470   0.73875
  24   29479.0    339.2   0.127693254   1.42604  -0.21761  -1.17245  -0.06363
  25   30321.0    329.8   0.008061337   0.08753  -0.05476  -0.08981  -0.27652
  26   30613.4    326.7   0.002257796   0.02428   0.01372   0.10144   0.11748
  27   30740.0    325.3   0.014060621   0.15058   0.01745   0.36676   0.12555
  28   31006.0    322.5   0.010153351   0.10780   0.13370   0.29440   0.05708
  29   31086.8    321.7   0.000002628   0.00003   0.00318   0.00112  -0.00406
  30   31678.6    315.7   0.014982753   0.15570  -0.20854   0.30111   0.14680
  31   32080.3    311.7   0.248100223   2.54603   1.45394  -0.50376   0.42227
  32   32252.7    310.1   0.004413159   0.04505  -0.15276   0.05611  -0.13625
  33   32371.4    308.9   0.125640672   1.27775  -0.28381   1.09409   0.01245
  34   32448.3    308.2   0.038308426   0.38867   0.19025  -0.17820  -0.56632
  35   32980.5    303.2   0.063187589   0.63074  -0.78327   0.11411  -0.06489
  36   33120.1    301.9   0.056030677   0.55694  -0.44515   0.47792   0.36107
  37   33316.2    300.2   0.032992940   0.32602  -0.44096  -0.35686   0.06499
  38   33404.7    299.4   0.160792862   1.58465   0.57888  -1.09094  -0.24371
  39   33487.5    298.6   0.019159282   0.18835   0.07576   0.22435   0.36371
  40   33971.9    294.4   0.103202131   1.00010   0.84407  -0.45325  -0.28674
  41   34056.6    293.6   0.032675069   0.31586   0.01395   0.24275   0.50669
  42   34173.0    292.6   0.048358307   0.46587   0.37105  -0.57278  -0.01047
  43   34285.3    291.7   0.156482963   1.50257   0.96993  -0.10575  -0.74204
  44   35333.7    283.0   0.027787322   0.25890  -0.17644   0.16641   0.44730
  45   35691.1    280.2   0.052886556   0.48782  -0.23073   0.38459   0.53542
  46   35757.4    279.7   0.021522105   0.19815   0.30782  -0.21115  -0.24252
  47   35846.8    279.0   0.013731676   0.12611  -0.02826  -0.35008   0.05250
  48   36192.0    276.3   0.002864059   0.02605   0.08419  -0.00887  -0.13742
  49   36675.9    272.7   0.028653345   0.25720  -0.23659   0.04641   0.44617
  50   37096.8    269.6   0.143069426   1.26966   1.11494   0.15658  -0.04537
  51   37323.2    267.9   0.004606636   0.04063   0.14172  -0.10708   0.09531
  52   37687.1    265.3   0.047874947   0.41821  -0.00094  -0.46101  -0.45351
  53   38347.0    260.8   0.007663624   0.06579   0.00806  -0.22149  -0.12912
  54   38719.6    258.3   0.003069637   0.02610   0.02012  -0.00604   0.16018
  55   39009.5    256.3   0.039491484   0.33328   0.50503  -0.15638  -0.23188
  56   39399.1    253.8   0.028185546   0.23551  -0.19206  -0.43040  -0.11570
  57   39567.2    252.7   0.007761033   0.06457  -0.19471   0.16303   0.00921
  58   39811.4    251.2   0.005661589   0.04682  -0.16240  -0.02432  -0.14090
  59   40093.7    249.4   0.028175847   0.23135   0.04442  -0.47595   0.05342
  60   40263.5    248.4   0.021049999   0.17211   0.40326   0.02235   0.09484
  61   40307.6    248.1   0.045819923   0.37423  -0.57353  -0.13103   0.16773

FINAL SINGLE POINT ENERGY     -3566.428500332344

DIPOLE MOMENT
-------------
                                X             Y             Z
Electronic contribution:     -5.23110       1.17179      10.32625
Nuclear contribution   :      5.02449      -1.50553     -11.32940
                        -----------------------------------------
Total Dipole Moment    :     -0.20662      -0.33374      -1.00315
                        -----------------------------------------
Magnitude (a.u.)       :      1.07721
Magnitude (Debye)      :      2.73805

Rotational constants in cm-1:     0.002398     0.000378     0.000351
Rotational constants in MHz :    71.904481    11.322899    10.512556

                             ****ORCA TERMINATED NORMALLY****
TOTAL RUN TIME: 0 days 0 hours 9 minutes 28 seconds 584 msec
