                         Program Version 4.2.0 -  RELEASE  -
|  1> # ORCA input file
|  2> # SCF done       -199.467770212585          0.000533481230
|  3> ! CAM-B3LYP def2-SVP def2/J RIJCOSX Grid4 TightSCF
|  4> %maxcore 5000
|  5> %tddft
|  6>     Mode sTDDFT
|  7>     Ethresh 5.0
|  8>     maxcore 5000
|  9> end
| 10>
| 11> %pal
| 12>   nprocs 6
| 13>   end
| 14> * xyz 0 1
| 15>    C        6.38100        -0.24715         1.26934
| 16>    C        5.89423        -0.11425        -0.16638
| 17>    O        6.55386         0.10350        -1.13716
| 18>    O        4.56327        -0.28910        -0.20602
| 19>    C        4.03947        -0.63401         1.07101
| 20>    C        5.09043        -0.12615         2.07482
| 21>    C        5.07152        -0.83471         3.42264
| 22>    C        5.09265        -2.35383         3.30054
| 23>    C        4.00324        -2.93037         2.39782
| 24>    C        3.77378        -2.15875         1.07985
| 25>    O        2.41270        -2.39118         0.73850
| 26>    C        1.69525        -2.87521         1.75337
| 27>    O        0.52706        -3.10799         1.68412
| 28>    C        2.58554        -3.08135         2.98924
| 29>    C        2.16724        -2.12797         4.05275
| 30>    C        1.79803        -0.82478         3.90840
| 31>    C        1.42681        -0.29990         5.19066
| 32>    C        1.59370        -1.40440         6.14807
| 33>    C        2.05446        -2.48244         5.45555
| 34>    C        1.44895        -1.32407         7.53772
| 35>    N        1.38336        -1.27948         8.68330
| 36>    C        1.03018         0.98318         5.47562
| 37>    C        0.42225         1.46734         6.66374
| 38>    C        0.19075         2.82670         6.53898
| 39>    C        0.69282         3.24037         5.23392
| 40>    C        1.17328         2.14815         4.58486
| 41>    C        1.83825         2.14779         3.35475
| 42>    N        2.43231         2.15235         2.37105
| 43>    C       -0.42873         3.60035         7.55422
| 44>    N       -0.46595         4.96875         7.67399
| 45>    C        0.17277         5.96545         6.84633
| 46>    C        1.69236         5.93460         6.97926
| 47>    C       -1.12237         5.37283         8.85329
| 48>    O       -1.25486         6.53634         9.17710
| 49>    C       -1.54485         4.13979         9.47567
| 50>    C       -1.11099         3.07580         8.66191
| 51>    C       -1.58558         1.83769         9.25778
| 52>    O       -1.50855         0.68168         8.90984
| 53>    N       -2.25470         2.25185        10.42581
| 54>    C       -2.81219         1.28244        11.34033
| 55>    C       -1.86328         0.99006        12.49931
| 56>    C       -2.23232         3.61249        10.58140
| 57>    C       -2.79345         4.28898        11.68382
| 58>    C       -2.75955         5.64697        11.81266
| 59>    C       -3.26737         6.34863        12.93197
| 60>    C       -3.82580         5.85251        14.09197
| 61>    C       -4.16017         6.93610        14.95653
| 62>    C       -3.77162         8.16616        14.23511
| 63>    C       -3.24065         7.80241        13.04075
| 64>    C       -3.89920         9.47903        14.70184
| 65>    N       -3.98962        10.56223        15.07420
| 66>    C       -4.70821         6.85928        16.21063
| 67>    C       -5.05221         7.95171        17.08160
| 68>    C       -5.54584         7.45097        18.24475
| 69>    C       -5.54245         6.00062        18.16419
| 70>    C       -5.04911         5.63187        16.95082
| 71>    C       -4.88032         4.31802        16.50488
| 72>    N       -4.73467         3.23373        16.15233
| 73>    C       -6.02997         8.18613        19.44039
| 74>    C       -7.50391         7.86185        19.76332
| 75>    O       -8.04099         6.80183        19.66763
| 76>    O       -8.11585         8.97216        20.18538
| 77>    C       -7.20605        10.06266        20.30182
| 78>    C       -6.06472         9.71172        19.33364
| 79>    C       -4.75842        10.44468        19.60878
| 80>    C       -4.32564        10.33354        21.06433
| 81>    C       -5.40033        10.81196        22.03311
| 82>    C       -6.79841        10.21192        21.78797
| 83>    O       -7.69189        11.12227        22.41368
| 84>    C       -7.14803        12.35064        22.51616
| 85>    O       -7.74440        13.29284        22.93822
| 86>    C       -5.70743        12.30722        22.02622
| 87>    H        7.11874         0.51897         1.49639
| 88>    H        6.85430        -1.22420         1.38176
| 89>    H        3.08647        -0.10813         1.17192
| 90>    H        4.88350         0.93633         2.24159
| 91>    H        4.18385        -0.51726         3.96827
| 92>    H        5.94282        -0.51499         3.99744
| 93>    H        4.99703        -2.79635         4.29373
| 94>    H        6.06009        -2.66645         2.90153
| 95>    H        4.31886        -3.94189         2.11700
| 96>    H        4.37531        -2.58777         0.26953
| 97>    H        2.43407        -4.09609         3.36728
| 98>    H        1.72509        -0.27701         2.99054
| 99>    H        2.30288        -3.44406         5.86579
|100>    H        0.14916         0.85304         7.49881
|101>    H        0.67595         4.23253         4.82744
|102>    H       -0.20506         6.92705         7.20713
|103>    H       -0.14325         5.84545         5.80752
|104>    H        1.97784         6.12385         8.01129
|105>    H        2.13042         6.70576         6.35176
|106>    H        2.09756         4.96997         6.68112
|107>    H       -2.96740         0.37067        10.75723
|108>    H       -3.77891         1.63848        11.70460
|109>    H       -0.92848         0.58515        12.11959
|110>    H       -2.31408         0.25935        13.16432
|111>    H       -1.64845         1.89242        13.06766
|112>    H       -3.25644         3.69251        12.45604
|113>    H       -2.31069         6.24166        11.02767
|114>    H       -3.98927         4.82215        14.33553
|115>    H       -2.85482         8.45718        12.28122
|116>    H       -4.91995         8.98213        16.82093
|117>    H       -5.89815         5.34857        18.93915
|118>    H       -5.45513         7.85816        20.31663
|119>    H       -7.74999        10.96382        20.00358
|120>    H       -6.40321         9.96599        18.32307
|121>    H       -4.88533        11.49399        19.33793
|122>    H       -3.97937        10.03607        18.96396
|123>    H       -3.42259        10.92500        21.22136
|124>    H       -4.07731         9.29635        21.29856
|125>    H       -5.09939        10.53330        23.04946
|126>    H       -6.93198         9.24331        22.28020
|127>    H       -5.06357        12.89611        22.67537
|128>    H       -5.67031        12.73583        21.02352
|129> *
|130>
|131>                          ****END OF INPUT****

CARTESIAN COORDINATES (ANGSTROEM)
---------------------------------
  C      6.381000   -0.247150    1.269340
  C      5.894230   -0.114250   -0.166380
  O      6.553860    0.103500   -1.137160
  O      4.563270   -0.289100   -0.206020
  C      4.039470   -0.634010    1.071010
  C      5.090430   -0.126150    2.074820
  C      5.071520   -0.834710    3.422640
  C      5.092650   -2.353830    3.300540
  C      4.003240   -2.930370    2.397820
  C      3.773780   -2.158750    1.079850
  O      2.412700   -2.391180    0.738500
  C      1.695250   -2.875210    1.753370
  O      0.527060   -3.107990    1.684120
  C      2.585540   -3.081350    2.989240
  C      2.167240   -2.127970    4.052750
  C      1.798030   -0.824780    3.908400
  C      1.426810   -0.299900    5.190660
  C      1.593700   -1.404400    6.148070
  C      2.054460   -2.482440    5.455550
  C      1.448950   -1.324070    7.537720
  N      1.383360   -1.279480    8.683300
  C      1.030180    0.983180    5.475620
  C      0.422250    1.467340    6.663740
  C      0.190750    2.826700    6.538980
  C      0.692820    3.240370    5.233920
  C      1.173280    2.148150    4.584860
  C      1.838250    2.147790    3.354750
  N      2.432310    2.152350    2.371050
  C     -0.428730    3.600350    7.554220
  N     -0.465950    4.968750    7.673990
  C      0.172770    5.965450    6.846330
  C      1.692360    5.934600    6.979260
  C     -1.122370    5.372830    8.853290
  O     -1.254860    6.536340    9.177100
  C     -1.544850    4.139790    9.475670
  C     -1.110990    3.075800    8.661910
  C     -1.585580    1.837690    9.257780
  O     -1.508550    0.681680    8.909840
  N     -2.254700    2.251850   10.425810
  C     -2.812190    1.282440   11.340330
  C     -1.863280    0.990060   12.499310
  C     -2.232320    3.612490   10.581400
  C     -2.793450    4.288980   11.683820
  C     -2.759550    5.646970   11.812660
  C     -3.267370    6.348630   12.931970
  C     -3.825800    5.852510   14.091970
  C     -4.160170    6.936100   14.956530
  C     -3.771620    8.166160   14.235110
  C     -3.240650    7.802410   13.040750
  C     -3.899200    9.479030   14.701840
  N     -3.989620   10.562230   15.074200
  C     -4.708210    6.859280   16.210630
  C     -5.052210    7.951710   17.081600
  C     -5.545840    7.450970   18.244750
  C     -5.542450    6.000620   18.164190
  C     -5.049110    5.631870   16.950820
  C     -4.880320    4.318020   16.504880
  N     -4.734670    3.233730   16.152330
  C     -6.029970    8.186130   19.440390
  C     -7.503910    7.861850   19.763320
  O     -8.040990    6.801830   19.667630
  O     -8.115850    8.972160   20.185380
  C     -7.206050   10.062660   20.301820
  C     -6.064720    9.711720   19.333640
  C     -4.758420   10.444680   19.608780
  C     -4.325640   10.333540   21.064330
  C     -5.400330   10.811960   22.033110
  C     -6.798410   10.211920   21.787970
  O     -7.691890   11.122270   22.413680
  C     -7.148030   12.350640   22.516160
  O     -7.744400   13.292840   22.938220
  C     -5.707430   12.307220   22.026220
  H      7.118740    0.518970    1.496390
  H      6.854300   -1.224200    1.381760
  H      3.086470   -0.108130    1.171920
  H      4.883500    0.936330    2.241590
  H      4.183850   -0.517260    3.968270
  H      5.942820   -0.514990    3.997440
  H      4.997030   -2.796350    4.293730
  H      6.060090   -2.666450    2.901530
  H      4.318860   -3.941890    2.117000
  H      4.375310   -2.587770    0.269530
  H      2.434070   -4.096090    3.367280
  H      1.725090   -0.277010    2.990540
  H      2.302880   -3.444060    5.865790
  H      0.149160    0.853040    7.498810
  H      0.675950    4.232530    4.827440
  H     -0.205060    6.927050    7.207130
  H     -0.143250    5.845450    5.807520
  H      1.977840    6.123850    8.011290
  H      2.130420    6.705760    6.351760
  H      2.097560    4.969970    6.681120
  H     -2.967400    0.370670   10.757230
  H     -3.778910    1.638480   11.704600
  H     -0.928480    0.585150   12.119590
  H     -2.314080    0.259350   13.164320
  H     -1.648450    1.892420   13.067660
  H     -3.256440    3.692510   12.456040
  H     -2.310690    6.241660   11.027670
  H     -3.989270    4.822150   14.335530
  H     -2.854820    8.457180   12.281220
  H     -4.919950    8.982130   16.820930
  H     -5.898150    5.348570   18.939150
  H     -5.455130    7.858160   20.316630
  H     -7.749990   10.963820   20.003580
  H     -6.403210    9.965990   18.323070
  H     -4.885330   11.493990   19.337930
  H     -3.979370   10.036070   18.963960
  H     -3.422590   10.925000   21.221360
  H     -4.077310    9.296350   21.298560
  H     -5.099390   10.533300   23.049460
  H     -6.931980    9.243310   22.280200
  H     -5.063570   12.896110   22.675370
  H     -5.670310   12.735830   21.023520

 Total Charge           Charge          ....    0
 Multiplicity           Mult            ....    1
 Number of Electrons    NEL             ....  500
 Basis Dimension        Dim             .... 1218

ORBITAL ENERGIES
----------------

  NO   OCC          E(Eh)            E(eV)
   0   2.0000     -19.277540      -524.5685
   1   2.0000     -19.266803      -524.2764
   2   2.0000     -19.265748      -524.2477
   3   2.0000     -19.251961      -523.8725
   4   2.0000     -19.219029      -522.9764
   5   2.0000     -19.208014      -522.6766
   6   2.0000     -19.207511      -522.6630
   7   2.0000     -19.202866      -522.5365
   8   2.0000     -19.201855      -522.5090
   9   2.0000     -19.189494      -522.1727
  10   2.0000     -14.471404      -393.7869
  11   2.0000     -14.468342      -393.7036
  12   2.0000     -14.427315      -392.5872
  13   2.0000     -14.420930      -392.4134
  14   2.0000     -14.417253      -392.3134
  15   2.0000     -14.410009      -392.1163
  16   2.0000     -10.416460      -283.4463
  17   2.0000     -10.401999      -283.0528
  18   2.0000     -10.401685      -283.0442
  19   2.0000     -10.390077      -282.7284
  20   2.0000     -10.389634      -282.7163
  21   2.0000     -10.388584      -282.6877
  22   2.0000     -10.358455      -281.8679
  23   2.0000     -10.357337      -281.8375
  24   2.0000     -10.355333      -281.7829
  25   2.0000     -10.352351      -281.7018
  26   2.0000     -10.344206      -281.4802
  27   2.0000     -10.336319      -281.2655
  28   2.0000     -10.335086      -281.2320
  29   2.0000     -10.334801      -281.2242
  30   2.0000     -10.334479      -281.2155
  31   2.0000     -10.333011      -281.1755
  32   2.0000     -10.330245      -281.1002
  33   2.0000     -10.329707      -281.0856
  34   2.0000     -10.327647      -281.0296
  35   2.0000     -10.326865      -281.0083
  36   2.0000     -10.323462      -280.9157
  37   2.0000     -10.322733      -280.8958
  38   2.0000     -10.322686      -280.8946
  39   2.0000     -10.322503      -280.8896
  40   2.0000     -10.321157      -280.8530
  41   2.0000     -10.319970      -280.8207
  42   2.0000     -10.319663      -280.8123
  43   2.0000     -10.319031      -280.7951
  44   2.0000     -10.316740      -280.7328
  45   2.0000     -10.316294      -280.7206
  46   2.0000     -10.316062      -280.7143
  47   2.0000     -10.315948      -280.7112
  48   2.0000     -10.313527      -280.6453
  49   2.0000     -10.312977      -280.6304
  50   2.0000     -10.311144      -280.5805
  51   2.0000     -10.310084      -280.5517
  52   2.0000     -10.309235      -280.5285
  53   2.0000     -10.309216      -280.5280
  54   2.0000     -10.308186      -280.5000
  55   2.0000     -10.305012      -280.4136
  56   2.0000     -10.304657      -280.4040
  57   2.0000     -10.299522      -280.2642
  58   2.0000     -10.297230      -280.2019
  59   2.0000     -10.296064      -280.1701
  60   2.0000     -10.295478      -280.1542
  61   2.0000     -10.294146      -280.1180
  62   2.0000     -10.293507      -280.1006
  63   2.0000     -10.293094      -280.0893
  64   2.0000     -10.287692      -279.9423
  65   2.0000     -10.286497      -279.9098
  66   2.0000     -10.282588      -279.8034
  67   2.0000     -10.281987      -279.7871
  68   2.0000     -10.279110      -279.7088
  69   2.0000     -10.278405      -279.6896
  70   2.0000     -10.277145      -279.6553
  71   2.0000     -10.267175      -279.3840
  72   2.0000      -1.216600       -33.1054
  73   2.0000      -1.204248       -32.7693
  74   2.0000      -1.201071       -32.6828
  75   2.0000      -1.187751       -32.3203
  76   2.0000      -1.150962       -31.3193
  77   2.0000      -1.144449       -31.1421
  78   2.0000      -1.127927       -30.6924
  79   2.0000      -1.111796       -30.2535
  80   2.0000      -1.111711       -30.2512
  81   2.0000      -1.097838       -29.8737
  82   2.0000      -1.080764       -29.4091
  83   2.0000      -1.072252       -29.1775
  84   2.0000      -1.028363       -27.9832
  85   2.0000      -1.027472       -27.9589
  86   2.0000      -1.011578       -27.5264
  87   2.0000      -1.011088       -27.5131
  88   2.0000      -0.998090       -27.1594
  89   2.0000      -0.996766       -27.1234
  90   2.0000      -0.993169       -27.0255
  91   2.0000      -0.987396       -26.8684
  92   2.0000      -0.962887       -26.2015
  93   2.0000      -0.948860       -25.8198
  94   2.0000      -0.943992       -25.6873
  95   2.0000      -0.928846       -25.2752
  96   2.0000      -0.921347       -25.0711
  97   2.0000      -0.912804       -24.8386
  98   2.0000      -0.895962       -24.3804
  99   2.0000      -0.885449       -24.0943
 100   2.0000      -0.882591       -24.0165
 101   2.0000      -0.873335       -23.7647
 102   2.0000      -0.871115       -23.7042
 103   2.0000      -0.862910       -23.4810
 104   2.0000      -0.862100       -23.4589
 105   2.0000      -0.857730       -23.3400
 106   2.0000      -0.850623       -23.1466
 107   2.0000      -0.845314       -23.0022
 108   2.0000      -0.841093       -22.8873
 109   2.0000      -0.833282       -22.6748
 110   2.0000      -0.823459       -22.4075
 111   2.0000      -0.818822       -22.2813
 112   2.0000      -0.806589       -21.9484
 113   2.0000      -0.798136       -21.7184
 114   2.0000      -0.781914       -21.2770
 115   2.0000      -0.774815       -21.0838
 116   2.0000      -0.772180       -21.0121
 117   2.0000      -0.753378       -20.5005
 118   2.0000      -0.741650       -20.1813
 119   2.0000      -0.735041       -20.0015
 120   2.0000      -0.732839       -19.9416
 121   2.0000      -0.727915       -19.8076
 122   2.0000      -0.723691       -19.6926
 123   2.0000      -0.723233       -19.6802
 124   2.0000      -0.721860       -19.6428
 125   2.0000      -0.705669       -19.2022
 126   2.0000      -0.699889       -19.0449
 127   2.0000      -0.695508       -18.9257
 128   2.0000      -0.683058       -18.5870
 129   2.0000      -0.679419       -18.4879
 130   2.0000      -0.677645       -18.4397
 131   2.0000      -0.673624       -18.3302
 132   2.0000      -0.663874       -18.0649
 133   2.0000      -0.661701       -18.0058
 134   2.0000      -0.660171       -17.9642
 135   2.0000      -0.653835       -17.7917
 136   2.0000      -0.651495       -17.7281
 137   2.0000      -0.644687       -17.5428
 138   2.0000      -0.642189       -17.4748
 139   2.0000      -0.632522       -17.2118
 140   2.0000      -0.630590       -17.1592
 141   2.0000      -0.620823       -16.8934
 142   2.0000      -0.618205       -16.8222
 143   2.0000      -0.617003       -16.7895
 144   2.0000      -0.611127       -16.6296
 145   2.0000      -0.604171       -16.4403
 146   2.0000      -0.601325       -16.3629
 147   2.0000      -0.594809       -16.1856
 148   2.0000      -0.585445       -15.9308
 149   2.0000      -0.581519       -15.8239
 150   2.0000      -0.578135       -15.7319
 151   2.0000      -0.576823       -15.6961
 152   2.0000      -0.575369       -15.6566
 153   2.0000      -0.573524       -15.6064
 154   2.0000      -0.564181       -15.3521
 155   2.0000      -0.563035       -15.3210
 156   2.0000      -0.561108       -15.2685
 157   2.0000      -0.556800       -15.1513
 158   2.0000      -0.553897       -15.0723
 159   2.0000      -0.552973       -15.0472
 160   2.0000      -0.547325       -14.8935
 161   2.0000      -0.546507       -14.8712
 162   2.0000      -0.543271       -14.7832
 163   2.0000      -0.541429       -14.7330
 164   2.0000      -0.540800       -14.7159
 165   2.0000      -0.539353       -14.6765
 166   2.0000      -0.538027       -14.6404
 167   2.0000      -0.537733       -14.6325
 168   2.0000      -0.534193       -14.5361
 169   2.0000      -0.533516       -14.5177
 170   2.0000      -0.531077       -14.4514
 171   2.0000      -0.529004       -14.3949
 172   2.0000      -0.527225       -14.3465
 173   2.0000      -0.525723       -14.3056
 174   2.0000      -0.522425       -14.2159
 175   2.0000      -0.519287       -14.1305
 176   2.0000      -0.518322       -14.1043
 177   2.0000      -0.515960       -14.0400
 178   2.0000      -0.514398       -13.9975
 179   2.0000      -0.513268       -13.9667
 180   2.0000      -0.508135       -13.8271
 181   2.0000      -0.505146       -13.7457
 182   2.0000      -0.501956       -13.6589
 183   2.0000      -0.500225       -13.6118
 184   2.0000      -0.496640       -13.5143
 185   2.0000      -0.493722       -13.4349
 186   2.0000      -0.493172       -13.4199
 187   2.0000      -0.492741       -13.4082
 188   2.0000      -0.491038       -13.3618
 189   2.0000      -0.488347       -13.2886
 190   2.0000      -0.487562       -13.2672
 191   2.0000      -0.486290       -13.2326
 192   2.0000      -0.481741       -13.1088
 193   2.0000      -0.475982       -12.9521
 194   2.0000      -0.474143       -12.9021
 195   2.0000      -0.472348       -12.8532
 196   2.0000      -0.470752       -12.8098
 197   2.0000      -0.469207       -12.7678
 198   2.0000      -0.467310       -12.7161
 199   2.0000      -0.465040       -12.6544
 200   2.0000      -0.463410       -12.6100
 201   2.0000      -0.461413       -12.5557
 202   2.0000      -0.459523       -12.5043
 203   2.0000      -0.458911       -12.4876
 204   2.0000      -0.458202       -12.4683
 205   2.0000      -0.455985       -12.4080
 206   2.0000      -0.454698       -12.3730
 207   2.0000      -0.453391       -12.3374
 208   2.0000      -0.451874       -12.2961
 209   2.0000      -0.451066       -12.2741
 210   2.0000      -0.449797       -12.2396
 211   2.0000      -0.447513       -12.1774
 212   2.0000      -0.442580       -12.0432
 213   2.0000      -0.441820       -12.0225
 214   2.0000      -0.440776       -11.9941
 215   2.0000      -0.439978       -11.9724
 216   2.0000      -0.438935       -11.9440
 217   2.0000      -0.437780       -11.9126
 218   2.0000      -0.434544       -11.8245
 219   2.0000      -0.434331       -11.8188
 220   2.0000      -0.429465       -11.6863
 221   2.0000      -0.427979       -11.6459
 222   2.0000      -0.426914       -11.6169
 223   2.0000      -0.424272       -11.5450
 224   2.0000      -0.413238       -11.2448
 225   2.0000      -0.412455       -11.2235
 226   2.0000      -0.411381       -11.1943
 227   2.0000      -0.406131       -11.0514
 228   2.0000      -0.406014       -11.0482
 229   2.0000      -0.402445       -10.9511
 230   2.0000      -0.399699       -10.8764
 231   2.0000      -0.398871       -10.8538
 232   2.0000      -0.384151       -10.4533
 233   2.0000      -0.382362       -10.4046
 234   2.0000      -0.368544       -10.0286
 235   2.0000      -0.364028        -9.9057
 236   2.0000      -0.363886        -9.9018
 237   2.0000      -0.356917        -9.7122
 238   2.0000      -0.352775        -9.5995
 239   2.0000      -0.348903        -9.4941
 240   2.0000      -0.347454        -9.4547
 241   2.0000      -0.341734        -9.2991
 242   2.0000      -0.339991        -9.2516
 243   2.0000      -0.334575        -9.1042
 244   2.0000      -0.333190        -9.0666
 245   2.0000      -0.326016        -8.8714
 246   2.0000      -0.317684        -8.6446
 247   2.0000      -0.310270        -8.4429
 248   2.0000      -0.308121        -8.3844
 249   2.0000      -0.249531        -6.7901
 250   0.0000      -0.143176        -3.8960
 251   0.0000      -0.126484        -3.4418
 252   0.0000      -0.071925        -1.9572
 253   0.0000      -0.014594        -0.3971
 254   0.0000      -0.011035        -0.3003

MULLIKEN ATOMIC CHARGES
-----------------------
   0 C :    0.026944
   1 C :    0.138603
   2 O :   -0.163321
   3 O :   -0.265248
   4 C :    0.155200
   5 C :   -0.137364
   6 C :    0.098547
   7 C :    0.097348
   8 C :   -0.076962
   9 C :    0.172445
  10 O :   -0.250357
  11 C :    0.172515
  12 O :   -0.150248
  13 C :    0.007238
  14 C :    0.009053
  15 C :   -0.099903
  16 C :    0.100162
  17 C :   -0.078162
  18 C :    0.002611
  19 C :   -0.190790
  20 N :    0.152431
  21 C :    0.114082
  22 C :   -0.105747
  23 C :    0.040356
  24 C :   -0.027125
  25 C :   -0.090855
  26 C :   -0.175746
  27 N :    0.146420
  28 C :    0.154590
  29 N :   -0.257743
  30 C :    0.096741
  31 C :   -0.004908
  32 C :    0.164439
  33 O :   -0.212195
  34 C :   -0.069054
  35 C :   -0.054823
  36 C :    0.160208
  37 O :   -0.178081
  38 N :   -0.253530
  39 C :    0.093584
  40 C :    0.002987
  41 C :    0.155537
  42 C :   -0.013724
  43 C :    0.011159
  44 C :    0.108368
  45 C :   -0.114548
  46 C :    0.111692
  47 C :   -0.094255
  48 C :    0.009744
  49 C :   -0.166985
  50 N :    0.124267
  51 C :    0.114608
  52 C :   -0.122097
  53 C :    0.042273
  54 C :    0.031740
  55 C :   -0.107198
  56 C :   -0.163710
  57 N :    0.124679
  58 C :   -0.043029
  59 C :    0.191233
  60 O :   -0.150621
  61 O :   -0.245265
  62 C :    0.173584
  63 C :   -0.095689
  64 C :    0.104243
  65 C :    0.091859
  66 C :   -0.135764
  67 C :    0.149526
  68 O :   -0.261714
  69 C :    0.136383
  70 O :   -0.152120
  71 C :    0.026767
  72 H :    0.042657
  73 H :    0.034928
  74 H :    0.032341
  75 H :    0.029169
  76 H :    0.019635
  77 H :    0.004489
  78 H :    0.001573
  79 H :    0.006698
  80 H :    0.018535
  81 H :    0.021817
  82 H :    0.018419
  83 H :    0.011123
  84 H :   -0.003442
  85 H :    0.030461
  86 H :   -0.008916
  87 H :    0.049519
  88 H :    0.026442
  89 H :    0.029489
  90 H :    0.029834
  91 H :    0.026039
  92 H :    0.048521
  93 H :    0.031698
  94 H :    0.038661
  95 H :    0.033290
  96 H :    0.015378
  97 H :   -0.010997
  98 H :    0.007732
  99 H :    0.004119
 100 H :    0.012607
 101 H :    0.001544
 102 H :    0.009095
 103 H :    0.042614
 104 H :    0.025165
 105 H :    0.026550
 106 H :    0.017187
 107 H :    0.016238
 108 H :    0.015707
 109 H :    0.005052
 110 H :    0.021913
 111 H :    0.019533
 112 H :    0.047664
 113 H :    0.044629
Sum of atomic charges:   -0.0000000

LOEWDIN ATOMIC CHARGES
----------------------
   0 C :   -0.059113
   1 C :    0.074294
   2 O :   -0.152083
   3 O :   -0.071655
   4 C :    0.068125
   5 C :   -0.038747
   6 C :   -0.030007
   7 C :   -0.027937
   8 C :   -0.028599
   9 C :    0.069065
  10 O :   -0.058936
  11 C :    0.077495
  12 O :   -0.144509
  13 C :   -0.055440
  14 C :    0.001966
  15 C :   -0.034493
  16 C :    0.050056
  17 C :   -0.078510
  18 C :    0.046257
  19 C :   -0.035346
  20 N :   -0.050653
  21 C :    0.033709
  22 C :    0.017025
  23 C :   -0.034963
  24 C :    0.050832
  25 C :   -0.081382
  26 C :   -0.020633
  27 N :   -0.062037
  28 C :    0.068658
  29 N :    0.000702
  30 C :    0.034928
  31 C :   -0.061039
  32 C :    0.080817
  33 O :   -0.199099
  34 C :   -0.118854
  35 C :   -0.098207
  36 C :    0.085241
  37 O :   -0.166924
  38 N :    0.005748
  39 C :    0.037709
  40 C :   -0.058837
  41 C :    0.084971
  42 C :   -0.023758
  43 C :    0.032087
  44 C :   -0.022868
  45 C :   -0.007066
  46 C :    0.035547
  47 C :   -0.084512
  48 C :    0.064552
  49 C :   -0.027339
  50 N :   -0.068148
  51 C :    0.047785
  52 C :   -0.033414
  53 C :   -0.001513
  54 C :    0.066079
  55 C :   -0.089831
  56 C :   -0.026197
  57 N :   -0.069816
  58 C :   -0.061264
  59 C :    0.084534
  60 O :   -0.140624
  61 O :   -0.058807
  62 C :    0.072642
  63 C :   -0.030980
  64 C :   -0.024731
  65 C :   -0.027067
  66 C :   -0.040059
  67 C :    0.065629
  68 O :   -0.075925
  69 C :    0.075474
  70 O :   -0.142680
  71 C :   -0.057664
  72 H :    0.045399
  73 H :    0.037945
  74 H :    0.028131
  75 H :    0.037069
  76 H :    0.025792
  77 H :    0.030295
  78 H :    0.029750
  79 H :    0.025030
  80 H :    0.037839
  81 H :    0.031981
  82 H :    0.048943
  83 H :    0.030060
  84 H :    0.036649
  85 H :    0.038830
  86 H :    0.036176
  87 H :    0.040115
  88 H :    0.020387
  89 H :    0.033651
  90 H :    0.034199
  91 H :    0.023051
  92 H :    0.040470
  93 H :    0.026319
  94 H :    0.035369
  95 H :    0.035499
  96 H :    0.022156
  97 H :    0.036073
  98 H :    0.038522
  99 H :    0.032924
 100 H :    0.043343
 101 H :    0.031542
 102 H :    0.041060
 103 H :    0.049376
 104 H :    0.033334
 105 H :    0.038547
 106 H :    0.028995
 107 H :    0.034360
 108 H :    0.034391
 109 H :    0.022948
 110 H :    0.035620
 111 H :    0.028959
 112 H :    0.047240
 113 H :    0.041999

  Mayer bond orders larger than 0.100000
B(  0-C ,  1-C ) :   0.9621 B(  0-C ,  5-C ) :   1.0243 B(  0-C , 72-H ) :   0.9294
B(  0-C , 73-H ) :   0.9269 B(  1-C ,  2-O ) :   2.2317 B(  1-C ,  3-O ) :   1.1252
B(  3-O ,  4-C ) :   0.9489 B(  4-C ,  5-C ) :   1.0306 B(  4-C ,  9-C ) :   0.9634
B(  4-C , 74-H ) :   0.9124 B(  5-C ,  6-C ) :   1.0647 B(  5-C , 75-H ) :   0.9075
B(  6-C ,  7-C ) :   1.0573 B(  6-C , 76-H ) :   0.9409 B(  6-C , 77-H ) :   0.9228
B(  7-C ,  8-C ) :   1.0732 B(  7-C , 78-H ) :   0.9245 B(  7-C , 79-H ) :   0.9355
B(  8-C ,  9-C ) :   1.0143 B(  8-C , 13-C ) :   1.0093 B(  8-C , 80-H ) :   0.9051
B(  9-C , 10-O ) :   0.9634 B(  9-C , 81-H ) :   0.9148 B( 10-O , 11-C ) :   1.1406
B( 11-C , 12-O ) :   2.2532 B( 11-C , 13-C ) :   0.8920 B( 13-C , 14-C ) :   0.9876
B( 13-C , 82-H ) :   0.8752 B( 14-C , 15-C ) :   1.6267 B( 14-C , 18-C ) :   1.0832
B( 15-C , 16-C ) :   1.0999 B( 15-C , 83-H ) :   0.9999 B( 16-C , 17-C ) :   1.1247
B( 16-C , 21-C ) :   1.4111 B( 17-C , 18-C ) :   1.6461 B( 17-C , 19-C ) :   1.0896
B( 18-C , 84-H ) :   1.0214 B( 19-C , 20-N ) :   2.9948 B( 21-C , 22-C ) :   1.1201
B( 21-C , 25-C ) :   1.1006 B( 22-C , 23-C ) :   1.5364 B( 22-C , 85-H ) :   0.9865
B( 23-C , 24-C ) :   1.0190 B( 23-C , 28-C ) :   1.0598 B( 24-C , 25-C ) :   1.6536
B( 24-C , 86-H ) :   1.0281 B( 25-C , 26-C ) :   1.0951 B( 26-C , 27-N ) :   2.9490
B( 28-C , 29-N ) :   1.1941 B( 28-C , 35-C ) :   1.3637 B( 29-N , 30-C ) :   0.9406
B( 29-N , 32-C ) :   1.0516 B( 30-C , 31-C ) :   1.1158 B( 30-C , 87-H ) :   0.9211
B( 30-C , 88-H ) :   0.9514 B( 31-C , 89-H ) :   0.9609 B( 31-C , 90-H ) :   0.9669
B( 31-C , 91-H ) :   0.9678 B( 32-C , 33-O ) :   2.0125 B( 32-C , 34-C ) :   0.9971
B( 33-O , 98-H ) :   0.1142 B( 34-C , 35-C ) :   1.2720 B( 34-C , 41-C ) :   1.2832
B( 35-C , 36-C ) :   0.9611 B( 36-C , 37-O ) :   2.0794 B( 36-C , 38-N ) :   1.0444
B( 38-N , 39-C ) :   0.9342 B( 38-N , 41-C ) :   1.1837 B( 39-C , 40-C ) :   1.1231
B( 39-C , 92-H ) :   0.9271 B( 39-C , 93-H ) :   0.9503 B( 40-C , 94-H ) :   0.9634
B( 40-C , 95-H ) :   0.9678 B( 40-C , 96-H ) :   0.9679 B( 41-C , 42-C ) :   1.1695
B( 42-C , 43-C ) :   1.5703 B( 42-C , 97-H ) :   0.9671 B( 43-C , 44-C ) :   1.1092
B( 43-C , 98-H ) :   0.9548 B( 44-C , 45-C ) :   1.5322 B( 44-C , 48-C ) :   1.0349
B( 45-C , 46-C ) :   1.1169 B( 45-C , 99-H ) :   0.9967 B( 46-C , 47-C ) :   1.0981
B( 46-C , 51-C ) :   1.4467 B( 47-C , 48-C ) :   1.6634 B( 47-C , 49-C ) :   1.0907
B( 48-C ,100-H ) :   1.0269 B( 49-C , 50-N ) :   2.9575 B( 51-C , 52-C ) :   1.0591
B( 51-C , 55-C ) :   1.1162 B( 52-C , 53-C ) :   1.6872 B( 52-C ,101-H ) :   0.9994
B( 53-C , 54-C ) :   1.0668 B( 53-C , 58-C ) :   0.9760 B( 54-C , 55-C ) :   1.6448
B( 54-C ,102-H ) :   1.0235 B( 55-C , 56-C ) :   1.0903 B( 56-C , 57-N ) :   2.9565
B( 58-C , 59-C ) :   0.8927 B( 58-C , 63-C ) :   1.0098 B( 58-C ,103-H ) :   0.8503
B( 59-C , 60-O ) :   2.2174 B( 59-C , 61-O ) :   1.1605 B( 61-O , 62-C ) :   0.9509
B( 62-C , 63-C ) :   1.0162 B( 62-C , 67-C ) :   0.9596 B( 62-C ,104-H ) :   0.9216
B( 63-C , 64-C ) :   1.0577 B( 63-C ,105-H ) :   0.9038 B( 64-C , 65-C ) :   1.0706
B( 64-C ,106-H ) :   0.9374 B( 64-C ,107-H ) :   0.9233 B( 65-C , 66-C ) :   1.0583
B( 65-C ,108-H ) :   0.9262 B( 65-C ,109-H ) :   0.9373 B( 66-C , 67-C ) :   1.0195
B( 66-C , 71-C ) :   1.0234 B( 66-C ,110-H ) :   0.9160 B( 67-C , 68-O ) :   0.9709
B( 67-C ,111-H ) :   0.9212 B( 68-O , 69-C ) :   1.1132 B( 69-C , 70-O ) :   2.2413
B( 69-C , 71-C ) :   0.9633 B( 71-C ,112-H ) :   0.9303 B( 71-C ,113-H ) :   0.9270

-----------------------------------------------------------------------------
         ABSORPTION SPECTRUM VIA TRANSITION ELECTRIC DIPOLE MOMENTS
-----------------------------------------------------------------------------
State   Energy  Wavelength   fosc         T2         TX        TY        TZ
        (cm-1)    (nm)                  (au**2)     (au)      (au)      (au)
-----------------------------------------------------------------------------
   0    8451.8   1183.2   0.449308430  17.50143   1.98771  -1.95274  -3.12045
   1   12375.4    808.1   0.131067314   3.48667   0.67739   0.11533  -1.73623
   2   16990.3    588.6   0.012722092   0.24651   0.03601  -0.41725   0.26668
   3   18804.6    531.8   0.008816505   0.15435  -0.13403  -0.14392   0.34011
   4   19696.6    507.7   0.002359798   0.03944   0.10483   0.14889  -0.07927
   5   20912.7    478.2   0.074640416   1.17501   0.53152   0.02511  -0.94439
   6   22281.7    448.8   0.237453451   3.50837  -0.92387   0.15311   1.62216
   7   23476.0    426.0   0.002943692   0.04128   0.07421  -0.08083  -0.17100
   8   24996.5    400.1   0.005386570   0.07094  -0.19059   0.10724   0.15205
   9   25886.5    386.3   0.327477184   4.16469   0.61275  -1.31997  -1.43070
  10   26570.1    376.4   0.096926340   1.20095   0.19165  -0.99919  -0.40724
  11   28391.1    352.2   0.307662644   3.56754  -0.78230   0.47672   1.65175
  12   28608.7    349.5   0.094641638   1.08908   0.44377  -0.18799  -0.92564
  13   29017.8    344.6   0.053253532   0.60417  -0.26643  -0.26857   0.67901
  14   29149.2    343.1   0.020666853   0.23341  -0.16966   0.34032   0.29801
  15   29722.1    336.4   0.001228662   0.01361  -0.02672   0.10779  -0.03572
  16   30526.1    327.6   0.241922732   2.60904   0.41922  -1.55293  -0.14735
  17   30939.5    323.2   0.080188893   0.85325   0.18491  -0.89405   0.14049
  18   31045.6    322.1   0.008209806   0.08706   0.03036  -0.29011   0.04439
  19   31590.4    316.6   0.005773502   0.06017  -0.08903   0.21465   0.07852
  20   31717.4    315.3   0.143582660   1.49032   0.30676  -1.17089   0.15890
  21   32672.0    306.1   0.004333447   0.04366   0.11126  -0.12858  -0.12146
  22   33943.1    294.6   0.013082801   0.12689  -0.04768  -0.29072  -0.20025
  23   34184.6    292.5   0.194889789   1.87687   0.42831  -0.72413  -1.08123
  24   35014.1    285.6   0.149815558   1.40861   0.20890  -1.06470  -0.48103
  25   35271.1    283.5   0.002143595   0.02001   0.02139  -0.13881   0.01679
  26   35277.1    283.5   0.000862399   0.00805  -0.00629  -0.00316  -0.08943
  27   35605.5    280.9   0.041455985   0.38331  -0.33874   0.35676   0.37588
  28   35910.8    278.5   0.018123848   0.16615   0.12729  -0.32343  -0.21294
  29   36290.3    275.6   0.058332391   0.52917   0.26560  -0.67624  -0.03641
  30   36642.1    272.9   0.019797734   0.17787   0.04621   0.41159  -0.07958
  31   37485.7    266.8   0.105755106   0.92878  -0.12711  -0.92544   0.23702
  32   37737.4    265.0   0.000859413   0.00750  -0.07955  -0.01557  -0.03045
  33   38037.1    262.9   0.003628291   0.03140  -0.03252   0.04577   0.16808
  34   38131.6    262.2   0.055266475   0.47715  -0.00815  -0.69015  -0.02774
  35   38204.1    261.8   0.063183100   0.54446   0.29391  -0.09730  -0.66979
  36   38549.4    259.4   0.009787578   0.08359  -0.10294  -0.15861   0.21871
  37   39325.3    254.3   0.079008387   0.66142   0.29725  -0.68747  -0.31693
  38   39946.1    250.3   0.007412059   0.06109  -0.02391   0.22131  -0.10740
  39   40112.8    249.3   0.007022552   0.05764   0.03777  -0.20668  -0.11615

FINAL SINGLE POINT ENERGY     -3235.919782411666

DIPOLE MOMENT
-------------
                                X             Y             Z
Electronic contribution:    -24.32978      -6.41760     -11.48410
Nuclear contribution   :     26.90409       6.80992      13.89052
                        -----------------------------------------
Total Dipole Moment    :      2.57431       0.39232       2.40642
                        -----------------------------------------
Magnitude (a.u.)       :      3.54568
Magnitude (Debye)      :      9.01241

Rotational constants in cm-1:     0.003629     0.000207     0.000200
Rotational constants in MHz :   108.782084     6.203538     6.003779

                             ****ORCA TERMINATED NORMALLY****
TOTAL RUN TIME: 0 days 0 hours 12 minutes 37 seconds 404 msec
