                         Program Version 4.2.0 -  RELEASE  -
|  1> # ORCA input file
|  2> # SCF done       -164.418498360624          0.000944997388
|  3> ! CAM-B3LYP def2-SVP def2/J RIJCOSX Grid4 TightSCF
|  4> %maxcore 5000
|  5> %tddft
|  6>     Mode sTDDFT
|  7>     Ethresh 5.0
|  8>     maxcore 5000
|  9> end
| 10>
| 11> %pal
| 12>   nprocs 6
| 13>   end
| 14> * xyz 0 1
| 15>    C       -3.38402        -0.37861        -4.07713
| 16>    N       -3.01814         0.78673        -4.66563
| 17>    C       -2.45329         0.92958        -5.98440
| 18>    C       -3.50853         0.73795        -7.07039
| 19>    C       -3.31731         1.89663        -3.84005
| 20>    O       -3.07351         3.04563        -4.15790
| 21>    C       -3.90551         1.30801        -2.66212
| 22>    C       -3.92773        -0.10539        -2.84884
| 23>    C       -4.51545        -0.70690        -1.66599
| 24>    O       -4.74435        -1.85519        -1.36410
| 25>    N       -4.81768         0.39319        -0.84047
| 26>    C       -5.37565         0.19969         0.47639
| 27>    C       -4.30997         0.29851         1.56529
| 28>    C       -4.45882         1.59493        -1.41163
| 29>    C       -4.65710         2.84734        -0.79702
| 30>    C       -4.26780         4.02958        -1.36980
| 31>    C       -4.45639         5.27555        -0.75309
| 32>    C       -4.01104         6.44949        -1.31357
| 33>    C       -4.10805         7.73982        -0.76383
| 34>    C       -4.78494         8.03801         0.39781
| 35>    C       -4.91115         9.26325         1.06682
| 36>    C       -4.67238        10.60545         0.70293
| 37>    N       -4.00257        11.16632        -0.39248
| 38>    O       -3.27272        10.46925        -1.08409
| 39>    O       -4.16660        12.36045        -0.59092
| 40>    C       -5.26478        11.45494         1.67728
| 41>    C       -5.86758        10.69296         2.64488
| 42>    C       -5.64991         9.32792         2.34671
| 43>    C       -5.95473         8.23007         3.15361
| 44>    C       -5.18546         7.04722         3.26329
| 45>    C       -5.72941         6.25841         4.24297
| 46>    C       -6.88986         6.88644         4.76976
| 47>    N       -7.61586         6.24422         5.77931
| 48>    O       -7.36120         5.06441         5.97847
| 49>    O       -8.44591         6.86313         6.43224
| 50>    C       -7.07788         8.12178         4.10627
| 51>    C       -8.13157         9.04279         4.05836
| 52>    C       -9.27021         9.09350         4.83341
| 53>    C      -10.24754        10.09737         4.75456
| 54>    C      -10.17637        11.27017         4.03854
| 55>    C      -11.18289        12.24557         4.08403
| 56>    C      -11.04815        13.45948         3.46119
| 57>    C      -11.91538        14.56646         3.41700
| 58>    N      -13.20977        14.71911         3.86554
| 59>    C      -14.04955        13.75945         4.54077
| 60>    C      -13.77443        13.72212         6.04283
| 61>    C      -13.70620        16.01778         3.61752
| 62>    O      -14.82463        16.37428         3.91744
| 63>    C      -12.61233        16.70112         2.96108
| 64>    C      -11.54387        15.79114         2.84638
| 65>    C      -10.45441        16.46916         2.18811
| 66>    O       -9.34370        16.10983         1.86241
| 67>    N      -10.95352        17.77618         1.94184
| 68>    C      -10.09605        18.74843         1.30952
| 69>    C       -9.40979        19.64896         2.33479
| 70>    C      -12.23332        17.92326         2.40608
| 71>    C      -13.11153        19.05735         2.35845
| 72>    C      -12.87779        20.30947         1.95895
| 73>    H       -3.22712        -1.32242        -4.56565
| 74>    H       -1.64271         0.20527        -6.10787
| 75>    H       -2.04259         1.94154        -6.03673
| 76>    H       -3.94356        -0.25758        -7.01333
| 77>    H       -3.05625         0.86557        -8.04974
| 78>    H       -4.30226         1.47211        -6.95505
| 79>    H       -5.80601        -0.80563         0.47635
| 80>    H       -6.17647         0.92463         0.64635
| 81>    H       -3.55101        -0.46439         1.41072
| 82>    H       -4.76444         0.14397         2.53981
| 83>    H       -3.82761         1.27354         1.55355
| 84>    H       -5.13622         2.86722         0.17241
| 85>    H       -3.78289         4.01060        -2.33652
| 86>    H       -4.95107         5.28321         0.20965
| 87>    H       -3.49624         6.37005        -2.26272
| 88>    H       -3.59243         8.53173        -1.28624
| 89>    H       -5.31134         7.22525         0.87990
| 90>    H       -5.21179        12.52691         1.63744
| 91>    H       -6.30514        11.07075         3.54926
| 92>    H       -4.25437         6.86519         2.76106
| 93>    H       -5.35347         5.31796         4.60034
| 94>    H       -8.02518         9.79467         3.28856
| 95>    H       -9.42770         8.32607         5.57636
| 96>    H      -11.12743         9.94974         5.36934
| 97>    H       -9.30301        11.49070         3.44068
| 98>    H      -12.06137        12.00956         4.66454
| 99>    H      -10.11876        13.64578         2.93512
|100>    H      -13.92319        12.77703         4.08014
|101>    H      -15.07890        14.09253         4.37516
|102>    H      -12.72964        13.49908         6.24861
|103>    H      -14.39691        12.96649         6.51435
|104>    H      -14.01090        14.68842         6.48125
|105>    H      -10.67271        19.32663         0.58442
|106>    H       -9.33498        18.17278         0.77358
|107>    H      -10.13751        20.16397         2.95816
|108>    H       -8.79585        20.38637         1.82495
|109>    H       -8.76946        19.05000         2.97768
|110>    H      -14.09900        18.80517         2.72614
|111>    H      -11.92810        20.66580         1.60528
|112>    H      -13.66870        21.03930         1.99182
|113> *
|114>
|115>                          ****END OF INPUT****

CARTESIAN COORDINATES (ANGSTROEM)
---------------------------------
  C     -3.384020   -0.378610   -4.077130
  N     -3.018140    0.786730   -4.665630
  C     -2.453290    0.929580   -5.984400
  C     -3.508530    0.737950   -7.070390
  C     -3.317310    1.896630   -3.840050
  O     -3.073510    3.045630   -4.157900
  C     -3.905510    1.308010   -2.662120
  C     -3.927730   -0.105390   -2.848840
  C     -4.515450   -0.706900   -1.665990
  O     -4.744350   -1.855190   -1.364100
  N     -4.817680    0.393190   -0.840470
  C     -5.375650    0.199690    0.476390
  C     -4.309970    0.298510    1.565290
  C     -4.458820    1.594930   -1.411630
  C     -4.657100    2.847340   -0.797020
  C     -4.267800    4.029580   -1.369800
  C     -4.456390    5.275550   -0.753090
  C     -4.011040    6.449490   -1.313570
  C     -4.108050    7.739820   -0.763830
  C     -4.784940    8.038010    0.397810
  C     -4.911150    9.263250    1.066820
  C     -4.672380   10.605450    0.702930
  N     -4.002570   11.166320   -0.392480
  O     -3.272720   10.469250   -1.084090
  O     -4.166600   12.360450   -0.590920
  C     -5.264780   11.454940    1.677280
  C     -5.867580   10.692960    2.644880
  C     -5.649910    9.327920    2.346710
  C     -5.954730    8.230070    3.153610
  C     -5.185460    7.047220    3.263290
  C     -5.729410    6.258410    4.242970
  C     -6.889860    6.886440    4.769760
  N     -7.615860    6.244220    5.779310
  O     -7.361200    5.064410    5.978470
  O     -8.445910    6.863130    6.432240
  C     -7.077880    8.121780    4.106270
  C     -8.131570    9.042790    4.058360
  C     -9.270210    9.093500    4.833410
  C    -10.247540   10.097370    4.754560
  C    -10.176370   11.270170    4.038540
  C    -11.182890   12.245570    4.084030
  C    -11.048150   13.459480    3.461190
  C    -11.915380   14.566460    3.417000
  N    -13.209770   14.719110    3.865540
  C    -14.049550   13.759450    4.540770
  C    -13.774430   13.722120    6.042830
  C    -13.706200   16.017780    3.617520
  O    -14.824630   16.374280    3.917440
  C    -12.612330   16.701120    2.961080
  C    -11.543870   15.791140    2.846380
  C    -10.454410   16.469160    2.188110
  O     -9.343700   16.109830    1.862410
  N    -10.953520   17.776180    1.941840
  C    -10.096050   18.748430    1.309520
  C     -9.409790   19.648960    2.334790
  C    -12.233320   17.923260    2.406080
  C    -13.111530   19.057350    2.358450
  C    -12.877790   20.309470    1.958950
  H     -3.227120   -1.322420   -4.565650
  H     -1.642710    0.205270   -6.107870
  H     -2.042590    1.941540   -6.036730
  H     -3.943560   -0.257580   -7.013330
  H     -3.056250    0.865570   -8.049740
  H     -4.302260    1.472110   -6.955050
  H     -5.806010   -0.805630    0.476350
  H     -6.176470    0.924630    0.646350
  H     -3.551010   -0.464390    1.410720
  H     -4.764440    0.143970    2.539810
  H     -3.827610    1.273540    1.553550
  H     -5.136220    2.867220    0.172410
  H     -3.782890    4.010600   -2.336520
  H     -4.951070    5.283210    0.209650
  H     -3.496240    6.370050   -2.262720
  H     -3.592430    8.531730   -1.286240
  H     -5.311340    7.225250    0.879900
  H     -5.211790   12.526910    1.637440
  H     -6.305140   11.070750    3.549260
  H     -4.254370    6.865190    2.761060
  H     -5.353470    5.317960    4.600340
  H     -8.025180    9.794670    3.288560
  H     -9.427700    8.326070    5.576360
  H    -11.127430    9.949740    5.369340
  H     -9.303010   11.490700    3.440680
  H    -12.061370   12.009560    4.664540
  H    -10.118760   13.645780    2.935120
  H    -13.923190   12.777030    4.080140
  H    -15.078900   14.092530    4.375160
  H    -12.729640   13.499080    6.248610
  H    -14.396910   12.966490    6.514350
  H    -14.010900   14.688420    6.481250
  H    -10.672710   19.326630    0.584420
  H     -9.334980   18.172780    0.773580
  H    -10.137510   20.163970    2.958160
  H     -8.795850   20.386370    1.824950
  H     -8.769460   19.050000    2.977680
  H    -14.099000   18.805170    2.726140
  H    -11.928100   20.665800    1.605280
  H    -13.668700   21.039300    1.991820

 Total Charge           Charge          ....    0
 Multiplicity           Mult            ....    1
 Number of Electrons    NEL             ....  410
 Basis Dimension        Dim             .... 1012

ORBITAL ENERGIES
----------------

  NO   OCC          E(Eh)            E(eV)
   0   2.0000     -19.225589      -523.1549
   1   2.0000     -19.224297      -523.1197
   2   2.0000     -19.222730      -523.0771
   3   2.0000     -19.221600      -523.0463
   4   2.0000     -19.200133      -522.4622
   5   2.0000     -19.193198      -522.2735
   6   2.0000     -19.191521      -522.2278
   7   2.0000     -19.184989      -522.0501
   8   2.0000     -14.634387      -398.2219
   9   2.0000     -14.633043      -398.1854
  10   2.0000     -14.460710      -393.4959
  11   2.0000     -14.456785      -393.3891
  12   2.0000     -14.455333      -393.3496
  13   2.0000     -14.450550      -393.2195
  14   2.0000     -10.381102      -282.4841
  15   2.0000     -10.376710      -282.3646
  16   2.0000     -10.374016      -282.2913
  17   2.0000     -10.371711      -282.2286
  18   2.0000     -10.348025      -281.5841
  19   2.0000     -10.344511      -281.4885
  20   2.0000     -10.341762      -281.4137
  21   2.0000     -10.330918      -281.1186
  22   2.0000     -10.317489      -280.7532
  23   2.0000     -10.315686      -280.7041
  24   2.0000     -10.315568      -280.7009
  25   2.0000     -10.315255      -280.6924
  26   2.0000     -10.313209      -280.6367
  27   2.0000     -10.313157      -280.6353
  28   2.0000     -10.311985      -280.6034
  29   2.0000     -10.311224      -280.5827
  30   2.0000     -10.310036      -280.5503
  31   2.0000     -10.307032      -280.4686
  32   2.0000     -10.303424      -280.3704
  33   2.0000     -10.302287      -280.3395
  34   2.0000     -10.301973      -280.3309
  35   2.0000     -10.297036      -280.1966
  36   2.0000     -10.296109      -280.1714
  37   2.0000     -10.295610      -280.1578
  38   2.0000     -10.294880      -280.1379
  39   2.0000     -10.294715      -280.1334
  40   2.0000     -10.293407      -280.0978
  41   2.0000     -10.293239      -280.0933
  42   2.0000     -10.293024      -280.0874
  43   2.0000     -10.292602      -280.0759
  44   2.0000     -10.292481      -280.0727
  45   2.0000     -10.292136      -280.0633
  46   2.0000     -10.291602      -280.0487
  47   2.0000     -10.289614      -279.9946
  48   2.0000     -10.274677      -279.5882
  49   2.0000     -10.274609      -279.5863
  50   2.0000     -10.270293      -279.4689
  51   2.0000     -10.267280      -279.3869
  52   2.0000     -10.267041      -279.3804
  53   2.0000     -10.266071      -279.3540
  54   2.0000     -10.265251      -279.3317
  55   2.0000     -10.262920      -279.2682
  56   2.0000     -10.262094      -279.2458
  57   2.0000     -10.260077      -279.1909
  58   2.0000      -1.302457       -35.4417
  59   2.0000      -1.301714       -35.4214
  60   2.0000      -1.139208       -30.9994
  61   2.0000      -1.132467       -30.8160
  62   2.0000      -1.130726       -30.7686
  63   2.0000      -1.125056       -30.6143
  64   2.0000      -1.118105       -30.4252
  65   2.0000      -1.117551       -30.4101
  66   2.0000      -1.068337       -29.0709
  67   2.0000      -1.063160       -28.9301
  68   2.0000      -1.058133       -28.7933
  69   2.0000      -1.054178       -28.6856
  70   2.0000      -1.007766       -27.4227
  71   2.0000      -0.986683       -26.8490
  72   2.0000      -0.940381       -25.5891
  73   2.0000      -0.935894       -25.4670
  74   2.0000      -0.934089       -25.4179
  75   2.0000      -0.926214       -25.2036
  76   2.0000      -0.908902       -24.7325
  77   2.0000      -0.905235       -24.6327
  78   2.0000      -0.900609       -24.5068
  79   2.0000      -0.897795       -24.4302
  80   2.0000      -0.878126       -23.8950
  81   2.0000      -0.874941       -23.8083
  82   2.0000      -0.871240       -23.7077
  83   2.0000      -0.863750       -23.5038
  84   2.0000      -0.859895       -23.3989
  85   2.0000      -0.827808       -22.5258
  86   2.0000      -0.825113       -22.4525
  87   2.0000      -0.822901       -22.3923
  88   2.0000      -0.820372       -22.3235
  89   2.0000      -0.803119       -21.8540
  90   2.0000      -0.796477       -21.6732
  91   2.0000      -0.788384       -21.4530
  92   2.0000      -0.765050       -20.8181
  93   2.0000      -0.763786       -20.7837
  94   2.0000      -0.760919       -20.7057
  95   2.0000      -0.756779       -20.5930
  96   2.0000      -0.728149       -19.8139
  97   2.0000      -0.725853       -19.7515
  98   2.0000      -0.719516       -19.5790
  99   2.0000      -0.715935       -19.4816
 100   2.0000      -0.709510       -19.3067
 101   2.0000      -0.694201       -18.8902
 102   2.0000      -0.692932       -18.8556
 103   2.0000      -0.689142       -18.7525
 104   2.0000      -0.681095       -18.5335
 105   2.0000      -0.665349       -18.1051
 106   2.0000      -0.664248       -18.0751
 107   2.0000      -0.658581       -17.9209
 108   2.0000      -0.654202       -17.8018
 109   2.0000      -0.651414       -17.7259
 110   2.0000      -0.650941       -17.7130
 111   2.0000      -0.638400       -17.3717
 112   2.0000      -0.628782       -17.1100
 113   2.0000      -0.616848       -16.7853
 114   2.0000      -0.614746       -16.7281
 115   2.0000      -0.613371       -16.6907
 116   2.0000      -0.610374       -16.6091
 117   2.0000      -0.608623       -16.5615
 118   2.0000      -0.597978       -16.2718
 119   2.0000      -0.596276       -16.2255
 120   2.0000      -0.591777       -16.1031
 121   2.0000      -0.589792       -16.0491
 122   2.0000      -0.583849       -15.8873
 123   2.0000      -0.580324       -15.7914
 124   2.0000      -0.577652       -15.7187
 125   2.0000      -0.577229       -15.7072
 126   2.0000      -0.573989       -15.6190
 127   2.0000      -0.567935       -15.4543
 128   2.0000      -0.563543       -15.3348
 129   2.0000      -0.559839       -15.2340
 130   2.0000      -0.556069       -15.1314
 131   2.0000      -0.555278       -15.1099
 132   2.0000      -0.551279       -15.0011
 133   2.0000      -0.547351       -14.8942
 134   2.0000      -0.543346       -14.7852
 135   2.0000      -0.538348       -14.6492
 136   2.0000      -0.531017       -14.4497
 137   2.0000      -0.530416       -14.4333
 138   2.0000      -0.528913       -14.3925
 139   2.0000      -0.527868       -14.3640
 140   2.0000      -0.525997       -14.3131
 141   2.0000      -0.522816       -14.2265
 142   2.0000      -0.518477       -14.1085
 143   2.0000      -0.515035       -14.0148
 144   2.0000      -0.511315       -13.9136
 145   2.0000      -0.510509       -13.8916
 146   2.0000      -0.506647       -13.7866
 147   2.0000      -0.505693       -13.7606
 148   2.0000      -0.502299       -13.6683
 149   2.0000      -0.501305       -13.6412
 150   2.0000      -0.496863       -13.5203
 151   2.0000      -0.493877       -13.4391
 152   2.0000      -0.480780       -13.0827
 153   2.0000      -0.477863       -13.0033
 154   2.0000      -0.476816       -12.9748
 155   2.0000      -0.476007       -12.9528
 156   2.0000      -0.473805       -12.8929
 157   2.0000      -0.471559       -12.8318
 158   2.0000      -0.467815       -12.7299
 159   2.0000      -0.466496       -12.6940
 160   2.0000      -0.465479       -12.6663
 161   2.0000      -0.461830       -12.5670
 162   2.0000      -0.460628       -12.5343
 163   2.0000      -0.459882       -12.5140
 164   2.0000      -0.458717       -12.4823
 165   2.0000      -0.458231       -12.4691
 166   2.0000      -0.457154       -12.4398
 167   2.0000      -0.455715       -12.4006
 168   2.0000      -0.454547       -12.3689
 169   2.0000      -0.453555       -12.3418
 170   2.0000      -0.449419       -12.2293
 171   2.0000      -0.447326       -12.1724
 172   2.0000      -0.446126       -12.1397
 173   2.0000      -0.439101       -11.9485
 174   2.0000      -0.437697       -11.9103
 175   2.0000      -0.433187       -11.7876
 176   2.0000      -0.431333       -11.7372
 177   2.0000      -0.430504       -11.7146
 178   2.0000      -0.428791       -11.6680
 179   2.0000      -0.426902       -11.6166
 180   2.0000      -0.421135       -11.4597
 181   2.0000      -0.416808       -11.3419
 182   2.0000      -0.405918       -11.0456
 183   2.0000      -0.385758       -10.4970
 184   2.0000      -0.378840       -10.3088
 185   2.0000      -0.375450       -10.2165
 186   2.0000      -0.373484       -10.1630
 187   2.0000      -0.364805        -9.9268
 188   2.0000      -0.362968        -9.8769
 189   2.0000      -0.359328        -9.7778
 190   2.0000      -0.353544        -9.6204
 191   2.0000      -0.349584        -9.5127
 192   2.0000      -0.348434        -9.4814
 193   2.0000      -0.346641        -9.4326
 194   2.0000      -0.336076        -9.1451
 195   2.0000      -0.331700        -9.0260
 196   2.0000      -0.329723        -8.9722
 197   2.0000      -0.327486        -8.9113
 198   2.0000      -0.322989        -8.7890
 199   2.0000      -0.321465        -8.7475
 200   2.0000      -0.314389        -8.5550
 201   2.0000      -0.277455        -7.5499
 202   2.0000      -0.268388        -7.3032
 203   2.0000      -0.243112        -6.6154
 204   2.0000      -0.230208        -6.2643
 205   0.0000      -0.144156        -3.9227
 206   0.0000      -0.096227        -2.6185
 207   0.0000      -0.075997        -2.0680
 208   0.0000      -0.043919        -1.1951
 209   0.0000      -0.025578        -0.6960

MULLIKEN ATOMIC CHARGES
-----------------------
   0 C :    0.041590
   1 N :   -0.256636
   2 C :    0.111936
   3 C :   -0.002149
   4 C :    0.172423
   5 O :   -0.210742
   6 C :   -0.099659
   7 C :   -0.000163
   8 C :    0.162066
   9 O :   -0.184149
  10 N :   -0.270228
  11 C :    0.097596
  12 C :    0.004619
  13 C :    0.171260
  14 C :   -0.036728
  15 C :    0.023900
  16 C :    0.031138
  17 C :    0.018196
  18 C :    0.043366
  19 C :   -0.077667
  20 C :    0.110000
  21 C :    0.045002
  22 N :    0.280056
  23 O :   -0.264790
  24 O :   -0.260077
  25 C :    0.022857
  26 C :   -0.030214
  27 C :    0.021893
  28 C :    0.020775
  29 C :   -0.037654
  30 C :    0.022629
  31 C :    0.037282
  32 N :    0.280764
  33 O :   -0.265618
  34 O :   -0.267389
  35 C :    0.111405
  36 C :   -0.070493
  37 C :    0.045803
  38 C :    0.007809
  39 C :    0.036495
  40 C :    0.018968
  41 C :   -0.044221
  42 C :    0.136426
  43 N :   -0.274302
  44 C :    0.100912
  45 C :    0.003331
  46 C :    0.148216
  47 O :   -0.193825
  48 C :   -0.041781
  49 C :   -0.030933
  50 C :    0.145825
  51 O :   -0.183650
  52 N :   -0.266772
  53 C :    0.095057
  54 C :    0.001684
  55 C :    0.084844
  56 C :   -0.019411
  57 C :   -0.000296
  58 H :    0.017176
  59 H :    0.019870
  60 H :    0.043571
  61 H :    0.014697
  62 H :    0.024076
  63 H :    0.031179
  64 H :    0.044348
  65 H :    0.023299
  66 H :    0.030817
  67 H :    0.025350
  68 H :    0.011805
  69 H :   -0.022548
  70 H :    0.027608
  71 H :   -0.005767
  72 H :    0.015142
  73 H :    0.025227
  74 H :    0.006137
  75 H :    0.008532
  76 H :   -0.007118
  77 H :   -0.003297
  78 H :   -0.000254
  79 H :   -0.002966
  80 H :    0.023180
  81 H :   -0.002348
  82 H :    0.008299
  83 H :   -0.003259
  84 H :    0.012764
  85 H :    0.022465
  86 H :    0.042830
  87 H :    0.018366
  88 H :    0.022857
  89 H :    0.030917
  90 H :    0.025393
  91 H :    0.045570
  92 H :    0.019252
  93 H :    0.024439
  94 H :    0.029983
  95 H :    0.019368
  96 H :    0.026539
  97 H :    0.039928
Sum of atomic charges:    0.0000000

LOEWDIN ATOMIC CHARGES
----------------------
   0 C :    0.091269
   1 N :    0.002735
   2 C :    0.038614
   3 C :   -0.060046
   4 C :    0.077344
   5 O :   -0.200187
   6 C :   -0.123337
   7 C :   -0.127981
   8 C :    0.080542
   9 O :   -0.189470
  10 N :   -0.009012
  11 C :    0.036098
  12 C :   -0.061046
  13 C :    0.079168
  14 C :   -0.039830
  15 C :    0.028662
  16 C :    0.003349
  17 C :   -0.006568
  18 C :    0.020848
  19 C :   -0.016378
  20 C :    0.017290
  21 C :   -0.076060
  22 N :    0.288404
  23 O :   -0.224358
  24 O :   -0.223572
  25 C :    0.034322
  26 C :   -0.074865
  27 C :    0.033614
  28 C :    0.031700
  29 C :   -0.075261
  30 C :    0.029927
  31 C :   -0.082133
  32 N :    0.289125
  33 O :   -0.229213
  34 O :   -0.227278
  35 C :    0.018667
  36 C :   -0.019237
  37 C :    0.022935
  38 C :   -0.022578
  39 C :    0.014353
  40 C :   -0.011958
  41 C :   -0.015682
  42 C :    0.065572
  43 N :   -0.007722
  44 C :    0.035231
  45 C :   -0.063036
  46 C :    0.080067
  47 O :   -0.196433
  48 C :   -0.122674
  49 C :   -0.102908
  50 C :    0.082745
  51 O :   -0.183817
  52 N :   -0.001625
  53 C :    0.035608
  54 C :   -0.062474
  55 C :    0.083657
  56 C :   -0.030574
  57 C :   -0.007961
  58 H :    0.033449
  59 H :    0.025113
  60 H :    0.036625
  61 H :    0.022462
  62 H :    0.030716
  63 H :    0.031853
  64 H :    0.038225
  65 H :    0.022521
  66 H :    0.032590
  67 H :    0.031433
  68 H :    0.020683
  69 H :    0.030033
  70 H :    0.039047
  71 H :    0.027248
  72 H :    0.041700
  73 H :    0.033392
  74 H :    0.032184
  75 H :    0.039306
  76 H :    0.027080
  77 H :    0.028243
  78 H :    0.036048
  79 H :    0.031873
  80 H :    0.032330
  81 H :    0.034044
  82 H :    0.033117
  83 H :    0.030924
  84 H :    0.048477
  85 H :    0.021670
  86 H :    0.037892
  87 H :    0.021003
  88 H :    0.030646
  89 H :    0.033959
  90 H :    0.023211
  91 H :    0.038332
  92 H :    0.021999
  93 H :    0.031301
  94 H :    0.033121
  95 H :    0.050175
  96 H :    0.024229
  97 H :    0.035180

  Mayer bond orders larger than 0.100000
B(  0-C ,  1-N ) :   1.1997 B(  0-C ,  7-C ) :   1.4382 B(  0-C , 58-H ) :   0.9910
B(  1-N ,  2-C ) :   0.9403 B(  1-N ,  4-C ) :   1.0514 B(  2-C ,  3-C ) :   1.1189
B(  2-C , 59-H ) :   0.9538 B(  2-C , 60-H ) :   0.9347 B(  3-C , 61-H ) :   0.9694
B(  3-C , 62-H ) :   0.9689 B(  3-C , 63-H ) :   0.9672 B(  4-C ,  5-O ) :   2.0173
B(  4-C ,  6-C ) :   1.0076 B(  5-O , 70-H ) :   0.1088 B(  6-C ,  7-C ) :   1.2211
B(  6-C , 13-C ) :   1.3513 B(  7-C ,  8-C ) :   0.9491 B(  8-C ,  9-O ) :   2.1803
B(  8-C , 10-N ) :   1.0193 B( 10-N , 11-C ) :   0.9464 B( 10-N , 13-C ) :   1.1529
B( 11-C , 12-C ) :   1.1205 B( 11-C , 64-H ) :   0.9283 B( 11-C , 65-H ) :   0.9501
B( 12-C , 66-H ) :   0.9641 B( 12-C , 67-H ) :   0.9682 B( 12-C , 68-H ) :   0.9682
B( 13-C , 14-C ) :   1.1656 B( 14-C , 15-C ) :   1.5188 B( 14-C , 69-H ) :   0.9703
B( 15-C , 16-C ) :   1.1900 B( 15-C , 70-H ) :   0.9664 B( 16-C , 17-C ) :   1.5402
B( 16-C , 71-H ) :   0.9756 B( 17-C , 18-C ) :   1.1912 B( 17-C , 72-H ) :   0.9818
B( 18-C , 19-C ) :   1.5295 B( 18-C , 73-H ) :   0.9582 B( 19-C , 20-C ) :   1.2488
B( 19-C , 74-H ) :   0.9480 B( 20-C , 21-C ) :   1.3711 B( 20-C , 27-C ) :   1.0361
B( 21-C , 22-N ) :   0.9735 B( 21-C , 25-C ) :   1.1945 B( 22-N , 23-O ) :   1.4648
B( 22-N , 24-O ) :   1.5264 B( 23-O , 24-O ) :   0.2428 B( 25-C , 26-C ) :   1.4854
B( 25-C , 75-H ) :   1.0057 B( 26-C , 27-C ) :   1.1930 B( 26-C , 76-H ) :   1.0048
B( 27-C , 28-C ) :   1.3916 B( 28-C , 29-C ) :   1.1956 B( 28-C , 35-C ) :   1.0400
B( 29-C , 30-C ) :   1.4782 B( 29-C , 77-H ) :   1.0074 B( 30-C , 31-C ) :   1.2005
B( 30-C , 78-H ) :   1.0053 B( 31-C , 32-N ) :   0.9791 B( 31-C , 35-C ) :   1.3512
B( 32-N , 33-O ) :   1.5225 B( 32-N , 34-O ) :   1.4618 B( 33-O , 34-O ) :   0.2377
B( 35-C , 36-C ) :   1.2699 B( 36-C , 37-C ) :   1.5116 B( 36-C , 79-H ) :   0.9463
B( 37-C , 38-C ) :   1.2172 B( 37-C , 80-H ) :   0.9521 B( 38-C , 39-C ) :   1.5186
B( 38-C , 81-H ) :   0.9778 B( 39-C , 40-C ) :   1.2064 B( 39-C , 82-H ) :   0.9814
B( 40-C , 41-C ) :   1.4906 B( 40-C , 83-H ) :   0.9901 B( 41-C , 42-C ) :   1.1969
B( 41-C , 84-H ) :   0.9528 B( 42-C , 43-N ) :   1.1588 B( 42-C , 49-C ) :   1.3264
B( 43-N , 44-C ) :   0.9431 B( 43-N , 46-C ) :   1.0376 B( 44-C , 45-C ) :   1.1164
B( 44-C , 85-H ) :   0.9514 B( 44-C , 86-H ) :   0.9256 B( 45-C , 87-H ) :   0.9679
B( 45-C , 88-H ) :   0.9687 B( 45-C , 89-H ) :   0.9611 B( 46-C , 47-O ) :   2.1301
B( 46-C , 48-C ) :   0.9787 B( 48-C , 49-C ) :   1.2434 B( 48-C , 55-C ) :   1.3488
B( 49-C , 50-C ) :   0.9824 B( 50-C , 51-O ) :   2.1266 B( 50-C , 52-N ) :   1.0243
B( 52-N , 53-C ) :   0.9402 B( 52-N , 55-C ) :   1.1905 B( 53-C , 54-C ) :   1.1149
B( 53-C , 90-H ) :   0.9525 B( 53-C , 91-H ) :   0.9268 B( 54-C , 92-H ) :   0.9685
B( 54-C , 93-H ) :   0.9688 B( 54-C , 94-H ) :   0.9619 B( 55-C , 56-C ) :   1.1610
B( 56-C , 57-C ) :   1.8664 B( 56-C , 95-H ) :   0.9354 B( 57-C , 96-H ) :   0.9600
B( 57-C , 97-H ) :   0.9408

-----------------------------------------------------------------------------
         ABSORPTION SPECTRUM VIA TRANSITION ELECTRIC DIPOLE MOMENTS
-----------------------------------------------------------------------------
State   Energy  Wavelength   fosc         T2         TX        TY        TZ
        (cm-1)    (nm)                  (au**2)     (au)      (au)      (au)
-----------------------------------------------------------------------------
   0    4841.3   2065.5   0.355475862  24.17247  -2.51384   3.82870   1.78722
   1    7782.2   1285.0   0.042564163   1.80060   0.62106   0.08533   1.18642
   2   13305.9    751.5   0.100486535   2.48621   0.15243  -1.48554  -0.50612
   3   13518.7    739.7   0.145004453   3.53119  -0.24430   1.62206  -0.91676
   4   16366.8    611.0   0.217261985   4.37013   0.56823  -1.20179   1.61337
   5   18749.7    533.3   0.594548498  10.43922   0.32267  -3.17290  -0.51750
   6   20806.2    480.6   0.088389721   1.39857   0.75871  -0.20133  -0.88454
   7   22742.5    439.7   0.171772391   2.48651  -1.21293  -0.44730   0.90290
   8   23022.3    434.4   0.061187412   0.87496   0.80417   0.44962  -0.16159
   9   23313.1    428.9   0.177031385   2.49992  -0.33228  -1.48630  -0.42476
  10   24136.8    414.3   0.177193153   2.41681   0.72295  -1.33655   0.32829
  11   24216.9    412.9   0.083192656   1.13095  -0.42240   0.97271  -0.07977
  12   24433.7    409.3   0.013967480   0.18819  -0.23703   0.22022   0.28899
  13   24603.7    406.4   0.020267629   0.27119   0.49895  -0.07761   0.12733
  14   24754.5    404.0   0.128100586   1.70362  -0.19714   1.28485   0.11797
  15   25059.4    399.1   0.065580722   0.86155  -0.39031   0.83893  -0.07347
  16   26283.2    380.5   0.000841157   0.01054  -0.02228   0.08323  -0.05578
  17   26385.5    379.0   0.233779093   2.91687  -0.41074  -1.49912   0.70767
  18   26467.2    377.8   0.102413179   1.27387   0.12998   1.05492  -0.37962
  19   27059.2    369.6   0.149859449   1.82324  -0.72318   1.13716  -0.08441
  20   29112.6    343.5   0.476892131   5.39280   0.10680  -2.20414   0.72328
  21   29523.1    338.7   0.176012552   1.96271  -0.12044   1.06855  -0.89800
  22   29894.8    334.5   0.018409874   0.20274   0.22660  -0.37085   0.11771
  23   30271.8    330.3   0.100389682   1.09176   0.60790   0.57104  -0.62938
  24   30413.7    328.8   0.120413302   1.30341  -0.42063  -0.82612   0.66633
  25   30459.0    328.3   0.000721913   0.00780  -0.04403  -0.07326   0.02229
  26   30481.4    328.1   0.027122738   0.29294   0.19876   0.41603  -0.28346
  27   30573.6    327.1   0.024549634   0.26435  -0.04504  -0.46520   0.21425
  28   31033.6    322.2   0.075288509   0.79868  -0.09689  -0.76215   0.45652
  29   31327.3    319.2   0.077295698   0.81228   0.26345   0.67599  -0.53471
  30   31594.7    316.5   0.001572878   0.01639  -0.03477  -0.12043   0.02601
  31   31869.2    313.8   0.077434778   0.79991   0.40683   0.57783  -0.54818
  32   32477.0    307.9   0.120960713   1.22615  -0.81718  -0.37887   0.64407
  33   33439.3    299.0   0.052096453   0.51289  -0.20499   0.68453   0.04781
  34   34070.8    293.5   0.002678985   0.02589   0.06803  -0.10464   0.10153
  35   34123.2    293.1   0.000816819   0.00788  -0.07960  -0.02959   0.02586
  36   34402.8    290.7   0.000940879   0.00900   0.04898   0.05430   0.06047
  37   34774.4    287.6   0.048265252   0.45693   0.07866   0.67128  -0.01107
  38   35038.5    285.4   0.048629063   0.45690  -0.15477   0.65667   0.04166
  39   35219.7    283.9   0.013908430   0.13001   0.05027  -0.24032   0.26406
  40   35554.2    281.3   0.046793736   0.43328   0.03017  -0.62743   0.19674
  41   35603.4    280.9   0.025655974   0.23723   0.24598   0.37299  -0.19392
  42   35976.8    278.0   0.042867369   0.39227   0.19624  -0.56766  -0.17752
  43   36420.6    274.6   0.025001158   0.22599   0.29978  -0.36068  -0.07766
  44   36879.7    271.2   0.006670786   0.05955   0.01144  -0.05672  -0.23707
  45   37319.8    268.0   0.035085450   0.30950   0.27485   0.27944  -0.39480
  46   37755.5    264.9   0.008008474   0.06983   0.14765   0.21805  -0.02198
  47   37763.7    264.8   0.002209305   0.01926  -0.08643  -0.08396   0.06885
  48   38499.4    259.7   0.003616316   0.03092  -0.06960  -0.03401   0.15787
  49   38802.2    257.7   0.000612583   0.00520   0.02896   0.05463  -0.03708
  50   39149.8    255.4   0.021608836   0.18171  -0.16672  -0.33871   0.19795
  51   39573.5    252.7   0.098980189   0.82342  -0.80680   0.16087   0.38291
  52   39941.1    250.4   0.019446623   0.16029   0.12890  -0.37903  -0.00352
  53   40186.4    248.8   0.046010485   0.37692   0.23032  -0.51524   0.24167

FINAL SINGLE POINT ENERGY     -2627.474257991401

DIPOLE MOMENT
-------------
                                X             Y             Z
Electronic contribution:     11.10864      -7.91531       5.25165
Nuclear contribution   :    -11.94718       9.02997      -5.86058
                        -----------------------------------------
Total Dipole Moment    :     -0.83854       1.11466      -0.60893
                        -----------------------------------------
Magnitude (a.u.)       :      1.52198
Magnitude (Debye)      :      3.86856

Rotational constants in cm-1:     0.002171     0.000391     0.000361
Rotational constants in MHz :    65.099659    11.718955    10.816627

                             ****ORCA TERMINATED NORMALLY****
TOTAL RUN TIME: 0 days 0 hours 8 minutes 55 seconds 785 msec
