                         Program Version 4.2.0 -  RELEASE  -
|  1> # ORCA input file
|  2> # SCF done       -141.426177812265          0.000452431643
|  3> ! CAM-B3LYP def2-SVP def2/J RIJCOSX Grid4 TightSCF
|  4> %maxcore 5000
|  5> %tddft
|  6>     Mode sTDDFT
|  7>     Ethresh 5.0
|  8>     maxcore 5000
|  9> end
| 10>
| 11> %pal
| 12>   nprocs 6
| 13>   end
| 14> * xyz 0 1
| 15>    C       -0.15885         8.47228         5.45725
| 16>    C       -1.43385         8.24016         4.95380
| 17>    C       -1.61063         7.56066         3.70249
| 18>    N       -2.85762         7.37981         3.20150
| 19>    C       -3.86383         7.80409         3.90500
| 20>    C       -3.68942         8.44395         5.15922
| 21>    N       -2.51300         8.66494         5.66114
| 22>    C       -0.49891         7.10904         2.97041
| 23>    C        0.78525         7.34441         3.49422
| 24>    C        0.94964         8.03491         4.74109
| 25>    N        2.19271         8.27018         5.23562
| 26>    C        3.20795         7.84469         4.54808
| 27>    C        3.04628         7.13248         3.33216
| 28>    N        1.87458         6.88889         2.82611
| 29>    C       -0.66255         6.39115         1.70971
| 30>    C        0.17167         6.63593         0.62290
| 31>    C        0.02098         5.89377        -0.54399
| 32>    C       -1.00289         4.94514        -0.57608
| 33>    N       -1.80089         4.71136         0.44704
| 34>    C       -1.63730         5.39839         1.55753
| 35>    C        0.91968         6.08657        -1.68475
| 36>    C        0.46859         6.03833        -2.99692
| 37>    C        1.38473         6.20449        -4.04077
| 38>    C        2.73291         6.42481        -3.71129
| 39>    N        3.15734         6.46605        -2.46640
| 40>    C        2.28914         6.29783        -1.48566
| 41>    C        0.94904         6.15208        -5.40803
| 42>    C        1.64855         6.22468        -6.58914
| 43>    C        0.70332         6.07972        -7.65347
| 44>    C       -0.61264         5.99622        -7.05024
| 45>    O       -1.72138         5.98997        -7.49877
| 46>    O       -0.37588         6.00541        -5.67089
| 47>    C        1.39511         6.17852        -8.83913
| 48>    O        2.71645         6.41879        -8.57615
| 49>    C        2.94613         6.43672        -7.20293
| 50>    O        4.04106         6.61689        -6.75048
| 51>    C        0.88731         6.04308       -10.15184
| 52>    N        1.39675         6.59496       -11.30062
| 53>    C        2.62543         7.34253       -11.42980
| 54>    C        3.82934         6.41768       -11.58139
| 55>    C        0.55986         6.35130       -12.40554
| 56>    O        0.78720         6.77280       -13.52089
| 57>    C       -0.52102         5.54926       -11.86999
| 58>    C       -0.28201         5.36921       -10.48530
| 59>    C       -1.27840         4.45365        -9.96925
| 60>    O       -1.40390         3.89512        -8.90545
| 61>    N       -2.12776         4.22220       -11.07879
| 62>    C       -3.33456         3.44717       -10.92230
| 63>    C       -4.54721         4.34995       -10.71041
| 64>    C       -1.68608         4.85937       -12.20354
| 65>    C       -2.35006         4.78024       -13.47298
| 66>    C       -1.89743         5.40213       -14.56447
| 67>    H       -0.03045         8.98891         6.39414
| 68>    H       -4.84898         7.65243         3.48462
| 69>    H       -4.53932         8.78205         5.73696
| 70>    H        4.19165         8.04507         4.95109
| 71>    H        3.90076         6.75616         2.78547
| 72>    H        0.91244         7.41848         0.67679
| 73>    H       -1.17430         4.33685        -1.45433
| 74>    H       -2.30011         5.14576         2.37209
| 75>    H       -0.57618         5.88758        -3.22350
| 76>    H        3.47977         6.57059        -4.47921
| 77>    H        2.70142         6.31529        -0.48532
| 78>    H        2.74968         7.98723       -10.55718
| 79>    H        2.51509         7.95914       -12.32612
| 80>    H        3.95271         5.80482       -10.69247
| 81>    H        4.72892         7.00992       -11.72151
| 82>    H        3.69730         5.77106       -12.44567
| 83>    H       -3.18111         2.82823       -10.03383
| 84>    H       -3.47222         2.79474       -11.78849
| 85>    H       -4.39470         4.96420        -9.82635
| 86>    H       -5.43761         3.74458       -10.56580
| 87>    H       -4.70080         5.00366       -11.56649
| 88>    H       -3.25241         4.18629       -13.51622
| 89>    H       -1.00086         5.99965       -14.54371
| 90>    H       -2.41649         5.32399       -15.50424
| 91> *
| 92>
| 93>                          ****END OF INPUT****

CARTESIAN COORDINATES (ANGSTROEM)
---------------------------------
  C     -0.158850    8.472280    5.457250
  C     -1.433850    8.240160    4.953800
  C     -1.610630    7.560660    3.702490
  N     -2.857620    7.379810    3.201500
  C     -3.863830    7.804090    3.905000
  C     -3.689420    8.443950    5.159220
  N     -2.513000    8.664940    5.661140
  C     -0.498910    7.109040    2.970410
  C      0.785250    7.344410    3.494220
  C      0.949640    8.034910    4.741090
  N      2.192710    8.270180    5.235620
  C      3.207950    7.844690    4.548080
  C      3.046280    7.132480    3.332160
  N      1.874580    6.888890    2.826110
  C     -0.662550    6.391150    1.709710
  C      0.171670    6.635930    0.622900
  C      0.020980    5.893770   -0.543990
  C     -1.002890    4.945140   -0.576080
  N     -1.800890    4.711360    0.447040
  C     -1.637300    5.398390    1.557530
  C      0.919680    6.086570   -1.684750
  C      0.468590    6.038330   -2.996920
  C      1.384730    6.204490   -4.040770
  C      2.732910    6.424810   -3.711290
  N      3.157340    6.466050   -2.466400
  C      2.289140    6.297830   -1.485660
  C      0.949040    6.152080   -5.408030
  C      1.648550    6.224680   -6.589140
  C      0.703320    6.079720   -7.653470
  C     -0.612640    5.996220   -7.050240
  O     -1.721380    5.989970   -7.498770
  O     -0.375880    6.005410   -5.670890
  C      1.395110    6.178520   -8.839130
  O      2.716450    6.418790   -8.576150
  C      2.946130    6.436720   -7.202930
  O      4.041060    6.616890   -6.750480
  C      0.887310    6.043080  -10.151840
  N      1.396750    6.594960  -11.300620
  C      2.625430    7.342530  -11.429800
  C      3.829340    6.417680  -11.581390
  C      0.559860    6.351300  -12.405540
  O      0.787200    6.772800  -13.520890
  C     -0.521020    5.549260  -11.869990
  C     -0.282010    5.369210  -10.485300
  C     -1.278400    4.453650   -9.969250
  O     -1.403900    3.895120   -8.905450
  N     -2.127760    4.222200  -11.078790
  C     -3.334560    3.447170  -10.922300
  C     -4.547210    4.349950  -10.710410
  C     -1.686080    4.859370  -12.203540
  C     -2.350060    4.780240  -13.472980
  C     -1.897430    5.402130  -14.564470
  H     -0.030450    8.988910    6.394140
  H     -4.848980    7.652430    3.484620
  H     -4.539320    8.782050    5.736960
  H      4.191650    8.045070    4.951090
  H      3.900760    6.756160    2.785470
  H      0.912440    7.418480    0.676790
  H     -1.174300    4.336850   -1.454330
  H     -2.300110    5.145760    2.372090
  H     -0.576180    5.887580   -3.223500
  H      3.479770    6.570590   -4.479210
  H      2.701420    6.315290   -0.485320
  H      2.749680    7.987230  -10.557180
  H      2.515090    7.959140  -12.326120
  H      3.952710    5.804820  -10.692470
  H      4.728920    7.009920  -11.721510
  H      3.697300    5.771060  -12.445670
  H     -3.181110    2.828230  -10.033830
  H     -3.472220    2.794740  -11.788490
  H     -4.394700    4.964200   -9.826350
  H     -5.437610    3.744580  -10.565800
  H     -4.700800    5.003660  -11.566490
  H     -3.252410    4.186290  -13.516220
  H     -1.000860    5.999650  -14.543710
  H     -2.416490    5.323990  -15.504240

 Total Charge           Charge          ....    0
 Multiplicity           Mult            ....    1
 Number of Electrons    NEL             ....  356
 Basis Dimension        Dim             ....  848

ORBITAL ENERGIES
----------------

  NO   OCC          E(Eh)            E(eV)
   0   2.0000     -19.294006      -525.0166
   1   2.0000     -19.290952      -524.9335
   2   2.0000     -19.219472      -522.9884
   3   2.0000     -19.216717      -522.9134
   4   2.0000     -19.202040      -522.5141
   5   2.0000     -19.187151      -522.1089
   6   2.0000     -14.460578      -393.4923
   7   2.0000     -14.454633      -393.3306
   8   2.0000     -14.432368      -392.7247
   9   2.0000     -14.429797      -392.6547
  10   2.0000     -14.429665      -392.6511
  11   2.0000     -14.428595      -392.6220
  12   2.0000     -14.408347      -392.0711
  13   2.0000     -14.393479      -391.6665
  14   2.0000     -10.420482      -283.5557
  15   2.0000     -10.412934      -283.3503
  16   2.0000     -10.381246      -282.4881
  17   2.0000     -10.380233      -282.4605
  18   2.0000     -10.376702      -282.3644
  19   2.0000     -10.373550      -282.2786
  20   2.0000     -10.351167      -281.6696
  21   2.0000     -10.344269      -281.4819
  22   2.0000     -10.327928      -281.0372
  23   2.0000     -10.326138      -280.9885
  24   2.0000     -10.326020      -280.9853
  25   2.0000     -10.325969      -280.9839
  26   2.0000     -10.325280      -280.9651
  27   2.0000     -10.325155      -280.9618
  28   2.0000     -10.323592      -280.9192
  29   2.0000     -10.323061      -280.9048
  30   2.0000     -10.313446      -280.6431
  31   2.0000     -10.313017      -280.6315
  32   2.0000     -10.311707      -280.5958
  33   2.0000     -10.303471      -280.3717
  34   2.0000     -10.300754      -280.2978
  35   2.0000     -10.300445      -280.2893
  36   2.0000     -10.300170      -280.2819
  37   2.0000     -10.299957      -280.2761
  38   2.0000     -10.297026      -280.1963
  39   2.0000     -10.296034      -280.1693
  40   2.0000     -10.294759      -280.1346
  41   2.0000     -10.294593      -280.1301
  42   2.0000     -10.292360      -280.0694
  43   2.0000     -10.288686      -279.9694
  44   2.0000     -10.285278      -279.8767
  45   2.0000     -10.284910      -279.8666
  46   2.0000     -10.284189      -279.8470
  47   2.0000     -10.283138      -279.8184
  48   2.0000     -10.276561      -279.6394
  49   2.0000     -10.264484      -279.3108
  50   2.0000     -10.264435      -279.3095
  51   2.0000     -10.251154      -278.9481
  52   2.0000      -1.225510       -33.3478
  53   2.0000      -1.217568       -33.1317
  54   2.0000      -1.141330       -31.0572
  55   2.0000      -1.130531       -30.7633
  56   2.0000      -1.127093       -30.6698
  57   2.0000      -1.124167       -30.5901
  58   2.0000      -1.089431       -29.6449
  59   2.0000      -1.082040       -29.4438
  60   2.0000      -1.070379       -29.1265
  61   2.0000      -1.058005       -28.7898
  62   2.0000      -1.045742       -28.4561
  63   2.0000      -1.031840       -28.0778
  64   2.0000      -1.012206       -27.5435
  65   2.0000      -1.007038       -27.4029
  66   2.0000      -0.954877       -25.9835
  67   2.0000      -0.941801       -25.6277
  68   2.0000      -0.931167       -25.3383
  69   2.0000      -0.928294       -25.2602
  70   2.0000      -0.912712       -24.8361
  71   2.0000      -0.900989       -24.5172
  72   2.0000      -0.894019       -24.3275
  73   2.0000      -0.881718       -23.9928
  74   2.0000      -0.868148       -23.6235
  75   2.0000      -0.865815       -23.5600
  76   2.0000      -0.848219       -23.0812
  77   2.0000      -0.826648       -22.4942
  78   2.0000      -0.819842       -22.3090
  79   2.0000      -0.813346       -22.1323
  80   2.0000      -0.794570       -21.6214
  81   2.0000      -0.794067       -21.6077
  82   2.0000      -0.766838       -20.8667
  83   2.0000      -0.764073       -20.7915
  84   2.0000      -0.759682       -20.6720
  85   2.0000      -0.758644       -20.6437
  86   2.0000      -0.744042       -20.2464
  87   2.0000      -0.736817       -20.0498
  88   2.0000      -0.730453       -19.8766
  89   2.0000      -0.724751       -19.7215
  90   2.0000      -0.715096       -19.4587
  91   2.0000      -0.707964       -19.2647
  92   2.0000      -0.697534       -18.9809
  93   2.0000      -0.693181       -18.8624
  94   2.0000      -0.688704       -18.7406
  95   2.0000      -0.668576       -18.1929
  96   2.0000      -0.662159       -18.0183
  97   2.0000      -0.657453       -17.8902
  98   2.0000      -0.643650       -17.5146
  99   2.0000      -0.640157       -17.4196
 100   2.0000      -0.632382       -17.2080
 101   2.0000      -0.623863       -16.9762
 102   2.0000      -0.609530       -16.5862
 103   2.0000      -0.601527       -16.3684
 104   2.0000      -0.596360       -16.2278
 105   2.0000      -0.594893       -16.1879
 106   2.0000      -0.593581       -16.1522
 107   2.0000      -0.590587       -16.0707
 108   2.0000      -0.588237       -16.0068
 109   2.0000      -0.586651       -15.9636
 110   2.0000      -0.579542       -15.7701
 111   2.0000      -0.575550       -15.6615
 112   2.0000      -0.574428       -15.6310
 113   2.0000      -0.570593       -15.5266
 114   2.0000      -0.559483       -15.2243
 115   2.0000      -0.555057       -15.1039
 116   2.0000      -0.546455       -14.8698
 117   2.0000      -0.541593       -14.7375
 118   2.0000      -0.538545       -14.6546
 119   2.0000      -0.535123       -14.5614
 120   2.0000      -0.530953       -14.4480
 121   2.0000      -0.528699       -14.3866
 122   2.0000      -0.525563       -14.3013
 123   2.0000      -0.523957       -14.2576
 124   2.0000      -0.520637       -14.1673
 125   2.0000      -0.519752       -14.1432
 126   2.0000      -0.518746       -14.1158
 127   2.0000      -0.515783       -14.0352
 128   2.0000      -0.514655       -14.0045
 129   2.0000      -0.512999       -13.9594
 130   2.0000      -0.506103       -13.7718
 131   2.0000      -0.504251       -13.7214
 132   2.0000      -0.500865       -13.6292
 133   2.0000      -0.494766       -13.4633
 134   2.0000      -0.492079       -13.3902
 135   2.0000      -0.488696       -13.2981
 136   2.0000      -0.483600       -13.1594
 137   2.0000      -0.479222       -13.0403
 138   2.0000      -0.475103       -12.9282
 139   2.0000      -0.473732       -12.8909
 140   2.0000      -0.470990       -12.8163
 141   2.0000      -0.466177       -12.6853
 142   2.0000      -0.463435       -12.6107
 143   2.0000      -0.462125       -12.5751
 144   2.0000      -0.458308       -12.4712
 145   2.0000      -0.457912       -12.4604
 146   2.0000      -0.450737       -12.2652
 147   2.0000      -0.445667       -12.1272
 148   2.0000      -0.445155       -12.1133
 149   2.0000      -0.440961       -11.9991
 150   2.0000      -0.438862       -11.9420
 151   2.0000      -0.435421       -11.8484
 152   2.0000      -0.426252       -11.5989
 153   2.0000      -0.421323       -11.4648
 154   2.0000      -0.419966       -11.4279
 155   2.0000      -0.415798       -11.3144
 156   2.0000      -0.410209       -11.1624
 157   2.0000      -0.395495       -10.7620
 158   2.0000      -0.392449       -10.6791
 159   2.0000      -0.390253       -10.6193
 160   2.0000      -0.380599       -10.3566
 161   2.0000      -0.378623       -10.3029
 162   2.0000      -0.365953        -9.9581
 163   2.0000      -0.360450        -9.8083
 164   2.0000      -0.352757        -9.5990
 165   2.0000      -0.350856        -9.5473
 166   2.0000      -0.348801        -9.4913
 167   2.0000      -0.335759        -9.1365
 168   2.0000      -0.333602        -9.0778
 169   2.0000      -0.333503        -9.0751
 170   2.0000      -0.328234        -8.9317
 171   2.0000      -0.327529        -8.9125
 172   2.0000      -0.319308        -8.6888
 173   2.0000      -0.318181        -8.6581
 174   2.0000      -0.309294        -8.4163
 175   2.0000      -0.292592        -7.9618
 176   2.0000      -0.283176        -7.7056
 177   2.0000      -0.247002        -6.7213
 178   0.0000      -0.095920        -2.6101
 179   0.0000      -0.079780        -2.1709
 180   0.0000      -0.049602        -1.3497
 181   0.0000      -0.012231        -0.3328
 182   0.0000      -0.010424        -0.2836

MULLIKEN ATOMIC CHARGES
-----------------------
   0 C :   -0.066044
   1 C :    0.028773
   2 C :   -0.058496
   3 N :   -0.012774
   4 C :    0.027551
   5 C :    0.022273
   6 N :   -0.014961
   7 C :    0.105652
   8 C :   -0.055400
   9 C :    0.025314
  10 N :   -0.014106
  11 C :    0.021471
  12 C :    0.028866
  13 N :   -0.021043
  14 C :   -0.049365
  15 C :    0.049439
  16 C :    0.022286
  17 C :   -0.008065
  18 N :   -0.060087
  19 C :    0.041647
  20 C :    0.059133
  21 C :   -0.014685
  22 C :   -0.010180
  23 C :   -0.000450
  24 N :   -0.049451
  25 C :   -0.003303
  26 C :    0.154301
  27 C :   -0.094311
  28 C :   -0.052734
  29 C :    0.238262
  30 O :   -0.110122
  31 O :   -0.247833
  32 C :    0.071775
  33 O :   -0.251234
  34 C :    0.250072
  35 O :   -0.130432
  36 C :    0.104915
  37 N :   -0.252388
  38 C :    0.113796
  39 C :    0.002542
  40 C :    0.165152
  41 O :   -0.208787
  42 C :   -0.082452
  43 C :   -0.040623
  44 C :    0.155548
  45 O :   -0.159824
  46 N :   -0.261453
  47 C :    0.093856
  48 C :    0.000554
  49 C :    0.125593
  50 C :   -0.039307
  51 C :    0.024299
  52 H :   -0.033532
  53 H :    0.018015
  54 H :    0.017384
  55 H :    0.018187
  56 H :    0.017723
  57 H :   -0.009423
  58 H :   -0.002124
  59 H :   -0.005997
  60 H :    0.015776
  61 H :    0.018498
  62 H :    0.007791
  63 H :    0.026879
  64 H :    0.038610
  65 H :    0.024970
  66 H :    0.020874
  67 H :    0.022484
  68 H :    0.047663
  69 H :    0.026252
  70 H :    0.042939
  71 H :    0.024495
  72 H :    0.015173
  73 H :   -0.014999
  74 H :    0.063336
  75 H :    0.035865
Sum of atomic charges:   -0.0000000

LOEWDIN ATOMIC CHARGES
----------------------
   0 C :    0.001341
   1 C :   -0.012846
   2 C :   -0.009265
   3 N :   -0.028384
   4 C :    0.009513
   5 C :    0.008502
   6 N :   -0.034485
   7 C :   -0.006160
   8 C :   -0.009466
   9 C :   -0.013223
  10 N :   -0.032919
  11 C :    0.008019
  12 C :    0.008750
  13 N :   -0.032627
  14 C :   -0.036248
  15 C :    0.033920
  16 C :   -0.052512
  17 C :    0.025196
  18 N :   -0.069419
  19 C :    0.042089
  20 C :   -0.035165
  21 C :    0.035275
  22 C :   -0.072898
  23 C :    0.048897
  24 N :   -0.060455
  25 C :    0.040188
  26 C :    0.123671
  27 C :   -0.135089
  28 C :   -0.097858
  29 C :    0.106494
  30 O :   -0.107599
  31 O :   -0.043404
  32 C :    0.078942
  33 O :   -0.044896
  34 C :    0.106796
  35 O :   -0.132408
  36 C :    0.034274
  37 N :    0.004955
  38 C :    0.037617
  39 C :   -0.061030
  40 C :    0.078390
  41 O :   -0.203382
  42 C :   -0.132044
  43 C :   -0.080950
  44 C :    0.085410
  45 O :   -0.150950
  46 N :    0.004559
  47 C :    0.036695
  48 C :   -0.060374
  49 C :    0.100098
  50 C :   -0.056140
  51 C :    0.041702
  52 H :    0.043150
  53 H :    0.028592
  54 H :    0.028043
  55 H :    0.028419
  56 H :    0.027806
  57 H :    0.029241
  58 H :    0.020733
  59 H :    0.019070
  60 H :    0.039356
  61 H :    0.027682
  62 H :    0.025658
  63 H :    0.025343
  64 H :    0.034585
  65 H :    0.022663
  66 H :    0.030662
  67 H :    0.027763
  68 H :    0.039074
  69 H :    0.023506
  70 H :    0.037256
  71 H :    0.031017
  72 H :    0.022116
  73 H :    0.031395
  74 H :    0.035353
  75 H :    0.032419

  Mayer bond orders larger than 0.100000
B(  0-C ,  1-C ) :   1.2436 B(  0-C ,  7-C ) :   0.1435 B(  0-C ,  9-C ) :   1.2437
B(  0-C , 52-H ) :   1.0602 B(  1-C ,  2-C ) :   1.1665 B(  1-C ,  6-N ) :   1.3670
B(  2-C ,  3-N ) :   1.4322 B(  2-C ,  7-C ) :   1.3192 B(  3-N ,  4-C ) :   1.7109
B(  4-C ,  5-C ) :   1.1677 B(  4-C , 53-H ) :   0.9736 B(  5-C ,  6-N ) :   1.7318
B(  5-C , 54-H ) :   0.9733 B(  7-C ,  8-C ) :   1.3237 B(  7-C , 14-C ) :   0.9575
B(  8-C ,  9-C ) :   1.1713 B(  8-C , 13-N ) :   1.4258 B(  9-C , 10-N ) :   1.3685
B( 10-N , 11-C ) :   1.7295 B( 11-C , 12-C ) :   1.1714 B( 11-C , 55-H ) :   0.9735
B( 12-C , 13-N ) :   1.7046 B( 12-C , 56-H ) :   0.9724 B( 14-C , 15-C ) :   1.4020
B( 14-C , 19-C ) :   1.3545 B( 15-C , 16-C ) :   1.4006 B( 15-C , 57-H ) :   0.9784
B( 16-C , 17-C ) :   1.3605 B( 16-C , 20-C ) :   0.9378 B( 17-C , 18-N ) :   1.5588
B( 17-C , 58-H ) :   0.9857 B( 18-N , 19-C ) :   1.5631 B( 19-C , 59-H ) :   0.9796
B( 20-C , 21-C ) :   1.3827 B( 20-C , 25-C ) :   1.3527 B( 21-C , 22-C ) :   1.3215
B( 21-C , 60-H ) :   0.9996 B( 22-C , 23-C ) :   1.3232 B( 22-C , 26-C ) :   1.0779
B( 23-C , 24-N ) :   1.5687 B( 23-C , 61-H ) :   0.9711 B( 24-N , 25-C ) :   1.5473
B( 25-C , 62-H ) :   0.9837 B( 26-C , 27-C ) :   1.4120 B( 26-C , 31-O ) :   1.1861
B( 27-C , 28-C ) :   1.1336 B( 27-C , 34-C ) :   0.9521 B( 28-C , 29-C ) :   0.9544
B( 28-C , 32-C ) :   1.4617 B( 29-C , 30-O ) :   2.2339 B( 29-C , 31-O ) :   0.9776
B( 32-C , 33-O ) :   1.1230 B( 32-C , 36-C ) :   1.0982 B( 33-O , 34-C ) :   1.0110
B( 34-C , 35-O ) :   2.1915 B( 36-C , 37-N ) :   1.1817 B( 36-C , 43-C ) :   1.4007
B( 37-N , 38-C ) :   0.9368 B( 37-N , 40-C ) :   1.0543 B( 38-C , 39-C ) :   1.1226
B( 38-C , 63-H ) :   0.9484 B( 38-C , 64-H ) :   0.9310 B( 39-C , 65-H ) :   0.9654
B( 39-C , 66-H ) :   0.9675 B( 39-C , 67-H ) :   0.9663 B( 40-C , 41-O ) :   2.0465
B( 40-C , 42-C ) :   0.9861 B( 42-C , 43-C ) :   1.2535 B( 42-C , 49-C ) :   1.3226
B( 43-C , 44-C ) :   0.9626 B( 44-C , 45-O ) :   2.1377 B( 44-C , 46-N ) :   1.0082
B( 46-N , 47-C ) :   0.9417 B( 46-N , 49-C ) :   1.2090 B( 47-C , 48-C ) :   1.1196
B( 47-C , 68-H ) :   0.9274 B( 47-C , 69-H ) :   0.9509 B( 48-C , 70-H ) :   0.9638
B( 48-C , 71-H ) :   0.9682 B( 48-C , 72-H ) :   0.9684 B( 49-C , 50-C ) :   1.1287
B( 50-C , 51-C ) :   1.8805 B( 50-C , 73-H ) :   0.9551 B( 51-C , 74-H ) :   0.9245
B( 51-C , 75-H ) :   0.9448

-----------------------------------------------------------------------------
         ABSORPTION SPECTRUM VIA TRANSITION ELECTRIC DIPOLE MOMENTS
-----------------------------------------------------------------------------
State   Energy  Wavelength   fosc         T2         TX        TY        TZ
        (cm-1)    (nm)                  (au**2)     (au)      (au)      (au)
-----------------------------------------------------------------------------
   0   16403.9    609.6   0.563180716  11.30251  -1.21475  -0.93407  -2.99239
   1   24520.9    407.8   0.214827221   2.88422  -0.16302   0.13333   1.68519
   2   25661.2    389.7   0.181422810   2.32750  -0.00411   0.67696   1.36719
   3   26676.8    374.9   0.108730273   1.34181  -0.51072  -0.31710   0.99016
   4   26795.6    373.2   0.288568070   3.54535   0.97798   0.54000  -1.51569
   5   26974.2    370.7   0.025363155   0.30955   0.31234   0.17280  -0.42677
   6   27669.5    361.4   0.033712786   0.40111   0.11448   0.32417   0.53190
   7   27930.2    358.0   0.002088860   0.02462   0.08736  -0.06081  -0.11529
   8   28253.1    353.9   0.006846027   0.07977   0.07189   0.18589   0.20012
   9   29238.9    342.0   0.016731207   0.18838   0.33583   0.12289  -0.24596
  10   30962.0    323.0   0.003104953   0.03301  -0.15151   0.04923   0.08737
  11   31319.8    319.3   0.000742416   0.00780  -0.00614   0.00735   0.08782
  12   32263.1    310.0   0.004763130   0.04860   0.10927   0.16420   0.09849
  13   32493.0    307.8   0.003297573   0.03341   0.14323   0.11321   0.00892
  14   32621.1    306.6   0.003177338   0.03207   0.16690  -0.04911   0.04240
  15   33921.5    294.8   0.000963871   0.00935   0.09512   0.00804   0.01558
  16   33939.1    294.6   0.013500851   0.13096  -0.30001  -0.06571   0.19140
  17   36144.3    276.7   0.070570271   0.64277  -0.80028  -0.03115  -0.03684
  18   36164.9    276.5   0.037956437   0.34552   0.57703  -0.10819  -0.02919
  19   36615.0    273.1   0.004653391   0.04184   0.06170  -0.00501   0.19496
  20   37258.0    268.4   0.004157718   0.03674   0.14468   0.05208  -0.11442
  21   37635.0    265.7   0.016716342   0.14623  -0.27596   0.00416   0.26468
  22   37788.7    264.6   0.000350222   0.00305  -0.04442  -0.02476   0.02155
  23   38614.7    259.0   0.052993512   0.45180   0.66139   0.04973  -0.10906
  24   38858.1    257.3   0.008294566   0.07027   0.13710   0.14495  -0.17454
  25   39229.9    254.9   0.005825735   0.04889   0.17525   0.09076   0.09969
  26   39429.9    253.6   0.019172655   0.16008  -0.30158   0.03736   0.26025
  27   40163.5    249.0   0.020846348   0.17087   0.17858   0.08648  -0.36263

FINAL SINGLE POINT ENERGY     -2348.970270106573

DIPOLE MOMENT
-------------
                                X             Y             Z
Electronic contribution:      8.39956       5.75989      36.13584
Nuclear contribution   :     -9.62726      -5.69299     -35.94296
                        -----------------------------------------
Total Dipole Moment    :     -1.22770       0.06690       0.19288
                        -----------------------------------------
Magnitude (a.u.)       :      1.24456
Magnitude (Debye)      :      3.16342

Rotational constants in cm-1:     0.004405     0.000571     0.000520
Rotational constants in MHz :   132.066700    17.115055    15.593163

                             ****ORCA TERMINATED NORMALLY****
TOTAL RUN TIME: 0 days 0 hours 5 minutes 27 seconds 86 msec
